      -----------------------------------------------------------      
     |                   =====================                   |     
     |                           x T B                           |     
     |                   =====================                   |     
     |                         S. Grimme                         |     
     |          Mulliken Center for Theoretical Chemistry        |     
     |                    University of Bonn                     |     
      -----------------------------------------------------------      

   * xtb version 6.4.1 (bd6e46d) compiled by 'conda@4901f00b25ba' on 2021-06-10

   xtb is free software: you can redistribute it and/or modify it under
   the terms of the GNU Lesser General Public License as published by
   the Free Software Foundation, either version 3 of the License, or
   (at your option) any later version.
   
   xtb is distributed in the hope that it will be useful,
   but WITHOUT ANY WARRANTY; without even the implied warranty of
   MERCHANTABILITY or FITNESS FOR A PARTICULAR PURPOSE.  See the
   GNU Lesser General Public License for more details.
   
   Cite this work as:
   * C. Bannwarth, E. Caldeweyher, S. Ehlert, A. Hansen, P. Pracht,
     J. Seibert, S. Spicher, S. Grimme, WIREs Comput. Mol. Sci., 2020, 11,
     e01493. DOI: 10.1002/wcms.1493
   
   for GFN2-xTB:
   * C. Bannwarth, S. Ehlert and S. Grimme., J. Chem. Theory Comput., 2019,
     15, 1652-1671. DOI: 10.1021/acs.jctc.8b01176
   for GFN1-xTB:
   * S. Grimme, C. Bannwarth, P. Shushkov, J. Chem. Theory Comput., 2017,
     13, 1989-2009. DOI: 10.1021/acs.jctc.7b00118
   for GFN0-xTB:
   * P. Pracht, E. Caldeweyher, S. Ehlert, S. Grimme, ChemRxiv, 2019, preprint.
     DOI: 10.26434/chemrxiv.8326202.v1
   for GFN-FF:
   * S. Spicher and S. Grimme, Angew. Chem. Int. Ed., 2020, 59, 15665-15673.
     DOI: 10.1002/anie.202004239
   
   for DFT-D4:
   * E. Caldeweyher, C. Bannwarth and S. Grimme, J. Chem. Phys., 2017,
     147, 034112. DOI: 10.1063/1.4993215
   * E. Caldeweyher, S. Ehlert, A. Hansen, H. Neugebauer, S. Spicher,
     C. Bannwarth and S. Grimme, J. Chem. Phys., 2019, 150, 154122.
     DOI: 10.1063/1.5090222
   * E. Caldeweyher, J.-M. Mewes, S. Ehlert and S. Grimme, Phys. Chem. Chem. Phys.
     2020, 22, 8499-8512. DOI: 10.1039/D0CP00502A
   
   for sTDA-xTB:
   * S. Grimme and C. Bannwarth, J. Chem. Phys., 2016, 145, 054103.
     DOI: 10.1063/1.4959605
   
   in the mass-spec context:
   * V. Asgeirsson, C. Bauer and S. Grimme, Chem. Sci., 2017, 8, 4879.
     DOI: 10.1039/c7sc00601b
   * J. Koopman and S. Grimme, ACS Omega 2019, 4, 12, 15120-15133.
     DOI: 10.1021/acsomega.9b02011
   
   for metadynamics refer to:
   * S. Grimme, J. Chem. Theory Comput., 2019, 155, 2847-2862
     DOI: 10.1021/acs.jctc.9b00143
   
   for SPH calculations refer to:
   * S. Spicher and S. Grimme, J. Chem. Theory Comput., 2021, 17, 1701-1714
     DOI: 10.1021/acs.jctc.0c01306
   
   with help from (in alphabetical order)
   P. Atkinson, C. Bannwarth, F. Bohle, G. Brandenburg, E. Caldeweyher
   M. Checinski, S. Dohm, S. Ehlert, S. Ehrlich, I. Gerasimov, J. Koopman
   C. Lavigne, S. Lehtola, F. März, M. Müller, F. Musil, H. Neugebauer
   J. Pisarek, C. Plett, P. Pracht, J. Seibert, P. Shushkov, S. Spicher
   M. Stahn, M. Steiner, T. Strunk, J. Stückrath, T. Rose, and J. Unsleber
   
 * started run on 2021/11/19 at 13:40:27.088     

           -------------------------------------------------
          |                Calculation Setup                |
           -------------------------------------------------

          program call               : /home/jeff/miniconda3/bin/xtb input_structure_1.xyz --gfn 2 --ohess normal --parallel 1 --etemp 300 --chrg 0 --uhf 0 -I det_control.in
          hostname                   : jelfscompute1
          coordinate file            : input_structure_1.xyz
          omp threads                :                     1
          number of atoms            :                   154
          number of electrons        :                   534
          charge                     :                     0
          spin                       :                   0.0
          first test random number   :      0.72682195721058

   ID    Z sym.   atoms
    1   29 Cu     1, 37, 85, 120
    2    6 C      2-9, 11-15, 17-21, 23, 24, 38-45, 47-51, 53-57, 59, 60,
                  73-84, 86-93, 95-99, 101-105, 107, 108, 121-128, 130-134,
                  136-140, 142, 143
    3    7 N      10, 16, 22, 25, 46, 52, 58, 61, 94, 100, 106, 109, 129,
                  135, 141, 144
    4    1 H      26-36, 62-72, 110-119, 145-154

molecular fragmentation (1/2 indicates fragments):
111111111111111111111111111111111111222222222222222222222222222222222222
222222222222222222222222222222222222222222222222222222222222222222222222
2222222222
# atoms in fragment 1/2:    36   118
 fragment masses (1/2) :      370.87     1254.74
CMA distance (Bohr)    :  52.951
constraining FC (au)   :  0.0500

           -------------------------------------------------
          |                 G F N 2 - x T B                 |
           -------------------------------------------------

        Reference                      10.1021/acs.jctc.8b01176
      * Hamiltonian:
        H0-scaling (s, p, d)           1.850000    2.230000    2.230000
        zeta-weighting                 0.500000
      * Dispersion:
        s8                             2.700000
        a1                             0.520000
        a2                             5.000000
        s9                             5.000000
      * Repulsion:
        kExp                           1.500000    1.000000
        rExp                           1.000000
      * Coulomb:
        alpha                          2.000000
        third order                    shell-resolved
        anisotropic                    true
        a3                             3.000000
        a5                             4.000000
        cn-shift                       1.200000
        cn-exp                         4.000000
        max-rad                        5.000000


          ...................................................
          :                      SETUP                      :
          :.................................................:
          :  # basis functions                 514          :
          :  # atomic orbitals                 510          :
          :  # shells                          270          :
          :  # electrons                       534          :
          :  max. iterations                   250          :
          :  Hamiltonian                  GFN2-xTB          :
          :  restarted?                      false          :
          :  GBSA solvation                  false          :
          :  PC potential                    false          :
          :  electronic temp.          300.0000000     K    :
          :  accuracy                    1.0000000          :
          :  -> integral cutoff          0.2500000E+02      :
          :  -> integral neglect         0.1000000E-07      :
          :  -> SCF convergence          0.1000000E-05 Eh   :
          :  -> wf. convergence          0.1000000E-03 e    :
          :  Broyden damping             0.4000000          :
          ...................................................

 iter      E             dE          RMSdq      gap      omega  full diag
   1   -284.2807921 -0.284281E+03  0.598E+00    0.07       0.0  T
   2   -272.4011633  0.118796E+02  0.527E+00    0.00       1.0  T
   3   -207.2666609  0.651345E+02  0.121E+01    0.03       1.0  T
   4   -217.9859657 -0.107193E+02  0.123E+01    0.03       1.0  T
   5   -270.6206251 -0.526347E+02  0.547E+00    0.06       1.0  T
   6   -274.4730116 -0.385239E+01  0.423E+00    0.02       1.0  T
   7   -275.8215005 -0.134849E+01  0.344E+00    0.04       1.0  T
   8   -263.8267509  0.119947E+02  0.548E+00    0.04       1.0  T
   9   -282.9967900 -0.191700E+02  0.220E+00    0.17       1.0  T
  10   -282.0757871  0.921003E+00  0.256E+00    0.05       1.0  T
  11   -283.6953720 -0.161958E+01  0.155E+00    0.01       1.0  T
  12   -283.6807448  0.146272E-01  0.169E+00    0.17       1.0  T
  13   -284.0960392 -0.415294E+00  0.126E+00    0.06       1.0  T
  14   -283.8446236  0.251416E+00  0.141E+00    0.15       1.0  T
  15   -284.1126986 -0.268075E+00  0.122E+00    0.09       1.0  T
  16   -284.3155129 -0.202814E+00  0.101E+00    0.03       1.0  T
  17   -284.3272670 -0.117540E-01  0.907E-01    0.03       1.0  T
  18   -284.4358087 -0.108542E+00  0.729E-01    0.03       1.0  T
  19   -284.4014611  0.343475E-01  0.707E-01    0.04       1.0  T
  20   -284.5415613 -0.140100E+00  0.519E-01    0.01       1.0  T
  21   -284.5746100 -0.330486E-01  0.421E-01    0.01       1.0  T
  22   -284.5999840 -0.253740E-01  0.412E-01    0.02       1.0  T
  23   -284.5193776  0.806064E-01  0.479E-01    0.06       1.0  T
  24   -284.6277667 -0.108389E+00  0.301E-01    0.02       1.0  T
  25   -284.6257324  0.203437E-02  0.301E-01    0.02       1.0  T
  26   -284.5882420  0.374904E-01  0.362E-01    0.05       1.0  T
  27   -284.6341339 -0.458919E-01  0.225E-01    0.02       1.0  T
  28   -284.6480802 -0.139462E-01  0.181E-01    0.01       1.0  T
  29   -284.6432499  0.483026E-02  0.187E-01    0.01       1.0  T
  30   -284.6489024 -0.565246E-02  0.156E-01    0.01       1.0  T
  31   -284.6527044 -0.380207E-02  0.131E-01    0.01       1.0  T
  32   -284.6574828 -0.477836E-02  0.112E-01    0.00       1.0  T
  33   -284.6578073 -0.324508E-03  0.108E-01    0.01       1.0  T
  34   -284.6563057  0.150160E-02  0.119E-01    0.01       1.0  T
  35   -284.6583729 -0.206716E-02  0.107E-01    0.01       1.0  T
  36   -284.6559340  0.243885E-02  0.118E-01    0.00       1.0  T
  37   -284.6565710 -0.636946E-03  0.110E-01    0.00       1.0  T
  38   -284.6578012 -0.123028E-02  0.983E-02    0.00       1.0  T
  39   -284.6582394 -0.438137E-03  0.867E-02    0.01       1.0  T
  40   -284.6578399  0.399453E-03  0.869E-02    0.01       1.0  T
  41   -284.6597786 -0.193864E-02  0.653E-02    0.00       1.0  T
  42   -284.6598515 -0.729332E-04  0.635E-02    0.00       1.0  T
  43   -284.6603217 -0.470209E-03  0.472E-02    0.00       1.0  T
  44   -284.6603839 -0.621484E-04  0.420E-02    0.00       1.0  T
  45   -284.6604844 -0.100532E-03  0.349E-02    0.00       1.0  T
  46   -284.6605927 -0.108334E-03  0.258E-02    0.00       1.0  T
  47   -284.6605725  0.201846E-04  0.229E-02    0.00       1.0  T
  48   -284.6606456 -0.730322E-04  0.161E-02    0.00       1.0  T
  49   -284.6606497 -0.409368E-05  0.133E-02    0.00       1.0  T
  50   -284.6606769 -0.272015E-04  0.979E-03    0.00       1.0  T
  51   -284.6606697  0.719772E-05  0.921E-03    0.00       1.0  T
  52   -284.6606950 -0.253607E-04  0.453E-03    0.00       1.8  T
  53   -284.6606983 -0.331590E-05  0.141E-03    0.00       5.7  T
  54   -284.6606958  0.258817E-05  0.226E-03    0.00       3.6  T
  55   -284.6606978 -0.201856E-05  0.152E-03    0.00       5.3  T
  56   -284.6606983 -0.498709E-06  0.109E-03    0.00       7.4  T
  57   -284.6606987 -0.436464E-06  0.553E-04    0.00      14.6  T
  58   -284.6606988 -0.719637E-07  0.441E-04    0.00      18.3  T

   *** convergence criteria satisfied after 58 iterations ***

         #    Occupation            Energy/Eh            Energy/eV
      -------------------------------------------------------------
         1        2.0000           -0.6858019             -18.6616
       ...           ...                  ...                  ...
       261        2.0000           -0.3598618              -9.7923
       262        2.0000           -0.3591106              -9.7719
       263        2.0000           -0.3579461              -9.7402
       264        2.0000           -0.3565543              -9.7023
       265        2.0000           -0.3560665              -9.6891
       266        1.4041           -0.3375235              -9.1845
       267        1.3118           -0.3373222              -9.1790 (HOMO)
       268        1.2593           -0.3372135              -9.1760 (LUMO)
       269        0.0124           -0.3318888              -9.0312
       270        0.0067           -0.3313016              -9.0152
       271        0.0057           -0.3311433              -9.0109
       272                         -0.3179148              -8.6509
       ...                                ...                  ...
       510                          1.6125357              43.8793
      -------------------------------------------------------------
                  HL-Gap            0.0001088 Eh            0.0030 eV
             Fermi-level           -0.3367093 Eh           -9.1623 eV

 SCC (total)                   0 d,  0 h,  0 min,  3.930 sec
 SCC setup                      ...        0 min,  0.004 sec (  0.112%)
 Dispersion                     ...        0 min,  0.011 sec (  0.268%)
 classical contributions        ...        0 min,  0.001 sec (  0.029%)
 integral evaluation            ...        0 min,  0.082 sec (  2.078%)
 iterations                     ...        0 min,  3.596 sec ( 91.493%)
 molecular gradient             ...        0 min,  0.229 sec (  5.831%)
 printout                       ...        0 min,  0.007 sec (  0.188%)

         :::::::::::::::::::::::::::::::::::::::::::::::::::::
         ::                     SUMMARY                     ::
         :::::::::::::::::::::::::::::::::::::::::::::::::::::
         :: total energy            -279.591744768993 Eh    ::
         :: gradient norm              0.743542177279 Eh/a0 ::
         :: HOMO-LUMO gap              0.002959915143 eV    ::
         ::.................................................::
         :: SCC energy              -284.660698777339 Eh    ::
         :: -> isotropic ES            0.152934006800 Eh    ::
         :: -> anisotropic ES          0.038026852103 Eh    ::
         :: -> anisotropic XC          0.148618557010 Eh    ::
         :: -> dispersion             -0.238113980163 Eh    ::
         :: repulsion energy           5.068675987217 Eh    ::
         :: add. restraining           0.000000000000 Eh    ::
         :: total charge               0.000000000864 e     ::
         :::::::::::::::::::::::::::::::::::::::::::::::::::::

      ----------------------------------------------------------- 
     |                   =====================                   |
     |                        A N C O P T                        |
     |                   =====================                   |
     |               Approximate Normal Coordinate               |
     |                Rational Function Optimizer                |
      ----------------------------------------------------------- 

          ...................................................
          :                      SETUP                      :
          :.................................................:
          :   optimization level            normal          :
          :   max. optcycles                   462          :
          :   ANC micro-cycles                  20          :
          :   degrees of freedom               456          :
          :.................................................:
          :   RF solver                   davidson          :
          :   write xtbopt.log                true          :
          :   linear?                        false          :
          :   energy convergence         0.5000000E-05 Eh   :
          :   grad. convergence          0.1000000E-02 Eh/α :
          :   maximium RF displ.         1.0000000          :
          :   Hlow (freq-cutoff)         0.1000000E-01      :
          :   Hmax (freq-cutoff)         5.0000000          :
          :   S6 in model hess.         20.0000000          :
          ...................................................

generating ANC from model Hessian ...
Using Lindh-Hessian (1995)
 Shifting diagonal of input Hessian by    1.0124424357260908E-002
 Lowest  eigenvalues of input Hessian
    0.010000    0.010039    0.010094    0.010097    0.010101    0.010107
    0.010107    0.010112    0.010115    0.010117    0.010120    0.000000
    0.000000    0.000000    0.000000    0.000000    0.000000    0.010135
 Highest eigenvalues
    2.239936    2.250060    2.576437    2.785520    2.844620    2.909723


........................................................................
.............................. CYCLE    1 ..............................
........................................................................
   1   -284.6606988 -0.284661E+03  0.237E-04    0.00       0.0  T
   2   -284.6606753  0.235228E-04  0.518E-03    0.00       1.6  T
   3   -284.6606965 -0.212071E-04  0.162E-03    0.00       5.0  T
   4   -284.6606982 -0.175267E-05  0.859E-04    0.00       9.4  T
   5   -284.6606984 -0.169178E-06  0.739E-04    0.00      10.9  T
   6   -284.6606985 -0.128162E-06  0.596E-04    0.00      13.5  T
     SCC iter.                  ...        0 min,  0.375 sec
     gradient                   ...        0 min,  0.227 sec
 * total energy  :  -279.5917445 Eh     change        0.2331639E-06 Eh
   gradient norm :     0.7435428 Eh/α   predicted     0.0000000E+00 (-100.00%)
   displ. norm   :     0.5579402 α      lambda       -0.3267450E+00
   maximum displ.:     0.1530179 α      in ANC's #158, #157, #156, ...

........................................................................
.............................. CYCLE    2 ..............................
........................................................................
   1   -284.6090072 -0.284609E+03  0.510E-01    0.02       0.0  T
   2   -282.9017481  0.170726E+01  0.189E+00    0.08       1.0  T
   3   -284.1352818 -0.123353E+01  0.950E-01    0.04       1.0  T
   4   -283.5642861  0.570996E+00  0.125E+00    0.26       1.0  T
   5   -284.5163254 -0.952039E+00  0.448E-01    0.09       1.0  T
   6   -284.2964149  0.219911E+00  0.695E-01    0.01       1.0  T
   7   -284.4342221 -0.137807E+00  0.623E-01    0.11       1.0  T
   8   -284.4694233 -0.352012E-01  0.482E-01    0.04       1.0  T
   9   -284.3634828  0.105940E+00  0.612E-01    0.13       1.0  T
  10   -284.6042052 -0.240722E+00  0.301E-01    0.03       1.0  T
  11   -284.5906721  0.135331E-01  0.297E-01    0.04       1.0  T
  12   -284.6378103 -0.471382E-01  0.197E-01    0.01       1.0  T
  13   -284.6252784  0.125319E-01  0.192E-01    0.03       1.0  T
  14   -284.6478340 -0.225556E-01  0.116E-01    0.01       1.0  T
  15   -284.6562014 -0.836744E-02  0.626E-02    0.00       1.0  T
  16   -284.6479319  0.826951E-02  0.110E-01    0.01       1.0  T
  17   -284.6533969 -0.546495E-02  0.725E-02    0.01       1.0  T
  18   -284.6566834 -0.328650E-02  0.331E-02    0.01       1.0  T
  19   -284.6569856 -0.302228E-03  0.253E-02    0.00       1.0  T
  20   -284.6573568 -0.371185E-03  0.133E-02    0.01       1.0  T
  21   -284.6570508  0.305969E-03  0.244E-02    0.00       1.0  T
  22   -284.6569722  0.786239E-04  0.233E-02    0.00       1.0  T
  23   -284.6573760 -0.403806E-03  0.756E-03    0.01       1.1  T
  24   -284.6574026 -0.265927E-04  0.496E-03    0.01       1.6  T
  25   -284.6573972  0.535771E-05  0.538E-03    0.01       1.5  T
  26   -284.6574113 -0.141274E-04  0.258E-03    0.01       3.1  T
  27   -284.6574137 -0.235680E-05  0.106E-03    0.01       7.6  T
  28   -284.6574124  0.125113E-05  0.143E-03    0.00       5.6  T
  29   -284.6574139 -0.144118E-05  0.648E-04    0.01      12.4  T
  30   -284.6574139  0.301563E-07  0.573E-04    0.01      14.1  T
  31   -284.6574141 -0.209037E-06  0.322E-04    0.01      25.0  T
     SCC iter.                  ...        0 min,  1.909 sec
     gradient                   ...        0 min,  0.227 sec
 * total energy  :  -279.8481098 Eh     change       -0.2563652E+00 Eh
   gradient norm :     0.4027035 Eh/α   predicted    -0.2142890E+00 ( -16.41%)
   displ. norm   :     0.6414198 α      lambda       -0.2003925E+00
   maximum displ.:     0.2032006 α      in ANC's #158, #157, #156, ...

........................................................................
.............................. CYCLE    3 ..............................
........................................................................
   1   -284.5628904 -0.284563E+03  0.758E-01    0.07       0.0  T
   2   -275.8076697  0.875522E+01  0.376E+00    0.01       1.0  T
   3   -284.4450492 -0.863738E+01  0.110E+00    0.02       1.0  T
   4   -284.4402901  0.475905E-02  0.706E-01    0.09       1.0  T
   5   -283.8097599  0.630530E+00  0.102E+00    0.26       1.0  T
   6   -284.6288927 -0.819133E+00  0.450E-01    0.02       1.0  T
   7   -284.5447947  0.840980E-01  0.567E-01    0.03       1.0  T
   8   -284.5919078 -0.471131E-01  0.447E-01    0.07       1.0  T
   9   -284.4979866  0.939212E-01  0.514E-01    0.10       1.0  T
  10   -284.6427296 -0.144743E+00  0.287E-01    0.03       1.0  T
  11   -284.6047150  0.380147E-01  0.348E-01    0.05       1.0  T
  12   -284.6890630 -0.843481E-01  0.189E-01    0.02       1.0  T
  13   -284.6890231  0.399090E-04  0.160E-01    0.00       1.0  T
  14   -284.7095869 -0.205638E-01  0.817E-02    0.01       1.0  T
  15   -284.7033114  0.627548E-02  0.121E-01    0.02       1.0  T
  16   -284.7116177 -0.830628E-02  0.525E-02    0.01       1.0  T
  17   -284.7106249  0.992740E-03  0.500E-02    0.00       1.0  T
  18   -284.7115902 -0.965216E-03  0.372E-02    0.01       1.0  T
  19   -284.7082871  0.330311E-02  0.638E-02    0.01       1.0  T
  20   -284.7123415 -0.405443E-02  0.122E-02    0.01       1.0  T
  21   -284.7119465  0.394944E-03  0.251E-02    0.01       1.0  T
  22   -284.7119820 -0.354584E-04  0.231E-02    0.01       1.0  T
  23   -284.7122006 -0.218599E-03  0.141E-02    0.01       1.0  T
  24   -284.7121815  0.191174E-04  0.142E-02    0.01       1.0  T
  25   -284.7123691 -0.187647E-03  0.502E-03    0.01       1.6  T
  26   -284.7123832 -0.141023E-04  0.234E-03    0.01       3.4  T
  27   -284.7123769  0.630388E-05  0.313E-03    0.01       2.6  T
  28   -284.7123823 -0.540819E-05  0.197E-03    0.01       4.1  T
  29   -284.7123816  0.698403E-06  0.202E-03    0.01       4.0  T
  30   -284.7123847 -0.302440E-05  0.957E-04    0.01       8.4  T
  31   -284.7123854 -0.763750E-06  0.294E-04    0.01      27.4  T
  32   -284.7123854 -0.118465E-07  0.204E-04    0.01      39.6  T
     SCC iter.                  ...        0 min,  1.974 sec
     gradient                   ...        0 min,  0.226 sec
 * total energy  :  -279.9949373 Eh     change       -0.1468276E+00 Eh
   gradient norm :     0.1603094 Eh/α   predicted    -0.1414189E+00 (  -3.68%)
   displ. norm   :     0.7121962 α      lambda       -0.9423398E-01
   maximum displ.:     0.2326723 α      in ANC's #158, #157, #156, ...

........................................................................
.............................. CYCLE    4 ..............................
........................................................................
   1   -284.5376287 -0.284538E+03  0.907E-01    0.15       0.0  T
   2   -270.5014369  0.140362E+02  0.457E+00    0.44       1.0  T
   3   -284.2062514 -0.137048E+02  0.152E+00    0.01       1.0  T
   4   -284.2066901 -0.438744E-03  0.117E+00    0.04       1.0  T
   5   -284.3450928 -0.138403E+00  0.792E-01    0.05       1.0  T
   6   -284.4628613 -0.117769E+00  0.763E-01    0.13       1.0  T
   7   -283.9458738  0.516988E+00  0.959E-01    0.23       1.0  T
   8   -284.0673049 -0.121431E+00  0.847E-01    0.14       1.0  T
   9   -284.7002475 -0.632943E+00  0.368E-01    0.05       1.0  T
  10   -284.7112922 -0.110447E-01  0.424E-01    0.04       1.0  T
  11   -284.7719446 -0.606525E-01  0.216E-01    0.02       1.0  T
  12   -284.6911275  0.808171E-01  0.336E-01    0.04       1.0  T
  13   -284.7692784 -0.781509E-01  0.188E-01    0.02       1.0  T
  14   -284.7807826 -0.115042E-01  0.165E-01    0.04       1.0  T
  15   -284.7938516 -0.130689E-01  0.751E-02    0.01       1.0  T
  16   -284.7953855 -0.153396E-02  0.497E-02    0.01       1.0  T
  17   -284.7947003  0.685229E-03  0.557E-02    0.01       1.0  T
  18   -284.7934960  0.120433E-02  0.672E-02    0.00       1.0  T
  19   -284.7956923 -0.219636E-02  0.403E-02    0.01       1.0  T
  20   -284.7948972  0.795116E-03  0.427E-02    0.00       1.0  T
  21   -284.7956941 -0.796884E-03  0.328E-02    0.01       1.0  T
  22   -284.7959817 -0.287618E-03  0.219E-02    0.01       1.0  T
  23   -284.7961905 -0.208755E-03  0.866E-03    0.01       1.0  T
  24   -284.7961806  0.981636E-05  0.118E-02    0.01       1.0  T
  25   -284.7961006  0.800223E-04  0.134E-02    0.01       1.0  T
  26   -284.7960696  0.310310E-04  0.137E-02    0.01       1.0  T
  27   -284.7962060 -0.136359E-03  0.631E-03    0.01       1.3  T
  28   -284.7961818  0.241071E-04  0.704E-03    0.01       1.1  T
  29   -284.7962125 -0.306395E-04  0.372E-03    0.01       2.2  T
  30   -284.7962151 -0.258367E-05  0.352E-03    0.01       2.3  T
  31   -284.7962191 -0.399242E-05  0.273E-03    0.01       3.0  T
  32   -284.7962241 -0.500759E-05  0.127E-03    0.01       6.4  T
  33   -284.7962249 -0.855445E-06  0.637E-04    0.01      12.7  T
  34   -284.7962250 -0.341817E-07  0.461E-04    0.01      17.5  T
     SCC iter.                  ...        0 min,  2.098 sec
     gradient                   ...        0 min,  0.228 sec
 * total energy  :  -280.0705709 Eh     change       -0.7563357E-01 Eh
   gradient norm :     0.0932310 Eh/α   predicted    -0.7101593E-01 (  -6.11%)
   displ. norm   :     0.7698827 α      lambda       -0.6334883E-01
   maximum displ.:     0.2267329 α      in ANC's #84, #158, #157, ...

........................................................................
.............................. CYCLE    5 ..............................
........................................................................
   1   -284.6078140 -0.284608E+03  0.908E-01    0.19       0.0  T
   2   -269.9084047  0.146994E+02  0.464E+00    0.41       1.0  T
   3   -284.0275387 -0.141191E+02  0.164E+00    0.03       1.0  T
   4   -283.9003631  0.127176E+00  0.153E+00    0.19       1.0  T
   5   -284.5016786 -0.601316E+00  0.652E-01    0.01       1.0  T
   6   -284.2682700  0.233409E+00  0.804E-01    0.07       1.0  T
   7   -283.9527119  0.315558E+00  0.981E-01    0.46       1.0  T
   8   -284.6054283 -0.652716E+00  0.568E-01    0.00       1.0  T
   9   -284.7047995 -0.993712E-01  0.411E-01    0.00       1.0  T
  10   -284.8264029 -0.121603E+00  0.286E-01    0.02       1.0  T
  11   -284.8055538  0.208492E-01  0.315E-01    0.03       1.0  T
  12   -284.8047974  0.756333E-03  0.284E-01    0.01       1.0  T
  13   -284.8395312 -0.347338E-01  0.210E-01    0.01       1.0  T
  14   -284.8562001 -0.166689E-01  0.174E-01    0.01       1.0  T
  15   -284.8589300 -0.272990E-02  0.148E-01    0.02       1.0  T
  16   -284.8588515  0.785056E-04  0.129E-01    0.02       1.0  T
  17   -284.8684501 -0.959864E-02  0.889E-02    0.01       1.0  T
  18   -284.8197359  0.487143E-01  0.227E-01    0.00       1.0  T
  19   -284.8650922 -0.453563E-01  0.945E-02    0.00       1.0  T
  20   -284.8684219 -0.332974E-02  0.658E-02    0.01       1.0  T
  21   -284.8720050 -0.358303E-02  0.371E-02    0.01       1.0  T
  22   -284.8725869 -0.581902E-03  0.258E-02    0.01       1.0  T
  23   -284.8715248  0.106203E-02  0.387E-02    0.01       1.0  T
  24   -284.8720334 -0.508608E-03  0.289E-02    0.01       1.0  T
  25   -284.8725944 -0.560961E-03  0.148E-02    0.01       1.0  T
  26   -284.8726470 -0.526159E-04  0.116E-02    0.01       1.0  T
  27   -284.8727214 -0.744304E-04  0.706E-03    0.01       1.1  T
  28   -284.8727282 -0.672436E-05  0.476E-03    0.01       1.7  T
  29   -284.8727352 -0.699021E-05  0.358E-03    0.01       2.3  T
  30   -284.8726900  0.451656E-04  0.733E-03    0.01       1.1  T
  31   -284.8727292 -0.392580E-04  0.421E-03    0.01       1.9  T
  32   -284.8727383 -0.902015E-05  0.246E-03    0.01       3.3  T
  33   -284.8727422 -0.388879E-05  0.103E-03    0.01       7.9  T
  34   -284.8727408  0.132876E-05  0.142E-03    0.01       5.7  T
  35   -284.8727415 -0.645540E-06  0.112E-03    0.01       7.2  T
  36   -284.8727421 -0.668234E-06  0.727E-04    0.01      11.1  T
  37   -284.8727426 -0.432109E-06  0.194E-04    0.01      41.6  T
     SCC iter.                  ...        0 min,  2.294 sec
     gradient                   ...        0 min,  0.228 sec
 * total energy  :  -280.1237402 Eh     change       -0.5316930E-01 Eh
   gradient norm :     0.0750759 Eh/α   predicted    -0.5044845E-01 (  -5.12%)
   displ. norm   :     0.7925869 α      lambda       -0.4659216E-01
   maximum displ.:     0.2646845 α      in ANC's #84, #82, #81, ...

........................................................................
.............................. CYCLE    6 ..............................
........................................................................
   1   -284.7123234 -0.284712E+03  0.832E-01    0.20       0.0  T
   2   -269.9172878  0.147950E+02  0.464E+00    0.34       1.0  T
   3   -283.7694825 -0.138522E+02  0.174E+00    0.13       1.0  T
   4   -283.9250556 -0.155573E+00  0.154E+00    0.23       1.0  T
   5   -284.8062882 -0.881233E+00  0.443E-01    0.02       1.0  T
   6   -284.2290087  0.577279E+00  0.879E-01    0.09       1.0  T
   7   -283.9973194  0.231689E+00  0.994E-01    0.50       1.0  T
   8   -284.6759464 -0.678627E+00  0.560E-01    0.00       1.0  T
   9   -284.8519990 -0.176053E+00  0.438E-01    0.09       1.0  T
  10   -284.9121687 -0.601697E-01  0.231E-01    0.00       1.0  T
  11   -284.9141818 -0.201310E-02  0.242E-01    0.01       1.0  T
  12   -284.9043357  0.984607E-02  0.237E-01    0.01       1.0  T
  13   -284.9091505 -0.481478E-02  0.222E-01    0.05       1.0  T
  14   -284.9252973 -0.161468E-01  0.169E-01    0.05       1.0  T
  15   -284.9272563 -0.195899E-02  0.160E-01    0.04       1.0  T
  16   -284.9064149  0.208414E-01  0.197E-01    0.04       1.0  T
  17   -284.9114918 -0.507695E-02  0.198E-01    0.00       1.0  T
  18   -284.9228103 -0.113184E-01  0.152E-01    0.01       1.0  T
  19   -284.9378336 -0.150234E-01  0.714E-02    0.02       1.0  T
  20   -284.9399592 -0.212558E-02  0.457E-02    0.01       1.0  T
  21   -284.9398555  0.103698E-03  0.454E-02    0.02       1.0  T
  22   -284.9402348 -0.379292E-03  0.424E-02    0.01       1.0  T
  23   -284.9411133 -0.878520E-03  0.302E-02    0.01       1.0  T
  24   -284.9406354  0.477956E-03  0.347E-02    0.01       1.0  T
  25   -284.9412104 -0.574984E-03  0.208E-02    0.01       1.0  T
  26   -284.9413018 -0.914795E-04  0.169E-02    0.01       1.0  T
  27   -284.9414172 -0.115320E-03  0.904E-03    0.01       1.0  T
  28   -284.9414449 -0.277112E-04  0.679E-03    0.01       1.2  T
  29   -284.9414735 -0.286135E-04  0.328E-03    0.02       2.5  T
  30   -284.9414804 -0.690173E-05  0.120E-03    0.02       6.7  T
  31   -284.9414813 -0.940904E-06  0.951E-04    0.02       8.5  T
  32   -284.9414815 -0.168283E-06  0.558E-04    0.02      14.4  T
     SCC iter.                  ...        0 min,  1.974 sec
     gradient                   ...        0 min,  0.227 sec
 * total energy  :  -280.1632065 Eh     change       -0.3946630E-01 Eh
   gradient norm :     0.0579202 Eh/α   predicted    -0.3793053E-01 (  -3.89%)
   displ. norm   :     0.7892107 α      lambda       -0.3371098E-01
   maximum displ.:     0.2727733 α      in ANC's #84, #25, #82, ...

........................................................................
.............................. CYCLE    7 ..............................
........................................................................
   1   -284.8182723 -0.284818E+03  0.725E-01    0.18       0.0  T
   2   -270.3143151  0.145040E+02  0.459E+00    0.25       1.0  T
   3   -283.7067738 -0.133925E+02  0.175E+00    0.23       1.0  T
   4   -284.1040122 -0.397238E+00  0.140E+00    0.15       1.0  T
   5   -284.7764411 -0.672429E+00  0.545E-01    0.01       1.0  T
   6   -284.8539785 -0.775375E-01  0.462E-01    0.06       1.0  T
   7   -284.0183447  0.835634E+00  0.102E+00    0.33       1.0  T
   8   -284.8379154 -0.819571E+00  0.477E-01    0.04       1.0  T
   9   -284.9223188 -0.844034E-01  0.381E-01    0.05       1.0  T
  10   -284.9450208 -0.227020E-01  0.305E-01    0.07       1.0  T
  11   -284.9836173 -0.385965E-01  0.194E-01    0.03       1.0  T
  12   -284.9795519  0.406540E-02  0.183E-01    0.03       1.0  T
  13   -284.9786899  0.862012E-03  0.185E-01    0.02       1.0  T
  14   -284.9864026 -0.771271E-02  0.149E-01    0.03       1.0  T
  15   -284.9914748 -0.507220E-02  0.105E-01    0.03       1.0  T
  16   -284.9869561  0.451869E-02  0.129E-01    0.00       1.0  T
  17   -284.9957105 -0.875439E-02  0.659E-02    0.01       1.0  T
  18   -284.9977934 -0.208290E-02  0.558E-02    0.02       1.0  T
  19   -284.9981801 -0.386736E-03  0.401E-02    0.02       1.0  T
  20   -284.9978430  0.337152E-03  0.372E-02    0.02       1.0  T
  21   -284.9981515 -0.308477E-03  0.296E-02    0.02       1.0  T
  22   -284.9981026  0.488639E-04  0.264E-02    0.02       1.0  T
  23   -284.9981838 -0.812116E-04  0.245E-02    0.02       1.0  T
  24   -284.9983491 -0.165269E-03  0.166E-02    0.02       1.0  T
  25   -284.9985137 -0.164576E-03  0.839E-03    0.02       1.0  T
  26   -284.9985424 -0.287050E-04  0.508E-03    0.02       1.6  T
  27   -284.9985521 -0.975085E-05  0.255E-03    0.02       3.2  T
  28   -284.9985542 -0.211212E-05  0.163E-03    0.02       4.9  T
  29   -284.9985532  0.100876E-05  0.182E-03    0.02       4.4  T
  30   -284.9985548 -0.155229E-05  0.113E-03    0.02       7.1  T
  31   -284.9985551 -0.314768E-06  0.666E-04    0.02      12.1  T
  32   -284.9985552 -0.769908E-07  0.452E-04    0.02      17.8  T
     SCC iter.                  ...        0 min,  1.967 sec
     gradient                   ...        0 min,  0.229 sec
 * total energy  :  -280.1914033 Eh     change       -0.2819681E-01 Eh
   gradient norm :     0.0402766 Eh/α   predicted    -0.2735401E-01 (  -2.99%)
   displ. norm   :     0.7691362 α      lambda       -0.2274574E-01
   maximum displ.:     0.3377271 α      in ANC's #25, #84, #82, ...

........................................................................
.............................. CYCLE    8 ..............................
........................................................................
   1   -284.9131749 -0.284913E+03  0.602E-01    0.14       0.0  T
   2   -271.2564950  0.136567E+02  0.448E+00    0.17       1.0  T
   3   -283.7516499 -0.124952E+02  0.170E+00    0.27       1.0  T
   4   -284.3870147 -0.635365E+00  0.116E+00    0.08       1.0  T
   5   -284.5268469 -0.139832E+00  0.824E-01    0.04       1.0  T
   6   -284.9216893 -0.394842E+00  0.481E-01    0.15       1.0  T
   7   -284.8465781  0.751112E-01  0.586E-01    0.02       1.0  T
   8   -284.3706852  0.475893E+00  0.874E-01    0.05       1.0  T
   9   -284.2905865  0.800987E-01  0.845E-01    0.13       1.0  T
  10   -285.0052082 -0.714622E+00  0.280E-01    0.04       1.0  T
  11   -285.0045505  0.657679E-03  0.256E-01    0.04       1.0  T
  12   -285.0156583 -0.111078E-01  0.226E-01    0.04       1.0  T
  13   -285.0305882 -0.149299E-01  0.149E-01    0.03       1.0  T
  14   -285.0329991 -0.241092E-02  0.128E-01    0.03       1.0  T
  15   -285.0346000 -0.160090E-02  0.113E-01    0.03       1.0  T
  16   -285.0359228 -0.132280E-02  0.824E-02    0.03       1.0  T
  17   -285.0362912 -0.368322E-03  0.795E-02    0.01       1.0  T
  18   -285.0385438 -0.225266E-02  0.611E-02    0.02       1.0  T
  19   -285.0386337 -0.899012E-04  0.599E-02    0.02       1.0  T
  20   -285.0392135 -0.579784E-03  0.505E-02    0.02       1.0  T
  21   -285.0399175 -0.704021E-03  0.432E-02    0.02       1.0  T
  22   -285.0391388  0.778767E-03  0.570E-02    0.02       1.0  T
  23   -285.0397163 -0.577501E-03  0.438E-02    0.02       1.0  T
  24   -285.0401408 -0.424564E-03  0.303E-02    0.02       1.0  T
  25   -285.0403162 -0.175332E-03  0.184E-02    0.02       1.0  T
  26   -285.0404898 -0.173665E-03  0.448E-03    0.03       1.8  T
  27   -285.0404948 -0.500776E-05  0.296E-03    0.03       2.7  T
  28   -285.0404888  0.603434E-05  0.421E-03    0.03       1.9  T
  29   -285.0404937 -0.492290E-05  0.299E-03    0.03       2.7  T
  30   -285.0404974 -0.370854E-05  0.136E-03    0.03       5.9  T
  31   -285.0404964  0.102903E-05  0.188E-03    0.03       4.3  T
  32   -285.0404975 -0.113136E-05  0.821E-04    0.03       9.8  T
  33   -285.0404977 -0.170274E-06  0.549E-04    0.03      14.7  T
  34   -285.0404978 -0.140527E-06  0.289E-04    0.03      27.9  T
     SCC iter.                  ...        0 min,  2.093 sec
     gradient                   ...        0 min,  0.228 sec
 * total energy  :  -280.2100591 Eh     change       -0.1865584E-01 Eh
   gradient norm :     0.0286679 Eh/α   predicted    -0.1810073E-01 (  -2.98%)
   displ. norm   :     0.7529462 α      lambda       -0.1469384E-01
   maximum displ.:     0.4396919 α      in ANC's #25, #84, #82, ...

........................................................................
.............................. CYCLE    9 ..............................
........................................................................
   1   -285.0052621 -0.285005E+03  0.443E-01    0.09       0.0  T
   2   -275.2569813  0.974828E+01  0.386E+00    0.09       1.0  T
   3   -284.5421471 -0.928517E+01  0.943E-01    0.06       1.0  T
   4   -283.6511056  0.891042E+00  0.136E+00    0.02       1.0  T
   5   -284.6466155 -0.995510E+00  0.816E-01    0.06       1.0  T
   6   -284.6874727 -0.408572E-01  0.785E-01    0.08       1.0  T
   7   -284.6660025  0.214702E-01  0.637E-01    0.03       1.0  T
   8   -284.8090663 -0.143064E+00  0.585E-01    0.05       1.0  T
   9   -284.7065293  0.102537E+00  0.623E-01    0.03       1.0  T
  10   -284.9872338 -0.280705E+00  0.387E-01    0.03       1.0  T
  11   -285.0220388 -0.348050E-01  0.300E-01    0.06       1.0  T
  12   -285.0591766 -0.371378E-01  0.172E-01    0.04       1.0  T
  13   -285.0321865  0.269901E-01  0.257E-01    0.03       1.0  T
  14   -285.0510150 -0.188284E-01  0.191E-01    0.03       1.0  T
  15   -285.0585425 -0.752751E-02  0.156E-01    0.04       1.0  T
  16   -285.0684182 -0.987576E-02  0.681E-02    0.03       1.0  T
  17   -285.0694722 -0.105400E-02  0.506E-02    0.03       1.0  T
  18   -285.0700221 -0.549852E-03  0.409E-02    0.03       1.0  T
  19   -285.0701762 -0.154118E-03  0.354E-02    0.03       1.0  T
  20   -285.0704977 -0.321515E-03  0.220E-02    0.03       1.0  T
  21   -285.0699871  0.510628E-03  0.365E-02    0.03       1.0  T
  22   -285.0705110 -0.523888E-03  0.191E-02    0.03       1.0  T
  23   -285.0706281 -0.117165E-03  0.119E-02    0.03       1.0  T
  24   -285.0706497 -0.215289E-04  0.791E-03    0.03       1.0  T
  25   -285.0706449  0.479183E-05  0.725E-03    0.03       1.1  T
  26   -285.0706538 -0.889284E-05  0.448E-03    0.03       1.8  T
  27   -285.0706603 -0.654066E-05  0.369E-03    0.03       2.2  T
  28   -285.0706677 -0.738842E-05  0.267E-03    0.03       3.0  T
  29   -285.0706686 -0.896579E-06  0.212E-03    0.03       3.8  T
  30   -285.0706677  0.938556E-06  0.198E-03    0.03       4.1  T
  31   -285.0706697 -0.208669E-05  0.116E-03    0.03       7.0  T
  32   -285.0706699 -0.148616E-06  0.941E-04    0.03       8.6  T
  33   -285.0706701 -0.252023E-06  0.547E-04    0.03      14.7  T
     SCC iter.                  ...        0 min,  2.031 sec
     gradient                   ...        0 min,  0.228 sec
 * total energy  :  -280.2221882 Eh     change       -0.1212905E-01 Eh
   gradient norm :     0.0239391 Eh/α   predicted    -0.1151210E-01 (  -5.09%)
   displ. norm   :     0.7721148 α      lambda       -0.1050913E-01
   maximum displ.:     0.5445966 α      in ANC's #25, #23, #32, ...

........................................................................
.............................. CYCLE   10 ..............................
........................................................................
   1   -285.0857571 -0.285086E+03  0.236E-01    0.03       0.0  T
   2   -283.1418368  0.194392E+01  0.180E+00    0.01       1.0  T
   3   -284.3963883 -0.125455E+01  0.838E-01    0.10       1.0  T
   4   -284.7321655 -0.335777E+00  0.718E-01    0.04       1.0  T
   5   -284.9370697 -0.204904E+00  0.468E-01    0.04       1.0  T
   6   -284.2622824  0.674787E+00  0.999E-01    0.11       1.0  T
   7   -284.9570481 -0.694766E+00  0.448E-01    0.00       1.0  T
   8   -285.0040393 -0.469912E-01  0.397E-01    0.10       1.0  T
   9   -285.0489389 -0.448995E-01  0.282E-01    0.06       1.0  T
  10   -284.9993676  0.495713E-01  0.334E-01    0.06       1.0  T
  11   -285.0824844 -0.831168E-01  0.166E-01    0.05       1.0  T
  12   -285.0837376 -0.125323E-02  0.139E-01    0.03       1.0  T
  13   -285.0883232 -0.458559E-02  0.118E-01    0.04       1.0  T
  14   -285.0852784  0.304482E-02  0.113E-01    0.03       1.0  T
  15   -285.0908362 -0.555780E-02  0.764E-02    0.04       1.0  T
  16   -285.0943112 -0.347501E-02  0.318E-02    0.03       1.0  T
  17   -285.0934418  0.869394E-03  0.514E-02    0.03       1.0  T
  18   -285.0943569 -0.915077E-03  0.291E-02    0.03       1.0  T
  19   -285.0944487 -0.918176E-04  0.244E-02    0.03       1.0  T
  20   -285.0945145 -0.658246E-04  0.236E-02    0.03       1.0  T
  21   -285.0946584 -0.143886E-03  0.165E-02    0.03       1.0  T
  22   -285.0947371 -0.787090E-04  0.916E-03    0.03       1.0  T
  23   -285.0947421 -0.496660E-05  0.738E-03    0.03       1.1  T
  24   -285.0947626 -0.205112E-04  0.484E-03    0.03       1.7  T
  25   -285.0947551  0.747044E-05  0.578E-03    0.03       1.4  T
  26   -285.0947709 -0.157679E-04  0.262E-03    0.03       3.1  T
  27   -285.0947744 -0.353811E-05  0.117E-03    0.03       6.9  T
  28   -285.0947744  0.322580E-07  0.108E-03    0.03       7.4  T
  29   -285.0947748 -0.368404E-06  0.757E-04    0.03      10.6  T
  30   -285.0947749 -0.156151E-06  0.615E-04    0.03      13.1  T
     SCC iter.                  ...        0 min,  1.851 sec
     gradient                   ...        0 min,  0.227 sec
 * total energy  :  -280.2313012 Eh     change       -0.9113045E-02 Eh
   gradient norm :     0.0231472 Eh/α   predicted    -0.8387144E-02 (  -7.97%)
   displ. norm   :     0.8153387 α      lambda       -0.9207304E-02
   maximum displ.:     0.6156306 α      in ANC's #25, #23, #32, ...

........................................................................
.............................. CYCLE   11 ..............................
........................................................................
   1   -285.0707117 -0.285071E+03  0.309E-01    0.02       0.0  T
   2   -284.1464999  0.924212E+00  0.123E+00    0.06       1.0  T
   3   -284.6079183 -0.461418E+00  0.810E-01    0.02       1.0  T
   4   -284.7772157 -0.169297E+00  0.657E-01    0.01       1.0  T
   5   -284.8686356 -0.914198E-01  0.563E-01    0.00       1.0  T
   6   -284.9886742 -0.120039E+00  0.479E-01    0.04       1.0  T
   7   -284.6631137  0.325561E+00  0.725E-01    0.02       1.0  T
   8   -285.0317577 -0.368644E+00  0.361E-01    0.02       1.0  T
   9   -284.8541083  0.177649E+00  0.556E-01    0.04       1.0  T
  10   -285.0557342 -0.201626E+00  0.337E-01    0.01       1.0  T
  11   -285.0396048  0.161294E-01  0.347E-01    0.01       1.0  T
  12   -285.0625367 -0.229319E-01  0.304E-01    0.02       1.0  T
  13   -285.0631286 -0.591994E-03  0.296E-01    0.02       1.0  T
  14   -285.0955654 -0.324367E-01  0.187E-01    0.05       1.0  T
  15   -285.1054530 -0.988760E-02  0.115E-01    0.02       1.0  T
  16   -285.1054887 -0.357215E-04  0.119E-01    0.04       1.0  T
  17   -285.1132719 -0.778315E-02  0.782E-02    0.02       1.0  T
  18   -285.1118761  0.139579E-02  0.832E-02    0.03       1.0  T
  19   -285.1158015 -0.392539E-02  0.462E-02    0.02       1.0  T
  20   -285.1168743 -0.107287E-02  0.162E-02    0.02       1.0  T
  21   -285.1164986  0.375678E-03  0.271E-02    0.02       1.0  T
  22   -285.1167088 -0.210150E-03  0.222E-02    0.02       1.0  T
  23   -285.1169768 -0.268007E-03  0.139E-02    0.02       1.0  T
  24   -285.1170824 -0.105572E-03  0.649E-03    0.02       1.2  T
  25   -285.1170806  0.180850E-05  0.656E-03    0.02       1.2  T
  26   -285.1170985 -0.178877E-04  0.415E-03    0.02       1.9  T
  27   -285.1170978  0.668395E-06  0.317E-03    0.02       2.5  T
  28   -285.1170978 -0.194336E-07  0.319E-03    0.02       2.5  T
  29   -285.1171004 -0.258223E-05  0.281E-03    0.02       2.9  T
  30   -285.1171046 -0.421583E-05  0.190E-03    0.02       4.3  T
  31   -285.1171061 -0.148891E-05  0.896E-04    0.02       9.0  T
  32   -285.1171063 -0.237510E-06  0.538E-04    0.02      15.0  T
  33   -285.1171064 -0.851043E-07  0.310E-04    0.02      26.0  T
     SCC iter.                  ...        0 min,  2.029 sec
     gradient                   ...        0 min,  0.228 sec
 * total energy  :  -280.2396116 Eh     change       -0.8310401E-02 Eh
   gradient norm :     0.0227934 Eh/α   predicted    -0.7664068E-02 (  -7.78%)
   displ. norm   :     0.8780662 α      lambda       -0.9809722E-02
   maximum displ.:     0.6694940 α      in ANC's #25, #23, #12, ...

........................................................................
.............................. CYCLE   12 ..............................
........................................................................
   1   -284.9773510 -0.284977E+03  0.580E-01    0.00       0.0  T
   2   -283.5997209  0.137763E+01  0.194E+00    0.43       1.0  T
   3   -284.6824499 -0.108273E+01  0.936E-01    0.34       1.0  T
   4   -285.0421476 -0.359698E+00  0.386E-01    0.01       1.0  T
   5   -284.5259317  0.516216E+00  0.867E-01    0.07       1.0  T
   6   -284.8373000 -0.311368E+00  0.645E-01    0.02       1.0  T
   7   -284.7709369  0.663631E-01  0.702E-01    0.02       1.0  T
   8   -284.8155498 -0.446129E-01  0.630E-01    0.03       1.0  T
   9   -284.8621864 -0.466366E-01  0.604E-01    0.06       1.0  T
  10   -284.8061615  0.560249E-01  0.548E-01    0.04       1.0  T
  11   -285.1083418 -0.302180E+00  0.247E-01    0.04       1.0  T
  12   -285.1248324 -0.164906E-01  0.174E-01    0.03       1.0  T
  13   -285.1335570 -0.872456E-02  0.104E-01    0.02       1.0  T
  14   -285.0937475  0.398095E-01  0.222E-01    0.04       1.0  T
  15   -285.1343629 -0.406154E-01  0.801E-02    0.02       1.0  T
  16   -285.1383236 -0.396075E-02  0.256E-02    0.01       1.0  T
  17   -285.1382182  0.105442E-03  0.253E-02    0.01       1.0  T
  18   -285.1379416  0.276567E-03  0.280E-02    0.01       1.0  T
  19   -285.1384280 -0.486387E-03  0.184E-02    0.02       1.0  T
  20   -285.1385465 -0.118481E-03  0.147E-02    0.02       1.0  T
  21   -285.1386182 -0.717816E-04  0.996E-03    0.02       1.0  T
  22   -285.1386782 -0.599547E-04  0.476E-03    0.02       1.7  T
  23   -285.1386864 -0.823437E-05  0.306E-03    0.02       2.6  T
  24   -285.1386877 -0.126321E-05  0.213E-03    0.02       3.8  T
  25   -285.1386897 -0.205778E-05  0.121E-03    0.02       6.7  T
  26   -285.1386906 -0.899155E-06  0.571E-04    0.02      14.1  T
  27   -285.1386906  0.242126E-07  0.516E-04    0.02      15.6  T
     SCC iter.                  ...        0 min,  1.661 sec
     gradient                   ...        0 min,  0.229 sec
 * total energy  :  -280.2483484 Eh     change       -0.8736772E-02 Eh
   gradient norm :     0.0223896 Eh/α   predicted    -0.8686508E-02 (  -0.58%)
   displ. norm   :     0.9002345 α      lambda       -0.1010557E-01
   maximum displ.:     0.7176160 α      in ANC's #25, #12, #23, ...

........................................................................
.............................. CYCLE   13 ..............................
........................................................................
   1   -284.9129165 -0.284913E+03  0.712E-01    0.02       0.0  T
   2   -283.1507276  0.176219E+01  0.226E+00    0.51       1.0  T
   3   -284.6424753 -0.149175E+01  0.957E-01    0.05       1.0  T
   4   -284.6131881  0.292872E-01  0.970E-01    0.08       1.0  T
   5   -284.6738637 -0.606756E-01  0.856E-01    0.18       1.0  T
   6   -284.8417628 -0.167899E+00  0.626E-01    0.02       1.0  T
   7   -284.5896242  0.252139E+00  0.798E-01    0.13       1.0  T
   8   -284.6077019 -0.180777E-01  0.702E-01    0.06       1.0  T
   9   -284.7661085 -0.158407E+00  0.682E-01    0.03       1.0  T
  10   -284.8956720 -0.129564E+00  0.517E-01    0.00       1.0  T
  11   -285.0151021 -0.119430E+00  0.422E-01    0.03       1.0  T
  12   -285.0923033 -0.772012E-01  0.309E-01    0.00       1.0  T
  13   -285.1350285 -0.427252E-01  0.180E-01    0.01       1.0  T
  14   -285.1176720  0.173565E-01  0.191E-01    0.00       1.0  T
  15   -285.1270740 -0.940197E-02  0.177E-01    0.00       1.0  T
  16   -285.1240178  0.305616E-02  0.171E-01    0.01       1.0  T
  17   -285.1431718 -0.191540E-01  0.944E-02    0.00       1.0  T
  18   -285.1477802 -0.460835E-02  0.622E-02    0.00       1.0  T
  19   -285.1483754 -0.595189E-03  0.521E-02    0.00       1.0  T
  20   -285.1503396 -0.196423E-02  0.234E-02    0.01       1.0  T
  21   -285.1504988 -0.159161E-03  0.125E-02    0.01       1.0  T
  22   -285.1505651 -0.662983E-04  0.832E-03    0.01       1.0  T
  23   -285.1505958 -0.307312E-04  0.556E-03    0.01       1.4  T
  24   -285.1506182 -0.224651E-04  0.293E-03    0.01       2.8  T
  25   -285.1506194 -0.119895E-05  0.205E-03    0.01       3.9  T
  26   -285.1506195 -0.254852E-07  0.188E-03    0.01       4.3  T
  27   -285.1506175  0.196135E-05  0.244E-03    0.01       3.3  T
  28   -285.1506197 -0.218201E-05  0.178E-03    0.01       4.5  T
  29   -285.1506203 -0.615774E-06  0.166E-03    0.01       4.8  T
  30   -285.1506224 -0.206443E-05  0.537E-04    0.01      15.0  T
  31   -285.1506225 -0.147862E-06  0.363E-04    0.01      22.2  T
  32   -285.1506226 -0.111559E-06  0.125E-04    0.01      64.3  T
     SCC iter.                  ...        0 min,  1.976 sec
     gradient                   ...        0 min,  0.228 sec
 * total energy  :  -280.2584353 Eh     change       -0.1008685E-01 Eh
   gradient norm :     0.0229631 Eh/α   predicted    -0.9147677E-02 (  -9.31%)
   displ. norm   :     0.9022292 α      lambda       -0.1040743E-01
   maximum displ.:     0.7094695 α      in ANC's #25, #12, #23, ...

........................................................................
.............................. CYCLE   14 ..............................
........................................................................
   1   -284.9471579 -0.284947E+03  0.647E-01    0.02       0.0  T
   2   -283.2338380  0.171332E+01  0.217E+00    0.51       1.0  T
   3   -284.2281603 -0.994322E+00  0.104E+00    0.09       1.0  T
   4   -284.6455440 -0.417384E+00  0.996E-01    0.04       1.0  T
   5   -284.7832765 -0.137733E+00  0.819E-01    0.07       1.0  T
   6   -284.1338036  0.649473E+00  0.101E+00    0.20       1.0  T
   7   -284.5819851 -0.448181E+00  0.849E-01    0.16       1.0  T
   8   -284.9912560 -0.409271E+00  0.518E-01    0.00       1.0  T
   9   -284.7851974  0.206059E+00  0.595E-01    0.01       1.0  T
  10   -285.0133205 -0.228123E+00  0.401E-01    0.01       1.0  T
  11   -285.1106004 -0.972798E-01  0.231E-01    0.01       1.0  T
  12   -284.8976897  0.212911E+00  0.493E-01    0.00       1.0  T
  13   -285.0655585 -0.167869E+00  0.334E-01    0.01       1.0  T
  14   -285.1096782 -0.441197E-01  0.221E-01    0.03       1.0  T
  15   -285.1171054 -0.742724E-02  0.197E-01    0.01       1.0  T
  16   -285.1411846 -0.240792E-01  0.847E-02    0.00       1.0  T
  17   -285.1468920 -0.570731E-02  0.193E-02    0.00       1.0  T
  18   -285.1463764  0.515573E-03  0.333E-02    0.00       1.0  T
  19   -285.1458912  0.485187E-03  0.422E-02    0.00       1.0  T
  20   -285.1470581 -0.116689E-02  0.124E-02    0.00       1.0  T
  21   -285.1471751 -0.116982E-03  0.611E-03    0.00       1.3  T
  22   -285.1471790 -0.393608E-05  0.627E-03    0.00       1.3  T
  23   -285.1472072 -0.281804E-04  0.303E-03    0.00       2.7  T
  24   -285.1472127 -0.552223E-05  0.131E-03    0.00       6.2  T
  25   -285.1472126  0.116255E-06  0.144E-03    0.00       5.6  T
  26   -285.1472127 -0.129645E-06  0.122E-03    0.00       6.6  T
  27   -285.1472131 -0.397009E-06  0.105E-03    0.00       7.7  T
  28   -285.1472132 -0.111493E-06  0.876E-04    0.00       9.2  T
  29   -285.1472140 -0.801409E-06  0.307E-04    0.00      26.3  T
     SCC iter.                  ...        0 min,  1.791 sec
     gradient                   ...        0 min,  0.228 sec
 * total energy  :  -280.2692475 Eh     change       -0.1081225E-01 Eh
   gradient norm :     0.0269564 Eh/α   predicted    -0.9439664E-02 ( -12.69%)
   displ. norm   :     0.8772765 α      lambda       -0.1164266E-01
   maximum displ.:     0.6778089 α      in ANC's #25, #12, #23, ...

........................................................................
.............................. CYCLE   15 ..............................
........................................................................
   1   -284.9711945 -0.284971E+03  0.599E-01    0.03       0.0  T
   2   -283.1143031  0.185689E+01  0.223E+00    0.07       1.0  T
   3   -284.4686070 -0.135430E+01  0.948E-01    0.03       1.0  T
   4   -284.6379327 -0.169326E+00  0.981E-01    0.05       1.0  T
   5   -284.8638674 -0.225935E+00  0.634E-01    0.09       1.0  T
   6   -285.0497214 -0.185854E+00  0.385E-01    0.00       1.0  T
   7   -284.8154966  0.234225E+00  0.689E-01    0.01       1.0  T
   8   -284.6859986  0.129498E+00  0.668E-01    0.04       1.0  T
   9   -284.9211330 -0.235134E+00  0.488E-01    0.05       1.0  T
  10   -284.9721799 -0.510470E-01  0.500E-01    0.04       1.0  T
  11   -285.0270604 -0.548804E-01  0.373E-01    0.02       1.0  T
  12   -285.1229656 -0.959052E-01  0.166E-01    0.02       1.0  T
  13   -285.1042500  0.187156E-01  0.244E-01    0.01       1.0  T
  14   -285.0957639  0.848605E-02  0.214E-01    0.01       1.0  T
  15   -285.1323264 -0.365624E-01  0.127E-01    0.00       1.0  T
  16   -285.1452331 -0.129068E-01  0.666E-02    0.00       1.0  T
  17   -285.1431465  0.208664E-02  0.781E-02    0.00       1.0  T
  18   -285.1489553 -0.580883E-02  0.207E-02    0.00       1.0  T
  19   -285.1490680 -0.112647E-03  0.152E-02    0.00       1.0  T
  20   -285.1491505 -0.825366E-04  0.935E-03    0.00       1.0  T
  21   -285.1491876 -0.371118E-04  0.791E-03    0.00       1.0  T
  22   -285.1492341 -0.464398E-04  0.207E-03    0.00       3.9  T
  23   -285.1492352 -0.111598E-05  0.113E-03    0.00       7.1  T
  24   -285.1492357 -0.515777E-06  0.803E-04    0.00      10.0  T
  25   -285.1492341  0.163806E-05  0.167E-03    0.00       4.8  T
  26   -285.1492349 -0.886563E-06  0.119E-03    0.00       6.8  T
  27   -285.1492361 -0.120102E-05  0.319E-04    0.00      25.2  T
  28   -285.1492362 -0.723289E-07  0.135E-04    0.00      59.8  T
     SCC iter.                  ...        0 min,  1.726 sec
     gradient                   ...        0 min,  0.228 sec
 * total energy  :  -280.2818637 Eh     change       -0.1261616E-01 Eh
   gradient norm :     0.0329620 Eh/α   predicted    -0.1030151E-01 ( -18.35%)
   displ. norm   :     0.8489476 α      lambda       -0.1442310E-01
   maximum displ.:     0.6169679 α      in ANC's #25, #12, #23, ...

........................................................................
.............................. CYCLE   16 ..............................
........................................................................
   1   -284.9975324 -0.284998E+03  0.541E-01    0.03       0.0  T
   2   -279.4742388  0.552329E+01  0.383E+00    0.09       1.0  T
   3   -283.9255163 -0.445128E+01  0.156E+00    0.21       1.0  T
   4   -284.3947215 -0.469205E+00  0.104E+00    0.28       1.0  T
   5   -284.5222120 -0.127491E+00  0.802E-01    0.06       1.0  T
   6   -284.5255247 -0.331269E-02  0.898E-01    0.18       1.0  T
   7   -284.8583535 -0.332829E+00  0.629E-01    0.02       1.0  T
   8   -284.9711867 -0.112833E+00  0.494E-01    0.01       1.0  T
   9   -284.8493088  0.121878E+00  0.670E-01    0.04       1.0  T
  10   -285.0447298 -0.195421E+00  0.382E-01    0.01       1.0  T
  11   -285.0708855 -0.261557E-01  0.286E-01    0.01       1.0  T
  12   -284.8598840  0.211002E+00  0.552E-01    0.02       1.0  T
  13   -284.8527499  0.713412E-02  0.563E-01    0.06       1.0  T
  14   -285.1088111 -0.256061E+00  0.202E-01    0.02       1.0  T
  15   -285.1385609 -0.297498E-01  0.101E-01    0.00       1.0  T
  16   -285.1401303 -0.156936E-02  0.992E-02    0.01       1.0  T
  17   -285.1438446 -0.371428E-02  0.592E-02    0.00       1.0  T
  18   -285.1455392 -0.169462E-02  0.342E-02    0.00       1.0  T
  19   -285.1422462  0.329297E-02  0.639E-02    0.01       1.0  T
  20   -285.1452488 -0.300256E-02  0.350E-02    0.00       1.0  T
  21   -285.1464061 -0.115730E-02  0.899E-03    0.00       1.0  T
  22   -285.1463543  0.518428E-04  0.103E-02    0.00       1.0  T
  23   -285.1464240 -0.697290E-04  0.545E-03    0.00       1.5  T
  24   -285.1464280 -0.406491E-05  0.474E-03    0.00       1.7  T
  25   -285.1464368 -0.877959E-05  0.368E-03    0.00       2.2  T
  26   -285.1464354  0.139239E-05  0.350E-03    0.00       2.3  T
  27   -285.1464357 -0.311120E-06  0.339E-03    0.00       2.4  T
  28   -285.1464394 -0.369020E-05  0.230E-03    0.00       3.5  T
  29   -285.1464404 -0.945822E-06  0.172E-03    0.00       4.7  T
  30   -285.1464403  0.547707E-07  0.145E-03    0.00       5.6  T
  31   -285.1464405 -0.151959E-06  0.113E-03    0.00       7.1  T
  32   -285.1464411 -0.591937E-06  0.745E-04    0.00      10.8  T
  33   -285.1464409  0.154326E-06  0.772E-04    0.00      10.4  T
     SCC iter.                  ...        0 min,  2.034 sec
     gradient                   ...        0 min,  0.227 sec
 * total energy  :  -280.2985072 Eh     change       -0.1664357E-01 Eh
   gradient norm :     0.0447090 Eh/α   predicted    -0.1240900E-01 ( -25.44%)
   displ. norm   :     0.8148694 α      lambda       -0.2097442E-01
   maximum displ.:     0.5246965 α      in ANC's #25, #12, #52, ...

........................................................................
.............................. CYCLE   17 ..............................
........................................................................
   1   -284.9814089 -0.284981E+03  0.525E-01    0.04       0.0  T
   2   -257.5020802  0.274793E+02  0.755E+00    0.16       1.0  T
   3   -283.8811956 -0.263791E+02  0.136E+00    0.08       1.0  T
   4   -284.4442807 -0.563085E+00  0.103E+00    0.17       1.0  T
   5   -284.7642518 -0.319971E+00  0.757E-01    0.04       1.0  T
   6   -284.7242519  0.399999E-01  0.832E-01    0.09       1.0  T
   7   -284.7315497 -0.729783E-02  0.679E-01    0.10       1.0  T
   8   -284.8052387 -0.736890E-01  0.661E-01    0.03       1.0  T
   9   -284.7795468  0.256919E-01  0.715E-01    0.02       1.0  T
  10   -284.9727786 -0.193232E+00  0.445E-01    0.01       1.0  T
  11   -284.9983052 -0.255265E-01  0.393E-01    0.02       1.0  T
  12   -285.0977326 -0.994275E-01  0.271E-01    0.02       1.0  T
  13   -285.0371880  0.605446E-01  0.341E-01    0.03       1.0  T
  14   -285.1027129 -0.655249E-01  0.255E-01    0.02       1.0  T
  15   -285.1039950 -0.128211E-02  0.223E-01    0.01       1.0  T
  16   -285.1242986 -0.203036E-01  0.168E-01    0.00       1.0  T
  17   -285.1428087 -0.185101E-01  0.764E-02    0.01       1.0  T
  18   -285.1393391  0.346966E-02  0.937E-02    0.01       1.0  T
  19   -285.1434541 -0.411502E-02  0.661E-02    0.01       1.0  T
  20   -285.1464135 -0.295942E-02  0.292E-02    0.00       1.0  T
  21   -285.1462728  0.140668E-03  0.280E-02    0.00       1.0  T
  22   -285.1464551 -0.182251E-03  0.255E-02    0.00       1.0  T
  23   -285.1466507 -0.195616E-03  0.169E-02    0.00       1.0  T
  24   -285.1467258 -0.750782E-04  0.153E-02    0.00       1.0  T
  25   -285.1467488 -0.230084E-04  0.128E-02    0.00       1.0  T
  26   -285.1466808  0.680368E-04  0.143E-02    0.00       1.0  T
  27   -285.1467253 -0.445292E-04  0.124E-02    0.00       1.0  T
  28   -285.1468124 -0.870761E-04  0.625E-03    0.01       1.3  T
  29   -285.1468183 -0.590834E-05  0.587E-03    0.01       1.4  T
  30   -285.1468404 -0.221394E-04  0.307E-03    0.01       2.6  T
  31   -285.1468408 -0.347495E-06  0.203E-03    0.00       4.0  T
  32   -285.1468373  0.350256E-05  0.251E-03    0.00       3.2  T
  33   -285.1468427 -0.543834E-05  0.916E-04    0.00       8.8  T
  34   -285.1468424  0.328333E-06  0.120E-03    0.01       6.7  T
  35   -285.1468430 -0.677960E-06  0.557E-04    0.00      14.5  T
  36   -285.1468432 -0.156486E-06  0.292E-04    0.00      27.6  T
     SCC iter.                  ...        0 min,  2.209 sec
     gradient                   ...        0 min,  0.227 sec
 * total energy  :  -280.3245847 Eh     change       -0.2607747E-01 Eh
   gradient norm :     0.0668973 Eh/α   predicted    -0.1745085E-01 ( -33.08%)
   displ. norm   :     0.7982179 α      lambda       -0.3369681E-01
   maximum displ.:     0.4179897 α      in ANC's #25, #12, #52, ...

........................................................................
.............................. CYCLE   18 ..............................
........................................................................
   1   -284.9734614 -0.284973E+03  0.488E-01    0.04       0.0  T
   2   -252.4962832  0.324772E+02  0.771E+00    0.20       1.0  T
   3   -283.8570809 -0.313608E+02  0.135E+00    0.10       1.0  T
   4   -284.3935202 -0.536439E+00  0.106E+00    0.20       1.0  T
   5   -284.6969676 -0.303447E+00  0.783E-01    0.03       1.0  T
   6   -284.8839443 -0.186977E+00  0.576E-01    0.05       1.0  T
   7   -284.8673547  0.165895E-01  0.646E-01    0.06       1.0  T
   8   -284.9356311 -0.682763E-01  0.580E-01    0.03       1.0  T
   9   -284.9289842  0.664692E-02  0.557E-01    0.03       1.0  T
  10   -284.9991336 -0.701494E-01  0.441E-01    0.04       1.0  T
  11   -285.0053465 -0.621293E-02  0.454E-01    0.02       1.0  T
  12   -285.0191126 -0.137661E-01  0.374E-01    0.03       1.0  T
  13   -285.0286499 -0.953728E-02  0.376E-01    0.02       1.0  T
  14   -285.0378018 -0.915189E-02  0.329E-01    0.01       1.0  T
  15   -285.0922405 -0.544387E-01  0.246E-01    0.01       1.0  T
  16   -285.1362334 -0.439929E-01  0.826E-02    0.01       1.0  T
  17   -285.1411709 -0.493754E-02  0.345E-02    0.01       1.0  T
  18   -285.1414895 -0.318554E-03  0.350E-02    0.00       1.0  T
  19   -285.1417569 -0.267440E-03  0.271E-02    0.01       1.0  T
  20   -285.1414998  0.257180E-03  0.282E-02    0.01       1.0  T
  21   -285.1418546 -0.354808E-03  0.211E-02    0.01       1.0  T
  22   -285.1419523 -0.977554E-04  0.189E-02    0.01       1.0  T
  23   -285.1420599 -0.107575E-03  0.159E-02    0.01       1.0  T
  24   -285.1420644 -0.453712E-05  0.156E-02    0.01       1.0  T
  25   -285.1420856 -0.211324E-04  0.148E-02    0.01       1.0  T
  26   -285.1422080 -0.122393E-03  0.947E-03    0.01       1.0  T
  27   -285.1422136 -0.559146E-05  0.895E-03    0.01       1.0  T
  28   -285.1422644 -0.508207E-04  0.463E-03    0.01       1.7  T
  29   -285.1422733 -0.895345E-05  0.295E-03    0.01       2.7  T
  30   -285.1422794 -0.610667E-05  0.155E-03    0.01       5.2  T
  31   -285.1422815 -0.208662E-05  0.404E-04    0.01      20.0  T
  32   -285.1422811  0.383710E-06  0.762E-04    0.01      10.6  T
  33   -285.1422816 -0.494834E-06  0.248E-04    0.01      32.5  T
     SCC iter.                  ...        0 min,  2.034 sec
     gradient                   ...        0 min,  0.227 sec
 * total energy  :  -280.3608718 Eh     change       -0.3628710E-01 Eh
   gradient norm :     0.0770994 Eh/α   predicted    -0.2758339E-01 ( -23.99%)
   displ. norm   :     0.8082128 α      lambda       -0.3997730E-01
   maximum displ.:     0.3948563 α      in ANC's #25, #12, #52, ...

........................................................................
.............................. CYCLE   19 ..............................
........................................................................
   1   -285.0347935 -0.285035E+03  0.391E-01    0.04       0.0  T
   2   -261.9791825  0.230556E+02  0.708E+00    0.03       1.0  T
   3   -284.1127791 -0.221336E+02  0.131E+00    0.06       1.0  T
   4   -284.2450759 -0.132297E+00  0.974E-01    0.10       1.0  T
   5   -284.7400198 -0.494944E+00  0.773E-01    0.03       1.0  T
   6   -284.8858000 -0.145780E+00  0.653E-01    0.06       1.0  T
   7   -284.9131405 -0.273405E-01  0.610E-01    0.03       1.0  T
   8   -285.0388059 -0.125665E+00  0.388E-01    0.02       1.0  T
   9   -284.8605878  0.178218E+00  0.646E-01    0.03       1.0  T
  10   -285.1025670 -0.241979E+00  0.237E-01    0.02       1.0  T
  11   -285.0646329  0.379341E-01  0.294E-01    0.02       1.0  T
  12   -285.1046186 -0.399858E-01  0.227E-01    0.01       1.0  T
  13   -285.0539956  0.506230E-01  0.322E-01    0.02       1.0  T
  14   -285.1358822 -0.818866E-01  0.820E-02    0.00       1.0  T
  15   -285.1395146 -0.363240E-02  0.603E-02    0.00       1.0  T
  16   -285.1407187 -0.120411E-02  0.372E-02    0.00       1.0  T
  17   -285.1413948 -0.676045E-03  0.205E-02    0.01       1.0  T
  18   -285.1415475 -0.152751E-03  0.158E-02    0.01       1.0  T
  19   -285.1414416  0.105893E-03  0.181E-02    0.01       1.0  T
  20   -285.1415208 -0.791621E-04  0.157E-02    0.01       1.0  T
  21   -285.1416038 -0.829927E-04  0.133E-02    0.01       1.0  T
  22   -285.1415801  0.236849E-04  0.137E-02    0.01       1.0  T
  23   -285.1415804 -0.347946E-06  0.134E-02    0.01       1.0  T
  24   -285.1415960 -0.155262E-04  0.117E-02    0.01       1.0  T
  25   -285.1415995 -0.353071E-05  0.967E-03    0.01       1.0  T
  26   -285.1416344 -0.349394E-04  0.559E-03    0.01       1.4  T
  27   -285.1416441 -0.967003E-05  0.275E-03    0.01       2.9  T
  28   -285.1416455 -0.141713E-05  0.168E-03    0.01       4.8  T
  29   -285.1416472 -0.173523E-05  0.718E-04    0.01      11.2  T
  30   -285.1416474 -0.133899E-06  0.552E-04    0.01      14.6  T
  31   -285.1416476 -0.218911E-06  0.149E-04    0.01      54.0  T
     SCC iter.                  ...        0 min,  1.904 sec
     gradient                   ...        0 min,  0.228 sec
 * total energy  :  -280.3996934 Eh     change       -0.3882163E-01 Eh
   gradient norm :     0.0663817 Eh/α   predicted    -0.3304539E-01 ( -14.88%)
   displ. norm   :     0.8872401 α      lambda       -0.4117499E-01
   maximum displ.:     0.3975774 α      in ANC's #12, #25, #52, ...

........................................................................
.............................. CYCLE   20 ..............................
........................................................................
   1   -285.0538168 -0.285054E+03  0.389E-01    0.03       0.0  T
   2   -275.8129750  0.924084E+01  0.520E+00    0.09       1.0  T
   3   -283.9957870 -0.818281E+01  0.139E+00    0.47       1.0  T
   4   -284.5747563 -0.578969E+00  0.904E-01    0.10       1.0  T
   5   -284.8486823 -0.273926E+00  0.689E-01    0.04       1.0  T
   6   -284.8101724  0.385099E-01  0.712E-01    0.06       1.0  T
   7   -284.0665084  0.743664E+00  0.107E+00    0.16       1.0  T
   8   -285.0753532 -0.100884E+01  0.295E-01    0.00       1.0  T
   9   -284.8762247  0.199129E+00  0.581E-01    0.02       1.0  T
  10   -284.8948089 -0.185842E-01  0.514E-01    0.00       1.0  T
  11   -284.9663551 -0.715463E-01  0.467E-01    0.04       1.0  T
  12   -284.9734818 -0.712668E-02  0.414E-01    0.05       1.0  T
  13   -285.0505834 -0.771016E-01  0.339E-01    0.01       1.0  T
  14   -285.0745192 -0.239358E-01  0.281E-01    0.02       1.0  T
  15   -285.1067417 -0.322225E-01  0.181E-01    0.01       1.0  T
  16   -285.1201159 -0.133741E-01  0.142E-01    0.01       1.0  T
  17   -285.1285048 -0.838895E-02  0.788E-02    0.00       1.0  T
  18   -285.1322248 -0.371997E-02  0.454E-02    0.00       1.0  T
  19   -285.1324266 -0.201841E-03  0.410E-02    0.00       1.0  T
  20   -285.1325451 -0.118478E-03  0.344E-02    0.01       1.0  T
  21   -285.1323103  0.234839E-03  0.390E-02    0.01       1.0  T
  22   -285.1325801 -0.269865E-03  0.333E-02    0.01       1.0  T
  23   -285.1326141 -0.340301E-04  0.327E-02    0.01       1.0  T
  24   -285.1326176 -0.349759E-05  0.323E-02    0.01       1.0  T
  25   -285.1326477 -0.300406E-04  0.301E-02    0.01       1.0  T
  26   -285.1326702 -0.225307E-04  0.272E-02    0.01       1.0  T
  27   -285.1326801 -0.987604E-05  0.220E-02    0.01       1.0  T
  28   -285.1326597  0.203771E-04  0.131E-02    0.01       1.0  T
  29   -285.1326670 -0.726004E-05  0.138E-02    0.00       1.0  T
  30   -285.1326908 -0.238530E-04  0.781E-03    0.01       1.0  T
  31   -285.1326987 -0.791088E-05  0.759E-03    0.00       1.1  T
  32   -285.1327126 -0.138496E-04  0.412E-03    0.01       2.0  T
  33   -285.1327179 -0.528510E-05  0.174E-03    0.01       4.6  T
  34   -285.1327158  0.206860E-05  0.243E-03    0.01       3.3  T
  35   -285.1327180 -0.219564E-05  0.102E-03    0.01       7.9  T
  36   -285.1327186 -0.598946E-06  0.566E-04    0.01      14.2  T
  37   -285.1327187 -0.139349E-06  0.373E-04    0.01      21.6  T
     SCC iter.                  ...        0 min,  2.273 sec
     gradient                   ...        0 min,  0.226 sec
 * total energy  :  -280.4200887 Eh     change       -0.2039522E-01 Eh
   gradient norm :     0.1173663 Eh/α   predicted    -0.3679381E-01 (  80.40%)
   displ. norm   :     0.5581530 α      lambda       -0.3145001E-01
   maximum displ.:     0.3416541 α      in ANC's #25, #12, #13, ...
 * RMSD in coord.:     0.9529632 α      energy gain  -0.8283439E+00 Eh

generating ANC from model Hessian ...
Using Lindh-Hessian (1995)
 Shifting diagonal of input Hessian by    1.0028397606594085E-002
 Lowest  eigenvalues of input Hessian
    0.010000    0.010012    0.010015    0.010016    0.010020    0.010024
    0.010025    0.010025    0.010027    0.000000    0.000000    0.000000
    0.000000    0.000000    0.000000    0.010034    0.010055    0.010067
 Highest eigenvalues
    2.129647    2.134788    2.377806    2.504308    2.630139    2.889019


........................................................................
.............................. CYCLE   21 ..............................
........................................................................
   1   -285.1464249 -0.285146E+03  0.248E-01    0.02       0.0  T
   2   -284.2073226  0.939102E+00  0.134E+00    0.24       1.0  T
   3   -284.6933386 -0.486016E+00  0.784E-01    0.12       1.0  T
   4   -284.7504887 -0.571502E-01  0.753E-01    0.12       1.0  T
   5   -284.9559578 -0.205469E+00  0.566E-01    0.05       1.0  T
   6   -284.6909342  0.265024E+00  0.763E-01    0.02       1.0  T
   7   -285.0597753 -0.368841E+00  0.406E-01    0.02       1.0  T
   8   -285.0668787 -0.710339E-02  0.349E-01    0.02       1.0  T
   9   -285.0331289  0.337498E-01  0.396E-01    0.00       1.0  T
  10   -285.1621049 -0.128976E+00  0.875E-02    0.00       1.0  T
  11   -285.1542710  0.783391E-02  0.130E-01    0.01       1.0  T
  12   -285.1600606 -0.578956E-02  0.895E-02    0.01       1.0  T
  13   -285.1578623  0.219828E-02  0.108E-01    0.01       1.0  T
  14   -285.1666500 -0.878772E-02  0.317E-02    0.00       1.0  T
  15   -285.1669756 -0.325550E-03  0.246E-02    0.00       1.0  T
  16   -285.1673534 -0.377824E-03  0.869E-03    0.00       1.0  T
  17   -285.1672839  0.695536E-04  0.122E-02    0.00       1.0  T
  18   -285.1673705 -0.865957E-04  0.622E-03    0.00       1.3  T
  19   -285.1674020 -0.315331E-04  0.168E-03    0.00       4.8  T
  20   -285.1674020 -0.270336E-07  0.147E-03    0.00       5.5  T
  21   -285.1674030 -0.100401E-05  0.103E-03    0.00       7.8  T
  22   -285.1674037 -0.701353E-06  0.255E-04    0.00      31.5  T
  23   -285.1674037  0.140670E-07  0.272E-04    0.00      29.7  T
     SCC iter.                  ...        0 min,  1.420 sec
     gradient                   ...        0 min,  0.226 sec
 * total energy  :  -280.4436711 Eh     change       -0.2358240E-01 Eh
   gradient norm :     0.0527810 Eh/α   predicted     0.0000000E+00 (-100.00%)
   displ. norm   :     0.7204322 α      lambda       -0.2502801E-01
   maximum displ.:     0.4124518 α      in ANC's #35, #17, #24, ...

........................................................................
.............................. CYCLE   22 ..............................
........................................................................
   1   -285.1272505 -0.285127E+03  0.326E-01    0.03       0.0  T
   2   -280.3681107  0.475914E+01  0.370E+00    0.01       1.0  T
   3   -284.5889840 -0.422087E+01  0.937E-01    0.14       1.0  T
   4   -284.6467441 -0.577601E-01  0.936E-01    0.29       1.0  T
   5   -285.1678133 -0.521069E+00  0.177E-01    0.01       1.0  T
   6   -284.6824428  0.485370E+00  0.856E-01    0.27       1.0  T
   7   -285.1033882 -0.420945E+00  0.331E-01    0.00       1.0  T
   8   -284.8259392  0.277449E+00  0.684E-01    0.10       1.0  T
   9   -284.9750060 -0.149067E+00  0.538E-01    0.06       1.0  T
  10   -285.1152318 -0.140226E+00  0.302E-01    0.00       1.0  T
  11   -285.1349889 -0.197572E-01  0.257E-01    0.03       1.0  T
  12   -285.1703226 -0.353337E-01  0.135E-01    0.00       1.0  T
  13   -285.1776918 -0.736921E-02  0.757E-02    0.01       1.0  T
  14   -285.1718664  0.582539E-02  0.121E-01    0.01       1.0  T
  15   -285.1814831 -0.961669E-02  0.287E-02    0.00       1.0  T
  16   -285.1816530 -0.169865E-03  0.235E-02    0.00       1.0  T
  17   -285.1816893 -0.363179E-04  0.205E-02    0.00       1.0  T
  18   -285.1819703 -0.281073E-03  0.834E-03    0.00       1.0  T
  19   -285.1819835 -0.131953E-04  0.668E-03    0.00       1.2  T
  20   -285.1820048 -0.212779E-04  0.375E-03    0.00       2.1  T
  21   -285.1820147 -0.984455E-05  0.114E-03    0.00       7.0  T
  22   -285.1820142  0.511888E-06  0.136E-03    0.00       5.9  T
  23   -285.1820132  0.918869E-06  0.170E-03    0.00       4.8  T
  24   -285.1820148 -0.153262E-05  0.104E-03    0.00       7.8  T
  25   -285.1820149 -0.139055E-06  0.890E-04    0.00       9.1  T
  26   -285.1820149  0.443085E-07  0.874E-04    0.00       9.2  T
     SCC iter.                  ...        0 min,  1.603 sec
     gradient                   ...        0 min,  0.226 sec
 * total energy  :  -280.4707963 Eh     change       -0.2712528E-01 Eh
   gradient norm :     0.0622673 Eh/α   predicted    -0.1900944E-01 ( -29.92%)
   displ. norm   :     0.7306557 α      lambda       -0.3134033E-01
   maximum displ.:     0.3797246 α      in ANC's #35, #17, #59, ...

........................................................................
.............................. CYCLE   23 ..............................
........................................................................
   1   -285.0957056 -0.285096E+03  0.385E-01    0.03       0.0  T
   2   -262.3516143  0.227441E+02  0.710E+00    0.05       1.0  T
   3   -284.5365969 -0.221850E+02  0.102E+00    0.31       1.0  T
   4   -284.6827833 -0.146186E+00  0.904E-01    0.26       1.0  T
   5   -284.7187850 -0.360017E-01  0.804E-01    0.15       1.0  T
   6   -284.9821100 -0.263325E+00  0.554E-01    0.04       1.0  T
   7   -284.7762749  0.205835E+00  0.778E-01    0.14       1.0  T
   8   -285.1625830 -0.386308E+00  0.226E-01    0.00       1.0  T
   9   -285.0765519  0.860311E-01  0.395E-01    0.02       1.0  T
  10   -285.0348807  0.416713E-01  0.444E-01    0.04       1.0  T
  11   -285.1089791 -0.740984E-01  0.339E-01    0.02       1.0  T
  12   -285.1722070 -0.632279E-01  0.173E-01    0.01       1.0  T
  13   -285.1888563 -0.166493E-01  0.650E-02    0.00       1.0  T
  14   -285.1834369  0.541942E-02  0.108E-01    0.01       1.0  T
  15   -285.1899578 -0.652090E-02  0.558E-02    0.00       1.0  T
  16   -285.1917377 -0.177995E-02  0.188E-02    0.00       1.0  T
  17   -285.1918311 -0.933600E-04  0.145E-02    0.00       1.0  T
  18   -285.1917343  0.967115E-04  0.175E-02    0.00       1.0  T
  19   -285.1918539 -0.119578E-03  0.129E-02    0.00       1.0  T
  20   -285.1917901  0.638096E-04  0.149E-02    0.00       1.0  T
  21   -285.1918056 -0.154369E-04  0.142E-02    0.00       1.0  T
  22   -285.1918651 -0.595116E-04  0.109E-02    0.00       1.0  T
  23   -285.1918782 -0.131517E-04  0.938E-03    0.00       1.0  T
  24   -285.1918843 -0.604743E-05  0.750E-03    0.00       1.1  T
  25   -285.1919013 -0.169925E-04  0.370E-03    0.00       2.2  T
  26   -285.1919025 -0.122007E-05  0.218E-03    0.00       3.7  T
  27   -285.1919027 -0.214190E-06  0.159E-03    0.00       5.1  T
  28   -285.1919030 -0.276056E-06  0.876E-04    0.00       9.2  T
  29   -285.1919027  0.232327E-06  0.962E-04    0.00       8.4  T
     SCC iter.                  ...        0 min,  1.788 sec
     gradient                   ...        0 min,  0.235 sec
 * total energy  :  -280.5036205 Eh     change       -0.3282414E-01 Eh
   gradient norm :     0.0688478 Eh/α   predicted    -0.2403623E-01 ( -26.77%)
   displ. norm   :     0.7428563 α      lambda       -0.3532085E-01
   maximum displ.:     0.3639084 α      in ANC's #35, #17, #21, ...

........................................................................
.............................. CYCLE   24 ..............................
........................................................................
   1   -285.1234808 -0.285123E+03  0.350E-01    0.04       0.0  T
   2   -274.5956187  0.105279E+02  0.541E+00    0.04       1.0  T
   3   -284.5121799 -0.991656E+01  0.107E+00    0.39       1.0  T
   4   -284.8781708 -0.365991E+00  0.726E-01    0.06       1.0  T
   5   -284.6829103  0.195260E+00  0.855E-01    0.25       1.0  T
   6   -285.0849233 -0.402013E+00  0.425E-01    0.01       1.0  T
   7   -284.8635629  0.221360E+00  0.704E-01    0.08       1.0  T
   8   -284.9979320 -0.134369E+00  0.517E-01    0.04       1.0  T
   9   -285.0128355 -0.149035E-01  0.507E-01    0.05       1.0  T
  10   -284.9867806  0.260549E-01  0.528E-01    0.04       1.0  T
  11   -285.1705980 -0.183817E+00  0.222E-01    0.02       1.0  T
  12   -285.1803805 -0.978254E-02  0.182E-01    0.02       1.0  T
  13   -285.1885475 -0.816700E-02  0.155E-01    0.02       1.0  T
  14   -285.1969101 -0.836250E-02  0.109E-01    0.02       1.0  T
  15   -285.2037561 -0.684602E-02  0.612E-02    0.00       1.0  T
  16   -285.2046008 -0.844748E-03  0.417E-02    0.00       1.0  T
  17   -285.2049656 -0.364795E-03  0.395E-02    0.00       1.0  T
  18   -285.2048448  0.120810E-03  0.402E-02    0.00       1.0  T
  19   -285.2050699 -0.225074E-03  0.354E-02    0.00       1.0  T
  20   -285.2049946  0.752538E-04  0.369E-02    0.00       1.0  T
  21   -285.2049809  0.136880E-04  0.356E-02    0.00       1.0  T
  22   -285.2049934 -0.124433E-04  0.344E-02    0.00       1.0  T
  23   -285.2049808  0.125636E-04  0.338E-02    0.00       1.0  T
  24   -285.2048280  0.152866E-03  0.322E-02    0.00       1.0  T
  25   -285.2052251 -0.397162E-03  0.180E-02    0.00       1.0  T
  26   -285.2052118  0.133057E-04  0.150E-02    0.00       1.0  T
  27   -285.2053057 -0.938639E-04  0.593E-03    0.00       1.4  T
  28   -285.2053089 -0.321300E-05  0.419E-03    0.00       1.9  T
  29   -285.2053124 -0.351921E-05  0.237E-03    0.00       3.4  T
  30   -285.2053153 -0.286235E-05  0.793E-04    0.00      10.2  T
  31   -285.2053151  0.182968E-06  0.688E-04    0.00      11.7  T
  32   -285.2053141  0.974524E-06  0.130E-03    0.00       6.2  T
  33   -285.2053153 -0.119183E-05  0.445E-04    0.00      18.1  T
  34   -285.2053153 -0.116157E-07  0.424E-04    0.00      19.0  T
[...]
C        58.63845880598122   -2.46110894990332   -0.45756134343556
C        59.61084696091386   -3.38768436818656   -0.63038477349656
C        60.86439120022146   -2.70008767710671   -0.50540786560468
N        60.64247003714265   -1.37990893477076   -0.26069078827542
C        62.09920010048072   -3.31272372104610   -0.62193688901244
C        63.32080842149934   -2.67294824157249   -0.51107411652155
C        64.59236947719042   -3.33153381888718   -0.63915364398348
C        65.54115235430892   -2.38170765304847   -0.47456402746178
C        64.85038964200795   -1.14166210764582   -0.24512033467631
N        63.50994872528543   -1.35038945812969   -0.27250470624355
C        65.47986989723523    0.07205926941113   -0.03107949217589
C        64.82693775130345    1.27107432222841    0.19514856538943
C        65.49351929102001    2.52509747338136    0.42015535283187
C        64.52658998160375    3.45256122174754    0.60534332830260
C        63.26811717864588    2.76664196612886    0.49242453080756
N        63.48275633703224    1.44984970772225    0.24373669911489
C        62.03452212023048    3.37929461174112    0.62191636345358
C        60.81180912864416    2.74193602588484    0.51090120564413
N        60.61535727979069    1.41927191855859    0.25797527036189
H        59.42216732643569    4.44974694508430    0.84804411670658
H        57.52407127828339    2.56740519987279    0.49398742021777
H        57.57370799306603   -2.59038834113803   -0.48063575205991
H        59.50805088992868   -4.43770855435633   -0.82500536736119
H        62.10913366671026   -4.37547486832566   -0.81677490493924
H        64.71797070363830   -4.38002226586741   -0.82953395088843
H        66.60859949336492   -2.48733729548123   -0.50132336817133
H        66.56003900046355    0.08417053074081   -0.03970639890064
H        66.55865496551506    2.65437188269995    0.43090050657813
H        64.63176405763907    4.50255508313958    0.79978219577021
H        62.02397377606449    4.44071321577437    0.82384221678195
C        26.54506244622284    0.05920734657888    0.00624217066490
C        27.76330991096732    0.06733116953946    0.00122819529172
C        29.10473774921449    0.07322501297670   -0.00144975674488
C        30.32306330876635    0.06860496321827   -0.00335935309703
C        39.99925735672727    0.04527239440165   -0.02061459289160
C        41.21767131576057    0.04195910104350   -0.02037224315353
C        42.55848957293766    0.03713792512902   -0.01992958084265
C        43.77690329694902    0.03312940217328   -0.01855151345113
C        53.45339448922379   -0.01102257860316   -0.01023996465856
C        54.67159403969089   -0.01154831008055   -0.01005016235313
C        56.01321864851180   -0.01178196668792   -0.00690306496847
C        57.23128838981707   -0.01063553314299   -0.00597880096877
Cu       35.16153511857908    0.05721413717545   -0.01515354944369
C        32.66506485941465   -3.36891636397300    0.37836176233898
C        31.70247262249150   -2.42199173483611    0.27283796934822
C        32.37878872103439   -1.16482904905135    0.12856875565372
C        31.71961629119502    0.06627530273485   -0.00795777919243
C        32.38426102516944    1.29386771021706   -0.14787649239597
C        31.71395270518991    2.55433750817210   -0.28952769209910
C        32.68094474229595    3.49608584368280   -0.40132000683481
C        33.93793388813008    2.80821066081431   -0.32673215045504
N        33.72378518970183    1.47308682574625   -0.17270019745606
C        35.16923026557884    3.43338311229629   -0.40331146374760
C        36.39756846306214    2.80151581101793   -0.33426686011649
C        37.65776682488221    3.48256258344199   -0.41661691691126
C        38.62031076388005    2.53578241743323   -0.30885448910319
C        37.94399901928203    1.27925031762559   -0.16099777472332
N        36.60540249189316    1.46543174904197   -0.17967391897579
C        38.60313572806684    0.04876286837409   -0.01880815703615
C        37.93842003813208   -1.17876241383293    0.12378450406834
C        38.60888623535707   -2.43890130700863    0.26872535315524
C        37.64187331796931   -3.38104234618823    0.37723588467704
C        36.38489775705392   -2.69371924339109    0.29809639517838
N        36.59898034444650   -1.35848124284324    0.14464990888406
C        35.15350171167335   -3.31933001614140    0.36989912957327
C        33.92523897452096   -2.68751459240252    0.29889767503756
N        33.71740555248295   -1.35111314745256    0.14733575559812
H        32.55131812116198   -4.42879177992856    0.49885241664767
H        30.63651837964501   -2.54104072071576    0.28859637986300
H        30.64853502369902    2.67897450386060   -0.30060575279485
H        32.57209817777748    4.55647143847343   -0.52290154637108
H        35.17184292326564    4.50692859550439   -0.52734158031831
H        37.77161836738045    4.54216614511977   -0.54007158159082
H        39.68628813770113    2.65476254062955   -0.32530041455944
H        39.67430128814176   -2.56317709704277    0.28317408776574
H        37.75077194825067   -4.44129638790169    0.49938417727784
H        35.15083507986704   -4.39302624273019    0.49258554521336
Cu       48.61468894251922    0.01083507689610   -0.01740201488282
C        46.11013280122291   -3.40739631182266    0.39351956083020
C        45.14980847033738   -2.45887393157131    0.28135040508568
C        45.82913321348178   -1.20445802569738    0.12902339390967
C        45.17302581652269    0.02700615327621   -0.01867967016331
C        45.84077190240846    1.25241467128994   -0.16500773484930
C        45.17335712899419    2.51341234471291   -0.31586073082321
C        46.14260857546235    3.45312749063367   -0.42540199365315
C        47.39794525556462    2.76340239128939   -0.34115675763710
N        47.18064024481945    1.42914162203444   -0.18392434316015
C        48.63082817285169    3.38635088690493   -0.41063663832629
C        49.85762887519670    2.75240764634108   -0.33289638267895
C        51.11945967542176    3.43134759580228   -0.40787717068933
C        52.07978908915471    2.48293169904196   -0.29539219306442
C        51.40057486559623    1.22725522110986   -0.15242973036404
N        50.06229024867696    1.41597586315793   -0.17767644908925
C        52.05655038494157   -0.00535288048565   -0.01531912308612
C        51.38885865549161   -1.23181875897395    0.11924017051015
C        52.05619515650179   -2.49401265400149    0.26143774596970
C        51.08690272161900   -3.43335103591959    0.37318803053807
C        49.83154953048477   -2.74241721875894    0.29861227106638
N        50.04886855118529   -1.40797216181549    0.14315506501654
C        48.59883028460916   -3.36434177280757    0.37847131266934
C        47.37194964756815   -2.72966719604770    0.30867632142951
N        47.16730586199866   -1.39368694087465    0.14919779496823
H        45.99368756475202   -4.46618369399203    0.52130560642951
H        44.08352443543336   -2.57533082397095    0.29761481101729
H        44.10824550249698    2.63986862060756   -0.33282809982774
H        46.03628354314818    4.51321557260287   -0.55113735696953
H        48.63603774645467    4.45970321824889   -0.53620426305895
H        51.23578574961657    4.49078599743851   -0.53047981473919
H        53.14605104989916    2.60011717967809   -0.30713305329378
H        53.12128781836988   -2.62108810268516    0.27285113464854
H        51.19309921029930   -4.49390167288741    0.49518124349406
H        48.59379541898342   -4.43749360543997    0.50577148981320

 Bond Distances (Angstroems)
 ---------------------------
Cu1-N10=2.0222       Cu1-N16=2.0187       Cu1-N22=2.0186       Cu1-N25=2.0224       C2-C3=1.3542         C2-C24=1.4352        
C2-H26=1.0729        C3-C2=1.3542         C3-C4=1.4348         C3-H27=1.0728        C4-C3=1.4348         C4-C5=1.4026         
C4-N25=1.3523        C5-C4=1.4026         C5-C6=1.4026         C5-C73=1.3972        C6-C5=1.4026         C6-C7=1.4349         
C6-N10=1.3523        C7-C6=1.4349         C7-C8=1.3543         C7-H28=1.0728        C8-C7=1.3543         C8-C9=1.4351         
C8-H29=1.0728        C9-C8=1.4351         C9-N10=1.3609        C9-C11=1.3834        N10-Cu1=2.0222       N10-C6=1.3523        
N10-C9=1.3609        C11-C9=1.3834        C11-C12=1.3834       C11-H30=1.0805       C12-C11=1.3834       C12-C13=1.4377       
C12-N16=1.3572       C13-C12=1.4377       C13-C14=1.3526       C13-H31=1.0730       C14-C13=1.3526       C14-C15=1.4379       
C14-H32=1.0730       C15-C14=1.4379       C15-N16=1.3568       C15-C17=1.3839       N16-Cu1=2.0187       N16-C12=1.3572       
N16-C15=1.3568       C17-C15=1.3839       C17-C18=1.3839       C17-H33=1.0803       C18-C17=1.3839       C18-C19=1.4379       
C18-N22=1.3569       C19-C18=1.4379       C19-C20=1.3526       C19-H34=1.0730       C20-C19=1.3526       C20-C21=1.4377       
C20-H35=1.0730       C21-C20=1.4377       C21-N22=1.3572       C21-C23=1.3834       N22-Cu1=2.0186       N22-C18=1.3569       
N22-C21=1.3572       C23-C21=1.3834       C23-C24=1.3833       C23-H36=1.0805       C24-C2=1.4352        C24-C23=1.3833       
C24-N25=1.3609       N25-Cu1=2.0224       N25-C4=1.3523        N25-C24=1.3609       H26-C2=1.0729        H27-C3=1.0728        
H28-C7=1.0728        H29-C8=1.0728        H30-C11=1.0805       H31-C13=1.0730       H32-C14=1.0730       H33-C17=1.0803       
H34-C19=1.0730       H35-C20=1.0730       H36-C23=1.0805       Cu37-N46=2.0223      Cu37-N52=2.0187      Cu37-N58=2.0186      
Cu37-N61=2.0225      C38-C39=1.3542       C38-C60=1.4352       C38-H62=1.0729       C39-C38=1.3542       C39-C40=1.4349       
C39-H63=1.0727       C40-C39=1.4349       C40-C41=1.4026       C40-N61=1.3523       C41-C40=1.4026       C41-C42=1.4024       
C41-C84=1.3975       C42-C41=1.4024       C42-C43=1.4350       C42-N46=1.3524       C43-C42=1.4350       C43-C44=1.3542       
C43-H64=1.0728       C44-C43=1.3542       C44-C45=1.4352       C44-H65=1.0728       C45-C44=1.4352       C45-N46=1.3609       
C45-C47=1.3833       N46-Cu37=2.0223      N46-C42=1.3524       N46-C45=1.3609       C47-C45=1.3833       C47-C48=1.3834       
C47-H66=1.0805       C48-C47=1.3834       C48-C49=1.4377       C48-N52=1.3571       C49-C48=1.4377       C49-C50=1.3526       
C49-H67=1.0730       C50-C49=1.3526       C50-C51=1.4379       C50-H68=1.0730       C51-C50=1.4379       C51-N52=1.3569       
C51-C53=1.3839       N52-Cu37=2.0187      N52-C48=1.3571       N52-C51=1.3569       C53-C51=1.3839       C53-C54=1.3839       
C53-H69=1.0803       C54-C53=1.3839       C54-C55=1.4379       C54-N58=1.3569       C55-C54=1.4379       C55-C56=1.3526       
C55-H70=1.0730       C56-C55=1.3526       C56-C57=1.4377       C56-H71=1.0730       C57-C56=1.4377       C57-N58=1.3572       
C57-C59=1.3834       N58-Cu37=2.0186      N58-C54=1.3569       N58-C57=1.3572       C59-C57=1.3834       C59-C60=1.3833       
C59-H72=1.0805       C60-C38=1.4352       C60-C59=1.3833       C60-N61=1.3609       N61-Cu37=2.0225      N61-C40=1.3523       
N61-C60=1.3609       H62-C38=1.0729       H63-C39=1.0727       H64-C43=1.0728       H65-C44=1.0728       H66-C47=1.0805       
H67-C49=1.0730       H68-C50=1.0730       H69-C53=1.0803       H70-C55=1.0730       H71-C56=1.0730       H72-C59=1.0805       
C73-C5=1.3972        C73-C74=1.2183       C74-C73=1.2183       C74-C75=1.3414       C75-C74=1.3414       C75-C76=1.2183       
C76-C75=1.2183       C76-C89=1.3966       C77-C78=1.2184       C77-C101=1.3961      C78-C77=1.2184       C78-C79=1.3408       
C79-C78=1.3408       C79-C80=1.2184       C80-C79=1.2184       C80-C124=1.3961      C81-C82=1.2182       C81-C136=1.3969      
C82-C81=1.2182       C82-C83=1.3416       C83-C82=1.3416       C83-C84=1.2181       C84-C41=1.3975       C84-C83=1.2181       
Cu85-N94=2.0240      Cu85-N100=2.0236     Cu85-N106=2.0239     Cu85-N109=2.0237     C86-C87=1.3544       C86-C108=1.4348      
C86-H110=1.0727      C87-C86=1.3544       C87-C88=1.4348       C87-H111=1.0727      C88-C87=1.4348       C88-C89=1.4031       
C88-N109=1.3516      C89-C76=1.3966       C89-C88=1.4031       C89-C90=1.4030       C90-C89=1.4030       C90-C91=1.4346       
C90-N94=1.3517       C91-C90=1.4346       C91-C92=1.3544       C91-H112=1.0727      C92-C91=1.3544       C92-C93=1.4348       
C92-H113=1.0729      C93-C92=1.4348       C93-N94=1.3609       C93-C95=1.3830       N94-Cu85=2.0240      N94-C90=1.3517       
N94-C93=1.3609       C95-C93=1.3830       C95-C96=1.3831       C95-H114=1.0807      C96-C95=1.3831       C96-C97=1.4348       
C96-N100=1.3610      C97-C96=1.4348       C97-C98=1.3544       C97-H115=1.0728      C98-C97=1.3544       C98-C99=1.4346       
C98-H116=1.0727      C99-C98=1.4346       C99-N100=1.3516      C99-C101=1.4031      N100-Cu85=2.0236     N100-C96=1.3610      
N100-C99=1.3516      C101-C77=1.3961      C101-C99=1.4031      C101-C102=1.4032     C102-C101=1.4032     C102-C103=1.4347     
C102-N106=1.3516     C103-C102=1.4347     C103-C104=1.3544     C103-H117=1.0727     C104-C103=1.3544     C104-C105=1.4348     
C104-H118=1.0728     C105-C104=1.4348     C105-N106=1.3610     C105-C107=1.3831     N106-Cu85=2.0239     N106-C102=1.3516     
N106-C105=1.3610     C107-C105=1.3831     C107-C108=1.3831     C107-H119=1.0807     C108-C86=1.4348      C108-C107=1.3831     
C108-N109=1.3609     N109-Cu85=2.0237     N109-C88=1.3516      N109-C108=1.3609     H110-C86=1.0727      H111-C87=1.0727      
H112-C91=1.0727      H113-C92=1.0729      H114-C95=1.0807      H115-C97=1.0728      H116-C98=1.0727      H117-C103=1.0727     
H118-C104=1.0728     H119-C107=1.0807     Cu120-N129=2.0238    Cu120-N135=2.0238    Cu120-N141=2.0238    Cu120-N144=2.0237    
C121-C122=1.3544     C121-C143=1.4348     C121-H145=1.0728     C122-C121=1.3544     C122-C123=1.4347     C122-H146=1.0727     
C123-C122=1.4347     C123-C124=1.4031     C123-N144=1.3516     C124-C80=1.3961      C124-C123=1.4031     C124-C125=1.4032     
C125-C124=1.4032     C125-C126=1.4347     C125-N129=1.3516     C126-C125=1.4347     C126-C127=1.3544     C126-H147=1.0727     
C127-C126=1.3544     C127-C128=1.4348     C127-H148=1.0728     C128-C127=1.4348     C128-N129=1.3610     C128-C130=1.3831     
N129-Cu120=2.0238    N129-C125=1.3516     N129-C128=1.3610     C130-C128=1.3831     C130-C131=1.3831     C130-H149=1.0807     
C131-C130=1.3831     C131-C132=1.4349     C131-N135=1.3609     C132-C131=1.4349     C132-C133=1.3544     C132-H150=1.0728     
C133-C132=1.3544     C133-C134=1.4347     C133-H151=1.0727     C134-C133=1.4347     C134-N135=1.3518     C134-C136=1.4030     
N135-Cu120=2.0238    N135-C131=1.3609     N135-C134=1.3518     C136-C81=1.3969      C136-C134=1.4030     C136-C137=1.4029     
C137-C136=1.4029     C137-C138=1.4348     C137-N141=1.3517     C138-C137=1.4348     C138-C139=1.3544     C138-H152=1.0727     
C139-C138=1.3544     C139-C140=1.4349     C139-H153=1.0728     C140-C139=1.4349     C140-N141=1.3609     C140-C142=1.3830     
N141-Cu120=2.0238    N141-C137=1.3517     N141-C140=1.3609     C142-C140=1.3830     C142-C143=1.3831     C142-H154=1.0807     
C143-C121=1.4348     C143-C142=1.3831     C143-N144=1.3609     N144-Cu120=2.0237    N144-C123=1.3516     N144-C143=1.3609     
H145-C121=1.0728     H146-C122=1.0727     H147-C126=1.0727     H148-C127=1.0728     H149-C130=1.0807     H150-C132=1.0728     
H151-C133=1.0727     H152-C138=1.0727     H153-C139=1.0728     H154-C142=1.0807     
 C  H  Rav=1.0747 sigma=0.0033  Rmin=1.0727  Rmax=1.0807    42
 C  C  Rav=1.3876 sigma=0.0537  Rmin=1.2181  Rmax=1.4379    95
 N  C  Rav=1.3566 sigma=0.0039  Rmin=1.3516  Rmax=1.3610    32
 Cu N  Rav=2.0221 sigma=0.0021  Rmin=2.0186  Rmax=2.0240    16

 selected bond angles (degree)
 --------------------
N16-Cu1-N10= 90.41             N22-Cu1-N10=179.60             N22-Cu1-N16= 89.71             N25-Cu1-N10= 89.48             
N25-Cu1-N16=179.67             N25-Cu1-N22= 90.40             C24-C2-C3=106.75               H26-C2-C3=128.61               
H26-C2-C24=124.64              C4-C3-C2=106.60                H27-C3-C2=128.85               H27-C3-C4=124.55               
C5-C4-C3=123.84                N25-C4-C3=110.14               N25-C4-C5=126.03               C6-C5-C4=123.78                
C73-C5-C4=118.05               C73-C5-C6=118.17               C7-C6-C5=123.83                N10-C6-C5=126.03               
N10-C6-C7=110.13               C8-C7-C6=106.60                H28-C7-C6=124.54               H28-C7-C8=128.86               
C9-C8-C7=106.75                H29-C8-C7=128.61               H29-C8-C9=124.64               N10-C9-C8=109.75               
C11-C9-C8=124.07               C11-C9-N10=126.18              C6-N10-Cu1=127.34              C9-N10-Cu1=125.90              
C9-N10-C6=106.77               

 selected dihedral angles (degree)
 ---------------------------------
C4-C3-C2-C24=  0.00           C4-C3-C2-H26=179.98           H27-C3-C2-C24=180.04          H27-C3-C2-H26=  0.00          
C5-C4-C3-C2=180.38            C5-C4-C3-H27=  0.36           N25-C4-C3-C2=  0.11           N25-C4-C3-H27=180.08          
C6-C5-C4-C3=180.43            C6-C5-C4-N25=  0.74           C73-C5-C4-C3=  0.38           C73-C5-C4-N25=180.70          
C7-C6-C5-C4=179.63            C7-C6-C5-C73=359.67           N10-C6-C5-C4=  0.16           N10-C6-C5-C73=180.20          
C8-C7-C6-C5=180.56            C8-C7-C6-N10=  0.11           H28-C7-C6-C5=  0.50           H28-C7-C6-N10=180.05          
C9-C8-C7-C6=359.96            C9-C8-C7-H28=180.02           H29-C8-C7-C6=179.99           H29-C8-C7-H28=  0.05          
N10-C9-C8-C7=359.96           N10-C9-C8-H29=179.94          C11-C9-C8-C7=179.82           C11-C9-C8-H29=359.79          
C6-N10-Cu1-N16=180.36         C6-N10-Cu1-N22=287.48         C6-N10-Cu1-N25=  0.66         C9-N10-Cu1-N16=  0.00         
C9-N10-Cu1-N22=107.13         C9-N10-Cu1-N25=180.31         Cu1-N10-C6-C5=359.10          Cu1-N10-C6-C7=179.57          
C9-N10-C6-C5=179.40           C9-N10-C6-C7=359.87           Cu1-N10-C9-C8=180.40          Cu1-N10-C9-C11=  0.55         
C6-N10-C9-C8=  0.10           C6-N10-C9-C11=180.25          

 CMA Distance (Angstroems)
 ---------------------------
R(CMA): 26.1558
           -------------------------------------------------
          |                Final Singlepoint                |
           -------------------------------------------------

          ...................................................
          :                      SETUP                      :
          :.................................................:
          :  # basis functions                 514          :
          :  # atomic orbitals                 510          :
          :  # shells                          270          :
          :  # electrons                       534          :
          :  max. iterations                   250          :
          :  Hamiltonian                  GFN2-xTB          :
          :  restarted?                      false          :
          :  GBSA solvation                  false          :
          :  PC potential                    false          :
          :  electronic temp.          300.0000000     K    :
          :  accuracy                    1.0000000          :
          :  -> integral cutoff          0.2500000E+02      :
          :  -> integral neglect         0.1000000E-07      :
          :  -> SCF convergence          0.1000000E-05 Eh   :
          :  -> wf. convergence          0.1000000E-03 e    :
          :  Broyden damping             0.4000000          :
          ...................................................

 iter      E             dE          RMSdq      gap      omega  full diag
   1   -285.7690645 -0.285769E+03  0.698E-05    0.00       0.0  T
   2   -285.7690548  0.969572E-05  0.371E-03    0.00       2.2  T
   3   -285.7690645 -0.964155E-05  0.287E-04    0.00      28.1  T
   4   -285.7690645 -0.495251E-07  0.113E-04    0.00      71.6  T
   5   -285.7690645  0.362519E-07  0.258E-04    0.00      31.3  T
