154
 energy: -279.591744535829 gnorm: 0.743542811207 xtb: 6.4.1 (bd6e46d)
Cu       20.26066600000000    0.03832100000000   -0.01103500000000
C        22.58965700000000   -3.10847200000000    1.31165400000000
C        23.50576400000000   -2.16426500000000    1.26137200000000
C        23.09458500000000   -1.11036100000000    0.34008000000000
C        23.71345500000000    0.01398600000000   -0.00633000000000
C        23.00941300000000    1.23393400000000   -0.37043500000000
C        23.33752400000000    2.19398900000000   -1.21790900000000
C        22.30274400000000    3.21027400000000   -1.23480700000000
C        21.36647600000000    2.83381200000000   -0.38791500000000
N        21.76846600000000    1.60080100000000    0.17590200000000
C        20.10540200000000    3.47881100000000   -0.00876300000000
C        19.01018400000000    2.84402900000000    0.34199700000000
C        17.93655900000000    3.16198500000000    1.31102500000000
C        17.09899600000000    2.16523100000000    1.23385900000000
C        17.53729300000000    1.16154800000000    0.25340700000000
N        18.64223200000000    1.60040100000000   -0.23088500000000
C        16.92645900000000   -0.09172300000000   -0.16014100000000
C        17.59061900000000   -1.19622900000000   -0.41456600000000
C        17.21677100000000   -2.25917100000000   -1.37209300000000
C        18.16551800000000   -3.15292700000000   -1.28307400000000
C        19.15124200000000   -2.71547700000000   -0.30019600000000
N        18.79819600000000   -1.56967200000000    0.19660100000000
C        20.38213000000000   -3.37154700000000    0.14552500000000
C        21.50517100000000   -2.72568600000000    0.41264600000000
N        21.83377100000000   -1.47824500000000   -0.18575800000000
H        22.64991900000000   -4.01825300000000    1.92920000000000
H        24.42209200000000   -2.20421400000000    1.83942000000000
H        24.26488900000000    2.21078400000000   -1.81905200000000
H        22.31964300000000    4.11496300000000   -1.84742800000000
H        20.05767900000000    4.57361400000000   -0.01254100000000
H        17.88373700000000    4.04071000000000    1.93601700000000
H        16.18736600000000    2.12956100000000    1.85118300000000
H        15.82820800000000   -0.08881200000000   -0.25941200000000
H        16.34791500000000   -2.31163600000000   -2.02104300000000
H        18.16267200000000   -4.06923500000000   -1.88183300000000
H        20.34664700000000   -4.46734900000000    0.25745000000000
Cu       63.49624800000000   -0.00905500000000   -0.01546800000000
C        61.16725700000000    2.83773700000000    1.86803700000000
C        60.25114900000001    1.91924800000000    1.64346300000000
C        60.66232900000000    1.05455100000000    0.54264900000000
C        60.04345800000000    0.01398600000000   -0.00633000000000
C        60.74750100000000   -1.11723900000000   -0.59043300000000
C        60.41939000000000   -1.90341100000000   -1.60130000000000
C        61.45417000000000   -2.89892000000000   -1.80644000000000
C        62.39043800000001   -2.68610400000000   -0.90441000000000
N        61.98844800000000   -1.57909200000000   -0.12163800000000
C        63.65151200000000   -3.39024500000000   -0.65149600000000
C        64.74673000000000   -2.83155200000000   -0.18906300000000
C        65.82035500000001   -3.32375800000000    0.70415900000000
C        66.65791800000000   -2.32999100000000    0.81324400000000
C        66.21962000000001   -1.16184200000000    0.03600900000000
N        65.11468200000000   -1.50323400000000   -0.52129000000000
C        66.83045500000000    0.14639300000000   -0.13786100000000
C        66.16629500000001    1.27892700000000   -0.18296700000000
C        66.54014300000000    2.50105300000000   -0.92668200000000
C        65.59139600000000    3.36278000000000   -0.67340300000000
C        64.60567200000000    2.75058500000000    0.21126000000000
N        64.95871800000000    1.53250600000000    0.48687000000000
C        63.37478400000000    3.31258000000000    0.77095400000000
C        62.25174300000000    2.62837500000000    0.91362200000000
N        61.92314300000001    1.51360000000000    0.09418700000000
H        61.10699500000000    3.61716100000000    2.64364100000000
H        59.33482200000000    1.85126700000000    2.21888900000000
H        59.49202500000000   -1.80839400000000   -2.19512400000000
H        61.43727100000000   -3.67425500000000   -2.57626000000000
H        63.69923500000000   -4.46534300000000   -0.85831000000000
H        65.87317700000000   -4.30317400000000    1.15528600000000
H        67.56954800000000   -2.40946300000000    1.42647000000000
H        67.92870600000001    0.16194900000000   -0.23594800000000
H        67.40899899999999    2.67299600000000   -1.55463500000000
H        65.59424199999999    4.37426100000000   -1.09178100000000
H        63.41026700000000    4.36859600000000    1.08422300000000
C        26.60815900000000    0.01195000000000   -0.00744200000000
C        27.81613600000000    0.01940500000000   -0.00574700000000
C        29.23490400000000    0.02010200000000   -0.00061000000000
C        30.45042000000000    0.01195000000000   -0.00744200000000
C        39.95831000000000    0.01195000000000   -0.00744200000000
C        41.16628700000000    0.01940500000000   -0.00574700000000
C        42.58505400000001    0.02010200000000   -0.00061000000000
C        43.80057100000000    0.01195000000000   -0.00744200000000
C        53.30846000000000    0.01195000000000   -0.00744200000000
C        54.51643700000001    0.01940500000000   -0.00574700000000
C        55.93520500000000    0.02010200000000   -0.00061000000000
C        57.15072100000000    0.01195000000000   -0.00744200000000
Cu       35.23900200000000    0.03208600000000    0.00469700000000
C        32.95919100000000   -3.22936200000000   -0.90496900000000
C        32.00298200000000   -2.33001100000000   -1.00699500000000
C        32.39535600000000   -1.16770600000000   -0.20448000000000
C        31.76023900000000   -0.01643400000000    0.00778700000000
C        32.44569600000000    1.25816600000000    0.23401600000000
C        32.11040600000000    2.33676600000000    0.93825600000000
C        33.13494700000000    3.35608200000000    0.84767500000000
C        34.08554500000000    2.85915800000000    0.07431000000000
N        33.70855100000000    1.54255300000000   -0.34183300000000
C        35.33268400000000    3.47085900000000   -0.34255600000000
C        36.43423600000000    2.80360200000000   -0.67432700000000
C        37.42778200000000    3.05558700000000   -1.70849700000000
C        38.32166600000000    2.09472800000000   -1.60701300000000
C        37.94196700000001    1.18284400000000   -0.50303600000000
N        36.84705200000000    1.63216300000000    0.00433100000000
C        38.59917400000000   -0.01643400000000    0.00778700000000
C        37.97576300000001   -1.08561600000000    0.46930300000000
C        38.35447600000000   -2.01773100000000    1.54477900000000
C        37.41380700000001   -2.93187700000000    1.63064500000000
C        36.40550600000001   -2.63609800000000    0.63321800000000
N        36.74328000000000   -1.58272100000000   -0.01607700000000
C        35.15311200000001   -3.34310600000000    0.30202500000000
C        34.03923600000001   -2.74640900000000   -0.04531700000000
N        33.65712400000000   -1.46365200000000    0.37236600000000
H        32.95953600000000   -4.22043500000000   -1.39620400000000
H        31.09444700000000   -2.45170500000000   -1.58814400000000
H        31.18555400000000    2.45511700000000    1.51518200000000
H        33.16224200000000    4.34524700000000    1.30432500000000
H        35.41862400000000    4.56823700000000   -0.40457800000000
H        37.46045500000000    3.86180300000000   -2.43532100000000
H        39.21472700000000    1.98175900000000   -2.24078700000000
H        39.26922600000000   -1.94332500000000    2.15494900000000
H        37.43285300000000   -3.74548500000000    2.33891200000000
H        35.19159700000000   -4.44306500000000    0.36106100000000
Cu       48.58915200000000    0.03208600000000    0.00469700000000
C        46.30934100000001   -3.22936200000000   -0.90496900000000
C        45.35313200000000   -2.33001100000000   -1.00699500000000
C        45.74550600000000   -1.16770600000000   -0.20448000000000
C        45.11039000000000   -0.01643400000000    0.00778700000000
C        45.79584700000000    1.25816600000000    0.23401600000000
C        45.46055700000000    2.33676600000000    0.93825600000000
C        46.48509800000001    3.35608200000000    0.84767500000000
C        47.43569500000000    2.85915800000000    0.07431000000000
N        47.05870100000000    1.54255300000000   -0.34183300000000
C        48.68283500000000    3.47085900000000   -0.34255600000000
C        49.78438600000000    2.80360200000000   -0.67432700000000
C        50.77793300000000    3.05558700000000   -1.70849700000000
C        51.67181600000000    2.09472800000000   -1.60701300000000
C        51.29211800000000    1.18284400000000   -0.50303600000000
N        50.19720300000000    1.63216300000000    0.00433100000000
C        51.94932500000001   -0.01643400000000    0.00778700000000
C        51.32591300000001   -1.08561600000000    0.46930300000000
C        51.70462600000000   -2.01773100000000    1.54477900000000
C        50.76395700000000   -2.93187700000000    1.63064500000000
C        49.75565600000000   -2.63609800000000    0.63321800000000
N        50.09343100000000   -1.58272100000000   -0.01607700000000
C        48.50326300000000   -3.34310600000000    0.30202500000000
C        47.38938600000001   -2.74640900000000   -0.04531700000000
N        47.00727400000000   -1.46365200000000    0.37236600000000
H        46.30968600000000   -4.22043500000000   -1.39620400000000
H        44.44459800000001   -2.45170500000000   -1.58814400000000
H        44.53570400000001    2.45511700000000    1.51518200000000
H        46.51239300000001    4.34524700000000    1.30432500000000
H        48.76877500000000    4.56823700000000   -0.40457800000000
H        50.81060500000000    3.86180300000000   -2.43532100000000
H        52.56487700000000    1.98175900000000   -2.24078700000000
H        52.61937600000000   -1.94332500000000    2.15494900000000
H        50.78300400000000   -3.74548500000000    2.33891200000000
H        48.54174700000000   -4.44306500000000    0.36106100000000
154
 energy: -279.848109761247 gnorm: 0.402703486451 xtb: 6.4.1 (bd6e46d)
Cu       20.27288463101431    0.03702196469658   -0.00894706188326
C        22.59130699592809   -3.11902268442390    1.30097721635991
C        23.52036507475002   -2.16265652467847    1.25850623902724
C        23.08461098414326   -1.11040101615980    0.34972050693798
C        23.68886626215818    0.03549105915079   -0.01278207426747
C        22.99320529274951    1.23188478841214   -0.36041033887203
C        23.35079627778375    2.22403976512872   -1.23590959151102
C        22.33471058273769    3.21156430592307   -1.24987692857248
C        21.35976283268104    2.80670842653528   -0.38170462480740
N        21.73896280513012    1.57806691586981    0.17728869917043
C        20.12578082550693    3.47551335950007   -0.00817421010753
C        18.99997414720008    2.82714857119356    0.34243813490016
C        17.93604618461187    3.17118985718427    1.29159035063893
C        17.07256568684420    2.15674395169424    1.23894643599017
C        17.53295101773180    1.16302099010037    0.27118412408397
N        18.67957073183655    1.57484059743939   -0.20894460655325
C        16.91433959782196   -0.06940346476109   -0.15412711167022
C        17.59331266478326   -1.19940499828182   -0.41942786998655
C        17.20635702964841   -2.26050380703752   -1.35557304530182
C        18.17348587456151   -3.17489398715722   -1.28123173969399
C        19.16118257252399   -2.72362946693321   -0.31007494699229
N        18.81450208053350   -1.54302580192728    0.16551089497394
C        20.36412440595514   -3.37860144725673    0.13801630890978
C        21.51259198213932   -2.71181605958031    0.41297119921397
N        21.82546432641766   -1.47189080052227   -0.15253871479002
H        22.64067507056919   -4.01302723407466    1.91990308388022
H        24.42787002849955   -2.19317932714111    1.83593837382303
H        24.26255706067995    2.22051305827922   -1.82198895807117
H        22.32814369755776    4.11137692147527   -1.84901664094388
H        20.07661631712121    4.56784390804638   -0.00393364545476
H        17.89173554355949    4.03940021055333    1.92829118047451
H        16.18134259743888    2.11919068337838    1.85038284768018
H        15.82970109838472   -0.07859615176945   -0.26721924458132
H        16.34938091640340   -2.30116118980296   -2.01198853463225
H        18.17504597710285   -4.07450376783865   -1.87802495702542
H        20.34006302532726   -4.46285444864986    0.26061951366362
Cu       63.48403391491708   -0.00819946402285   -0.01313413091086
C        61.16565158278718    2.85000975070122    1.85957990188179
C        60.23643321558884    1.91830084290462    1.64028296353720
C        60.67185479149892    1.05307772850794    0.55194037297592
C        60.06707232340057   -0.00615403039119   -0.01613956337154
C        60.76355343479319   -1.11695135353630   -0.58034499223915
C        60.40612899685858   -1.92956202881522   -1.62454209109423
C        61.42224084180440   -2.89747972940086   -1.82143368125241
C        62.39710000375582   -2.66071316945938   -0.89328040281789
N        62.01778273810687   -1.55683008635290   -0.11623991444071
C        63.63109976509899   -3.38711155970745   -0.65033908398733
C        64.75693997114016   -2.81501293439334   -0.18548458563368
C        65.82084205419848   -3.32915609587881    0.68339681467793
C        66.68441252118915   -2.32261392665613    0.81973764665143
C        66.22399271963788   -1.16657053761394    0.05318962497231
N        65.07730740605997   -1.48224854738846   -0.49495403312912
C        66.84257088310891    0.12329385705183   -0.13604719782240
C        66.16355573599959    1.28296835164403   -0.18716274432987
C        66.55049587697692    2.49928214834359   -0.91025839708482
C        65.58344877599622    3.38407448561885   -0.66745456409299
C        64.59575125376780    2.76046069708082    0.20310654010901
N        64.94249566431952    1.51206566645181    0.45138383158816
C        63.39280666495061    3.32084991005878    0.76483717824293
C        62.24433997485163    2.61448840144840    0.91150540119855
N        61.93133539883448    1.50113370037506    0.12564892244684
H        61.11625707691998    3.61373446996163    2.63353724578475
H        59.32901599731159    1.84112280830132    2.21346531471014
H        59.49433802289700   -1.81743911824481   -2.19981215873080
H        61.42879090398777   -3.67045614218523   -2.57716563316041
H        63.68031138333418   -4.46126232533142   -0.84884275988697
H        65.86517445964974   -4.30044337915014    1.14794133152356
H        67.57558155541254   -2.39911960048040    1.42760520863827
H        67.92721337439809    0.15335059125260   -0.24544518476823
H        67.40751566315579    2.66102074482766   -1.54768569216949
H        65.58186099021412    4.37874504099898   -1.08705671491673
H        63.41678833435954    4.36360544223657    1.08633648854185
C        26.59581294571055    0.01233199628920   -0.00509225344580
C        27.82297651334849    0.01958473885871   -0.00632434203896
C        29.20276022107889    0.02126637002436   -0.00060048473721
C        30.42549340055270    0.02208009007714   -0.00968803403655
C        39.97515928021397    0.02069352130226   -0.00380911702997
C        41.19312796637239    0.02053433021720   -0.00407875951919
C        42.55740254859150    0.02107601196216   -0.00108037298610
C        43.77719461799568    0.02172347515698   -0.01131940996426
C        53.32875100669089    0.02133097088936   -0.00299546286976
C        54.54819050918955    0.02032731659482   -0.00448034517351
C        55.93280836235233    0.01925904436258   -0.00086392347627
C        57.15768273745869    0.01113124470179   -0.00631948313255
Cu       35.22965158938245    0.03463709490446    0.00087773417994
C        32.96026258554168   -3.24993170220426   -0.89676497963630
C        31.99809562771813   -2.32903884790419   -0.99859690097460
C        32.42685945650822   -1.18396308434606   -0.20822216972982
C        31.77781392706053    0.00540819271574    0.00656222724542
C        32.47923164846670    1.26360677118353    0.23088005782969
C        32.10094430198084    2.36507172216779    0.94993587313843
C        33.10889833544918    3.35769995514386    0.85562055988968
C        34.09674174285483    2.83606956804873    0.07062098235000
N        33.73975947923099    1.52552717629790   -0.32540117341090
C        35.31712392403308    3.46849015067982   -0.34483283447215
C        36.44262504298540    2.79020010102076   -0.67484775050987
C        37.43632259159026    3.06432323756502   -1.69357872744595
C        38.34333736777896    2.08198138526607   -1.60635821466533
C        37.94097473618770    1.18341622004226   -0.52003017148153
N        36.80841176529812    1.60827715711791   -0.01736449390986
C        38.60402789847036    0.00142133516513   -0.00182213817639
C        37.95795478468448   -1.09980159488359    0.47679598643642
C        38.36640551476379   -2.01717720510893    1.53345435869528
C        37.40949866330917   -2.95047644411972    1.62921975370747
C        36.39391927755738   -2.64284367275728    0.64335334863547
N        36.72268761344390   -1.54183052640903    0.00064571200628
C        35.17411794401619   -3.34970388952750    0.31258492566549
C        34.02686317884780   -2.73342478094700   -0.05313024109835
N        33.67320536274561   -1.44842163254535    0.33632689443877
H        32.96531845052219   -4.21787362982171   -1.39189473068055
H        31.09549730552827   -2.43974522941958   -1.58239353377298
H        31.18461002826831    2.46011929065107    1.51662594904959
H        33.14930806422414    4.33900743878090    1.30700680329597
H        35.39824827227184    4.56053400110478   -0.41183004641137
H        37.45248186615765    3.86024556894148   -2.42563167830782
H        39.21637254847064    1.97382831323401   -2.23739164293069
H        39.26315406430292   -1.93725467273046    2.14505773765194
H        37.42426957457407   -3.75315026430199    2.33956625509114
H        35.19878937168200   -4.43996928533774    0.35830919823059
Cu       48.57929220506624    0.03455474973527    0.00096752205362
C        46.30932419826555   -3.25045476523351   -0.89617858665094
C        45.34819236371273   -2.33004506411038   -0.99798418653578
C        45.77696885776967   -1.18381130144365   -0.20627981656948
C        45.12916912108269    0.00450301362174    0.00613612822827
C        45.82977853829227    1.26442117124882    0.23053433759391
C        45.45155590112995    2.36473439163007    0.95011018637445
C        46.45926630418299    3.35817331796336    0.85523531737000
C        47.44721075127809    2.83661489313693    0.07084435390842
N        47.08934775948180    1.52576196780350   -0.32563834518157
C        48.66731466977236    3.46851984274982   -0.34433538738105
C        49.79316910060262    2.79028111631281   -0.67447508894208
C        50.78634793188422    3.06417512512667   -1.69361039575813
C        51.69343976336243    2.08177907519014   -1.60666734083121
C        51.29074146025101    1.18202169550898   -0.52154554192677
N        50.15867889543024    1.60764322631289   -0.01758231838803
C        51.95533888837480    0.00083876695167   -0.00137657036758
C        51.30924720535309   -1.09867730761509    0.47777967619627
C        51.71752927085014   -2.01709208262781    1.53283346569889
C        50.75892959758950   -2.94897176412098    1.63011524173513
C        49.74510249472586   -2.64160440420034    0.64387135589366
N        50.07229603931507   -1.54233177870545    0.00119272044590
C        48.52300250812799   -3.35014517930949    0.31097704696895
C        47.37795279789723   -2.73404883648815   -0.05266418458900
N        47.02377258539861   -1.44800686339264    0.33644096763993
H        46.31528913641482   -4.21798025317880   -1.39204425649080
H        44.44579993722533   -2.43990671258034   -1.58258366093848
H        44.53472670432358    2.46011195595986    1.51647917437454
H        46.49952288916769    4.33922873186456    1.30697478898165
H        48.74837878860448    4.56056393550539   -0.41188176082893
H        50.80262904676744    3.86023328499940   -2.42558499624780
H        52.56655695367067    1.97381708407455   -2.23736410645638
H        52.61369825498975   -1.93734693620044    2.14487066494526
H        50.77433494662300   -3.75284045072483    2.33944106914043
H        48.54891564643641   -4.44020873918936    0.35673305937099
154
 energy: -279.994937328439 gnorm: 0.160309376568 xtb: 6.4.1 (bd6e46d)
Cu       20.28206456152541    0.03547691056964   -0.00702086063140
C        22.59168773318116   -3.12599457282732    1.28617119569353
C        23.53197173363908   -2.15963844242794    1.25387393657926
C        23.06790680095657   -1.10717185923099    0.36607867343445
C        23.65057393297668    0.06063618487030   -0.02149849340208
C        22.97260185918217    1.22611034871012   -0.35530050062521
C        23.35756245909801    2.25386723841918   -1.24564816221926
C        22.36766575572410    3.20846805857119   -1.25340379069424
C        21.35249951892521    2.77724133957749   -0.37369161249417
N        21.70708708939634    1.55540995803622    0.16089185102073
C        20.14932203709282    3.46475768474014   -0.00728660381670
C        18.99952656236801    2.80113640426972    0.35032665625904
C        17.94103111804667    3.17352403937956    1.26493981710123
C        17.05073978545027    2.15139794929546    1.23463720314025
C        17.53047878267246    1.16204609628535    0.29287727163166
N        18.72275769057482    1.54392952739514   -0.17382896805523
C        16.90854150753464   -0.04822221474215   -0.14724928577814
C        17.60228525838946   -1.19563592819071   -0.43271699928715
C        17.20164391277584   -2.25953830557623   -1.33394179957677
C        18.17769241707959   -3.19292464136071   -1.27114028741543
C        19.17325423622634   -2.72720767298472   -0.32299396214339
N        18.83560744338563   -1.50569712328274    0.12101608568483
C        20.34742584068449   -3.37951851497301    0.12942573886422
C        21.51508391617511   -2.69289409822329    0.41623364758875
N        21.81123055806763   -1.46391983423981   -0.11020039900604
H        22.63035329080814   -4.00842663713072    1.90472760284862
H        24.43578689580717   -2.17950839351988    1.82825398093642
H        24.26000790878053    2.22844198767508   -1.82061606760664
H        22.33271616007060    4.10579857264176   -1.84474651536980
H        20.09749317860616    4.55430708269779   -0.00039412448604
H        17.90059306641482    4.03466498384669    1.91250905849182
H        16.17440953297270    2.10779282362168    1.84456495745343
H        15.83353974014858   -0.07070376752112   -0.27028380732994
H        16.35240160178251   -2.29009076919337   -1.99649758361692
H        18.18828708003987   -4.08103147620063   -1.86895866912823
H        20.33711973214372   -4.45520102404868    0.26029161054704
Cu       63.47488828805150   -0.00715959874284   -0.01086783145409
C        61.16536878406303    2.85947104246332    1.84642553469301
C        60.22462954908431    1.91634047461507    1.63500276888586
C        60.68804968029954    1.04711133389520    0.56716566438733
C        60.10395730573195   -0.02935521011551   -0.02895929248638
C        60.78383333808662   -1.11208403277040   -0.57430378574852
C        60.39924115927088   -1.95711826898463   -1.63956420436087
C        61.38925410311014   -2.89385154243943   -1.82423789642368
C        62.40429646761233   -2.63324698450220   -0.87989592431441
N        62.04943422472231   -1.53113384091959   -0.12839683436310
C        63.60746132970329   -3.37664328098778   -0.64747286929879
C        64.75736128204530   -2.79081075195269   -0.17284470456792
C        65.81581296535232   -3.32642163529597    0.65687024536578
C        66.70637340439961   -2.31660673618252    0.81631245716869
C        66.22653854290165   -1.16958329116216    0.07463802917375
N        65.03400010940148   -1.45844532917014   -0.45458803667582
C        66.84834770572895    0.10109683457194   -0.13312798645642
C        66.15445866883367    1.28174724377951   -0.20098071579434
C        66.55507863233211    2.49426289915867   -0.88933259179363
C        65.57927041453004    3.39999674119582   -0.65408876714695
C        64.58368805774742    2.76643296963178    0.19111805121798
N        64.92149078857416    1.48356614018005    0.40067545745995
C        63.40950256200239    3.32322266135677    0.75642444913054
C        62.24183440386808    2.59497775938683    0.91133483295752
N        61.94531069787222    1.48529737069470    0.16570947963786
H        61.12664122812029    3.61197966085925    2.61778024848765
H        59.32101709641221    1.82924169173474    2.20339900633099
H        59.49684613266653   -1.82556763210594   -2.19999279728317
H        61.42419123743999   -3.66578585606757   -2.57190436877506
H        63.65943987939601   -4.44854477693420   -0.84297245993288
H        65.85630803039999   -4.29282061536029    1.13334169046736
H        67.58254344887027   -2.38682640532970    1.42397775191681
H        67.92337070260461    0.14615696173610   -0.24973028917504
H        67.40444522443650    2.64724860010037   -1.53456637403762
H        65.56860733159610    4.38349798532380   -1.07695193915595
H        63.41959626735551    4.35614141812415    1.08425112862134
C        26.59297541348645    0.01350573267476   -0.00359179502815
C        27.83279956710284    0.01959755376341   -0.00670970705175
C        29.17810946136940    0.02115227810076    0.00035331162555
C        30.41096634702191    0.03240814842745   -0.00958845448127
C        39.98728003691983    0.02284116289745   -0.00436202609578
C        41.21531632520427    0.01894190857204   -0.00278991823938
C        42.53935710390108    0.02156366457045   -0.00035218848605
C        43.76818504191673    0.03283271493077   -0.01234617776923
C        53.34672434007121    0.02413838842163   -0.00307853471321
C        54.57576746640922    0.01970529535941   -0.00227259281594
C        55.92705718686059    0.01865663786114   -0.00168561627240
C        57.16228700229003    0.01006553576374   -0.00522851463861
Cu       35.22517670705871    0.03738304767701   -0.00333337871734
C        32.96557422488482   -3.26600656670799   -0.88493221566284
C        31.99758337956188   -2.32306947258876   -0.98656322737153
C        32.45751056208000   -1.19089909111949   -0.21666123784605
C        31.79017586776995    0.03124056359892    0.00558865733473
C        32.51526146184115    1.26414351139312    0.22762219450783
C        32.09529202031479    2.39262376061660    0.95401973562820
C        33.08173838871502    3.35448606295460    0.85460780815061
C        34.10942413008822    2.81002559624642    0.06778586594799
N        33.77137678568998    1.50607041843266   -0.28896900866908
C        35.29786663895151    3.46010802738804   -0.34714405411961
C        36.44292010988007    2.76677853785206   -0.68210108436188
C        37.44171243115149    3.06727548460607   -1.67370402557372
C        38.36229556976988    2.07043551713297   -1.59528748374117
C        37.94013803009541    1.17921830868066   -0.53861384396934
N        36.76310718751920    1.57747140604676   -0.05035461238942
C        38.60955414870342    0.01846800748566   -0.01249412455621
C        37.93523165765180   -1.10525694535863    0.48889712386650
C        38.37066507605596   -2.01238194558514    1.51701833142254
C        37.40633580378838   -2.96697277129808    1.61672195612525
C        36.37950232920253   -2.64592905317997    0.65534154106135
N        36.70057477600639   -1.48914736856840    0.03096259674985
C        35.19469966716956   -3.34760990001749    0.32329573582826
C        34.02316286864393   -2.71847131956406   -0.06790865509315
N        33.69063447821583   -1.43184672319886    0.28866559707987
H        32.97191412665978   -4.21686205015011   -1.38209409631495
H        31.09765104186531   -2.42442641698712   -1.57001567946213
H        31.18357316819309    2.46241723084984    1.51349629420017
H        33.13701858856780    4.33005247338359    1.30521183623298
H        35.37428126553102    4.54675800911324   -0.41409011042027
H        37.44361643010222    3.85784618987619   -2.40810503629738
H        39.21930261045306    1.96517390064372   -2.22881875890674
H        39.25500448733352   -1.93172897648340    2.12905889773533
H        37.41408805522293   -3.76172849375798    2.33353002723471
H        35.20172160401280   -4.43175956249525    0.36100777897499
Cu       48.57446575200242    0.03703639624036   -0.00335377513085
C        46.31366379556029   -3.26714696539924   -0.88401669863996
C        45.34752656410785   -2.32522919157712   -0.98491489265765
C        45.80901681532988   -1.19140682090587   -0.21197092371812
C        45.14618904895882    0.02983622656782    0.00490209297448
C        45.86726124914692    1.26613523556933    0.22573396658248
C        45.44626676108138    2.39259922484165    0.95378077058091
C        46.43201056546070    3.35557217436742    0.85385724161494
C        47.46066770497055    2.81153743670244    0.06786399757857
N        47.12146358024323    1.50678450304271   -0.28958947669920
C        48.64812435214214    3.45997609413153   -0.34572022866527
C        49.79420143145297    2.76629450800732   -0.68153743348679
C        50.79140646124156    3.06663009081765   -1.67382592956216
C        51.71235543863252    2.06949998617410   -1.59636826326254
C        51.29057753944892    1.17622064663119   -0.54225018912574
N        50.11440243953788    1.57604641369005   -0.05090765342962
C        51.96468706965933    0.01744129697199   -0.01196698795807