222
 energy: -402.459677991194 gnorm: 0.000543098351 xtb: 6.4.1 (bd6e46d)
Co       43.31633342401331    0.42237779380833    0.42319698286139
C        45.98254655235043   -2.00224816026423    2.57373893657533
C        46.85064629001496   -1.46132631136233    1.68728266001746
C        46.08867436450785   -0.57383958043079    0.86282523265425
C        46.66689065561683    0.28011148856476   -0.08338206336778
C        45.94678263846048    1.34880132423680   -0.62727702609502
C        46.55832404514914    2.42785041945928   -1.33941234298865
C        45.57875916498661    3.32667279583400   -1.59288434058856
C        44.36722474136363    2.76338445653844   -1.07889041273321
N        44.61134500444941    1.56054130606790   -0.47033869993261
C        43.11919585495779    3.30925684037824   -1.29786935655299
C        41.94810630016783    2.63822777977499   -1.00922028287690
C        40.65437960146481    3.07151613083544   -1.45023679555754
C        39.78327636939058    2.09750035981327   -1.10431119190051
C        40.54185099091021    1.09909243647481   -0.40819430155337
N        41.86556740224160    1.43439563805465   -0.36845104664605
C        39.97336146835323    0.01817125735154    0.23517865161068
C        40.68493415358748   -0.78962367916324    1.09939569513109
C        40.07551782167658   -1.75136124953913    1.97139630615564
C        41.05825508050892   -2.22462576840859    2.76989405689768
C        42.27119064847000   -1.58824423554243    2.34599038644431
N        42.02861618156209   -0.70678297895551    1.33060439948873
C        43.51968115170526   -1.92075031408499    2.83173103979826
C        44.69005236405600   -1.47913397320817    2.24974524423657
N        44.77308076849240   -0.58944461991324    1.21122324187313
H        46.17661974715276   -2.70384854145787    3.36167777666527
H        47.91073423991061   -1.60343693778853    1.60965815081707
H        47.60351928827625    2.48712516276736   -1.56958384967037
H        45.64674766663179    4.27107735217695   -2.09693709734300
H        43.05644313586197    4.26230597985788   -1.80080656045893
H        40.46610115577747    3.98968438086540   -1.97231369165432
H        38.72455707160915    2.04974456168257   -1.27127545962524
H        38.91136940885352   -0.14446083075880    0.13210591798580
H        39.03103475204703   -1.99642840026560    1.97081819291522
H        40.99557022162559   -2.94963086879713    3.55823357214530
H        43.58512779102090   -2.62963527010579    3.64317880740030
Co       96.52651384273267   -0.26976466268623    0.38090880218308
C        93.75790682141572    1.66074372563366    2.88235405396672
C        92.89647257375962    1.10228269809980    2.00068773387504
C        93.69406257647736    0.38249530444018    1.05499168212854
C        93.14871739725993   -0.42523363032979    0.05233652589548
C        93.93871816456394   -1.32315624788222   -0.66932090365017
C        93.39680478671929   -2.33784117346327   -1.51951158340527
C        94.44082457460225   -3.09352618837067   -1.93104261283717
C        95.61734902858579   -2.50093234132860   -1.37067201229838
N        95.29525768610326   -1.42236007373927   -0.59079349913010
C        96.89704054726901   -2.91020459811034   -1.68443296670727
C        98.02071352672166   -2.19077235985568   -1.33410783460489
C        99.33137803672571   -2.47153827364997   -1.84352531777315
C       100.13551814319621   -1.47768150135544   -1.40535672859691
C        99.32170981864525   -0.62227989287511   -0.59129644403012
N        98.02921343999610   -1.06357625698766   -0.56145268146577
C        99.82125364894426    0.43838503261786    0.13654459970270
C        99.07337398448408    1.10960869991892    1.08224900315900
C        99.62918278795634    2.05500714189847    2.00636927705790
C        98.63955280981283    2.37842005253018    2.86813806531422
C        97.47281941164246    1.66566626057664    2.43631569139235
N        97.75126206851535    0.88952045820939    1.34667090644677
C        96.22494872868829    1.83078000134957    3.00106022964732
C        95.07489631540118    1.31403309503554    2.44132788973571
N        95.02113417562539    0.51328288275649    1.33104788834375
H        93.54245859266959    2.26730743713780    3.74036733413585
H        91.82441450315710    1.13423458027764    1.99228510026394
H        92.35452847589553   -2.44807692723457   -1.74387599703351
H        94.43741374952022   -3.95480443330712   -2.57037562553479
H        97.01821455106440   -3.78411850456450   -2.30631579041334
H        99.57376155237593   -3.30901543602194   -2.46881743365113
H       101.18276645425607   -1.32916692968096   -1.58460143761213
H       100.86263421580173    0.69777397814334    0.02263781513633
H       100.64748721397864    2.39245472882408    1.99161738391074
H        98.66755420342697    3.04672257000806    3.70692757154466
H        96.13287809481737    2.46217862652248    3.87172265890468
C        48.01394529047291    0.10673206185636   -0.41691232816603
C        49.16880074940060   -0.09683594675093   -0.73121301114645
C        58.49764484807765   -0.52716174136572   -0.28200746187510
C        59.62934644773247   -0.37226096699373    0.13044467298947
C        69.04552178965420    0.26368736026263    0.82958883734161
C        70.25292590346028    0.26372543504364    0.71523165350823
C        79.84634466252164    0.38051090110228   -0.35470467267250
C        81.05075838849676    0.39346166855460   -0.49560548159394
C        90.57633941443027   -0.26617827024822   -0.37895823169453
C        91.76735691579340   -0.37227432926488   -0.17513576326890
Co       53.85498364501131   -0.73933830291857   -1.34535062399332
C        51.18684725121501   -3.72383014589577   -0.13111790651318
C        50.32298656043251   -2.68431626189644   -0.21726813707354
C        51.08772088651623   -1.55585084096559   -0.65206718383093
C        50.51440942407051   -0.33358254768786   -1.02618222810216
C        51.23813147094305    0.59412944245063   -1.78503552496623
C        50.63326376544377    1.67190547387123   -2.50431416865539
C        51.61623820717188    2.24634279610452   -3.23748514009430
C        52.82400647538586    1.54967470873945   -2.91520396803453
N        52.57244044297943    0.52609878896363   -2.04044386227652
C        54.07902351341532    1.95899930802898   -3.31950625120483
C        55.24279856933820    1.44770782076139   -2.78108383000378
C        56.53353240357001    2.03802894995730   -2.96315079306605
C        57.38066947707275    1.37555077305162   -2.13979947309013
C        56.61095544339081    0.35048935422318   -1.50450954381430
N        55.31019138021587    0.40263892354218   -1.89799884995026
C        57.17326977676827   -0.65516652787361   -0.70704818788281
C        56.46050515832165   -1.82770368947701   -0.42666654928056
C        57.07199258842917   -3.03088393033978    0.04582899000322
C        56.10616696212167   -3.98025598908564    0.04538584690056
C        54.90006640424537   -3.33336596299823   -0.37263857537851
N        55.13831070253552   -2.01981694004899   -0.68010143225439
C        53.65303434182927   -3.92315723349829   -0.32091998451704
C        52.48039771128132   -3.20776480451783   -0.45975531587196
N        52.40068667082750   -1.88177654185857   -0.79384584642607
H        50.98783019347635   -4.74006310408156    0.14857556046061
H        49.26363855836578   -2.67381804681744   -0.05063926901919
H        49.58949615781538    1.91356762672240   -2.47103869968573
H        51.55174236323800    3.07610581283114   -3.91417625009416
H        54.15207336581106    2.78832346595809   -4.00674315477437
H        56.74139305215088    2.86199601972663   -3.61769400341326
H        58.43356170984203    1.52196497323457   -1.99846094342841
H        58.10990282894134   -3.12646161850620    0.29649152746104
H        56.18052204543312   -5.01395957722344    0.32202847539184
H        53.58919186701289   -4.96717867470997   -0.05379256449573
Co       64.26409728222075    0.19321398937418    1.18025138477594
C        61.92425737014481   -3.07107170447284    2.39600176218255
C        60.99233480772720   -2.39152741289315    1.68747427411415
C        61.63310678476861   -1.20850464256529    1.20226533548260
C        60.94985012637343   -0.17928626611228    0.54473782199879
C        61.53333397731891    1.08351105671965    0.38372063138931
C        60.78581245874442    2.25442111811001    0.04089069758309
C        61.64724094459739    3.29581275920879    0.11723490243821
C        62.92353017889994    2.74400172821719    0.45617251915159
N        62.83345275640136    1.38903939891440    0.64045004923508
C        64.09549048363564    3.47066155334220    0.44730280114279
C        65.34275747625655    2.88617945512534    0.53468947568921
C        66.56282408514038    3.58094367839647    0.25805109885703
C        67.55101398513186    2.65749590366567    0.30714232520333
C        66.93194749328067    1.41891458566454    0.66792845020878
N        65.58265728484979    1.56164166410324    0.78458118525476
C        67.65249002810577    0.26175511060960    0.97788684893917
C        67.03073890990309   -0.85155409055245    1.55147747545224
C        67.75426706026595   -1.93904613841763    2.13648152075881
C        66.83394907844274   -2.74279195725102    2.71888079625034
C        65.55463764325631   -2.16167823071470    2.44665829973356
N        65.69032358377342   -0.99536723705477    1.74145695831419
C        64.35699548689016   -2.77198710008910    2.75862078458126
C        63.13909601854236   -2.32160289292495    2.29315184219499
N        62.94176036034084   -1.17310731101833    1.57273261530346
H        61.82250955073890   -3.99935466949808    2.92380779839825
H        59.95885256712553   -2.62926959667598    1.53092650730389
H        59.73694589331383    2.26242977208545   -0.18199312493184
H        61.45975909826458    4.33739001461192   -0.05740055886985
H        64.03878647167994    4.53348903896190    0.26708198052019
H        66.63121479550790    4.62739855379213    0.03269608996174
H        68.60047924951112    2.78308701465198    0.12759604895386
H        68.82218501925831   -2.03735326714274    2.11960155362922
H        66.98633180576233   -3.65291598127243    3.26583794883843
H        64.38292086171552   -3.69570122852902    3.31687922221535
Co       75.05341693453397    0.31703288612319    0.21466895165542
C        72.60426029959113   -3.12106718134905    0.07939540406806
C        71.64252634392702   -2.18302372470080    0.23348772994283
C        72.31835459375581   -0.92626361312486    0.34600220068490
C        71.64811092793266    0.27522053448257    0.58085317498256
C        72.32777271444120    1.48943383683765    0.69444531785957
C        71.66754218520649    2.72382667322896    0.99174169147404
C        72.61937469519737    3.68374526168818    0.96363846405896
C        73.85096361003535    3.02415033598000    0.65342256958291
N        73.66527818004803    1.67372789550453    0.51411732624052
C        75.03865174746726    3.69685788503555    0.46851214760347
C        76.23054455060206    3.07041803914674    0.17728726952097
C        77.45315602687450    3.78071831652151   -0.04342530553505
C        78.41027371745858    2.84499976852765   -0.23468142631913
C        77.76300516255965    1.57387352903317   -0.12068743824266
N        76.42712029901168    1.71643995664371    0.10547218434331
C        78.45419098307872    0.36327495886095   -0.19170119317744
C        77.79935929548321   -0.86632276935805   -0.10221484792123
C        78.48998243814935   -2.11911289663543   -0.14942351289256
C        77.54068672355189   -3.08077508109454   -0.09690059600355
C        76.28179185018169   -2.40485270081723   -0.01250808559234
N        76.45282576559410   -1.04560385226875    0.00230817455405
C        75.07267212259572   -3.06534771514256    0.00223179497292
C        73.85559107803935   -2.42597402876457    0.09119422670079
N        73.66813403348459   -1.07689131666857    0.23886904592660
H        72.49889388833954   -4.18260061109380   -0.03298978041119
H        70.57741346771172   -2.30416272155066    0.26774460149134
H        70.62070094167214    2.81583021967097    1.20393192892114
H        72.51881499031903    4.73832870293744    1.13174903285006
H        75.03438915313262    4.77312070369818    0.55196130051442
H        77.54425556962563    4.84945613614656   -0.04774064360320
H        79.45332908946214    2.97753161892650   -0.44391291225605
H        79.55580017282715   -2.22283116802264   -0.20782867984981
H        77.65938008517182   -4.14670415635279   -0.11362591458825
H        75.07932912941818   -4.14288976879559   -0.06317067777262
Co       85.83538202587077    0.28849919906660   -0.95212994028917
C        83.17405728813668   -2.51042746047327   -2.61563496440050
C        82.27760452331226   -1.71062701906286   -1.99346284803800
C        83.03299125990279   -0.68143282574151   -1.34647334540227
C        82.44101128734727    0.38932027836802   -0.67093682867948
C        83.18847547566759    1.49370794667319   -0.25561524900240
C        82.59579772412195    2.69027913900501    0.25863134929032
C        83.59874599709249    3.58828194219798    0.39268272061957
C        84.80094685026386    2.91541015760047    0.00550667863426
N        84.53760103279350    1.63010405645761   -0.38664599288414
C        86.05347932030961    3.48468901069959    0.10004692295679
C        87.22133360751613    2.77062396803277   -0.06298389777011
C        88.51695967638913    3.30543774977333    0.22648847968056
C        89.39141314255764    2.27973764083457    0.11012458002647
C        88.62538073464763    1.13712556134204   -0.28565809106836
N        87.30348785055456    1.44372932994019   -0.39503577466930
C        89.20252325911704   -0.09801706104816   -0.59601632178884
C        88.46425438128485   -1.11586661898897   -1.20372460610619
C        89.05818759672967   -2.30972514449958   -1.72168218598118
C        88.07673211192035   -2.97743707820742   -2.37043798628140
C        86.88263281322160   -2.20647639667126   -2.20334419324706
N        87.13208165064781   -1.06791583763799   -1.48446714151745
C        85.64509424308665   -2.61714179921832   -2.65247576909039
C        84.46943171341928   -1.98241915437347   -2.31258868385094
N        84.36878524582762   -0.84867680785186   -1.54980254894829
H        82.99642541288199   -3.38544430975559   -3.21004080394848
H        81.20719646402041   -1.77589415473020   -1.98394892318496
H        81.55202368781477    2.80686735547750    0.47379149620483
H        83.55230425130317    4.60277401244435    0.73798786928381
H        86.12407822696083    4.52148237914755    0.39222481197816
H        88.70843475565650    4.32515405404534    0.49849876093452
H        90.45506020365042    2.28093343231911    0.24677673048387
H        90.09031802908686   -2.57332526133759   -1.60319367703186
H        88.13152039675695   -3.90961750275554   -2.89826937363187
H        85.58725442623479   -3.52315261797981   -3.23652300342823
