222
 energy: -400.817211027706 gnorm: 0.889168366419 xtb: 6.4.1 (bd6e46d)
Co       41.49456700000001    0.04686100000000   -0.01515800000000
C        43.82355800000001   -3.09993300000000    1.30753100000000
C        44.73966600000000   -2.15572500000000    1.25724900000000
C        44.32848600000000   -1.10182100000000    0.33595700000000
C        44.94735700000000    0.02252500000000   -0.01045300000000
C        44.24331400000000    1.24247300000000   -0.37455800000000
C        44.57142500000000    2.20252800000000   -1.22203200000000
C        43.53664500000001    3.21881400000000   -1.23893000000000
C        42.60037700000000    2.84235100000000   -0.39203800000000
N        43.00236800000000    1.60934000000000    0.17177900000000
C        41.33930300000001    3.48735100000000   -0.01288600000000
C        40.24408600000000    2.85256800000000    0.33787400000000
C        39.17046000000000    3.17052400000000    1.30690200000000
C        38.33289700000000    2.17377000000000    1.22973600000000
C        38.77119500000000    1.17008700000000    0.24928400000000
N        39.87613300000000    1.60894000000000   -0.23500800000000
C        38.16036000000000   -0.08318400000000   -0.16426400000000
C        38.82452000000000   -1.18769000000000   -0.41868900000000
C        38.45067200000000   -2.25063200000000   -1.37621600000000
C        39.39941900000000   -3.14438800000000   -1.28719700000000
C        40.38514300000000   -2.70693800000000   -0.30431900000000
N        40.03209700000000   -1.56113300000000    0.19247800000000
C        41.61603100000000   -3.36300800000000    0.14140200000000
C        42.73907200000000   -2.71714700000000    0.40852300000000
N        43.06767200000000   -1.46970600000000   -0.18988100000000
H        43.88382000000000   -4.00971300000000    1.92507700000000
H        45.65599300000000   -2.19567400000000    1.83529700000000
H        45.49879000000000    2.21932400000000   -1.82317500000000
H        43.55354400000001    4.12350200000000   -1.85155100000000
H        41.29158000000000    4.58215400000000   -0.01666400000000
H        39.11763900000000    4.04924900000000    1.93189400000000
H        37.42126700000000    2.13810100000000    1.84706000000000
H        37.06210900000000   -0.08027300000000   -0.26353500000000
H        37.58181600000000   -2.30309700000000   -2.02516600000000
H        39.39657300000000   -4.06069600000000   -1.88595600000000
H        41.58054900000000   -4.45881000000000    0.25332700000000
Co       98.09973500000000   -0.00051600000000   -0.01959100000000
C        95.77074399999999    2.84627600000000    1.86391400000000
C        94.85463700000000    1.92778700000000    1.63934000000000
C        95.26581600000002    1.06309000000000    0.53852600000000
C        94.64694600000000    0.02252500000000   -0.01045300000000
C        95.35098800000000   -1.10870000000000   -0.59455600000000
C        95.02287699999999   -1.89487100000000   -1.60542300000000
C        96.05765700000001   -2.89038100000000   -1.81056300000000
C        96.99392500000000   -2.67756400000000   -0.90853300000000
N        96.59193500000001   -1.57055300000000   -0.12576100000000
C        98.25500000000000   -3.38170600000000   -0.65561900000000
C        99.35021700000001   -2.82301300000000   -0.19318600000000
C       100.42384199999999   -3.31521800000000    0.70003600000000
C       101.26140500000001   -2.32145100000000    0.80912100000000
C       100.82310800000002   -1.15330200000000    0.03188600000000
N        99.71817000000000   -1.49469400000000   -0.52541300000000
C       101.43394300000000    0.15493300000000   -0.14198400000000
C       100.76978200000002    1.28746600000000   -0.18709000000000
C       101.14363100000000    2.50959200000000   -0.93080500000000
C       100.19488400000000    3.37131900000000   -0.67752700000000
C        99.20916000000000    2.75912500000000    0.20713700000000
N        99.56220500000001    1.54104600000000    0.48274700000000
C        97.97827200000000    3.32111900000000    0.76683100000000
C        96.85523000000001    2.63691400000000    0.90949900000000
N        96.52663000000000    1.52213900000000    0.09006400000000
H        95.71048200000000    3.62570100000000    2.63951800000000
H        93.93830900000000    1.85980600000000    2.21476600000000
H        94.09551200000000   -1.79985500000000   -2.19924700000000
H        96.04075800000000   -3.66571500000000   -2.58038300000000
H        98.30272200000000   -4.45680400000000   -0.86243300000000
H       100.47666400000000   -4.29463500000000    1.15116300000000
H       102.17303600000001   -2.40092300000000    1.42234600000000
H       102.53219300000001    0.17048900000000   -0.24007100000000
H       102.01248600000000    2.68153600000000   -1.55875800000000
H       100.19773000000002    4.38280000000000   -1.09590400000000
H        98.01375400000001    4.37713500000000    1.08010000000000
C        47.56180500000000    0.02252500000000   -0.01045300000000
C        48.77801000000000    0.02252500000000   -0.01045300000000
C        58.37542700000000    0.02252500000000   -0.01045300000000
C        59.59163200000000    0.02252500000000   -0.01045300000000
C        69.18904900000000    0.02252500000000   -0.01045300000000
C        70.40525400000000    0.02252500000000   -0.01045300000000
C        80.00266999999999    0.02252500000000   -0.01045300000000
C        81.21887599999999    0.02252500000000   -0.01045300000000
C        90.81629200000000    0.02252500000000   -0.01045300000000
C        92.03249800000002    0.02252500000000   -0.01045300000000
Co       53.60821400000000    0.03532600000000    0.00303200000000
C        51.32840400000000   -3.22612100000000   -0.90663300000000
C        50.37219400000001   -2.32677100000000   -1.00866000000000
C        50.76456900000000   -1.16446600000000   -0.20614400000000
C        50.12945200000001   -0.01319300000000    0.00612200000000
C        50.81490900000001    1.26140600000000    0.23235200000000
C        50.47961900000001    2.34000600000000    0.93659200000000
C        51.50416000000000    3.35932300000000    0.84601000000000
C        52.45475700000000    2.86239800000000    0.07264600000000
N        52.07776300000000    1.54579300000000   -0.34349700000000
C        53.70189700000000    3.47410000000000   -0.34422000000000
C        54.80344900000000    2.80684300000000   -0.67599100000000
C        55.79699500000000    3.05882700000000   -1.71016100000000
C        56.69087800000000    2.09796800000000   -1.60867700000000
C        56.31118000000000    1.18608400000000   -0.50470000000000
N        55.21626500000000    1.63540300000000    0.00266700000000
C        56.96838700000000   -0.01319300000000    0.00612200000000
C        56.34497600000000   -1.08237500000000    0.46763900000000
C        56.72368800000000   -2.01449100000000    1.54311500000000
C        55.78302000000001   -2.92863700000000    1.62898100000000
C        54.77471800000000   -2.63285800000000    0.63155400000000
N        55.11249300000000   -1.57948000000000   -0.01774100000000
C        53.52232500000000   -3.33986500000000    0.30036000000000
C        52.40844800000000   -2.74316800000000   -0.04698100000000
N        52.02633600000000   -1.46041100000000    0.37070200000000
H        51.32874800000000   -4.21719500000000   -1.39786800000000
H        49.46366000000000   -2.44846500000000   -1.58980800000000
H        49.55476700000000    2.45835800000000    1.51351800000000
H        51.53145500000000    4.34848700000000    1.30266100000000
H        53.78783700000000    4.57147800000000   -0.40624300000000
H        55.82966700000000    3.86504300000000   -2.43698500000000
H        57.58394000000000    1.98500000000000   -2.24245100000000
H        57.63843900000001   -1.94008400000000    2.15328500000000
H        55.80206600000001   -3.74224500000000    2.33724800000000
H        53.56081000000000   -4.43982400000000    0.35939700000000
Co       64.42183600000000    0.03532600000000    0.00303200000000
C        62.14202600000001   -3.22612100000000   -0.90663300000000
C        61.18581600000000   -2.32677100000000   -1.00866000000000
C        61.57819000000000   -1.16446600000000   -0.20614400000000
C        60.94307400000001   -0.01319300000000    0.00612200000000
C        61.62853100000000    1.26140600000000    0.23235200000000
C        61.29324100000001    2.34000600000000    0.93659200000000
C        62.31778200000000    3.35932300000000    0.84601000000000
C        63.26837900000000    2.86239800000000    0.07264600000000
N        62.89138500000000    1.54579300000000   -0.34349700000000
C        64.51551900000000    3.47410000000000   -0.34422000000000
C        65.61707100000000    2.80684300000000   -0.67599100000000
C        66.61061700000000    3.05882700000000   -1.71016100000000
C        67.50449999999999    2.09796800000000   -1.60867700000000
C        67.12480200000000    1.18608400000000   -0.50470000000000
N        66.02988700000000    1.63540300000000    0.00266700000000
C        67.78200900000000   -0.01319300000000    0.00612200000000
C        67.15859800000000   -1.08237500000000    0.46763900000000
C        67.53731000000001   -2.01449100000000    1.54311500000000
C        66.59664200000000   -2.92863700000000    1.62898100000000
C        65.58834000000000   -2.63285800000000    0.63155400000000
N        65.92611500000000   -1.57948000000000   -0.01774100000000
C        64.33594700000000   -3.33986500000000    0.30036000000000
C        63.22207000000000   -2.74316800000000   -0.04698100000000
N        62.83995800000001   -1.46041100000000    0.37070200000000
H        62.14237000000000   -4.21719500000000   -1.39786800000000
H        60.27728200000000   -2.44846500000000   -1.58980800000000
H        60.36838900000001    2.45835800000000    1.51351800000000
H        62.34507700000000    4.34848700000000    1.30266100000000
H        64.60145900000001    4.57147800000000   -0.40624300000000
H        66.64328900000000    3.86504300000000   -2.43698500000000
H        68.39756199999999    1.98500000000000   -2.24245100000000
H        68.45206000000000   -1.94008400000000    2.15328500000000
H        66.61568800000001   -3.74224500000000    2.33724800000000
H        64.37443100000000   -4.43982400000000    0.35939700000000
Co       75.23545800000001    0.03532600000000    0.00303200000000
C        72.95564700000000   -3.22612100000000   -0.90663300000000
C        71.99943800000001   -2.32677100000000   -1.00866000000000
C        72.39181200000000   -1.16446600000000   -0.20614400000000
C        71.75669600000001   -0.01319300000000    0.00612200000000
C        72.44215300000000    1.26140600000000    0.23235200000000
C        72.10686300000000    2.34000600000000    0.93659200000000
C        73.13140400000002    3.35932300000000    0.84601000000000
C        74.08200100000001    2.86239800000000    0.07264600000000
N        73.70500699999999    1.54579300000000   -0.34349700000000
C        75.32914100000001    3.47410000000000   -0.34422000000000
C        76.43069199999999    2.80684300000000   -0.67599100000000
C        77.42423900000000    3.05882700000000   -1.71016100000000
C        78.31812200000000    2.09796800000000   -1.60867700000000
C        77.93842400000000    1.18608400000000   -0.50470000000000
N        76.84350900000000    1.63540300000000    0.00266700000000
C        78.59563100000000   -0.01319300000000    0.00612200000000
C        77.97221900000001   -1.08237500000000    0.46763900000000
C        78.35093200000000   -2.01449100000000    1.54311500000000
C        77.41026300000000   -2.92863700000000    1.62898100000000
C        76.40196200000000   -2.63285800000000    0.63155400000000
N        76.73973700000001   -1.57948000000000   -0.01774100000000
C        75.14956900000000   -3.33986500000000    0.30036000000000
C        74.03569200000000   -2.74316800000000   -0.04698100000000
N        73.65358000000001   -1.46041100000000    0.37070200000000
H        72.95599199999999   -4.21719500000000   -1.39786800000000
H        71.09090399999999   -2.44846500000000   -1.58980800000000
H        71.18201100000000    2.45835800000000    1.51351800000000
H        73.15869900000000    4.34848700000000    1.30266100000000
H        75.41508100000000    4.57147800000000   -0.40624300000000
H        77.45691100000001    3.86504300000000   -2.43698500000000
H        79.21118400000000    1.98500000000000   -2.24245100000000
H        79.26568200000000   -1.94008400000000    2.15328500000000
H        77.42931000000000   -3.74224500000000    2.33724800000000
H        75.18805300000000   -4.43982400000000    0.35939700000000
Co       86.04908000000002    0.03532600000000    0.00303200000000
C        83.76926899999999   -3.22612100000000   -0.90663300000000
C        82.81306000000001   -2.32677100000000   -1.00866000000000
C        83.20543400000001   -1.16446600000000   -0.20614400000000
C        82.57031800000001   -0.01319300000000    0.00612200000000
C        83.25577500000000    1.26140600000000    0.23235200000000
C        82.92048400000000    2.34000600000000    0.93659200000000
C        83.94502600000000    3.35932300000000    0.84601000000000
C        84.89562300000000    2.86239800000000    0.07264600000000
N        84.51862900000000    1.54579300000000   -0.34349700000000
C        86.14276300000000    3.47410000000000   -0.34422000000000
C        87.24431400000000    2.80684300000000   -0.67599100000000
C        88.23786100000000    3.05882700000000   -1.71016100000000
C        89.13174400000001    2.09796800000000   -1.60867700000000
C        88.75204600000001    1.18608400000000   -0.50470000000000
N        87.65713100000001    1.63540300000000    0.00266700000000
C        89.40925300000001   -0.01319300000000    0.00612200000000
C        88.78584100000000   -1.08237500000000    0.46763900000000
C        89.16455400000001   -2.01449100000000    1.54311500000000
C        88.22388500000000   -2.92863700000000    1.62898100000000
C        87.21558400000001   -2.63285800000000    0.63155400000000
N        87.55335900000000   -1.57948000000000   -0.01774100000000
C        85.96319100000001   -3.33986500000000    0.30036000000000
C        84.84931400000001   -2.74316800000000   -0.04698100000000
N        84.46720200000001   -1.46041100000000    0.37070200000000
H        83.76961400000000   -4.21719500000000   -1.39786800000000
H        81.90452600000000   -2.44846500000000   -1.58980800000000
H        81.99563200000000    2.45835800000000    1.51351800000000
H        83.97232099999999    4.34848700000000    1.30266100000000
H        86.22870300000001    4.57147800000000   -0.40624300000000
H        88.27053300000000    3.86504300000000   -2.43698500000000
H        90.02480500000001    1.98500000000000   -2.24245100000000
H        90.07930399999999   -1.94008400000000    2.15328500000000
H        88.24293200000000   -3.74224500000000    2.33724800000000
H        86.00167500000001   -4.43982400000000    0.35939700000000
222
 energy: -401.174267187079 gnorm: 0.517960383762 xtb: 6.4.1 (bd6e46d)
Co       41.50452116838225    0.04452694962280   -0.01451376657030
C        43.82358690734259   -3.10834089438230    1.29960999829086
C        44.75394241717662   -2.15546894086209    1.25360366415942
C        44.32712530609523   -1.10477987615250    0.34032806379494
C        44.93931837475061    0.04279618019613   -0.00966879925720
C        44.23312946344548    1.23691289016146   -0.36629700772291
C        44.58294676758386    2.22951391679690   -1.23896147011698
C        43.56570325633184    3.22068284484680   -1.25157987292910
C        42.59345482910577    2.81844156903842   -0.38454037287323
N        42.97437686397556    1.58194172150316    0.16927989985001
C        41.35789678578288    3.48623054515296   -0.01354572044910
C        40.23427765432596    2.83664142306257    0.33848073515205
C        39.17204719775010    3.17794852553612    1.29099811408756
C        38.30832864848771    2.16653119940219    1.23228694263853
C        38.76653290372490    1.16980567134103    0.26460358547630
N        39.91457960163184    1.58401547495642   -0.21541825000073
C        38.14880861046822   -0.06211506967376   -0.15778085185494
C        38.82922359021822   -1.19101329670891   -0.42344461972864
C        38.44276856087643   -2.24993873494506   -1.36332027172689
C        39.40647698408934   -3.16466966245991   -1.28416679380457
C        40.39533781025423   -2.71498827146821   -0.31149222036689
N        40.04849788019710   -1.53252431831846    0.16636588007112
C        41.59851078755148   -3.36888543763820    0.13403820017279
C        42.74461291149553   -2.70014615152106    0.41135695342205
N        43.05598962896284   -1.45662350420918   -0.15999506445811
H        43.87604286420071   -4.00448709584226    1.91749606357365
H        45.66024089511223   -2.18731451977882    1.83276407175775
H        45.49633648927072    2.22728880036107   -1.82459779091636
H        43.55968538958813    4.12018901535354   -1.85234074348782
H        41.30594050788446    4.57807176673414   -0.01078580584319
H        39.12398876114170    4.04766755980078    1.92614136657269
H        37.41738765660155    2.12980228773921    1.84579121277775
H        37.06350285947821   -0.07293196131414   -0.26826542525643
H        37.58376599702095   -2.29460218652479   -2.01817887919111
H        39.40642059944182   -4.06416252162195   -1.88253026583031
H        41.57654045269570   -4.45469179231198    0.25309245797402
Co       98.08979354381829    0.00170773298941   -0.01853812490026
C        95.77071716365496    2.85601256122206    1.85769876901596
C        94.84040813433735    1.92821438262981    1.63573535211786
C        95.26730821277582    1.06518055343618    0.54345547159905
C        94.65569550111458    0.00226088595328   -0.01301249189523
C        95.36132844053375   -1.10474534599718   -0.58536718716437
C        95.01140835970938   -1.91824514032126   -1.62705986296784
C        96.02855640038000   -2.88985164905125   -1.82334868001188
C        97.00085631328147   -2.65539781818881   -0.89672828988300
N        96.61994438332499   -1.54331816545119   -0.12304559840596
C        98.23642915928708   -3.38046663624498   -0.65607273564309
C        99.36002677628400   -2.80745822963933   -0.18965262780718
C       100.42226743160043   -3.31956469421773    0.68303968102375
C       101.28597487497382   -2.31482904425329    0.81296380556369
C       100.82774050646704   -1.15585924098404    0.04696894417620
N        99.67973912329769   -1.47384639796794   -0.50157201180059
C       101.44547321336020    0.13302547854100   -0.13952313695986
C       100.76505335069101    1.29161815271486   -0.19114789913515
C       101.15153361859059    2.50652955966837   -0.91827640418744
C       100.18783397245959    3.39069012152334   -0.67080584013680
C        99.19896559390396    2.76833835124964    0.20157136805531
N        99.54583033385219    1.51779996715739    0.45180050259082
C        97.99578627258219    3.32824683473357    0.76068172435107
C        96.84968398480152    2.61967358002592    0.90910971908973
N        96.53839934560180    1.50372471523340    0.11699679737224
H        95.71825161145105    3.62197958875021    2.63109647177658
H        93.93407857824015    1.85208996534407    2.21071806213472
H        94.09797600631634   -1.80742003891334   -2.20215106657667
H        96.03461349750410   -3.66231185342504   -2.58057357362789
H        98.28836095777392   -4.45388298747569   -0.85590357061954
H       100.47032229106675   -4.29202266938164    1.14580065050456
H       102.17691712248767   -2.39253721352776    1.42263594289297
H       102.53078926742546    0.16415054654935   -0.24608634723337
H       102.01053893632330    2.67189562831472   -1.55347784133101
H       100.18788322385649    4.38557594664500   -1.09190327818036
H        98.01775273860336    4.37312736241735    1.07909459948274
C        47.53051349559109    0.02141098774959   -0.01085883869749
C        48.75121416880096    0.03024478394743   -0.01292554197196
C        58.37246833390226    0.02869414600273   -0.00862737944688
C        59.58465965879829    0.02962555653358   -0.01187725073673
C        69.18599186253709    0.02872066400260   -0.00842292570518
C        70.39829936701128    0.02964046164904   -0.01186373638613
C        79.99955177683363    0.02872227615690   -0.00835775565753
C        81.21191102369148    0.02963028363948   -0.01187289007573
C        90.83759359600798    0.02880265674643   -0.00686901904690
C        92.05712590957066    0.02225559839373   -0.01079667278152
Co       53.59931977361252    0.03659904198244    0.00268470481187
C        51.32962603069649   -3.24283518566873   -0.90000810702924
C        50.36590149204826   -2.32566428018498   -1.00020170675341
C        50.78635407717782   -1.17618602116295   -0.20890906245394
C        50.13659630342208    0.00606466962518    0.00459289146232
C        50.84084078063042    1.26228232234475    0.22843485963004
C        50.47073243340411    2.36563579883340    0.94712406106775
C        51.48011628354288    3.36019847897261    0.85306921305921
C        52.46588191975928    2.84113618766693    0.06740885278837
N        52.10651143472234    1.52603103107299   -0.32821844988613
C        53.68763516796879    3.47371722634050   -0.34539945200459
C        54.81149306848751    2.79416067883799   -0.67641778938909
C        55.80283130773041    3.06591041779407   -1.69799761666365
C        56.71089096177734    2.08671025099394   -1.60679366227219
C        56.31330542394862    1.18459931837567   -0.51947583734272
N        55.17835191011711    1.61172923706888   -0.01529833269601
C        56.97740754886411    0.00423982148181   -0.00249491287363
C        56.33163413271939   -1.09408724941772    0.47426572553382
C        56.73562208060314   -2.01305671489323    1.53329668456855
C        55.77927293514671   -2.94412595246276    1.62760043773449
C        54.76333933136347   -2.63911917093877    0.63965396872238
N        55.09278902446814   -1.53978089082008   -0.00518425965778
C        53.54253870572671   -3.34654016478724    0.30980390193947
C        52.39705709181211   -2.72914282206745   -0.05422122948247
N        52.04433460933497   -1.44196009905245    0.33796983111185
H        51.33343936847900   -4.21356920934593   -1.39406114500360
H        49.46449125591162   -2.43925260631063   -1.58531684105552
H        49.55459115171330    2.46220716967398    1.51441801489367
H        51.52161758082929    4.34269254794988    1.30454312479063
H        53.77219424801098    4.56563056596469   -0.41127179214495
H        55.82301467595882    3.86330246741107   -2.42932894534836
H        57.58431590371165    1.97905019030440   -2.23911121429476
H        57.63318177903895   -1.93537225323371    2.14546711554744
H        55.79522329785928   -3.74763942385733    2.33757122199231
H        53.56610216029303   -4.43705467113958    0.35753241431962
Co       64.41265821722354    0.03664798366779    0.00264730220522
C        62.14283702801380   -3.24325043269713   -0.90010200918158
C        61.17961622109288   -2.32629382590842   -0.99986935156388
C        61.60234480718738   -1.17770578519834   -0.20721628268014
C        60.95516674637614    0.00558851338430    0.00488118701379
C        61.65647921141825    1.26385303524991    0.22792342999171
C        61.28467356310858    2.36560323768848    0.94699952740236
C        62.29384093752732    3.36055565006892    0.85295096274578
C        63.27979722793192    2.84145025729494    0.06739041819611
N        62.92083801083919    1.52650141468602   -0.32789161524503
C        64.50121928682280    3.47374518006673   -0.34520854540374
C        65.62526788772988    2.79404838260298   -0.67643322105663
C        66.61641760500962    3.06593808798566   -1.69804600205028
C        67.52452996910401    2.08669242204774   -1.60688109432377
C        67.12666155454788    1.18480307367310   -0.51964000085044
N        65.99205978939635    1.61175903502345   -0.01561445695723
C        67.79102631432569    0.00403058373402   -0.00235610973767
C        67.14540876532658   -1.09420143911215    0.47413683380333
C        67.54945071369006   -2.01316629148826    1.53335120031195
C        66.59299781787263   -2.94400374249749    1.62779910953840
C        65.57724912991998   -2.63847839012775    0.63988664345834
N        65.90647093582149   -1.54009995547344   -0.00500759243769
C        64.35571014782769   -3.34658543551349    0.30936332533321
C        63.21131069372795   -2.72946801201424   -0.05410498429880
N        62.85875801208208   -1.44222477449825    0.33773344026333
H        62.14690139425785   -4.21373417696923   -1.39415021194295
H        60.27821494359574   -2.43929516092143   -1.58537945831254
H        60.36829684707758    2.46212237715755    1.51442953774858
H        62.33517043060846    4.34287789685436    1.30448266020610
H        64.58586968439064    4.56566837403456   -0.41117928776191
H        66.63664668509324    3.86332938242353   -2.42933194870746
H        68.39795845325817    1.97905574361794   -2.23911092745085
H        68.44688520310920   -1.93540952995400    2.14549471845320
H        66.60884112687390   -3.74761162862098    2.33760811793435
H        64.37977844359381   -4.43707392378349    0.35707853827592
Co       75.22620794873436    0.03663937320457    0.00263060270948
C        72.95637528061691   -3.24327495101632   -0.90010352583466
C        71.99324352060783   -2.32638222853876   -0.99987408458558
C        72.41598755940086   -1.17767504131767   -0.20713171596870
C        71.76875951965715    0.00554998699291    0.00482958990487
C        72.47008422511722    1.26393554935865    0.22792631190438
C        72.09831032602759    2.36558195767891    0.94702791209821
C        73.10746923419752    3.36055942138023    0.85294317055882
C        74.09343033959020    2.84143918841244    0.06738441176130
N        73.73445912903880    1.52649742455265   -0.32786575165414
C        75.31482714556705    3.47372827472114   -0.34518790880500
C        76.43891453652462    2.79405683742578   -0.67643381391585
C        77.43003113619203    3.06595608282869   -1.69804743978713
C        78.33813720592399    2.08667767950255   -1.60690570812799
C        77.94021336604038    1.18483943776478   -0.51968781284013
N        76.80574906908824    1.61178095145755   -0.01563666759515
C        78.60470325193366    0.00397596752442   -0.00231565106148
C        77.95909565814601   -1.09422102713926    0.47412942217061
C        78.36311196480777   -2.01315287668275    1.53332917337182
C        77.40660180218285   -2.94396575229073    1.62782604250921
C        76.39095913719892   -2.63836272526230    0.63995109950180
N        76.72011218518159   -1.54019029787340   -0.00498468551370
C        75.16918717801948   -3.34658990034642    0.30928129773589
C        74.02499659948765   -2.72950013157909   -0.05403227859883
N        73.67238715021711   -1.44214080166346    0.33772923604174
H        72.96050084877825   -4.21374544672881   -1.39415940590527
H        71.09184253760269   -2.43931257856355   -1.58541112453720
H        71.18191361971695    2.46213364530276    1.51444204108252
H        73.14878349352406    4.34289155363305    1.30446481074111
H        75.39948528827473    4.56566497835063   -0.41118445146819
H        77.45026935981031    3.86333891253260   -2.42933481547633
H        79.21157914363512    1.97905279866422   -2.23910160337880
H        79.26052088942231   -1.93541083559648    2.14548254291163
H        77.42245098887970   -3.74760051522843    2.33760850690492
H        75.19340183649763   -4.43707629640712    0.35695796523733
Co       86.03977447193756    0.03666524771248    0.00249661410219
C        83.76988356683209   -3.24333797070698   -0.90001196031171
C        82.80695186980120   -2.32644463711101   -0.99986840769531
C        83.22962500854882   -1.17752783053977   -0.20712114532288
C        82.58232144346093    0.00550876268750    0.00478054623779
C        83.28357157374619    1.26396741294200    0.22795070405401
C        82.91196465585202    2.36551398774263    0.94698965252588
C        83.92114281280084    3.36053278317128    0.85293827800804
C        84.90711758870123    2.84157398837581    0.06732798879363
N        84.54807250706409    1.52651793075830   -0.32794630645493
C        86.12848120533539    3.47355214846103   -0.34508017334673
C        87.25289476200112    2.79366322051150   -0.67617619285081
C        88.24369585377558    3.06570424709611   -1.69800787348278
C        89.15193148513218    2.08655783192675   -1.60724265155141
C        88.75551534418565    1.18289260380589   -0.52086288472530
N        87.62067135292536    1.61127895230119   -0.01517303721232
C        89.42316866210447    0.00358119868810   -0.00237482777782
C        88.77543394065366   -1.09205217515775    0.47438430155460
C        89.17702600955337   -2.01298005269095    1.53341221392633
C        88.22024256459490   -2.94336376326472    1.62782420808647
C        87.20521981988207   -2.63757499422023    0.63988454824186
N        87.53416286946924   -1.53978800391681   -0.00497972973804
C        85.98249823184381   -3.34658675437963    0.30896863743395
C        84.83878500888643   -2.72981895010836   -0.05375976927287
N        84.48606464996028   -1.44191868782282    0.33794186093343
H        83.77410705099091   -4.21374958210682   -1.39417311854886
H        81.90550886415971   -2.43930306212385   -1.58543591324700
H        81.99555818092132    2.46210943194701    1.51444381367197
H        83.96240457447175    4.34290142169699    1.30444754923760
H        86.21317159559020    4.56556942708699   -0.41116893965584
H        88.26383610943024    3.86327824786201   -2.42928299082744
H        90.02530324203528    1.97908671418629   -2.23917534737027
H        90.07427438628244   -1.93554054730626    2.14546069795759
H        88.23599828897795   -3.74739704754605    2.33750647823339
H        86.00713509885736   -4.43706025959967    0.35654446360032
222
 energy: -401.409231050640 gnorm: 0.245206213997 xtb: 6.4.1 (bd6e46d)