      -----------------------------------------------------------      
     |                   =====================                   |     
     |                           x T B                           |     
     |                   =====================                   |     
     |                         S. Grimme                         |     
     |          Mulliken Center for Theoretical Chemistry        |     
     |                    University of Bonn                     |     
      -----------------------------------------------------------      

   * xtb version 6.4.1 (bd6e46d) compiled by 'conda@4901f00b25ba' on 2021-06-10

   xtb is free software: you can redistribute it and/or modify it under
   the terms of the GNU Lesser General Public License as published by
   the Free Software Foundation, either version 3 of the License, or
   (at your option) any later version.
   
   xtb is distributed in the hope that it will be useful,
   but WITHOUT ANY WARRANTY; without even the implied warranty of
   MERCHANTABILITY or FITNESS FOR A PARTICULAR PURPOSE.  See the
   GNU Lesser General Public License for more details.
   
   Cite this work as:
   * C. Bannwarth, E. Caldeweyher, S. Ehlert, A. Hansen, P. Pracht,
     J. Seibert, S. Spicher, S. Grimme, WIREs Comput. Mol. Sci., 2020, 11,
     e01493. DOI: 10.1002/wcms.1493
   
   for GFN2-xTB:
   * C. Bannwarth, S. Ehlert and S. Grimme., J. Chem. Theory Comput., 2019,
     15, 1652-1671. DOI: 10.1021/acs.jctc.8b01176
   for GFN1-xTB:
   * S. Grimme, C. Bannwarth, P. Shushkov, J. Chem. Theory Comput., 2017,
     13, 1989-2009. DOI: 10.1021/acs.jctc.7b00118
   for GFN0-xTB:
   * P. Pracht, E. Caldeweyher, S. Ehlert, S. Grimme, ChemRxiv, 2019, preprint.
     DOI: 10.26434/chemrxiv.8326202.v1
   for GFN-FF:
   * S. Spicher and S. Grimme, Angew. Chem. Int. Ed., 2020, 59, 15665-15673.
     DOI: 10.1002/anie.202004239
   
   for DFT-D4:
   * E. Caldeweyher, C. Bannwarth and S. Grimme, J. Chem. Phys., 2017,
     147, 034112. DOI: 10.1063/1.4993215
   * E. Caldeweyher, S. Ehlert, A. Hansen, H. Neugebauer, S. Spicher,
     C. Bannwarth and S. Grimme, J. Chem. Phys., 2019, 150, 154122.
     DOI: 10.1063/1.5090222
   * E. Caldeweyher, J.-M. Mewes, S. Ehlert and S. Grimme, Phys. Chem. Chem. Phys.
     2020, 22, 8499-8512. DOI: 10.1039/D0CP00502A
   
   for sTDA-xTB:
   * S. Grimme and C. Bannwarth, J. Chem. Phys., 2016, 145, 054103.
     DOI: 10.1063/1.4959605
   
   in the mass-spec context:
   * V. Asgeirsson, C. Bauer and S. Grimme, Chem. Sci., 2017, 8, 4879.
     DOI: 10.1039/c7sc00601b
   * J. Koopman and S. Grimme, ACS Omega 2019, 4, 12, 15120-15133.
     DOI: 10.1021/acsomega.9b02011
   
   for metadynamics refer to:
   * S. Grimme, J. Chem. Theory Comput., 2019, 155, 2847-2862
     DOI: 10.1021/acs.jctc.9b00143
   
   for SPH calculations refer to:
   * S. Spicher and S. Grimme, J. Chem. Theory Comput., 2021, 17, 1701-1714
     DOI: 10.1021/acs.jctc.0c01306
   
   with help from (in alphabetical order)
   P. Atkinson, C. Bannwarth, F. Bohle, G. Brandenburg, E. Caldeweyher
   M. Checinski, S. Dohm, S. Ehlert, S. Ehrlich, I. Gerasimov, J. Koopman
   C. Lavigne, S. Lehtola, F. März, M. Müller, F. Musil, H. Neugebauer
   J. Pisarek, C. Plett, P. Pracht, J. Seibert, P. Shushkov, S. Spicher
   M. Stahn, M. Steiner, T. Strunk, J. Stückrath, T. Rose, and J. Unsleber
   
 * started run on 2021/11/20 at 19:01:23.423     

           -------------------------------------------------
          |                Calculation Setup                |
           -------------------------------------------------

          program call               : /home/jeff/miniconda3/bin/xtb input_structure_1.xyz --gfn 2 --ohess normal --parallel 1 --etemp 300 --chrg 0 --uhf 0 -I det_control.in
          hostname                   : jelfscompute1
          coordinate file            : input_structure_1.xyz
          omp threads                :                     1
          number of atoms            :                   283
          number of electrons        :                   972
          charge                     :                     0
          spin                       :                   0.0
          first test random number   :      0.69628249401311

   ID    Z sym.   atoms
    1   26 Fe     1, 37, 109, 144, 179, 214, 249
    2    6 C      2-9, 11-15, 17-21, 23, 24, 38-45, 47-51, 53-57, 59, 60,
                  73-108, 110-117, 119-123, 125-129, 131, 132, 145-152,
                  154-158, 160-164, 166, 167, 180-187, 189-193, 195-199, 201,
                  202, 215-222, 224-228, 230-234, 236, 237, 250-257, 259-263,
                  265-269, 271, 272
    3    7 N      10, 16, 22, 25, 46, 52, 58, 61, 118, 124, 130, 133, 153,
                  159, 165, 168, 188, 194, 200, 203, 223, 229, 235, 238, 258,
                  264, 270, 273
    4    1 H      26-36, 62-72, 134-143, 169-178, 204-213, 239-248, 274-283

molecular fragmentation (1/2 indicates fragments):
111111111111111111111111111111111111222222222222222222222222222222222222
222222222222222222222222222222222222222222222222222222222222222222222222
222222222222222222222222222222222222222222222222222222222222222222222222
2222222222222222222222222222222222222222222222222222222222222222222
# atoms in fragment 1/2:    36   247
 fragment masses (1/2) :      363.17     2606.39
CMA distance (Bohr)    : 104.676
constraining FC (au)   :  0.0500

           -------------------------------------------------
          |                 G F N 2 - x T B                 |
           -------------------------------------------------

        Reference                      10.1021/acs.jctc.8b01176
      * Hamiltonian:
        H0-scaling (s, p, d)           1.850000    2.230000    2.230000
        zeta-weighting                 0.500000
      * Dispersion:
        s8                             2.700000
        a1                             0.520000
        a2                             5.000000
        s9                             5.000000
      * Repulsion:
        kExp                           1.500000    1.000000
        rExp                           1.000000
      * Coulomb:
        alpha                          2.000000
        third order                    shell-resolved
        anisotropic                    true
        a3                             3.000000
        a5                             4.000000
        cn-shift                       1.200000
        cn-exp                         4.000000
        max-rad                        5.000000


          ...................................................
          :                      SETUP                      :
          :.................................................:
          :  # basis functions                 958          :
          :  # atomic orbitals                 951          :
          :  # shells                          501          :
          :  # electrons                       972          :
          :  max. iterations                   250          :
          :  Hamiltonian                  GFN2-xTB          :
          :  restarted?                      false          :
          :  GBSA solvation                  false          :
          :  PC potential                    false          :
          :  electronic temp.          300.0000000     K    :
          :  accuracy                    1.0000000          :
          :  -> integral cutoff          0.2500000E+02      :
          :  -> integral neglect         0.1000000E-07      :
          :  -> SCF convergence          0.1000000E-05 Eh   :
          :  -> wf. convergence          0.1000000E-03 e    :
          :  Broyden damping             0.4000000          :
          ...................................................

 iter      E             dE          RMSdq      gap      omega  full diag
   1   -518.6666422 -0.518667E+03  0.879E+00    0.05       0.0  T
   2   -482.4256666  0.362410E+02  0.116E+01    0.00       1.0  T
   3   -486.2054594 -0.377979E+01  0.853E+00    0.03       1.0  T
   4   -314.3112905  0.171894E+03  0.983E+00    0.03       1.0  T
   5   -135.4018228  0.178909E+03  0.155E+01    0.05       1.0  T
   6   -402.4452066 -0.267043E+03  0.898E+00    0.05       1.0  T
   7   -456.8223813 -0.543772E+02  0.831E+00    0.07       1.0  T
   8   -445.5327749  0.112896E+02  0.704E+00    0.09       1.0  T
   9   -487.4850193 -0.419522E+02  0.655E+00    0.02       1.0  T
  10   -507.1308049 -0.196458E+02  0.569E+00    0.04       1.0  T
  11   -513.2711069 -0.614030E+01  0.555E+00    0.01       1.0  T
  12   -509.3897647  0.388134E+01  0.596E+00    0.01       1.0  T
  13   -493.9189133  0.154709E+02  0.606E+00    0.12       1.0  T
  14   -506.7441059 -0.128252E+02  0.526E+00    0.02       1.0  T
  15   -499.2214876  0.752262E+01  0.564E+00    0.02       1.0  T
  16   -502.6295754 -0.340809E+01  0.538E+00    0.08       1.0  T
  17   -502.6507577 -0.211823E-01  0.537E+00    0.07       1.0  T
  18   -511.1542819 -0.850352E+01  0.468E+00    0.01       1.0  T
  19   -509.2771449  0.187714E+01  0.488E+00    0.03       1.0  T
  20   -498.5726880  0.107045E+02  0.525E+00    0.03       1.0  T
  21   -466.0309498  0.325417E+02  0.663E+00    0.13       1.0  T
  22   -478.6725501 -0.126416E+02  0.659E+00    0.07       1.0  T
  23   -467.7012263  0.109713E+02  0.659E+00    0.02       1.0  T
  24   -467.2520041  0.449222E+00  0.678E+00    0.01       1.0  T
  25   -486.9845306 -0.197325E+02  0.617E+00    0.11       1.0  T
  26   -476.7615351  0.102230E+02  0.633E+00    0.04       1.0  T
  27   -490.5481230 -0.137866E+02  0.583E+00    0.08       1.0  T
  28   -488.5735014  0.197462E+01  0.625E+00    0.04       1.0  T
  29   -486.7831783  0.179032E+01  0.599E+00    0.03       1.0  T
  30   -488.3501281 -0.156695E+01  0.649E+00    0.01       1.0  T
  31   -510.4714797 -0.221214E+02  0.649E+00    0.03       1.0  T
  32   -515.6082785 -0.513680E+01  0.560E+00    0.02       1.0  T
  33   -515.1415306  0.466748E+00  0.561E+00    0.05       1.0  T
  34   -512.1721385  0.296939E+01  0.611E+00    0.01       1.0  T
  35   -510.4747886  0.169735E+01  0.654E+00    0.09       1.0  T
  36   -509.5720453  0.902743E+00  0.666E+00    0.16       1.0  T
  37   -509.5512092  0.208361E-01  0.666E+00    0.14       1.0  T
  38   -509.5509797  0.229506E-03  0.667E+00    0.14       1.0  T
  39   -508.3687248  0.118225E+01  0.704E+00    0.04       1.0  T
  40   -506.7992188  0.156951E+01  0.712E+00    0.05       1.0  T
  41   -505.4605199  0.133870E+01  0.725E+00    0.04       1.0  T
  42   -506.5899933 -0.112947E+01  0.726E+00    0.01       1.0  T
  43   -507.2594070 -0.669414E+00  0.761E+00    0.02       1.0  T
  44   -506.1128994  0.114651E+01  0.779E+00    0.01       1.0  T
  45   -506.2282063 -0.115307E+00  0.773E+00    0.01       1.0  T
  46   -503.7231116  0.250509E+01  0.806E+00    0.02       1.0  T
  47   -500.7032486  0.301986E+01  0.850E+00    0.04       1.0  T
  48   -500.7133202 -0.100716E-01  0.850E+00    0.04       1.0  T
  49   -500.5177911  0.195529E+00  0.849E+00    0.06       1.0  T
  50   -499.6899242  0.827867E+00  0.852E+00    0.04       1.0  T
  51   -499.7141659 -0.242417E-01  0.851E+00    0.04       1.0  T
  52   -499.6773504  0.368155E-01  0.852E+00    0.03       1.0  T
  53   -500.1069799 -0.429629E+00  0.849E+00    0.02       1.0  T
  54   -500.3661276 -0.259148E+00  0.848E+00    0.01       1.0  T
  55   -500.3032259  0.629016E-01  0.849E+00    0.04       1.0  T
  56   -502.6201818 -0.231696E+01  0.824E+00    0.01       1.0  T
  57   -501.8698857  0.750296E+00  0.837E+00    0.04       1.0  T
  58   -506.3385133 -0.446863E+01  0.767E+00    0.07       1.0  T
  59   -504.9589737  0.137954E+01  0.782E+00    0.00       1.0  T
  60   -504.5841004  0.374873E+00  0.815E+00    0.04       1.0  T
  61   -505.3370873 -0.752987E+00  0.835E+00    0.03       1.0  T
  62   -502.6280088  0.270908E+01  0.857E+00    0.03       1.0  T
  63   -502.9864330 -0.358424E+00  0.866E+00    0.06       1.0  T
  64   -496.9779187  0.600851E+01  0.898E+00    0.00       1.0  T
  65   -499.7439191 -0.276600E+01  0.898E+00    0.04       1.0  T
  66   -498.5902052  0.115371E+01  0.903E+00    0.02       1.0  T
  67   -496.2229207  0.236728E+01  0.926E+00    0.05       1.0  T
  68   -492.4978423  0.372508E+01  0.949E+00    0.04       1.0  T
  69   -493.8247088 -0.132687E+01  0.957E+00    0.04       1.0  T
  70   -493.3345276  0.490181E+00  0.980E+00    0.03       1.0  T
  71   -493.5639040 -0.229376E+00  0.999E+00    0.06       1.0  T
  72   -493.3514869  0.212417E+00  0.102E+01    0.10       1.0  T
  73   -493.3661047 -0.146178E-01  0.103E+01    0.08       1.0  T
  74   -493.7573865 -0.391282E+00  0.103E+01    0.01       1.0  T
  75   -493.8162941 -0.589077E-01  0.103E+01    0.00       1.0  T
  76   -493.8891987 -0.729046E-01  0.103E+01    0.01       1.0  T
  77   -494.5778266 -0.688628E+00  0.101E+01    0.01       1.0  T
  78   -494.5185877  0.592389E-01  0.101E+01    0.00       1.0  T
  79   -494.7995058 -0.280918E+00  0.101E+01    0.01       1.0  T
  80   -498.6924500 -0.389294E+01  0.101E+01    0.03       1.0  T
  81   -499.1688763 -0.476426E+00  0.101E+01    0.02       1.0  T
  82   -499.5225373 -0.353661E+00  0.101E+01    0.00       1.0  T
  83   -499.5097647  0.127726E-01  0.101E+01    0.00       1.0  T
  84   -499.1081105  0.401654E+00  0.100E+01    0.04       1.0  T
  85   -499.8548550 -0.746744E+00  0.100E+01    0.05       1.0  T
  86   -500.6442914 -0.789436E+00  0.990E+00    0.01       1.0  T
  87   -500.2753944  0.368897E+00  0.991E+00    0.01       1.0  T
  88   -502.8158357 -0.254044E+01  0.972E+00    0.01       1.0  T
  89   -503.8437316 -0.102790E+01  0.936E+00    0.01       1.0  T
  90   -503.9472373 -0.103506E+00  0.958E+00    0.04       1.0  T
  91   -504.5188082 -0.571571E+00  0.946E+00    0.06       1.0  T
  92   -504.6702175 -0.151409E+00  0.944E+00    0.03       1.0  T
  93   -504.5559145  0.114303E+00  0.924E+00    0.01       1.0  T
  94   -504.5576928 -0.177828E-02  0.924E+00    0.01       1.0  T
  95   -504.6427988 -0.851061E-01  0.923E+00    0.01       1.0  T
  96   -504.6751048 -0.323060E-01  0.920E+00    0.01       1.0  T
  97   -504.6931472 -0.180424E-01  0.916E+00    0.02       1.0  T
  98   -504.7533685 -0.602212E-01  0.893E+00    0.01       1.0  T
  99   -504.8189014 -0.655330E-01  0.892E+00    0.01       1.0  T
 100   -504.7915302  0.273712E-01  0.893E+00    0.01       1.0  T
 101   -504.7997251 -0.819494E-02  0.893E+00    0.01       1.0  T
 102   -505.3154205 -0.515695E+00  0.893E+00    0.00       1.0  T
 103   -505.8291335 -0.513713E+00  0.880E+00    0.01       1.0  T
 104   -505.4904590  0.338674E+00  0.878E+00    0.01       1.0  T
 105   -505.1020272  0.388432E+00  0.875E+00    0.01       1.0  T
 106   -505.1072397 -0.521253E-02  0.875E+00    0.01       1.0  T
 107   -505.7508110 -0.643571E+00  0.911E+00    0.01       1.0  T
 108   -505.7849711 -0.341601E-01  0.909E+00    0.00       1.0  T
 109   -505.9362245 -0.151253E+00  0.913E+00    0.00       1.0  T
 110   -505.9203754  0.158491E-01  0.913E+00    0.01       1.0  T
 111   -505.4683916  0.451984E+00  0.915E+00    0.00       1.0  T
 112   -506.0058340 -0.537442E+00  0.917E+00    0.01       1.0  T
 113   -506.4359642 -0.430130E+00  0.905E+00    0.07       1.0  T
 114   -505.3005204  0.113544E+01  0.991E+00    0.04       1.0  T
 115   -505.4303179 -0.129797E+00  0.987E+00    0.05       1.0  T
 116   -505.3183495  0.111968E+00  0.988E+00    0.06       1.0  T
 117   -505.4081674 -0.898179E-01  0.984E+00    0.05       1.0  T
 118   -505.3696329  0.385345E-01  0.985E+00    0.05       1.0  T
 119   -509.1254504 -0.375582E+01  0.917E+00    0.01       1.0  T
 120   -509.0565543  0.688961E-01  0.930E+00    0.01       1.0  T
 121   -508.4186818  0.637873E+00  0.918E+00    0.00       1.0  T
 122   -508.2096171  0.209065E+00  0.932E+00    0.01       1.0  T
 123   -508.1575576  0.520595E-01  0.933E+00    0.01       1.0  T
 124   -508.7922817 -0.634724E+00  0.935E+00    0.03       1.0  T
 125   -507.8794242  0.912857E+00  0.914E+00    0.01       1.0  T
 126   -508.8404271 -0.961003E+00  0.923E+00    0.00       1.0  T
 127   -509.1645597 -0.324133E+00  0.913E+00    0.02       1.0  T
 128   -508.1719674  0.992592E+00  0.896E+00    0.00       1.0  T
 129   -510.4699550 -0.229799E+01  0.903E+00    0.01       1.0  T
 130   -513.5106822 -0.304073E+01  0.830E+00    0.02       1.0  T
 131   -515.1395516 -0.162887E+01  0.845E+00    0.02       1.0  T
 132   -514.0928749  0.104668E+01  0.806E+00    0.01       1.0  T
 133   -514.3944863 -0.301611E+00  0.766E+00    0.06       1.0  T
 134   -514.4092178 -0.147315E-01  0.738E+00    0.00       1.0  T
 135   -515.1134145 -0.704197E+00  0.709E+00    0.01       1.0  T
 136   -514.8163676  0.297047E+00  0.690E+00    0.00       1.0  T
 137   -515.5746876 -0.758320E+00  0.713E+00    0.02       1.0  T
 138   -515.0759474  0.498740E+00  0.707E+00    0.02       1.0  T
 139   -515.8393218 -0.763374E+00  0.717E+00    0.02       1.0  T
 140   -515.8271763  0.121455E-01  0.717E+00    0.02       1.0  T
 141   -514.5036932  0.132348E+01  0.731E+00    0.01       1.0  T
 142   -516.1301784 -0.162649E+01  0.645E+00    0.02       1.0  T
 143   -515.0431100  0.108707E+01  0.649E+00    0.01       1.0  T
 144   -512.1898895  0.285322E+01  0.617E+00    0.04       1.0  T
 145   -514.4038286 -0.221394E+01  0.640E+00    0.01       1.0  T
 146   -514.3341031  0.697255E-01  0.644E+00    0.00       1.0  T
 147   -514.7875979 -0.453495E+00  0.677E+00    0.00       1.0  T
 148   -515.6178293 -0.830231E+00  0.639E+00    0.01       1.0  T
 149   -509.3610694  0.625676E+01  0.701E+00    0.03       1.0  T
 150   -510.7946071 -0.143354E+01  0.689E+00    0.03       1.0  T
 151   -511.5044657 -0.709859E+00  0.679E+00    0.01       1.0  T
 152   -514.9099114 -0.340545E+01  0.596E+00    0.01       1.0  T
 153   -517.6545030 -0.274459E+01  0.524E+00    0.01       1.0  T
 154   -518.9832058 -0.132870E+01  0.494E+00    0.01       1.0  T
 155   -518.6459635  0.337242E+00  0.509E+00    0.01       1.0  T
 156   -517.6847957  0.961168E+00  0.542E+00    0.05       1.0  T
 157   -517.3953251  0.289471E+00  0.541E+00    0.05       1.0  T
 158   -515.4102934  0.198503E+01  0.553E+00    0.02       1.0  T
 159   -517.9376701 -0.252738E+01  0.503E+00    0.01       1.0  T
 160   -519.5567404 -0.161907E+01  0.468E+00    0.02       1.0  T
 161   -520.8161650 -0.125942E+01  0.404E+00    0.01       1.0  T
 162   -521.0623485 -0.246184E+00  0.375E+00    0.02       1.0  T
 163   -521.3674490 -0.305100E+00  0.370E+00    0.01       1.0  T
 164   -520.2889855  0.107846E+01  0.378E+00    0.00       1.0  T
 165   -521.5138382 -0.122485E+01  0.351E+00    0.01       1.0  T
 166   -519.6939306  0.181991E+01  0.393E+00    0.01       1.0  T
 167   -518.0539299  0.164000E+01  0.437E+00    0.01       1.0  T
 168   -522.3770014 -0.432307E+01  0.347E+00    0.01       1.0  T
 169   -521.1118217  0.126518E+01  0.337E+00    0.01       1.0  T
 170   -519.4040582  0.170776E+01  0.548E+00    0.04       1.0  T
 171   -522.9172630 -0.351320E+01  0.370E+00    0.01       1.0  T
 172   -522.1104960  0.806767E+00  0.358E+00    0.01       1.0  T
 173   -522.6217549 -0.511259E+00  0.424E+00    0.02       1.0  T
 174   -523.0028697 -0.381115E+00  0.427E+00    0.00       1.0  T
 175   -519.3766170  0.362625E+01  0.538E+00    0.02       1.0  T
 176   -522.9466362 -0.357002E+01  0.418E+00    0.00       1.0  T
 177   -524.0395413 -0.109291E+01  0.377E+00    0.02       1.0  T
 178   -522.7765725  0.126297E+01  0.369E+00    0.00       1.0  T
 179   -522.5313226  0.245250E+00  0.429E+00    0.01       1.0  T
 180   -523.3113270 -0.780004E+00  0.414E+00    0.00       1.0  T
 181   -521.6740226  0.163730E+01  0.371E+00    0.01       1.0  T
 182   -518.3175797  0.335644E+01  0.445E+00    0.00       1.0  T
 183   -523.2778198 -0.496024E+01  0.290E+00    0.00       1.0  T
 184   -517.7710352  0.550678E+01  0.454E+00    0.01       1.0  T
 185   -521.2216840 -0.345065E+01  0.333E+00    0.01       1.0  T
 186   -522.7399758 -0.151829E+01  0.302E+00    0.00       1.0  T
 187   -523.1334267 -0.393451E+00  0.332E+00    0.02       1.0  T
 188   -520.2439581  0.288947E+01  0.355E+00    0.00       1.0  T
 189   -522.6519993 -0.240804E+01  0.332E+00    0.02       1.0  T
 190   -522.5213078  0.130691E+00  0.333E+00    0.01       1.0  T
 191   -521.2550179  0.126629E+01  0.343E+00    0.01       1.0  T
 192   -521.2388553  0.161627E-01  0.316E+00    0.01       1.0  T
 193   -523.2937418 -0.205489E+01  0.312E+00    0.01       1.0  T
 194   -522.8817517  0.411990E+00  0.261E+00    0.00       1.0  T
 195   -524.2524114 -0.137066E+01  0.267E+00    0.01       1.0  T
 196   -524.0161859  0.236225E+00  0.294E+00    0.01       1.0  T
 197   -524.0961343 -0.799484E-01  0.288E+00    0.01       1.0  T
 198   -523.6508386  0.445296E+00  0.294E+00    0.01       1.0  T
 199   -523.6347955  0.160431E-01  0.289E+00    0.00       1.0  T
 200   -523.8687845 -0.233989E+00  0.295E+00    0.00       1.0  T
 201   -523.6562837  0.212501E+00  0.261E+00    0.01       1.0  T
 202   -523.7222252 -0.659415E-01  0.281E+00    0.00       1.0  T
 203   -523.5142713  0.207954E+00  0.291E+00    0.01       1.0  T
 204   -524.0022980 -0.488027E+00  0.277E+00    0.01       1.0  T
 205   -523.7902336  0.212064E+00  0.284E+00    0.01       1.0  T
 206   -523.5789843  0.211249E+00  0.276E+00    0.00       1.0  T
 207   -523.7980658 -0.219081E+00  0.266E+00    0.01       1.0  T
 208   -523.3786790  0.419387E+00  0.238E+00    0.00       1.0  T
 209   -523.5468311 -0.168152E+00  0.247E+00    0.01       1.0  T
 210   -522.3493013  0.119753E+01  0.274E+00    0.00       1.0  T
 211   -522.3770573 -0.277560E-01  0.277E+00    0.00       1.0  T
 212   -523.6791955 -0.130214E+01  0.224E+00    0.01       1.0  T
 213   -523.1737990  0.505396E+00  0.234E+00    0.03       1.0  T
 214   -523.5543359 -0.380537E+00  0.257E+00    0.01       1.0  T
 215   -523.5354700  0.188659E-01  0.244E+00    0.01       1.0  T
 216   -523.5724421 -0.369721E-01  0.225E+00    0.00       1.0  T
 217   -523.4289888  0.143453E+00  0.250E+00    0.01       1.0  T
 218   -523.0388979  0.390091E+00  0.252E+00    0.00       1.0  T
 219   -524.4209263 -0.138203E+01  0.183E+00    0.00       1.0  T
 220   -523.7216198  0.699307E+00  0.211E+00    0.01       1.0  T
 221   -524.6238082 -0.902188E+00  0.166E+00    0.00       1.0  T
 222   -524.4346713  0.189137E+00  0.165E+00    0.01       1.0  T
 223   -524.9353434 -0.500672E+00  0.131E+00    0.00       1.0  T
 224   -524.7986310  0.136712E+00  0.131E+00    0.01       1.0  T
 225   -525.0527022 -0.254071E+00  0.115E+00    0.00       1.0  T
 226   -525.1799067 -0.127205E+00  0.104E+00    0.00       1.0  T
 227   -524.6223536  0.557553E+00  0.141E+00    0.01       1.0  T
 228   -524.4479191  0.174435E+00  0.147E+00    0.00       1.0  T
 229   -523.9578368  0.490082E+00  0.175E+00    0.01       1.0  T
 230   -524.7735069 -0.815670E+00  0.126E+00    0.01       1.0  T
 231   -523.9939683  0.779539E+00  0.182E+00    0.01       1.0  T
 232   -525.1285184 -0.113455E+01  0.104E+00    0.01       1.0  T
 233   -522.4616014  0.266692E+01  0.275E+00    0.00       1.0  T
 234   -524.9733426 -0.251174E+01  0.123E+00    0.00       1.0  T
 235   -524.5182612  0.455081E+00  0.155E+00    0.01       1.0  T
 236   -523.8203924  0.697869E+00  0.205E+00    0.00       1.0  T
 237   -525.3564764 -0.153608E+01  0.871E-01    0.00       1.0  T
 238   -524.8885721  0.467904E+00  0.138E+00    0.00       1.0  T
 239   -525.0564902 -0.167918E+00  0.110E+00    0.00       1.0  T
 240   -524.9899882  0.665020E-01  0.128E+00    0.00       1.0  T
 241   -524.9152797  0.747085E-01  0.115E+00    0.00       1.0  T
 242   -524.2803917  0.634888E+00  0.178E+00    0.00       1.0  T
 243   -525.3033697 -0.102298E+01  0.988E-01    0.00       1.0  T
 244   -525.1475847  0.155785E+00  0.107E+00    0.00       1.0  T
 245   -524.5898749  0.557710E+00  0.138E+00    0.00       1.0  T
 246   -523.9003372  0.689538E+00  0.173E+00    0.00       1.0  T
 247   -523.7916975  0.108640E+00  0.179E+00    0.00       1.0  T
 248   -523.6768953  0.114802E+00  0.185E+00    0.00       1.0  T
 249   -523.7954019 -0.118507E+00  0.180E+00    0.00       1.0  T
 250   -523.8717312 -0.763292E-01  0.176E+00    0.00       1.0  T

   *** convergence criteria cannot be satisfied within 250 iterations ***

         #    Occupation            Energy/Eh            Energy/eV
      -------------------------------------------------------------
         1        2.0000           -0.6869180             -18.6920
       ...           ...                  ...                  ...
       480        1.8299           -0.3383545              -9.2071
       481        1.8191           -0.3382906              -9.2054
       482        1.7004           -0.3377470              -9.1906
       483        1.5550           -0.3372862              -9.1780
       484        1.4072           -0.3369189              -9.1680
       485        0.9908           -0.3360802              -9.1452
       486        0.9425           -0.3359882              -9.1427 (HOMO)
       487        0.8664           -0.3358422              -9.1387 (LUMO)
       488        0.8250           -0.3357617              -9.1365
       489        0.7596           -0.3356317              -9.1330
       490        0.7095           -0.3355292              -9.1302
       491        0.6928           -0.3354944              -9.1293
       ...           ...                  ...                  ...
       951                          2.2725472              61.8392
      -------------------------------------------------------------
                  HL-Gap            0.0001460 Eh            0.0040 eV
             Fermi-level           -0.3360976 Eh           -9.1457 eV

 SCC (total)                   0 d,  0 h,  1 min, 12.186 sec
 SCC setup                      ...        0 min,  0.015 sec (  0.020%)
 Dispersion                     ...        0 min,  0.033 sec (  0.045%)
 classical contributions        ...        0 min,  0.002 sec (  0.003%)
 integral evaluation            ...        0 min,  0.232 sec (  0.321%)
 iterations                     ...        1 min, 11.365 sec ( 98.863%)
 molecular gradient             ...        0 min,  0.501 sec (  0.694%)
 printout                       ...        0 min,  0.038 sec (  0.053%)

########################################################################
[ERROR] Program stopped due to fatal error
-3- Single point calculation terminated
-2- xtb_calculator_singlepoint: Electronic structure method terminated
-1- scf: Self consistent charge iterator did not converge
########################################################################
