      -----------------------------------------------------------      
     |                   =====================                   |     
     |                           x T B                           |     
     |                   =====================                   |     
     |                         S. Grimme                         |     
     |          Mulliken Center for Theoretical Chemistry        |     
     |                    University of Bonn                     |     
      -----------------------------------------------------------      

   * xtb version 6.4.1 (bd6e46d) compiled by 'conda@4901f00b25ba' on 2021-06-10

   xtb is free software: you can redistribute it and/or modify it under
   the terms of the GNU Lesser General Public License as published by
   the Free Software Foundation, either version 3 of the License, or
   (at your option) any later version.
   
   xtb is distributed in the hope that it will be useful,
   but WITHOUT ANY WARRANTY; without even the implied warranty of
   MERCHANTABILITY or FITNESS FOR A PARTICULAR PURPOSE.  See the
   GNU Lesser General Public License for more details.
   
   Cite this work as:
   * C. Bannwarth, E. Caldeweyher, S. Ehlert, A. Hansen, P. Pracht,
     J. Seibert, S. Spicher, S. Grimme, WIREs Comput. Mol. Sci., 2020, 11,
     e01493. DOI: 10.1002/wcms.1493
   
   for GFN2-xTB:
   * C. Bannwarth, S. Ehlert and S. Grimme., J. Chem. Theory Comput., 2019,
     15, 1652-1671. DOI: 10.1021/acs.jctc.8b01176
   for GFN1-xTB:
   * S. Grimme, C. Bannwarth, P. Shushkov, J. Chem. Theory Comput., 2017,
     13, 1989-2009. DOI: 10.1021/acs.jctc.7b00118
   for GFN0-xTB:
   * P. Pracht, E. Caldeweyher, S. Ehlert, S. Grimme, ChemRxiv, 2019, preprint.
     DOI: 10.26434/chemrxiv.8326202.v1
   for GFN-FF:
   * S. Spicher and S. Grimme, Angew. Chem. Int. Ed., 2020, 59, 15665-15673.
     DOI: 10.1002/anie.202004239
   
   for DFT-D4:
   * E. Caldeweyher, C. Bannwarth and S. Grimme, J. Chem. Phys., 2017,
     147, 034112. DOI: 10.1063/1.4993215
   * E. Caldeweyher, S. Ehlert, A. Hansen, H. Neugebauer, S. Spicher,
     C. Bannwarth and S. Grimme, J. Chem. Phys., 2019, 150, 154122.
     DOI: 10.1063/1.5090222
   * E. Caldeweyher, J.-M. Mewes, S. Ehlert and S. Grimme, Phys. Chem. Chem. Phys.
     2020, 22, 8499-8512. DOI: 10.1039/D0CP00502A
   
   for sTDA-xTB:
   * S. Grimme and C. Bannwarth, J. Chem. Phys., 2016, 145, 054103.
     DOI: 10.1063/1.4959605
   
   in the mass-spec context:
   * V. Asgeirsson, C. Bauer and S. Grimme, Chem. Sci., 2017, 8, 4879.
     DOI: 10.1039/c7sc00601b
   * J. Koopman and S. Grimme, ACS Omega 2019, 4, 12, 15120-15133.
     DOI: 10.1021/acsomega.9b02011
   
   for metadynamics refer to:
   * S. Grimme, J. Chem. Theory Comput., 2019, 155, 2847-2862
     DOI: 10.1021/acs.jctc.9b00143
   
   for SPH calculations refer to:
   * S. Spicher and S. Grimme, J. Chem. Theory Comput., 2021, 17, 1701-1714
     DOI: 10.1021/acs.jctc.0c01306
   
   with help from (in alphabetical order)
   P. Atkinson, C. Bannwarth, F. Bohle, G. Brandenburg, E. Caldeweyher
   M. Checinski, S. Dohm, S. Ehlert, S. Ehrlich, I. Gerasimov, J. Koopman
   C. Lavigne, S. Lehtola, F. März, M. Müller, F. Musil, H. Neugebauer
   J. Pisarek, C. Plett, P. Pracht, J. Seibert, P. Shushkov, S. Spicher
   M. Stahn, M. Steiner, T. Strunk, J. Stückrath, T. Rose, and J. Unsleber
   
 * started run on 2021/11/21 at 19:10:37.365     

           -------------------------------------------------
          |                Calculation Setup                |
           -------------------------------------------------

          program call               : /home/jeff/miniconda3/bin/xtb /home/jeff/chem/final-year-proejct/Co+2_2_5_outenergy/input_structure.xyz --gfn 2 --parallel 1 --etemp 300 --chrg 0 --uhf 0 -I det_control.in
          coordinate file            : /home/jeff/chem/final-year-proejct/Co+2_2_5_outenergy/input_structure.xyz
          omp threads                :                     1
          number of atoms            :                   185
          number of electrons        :                   629
          charge                     :                     0
          spin                       :                   0.5
          first test random number   :      0.62113000592222

   ID    Z sym.   atoms
    1   27 Co     1, 37, 81, 116, 151
    2    6 C      2-9, 11-15, 17-21, 23, 24, 38-45, 47-51, 53-57, 59, 60,
                  73-80, 82-89, 91-95, 97-101, 103, 104, 117-124, 126-130,
                  132-136, 138, 139, 152-159, 161-165, 167-171, 173, 174
    3    7 N      10, 16, 22, 25, 46, 52, 58, 61, 90, 96, 102, 105, 125, 131,
                  137, 140, 160, 166, 172, 175
    4    1 H      26-36, 62-72, 106-115, 141-150, 176-185

           -------------------------------------------------
          |                 G F N 2 - x T B                 |
           -------------------------------------------------

        Reference                      10.1021/acs.jctc.8b01176
      * Hamiltonian:
        H0-scaling (s, p, d)           1.850000    2.230000    2.230000
        zeta-weighting                 0.500000
      * Dispersion:
        s8                             2.700000
        a1                             0.520000
        a2                             5.000000
        s9                             5.000000
      * Repulsion:
        kExp                           1.500000    1.000000
        rExp                           1.000000
      * Coulomb:
        alpha                          2.000000
        third order                    shell-resolved
        anisotropic                    true
        a3                             3.000000
        a5                             4.000000
        cn-shift                       1.200000
        cn-exp                         4.000000
        max-rad                        5.000000


          ...................................................
          :                      SETUP                      :
          :.................................................:
          :  # basis functions                 614          :
          :  # atomic orbitals                 609          :
          :  # shells                          323          :
          :  # electrons                       629          :
          :  max. iterations                   250          :
          :  Hamiltonian                  GFN2-xTB          :
          :  restarted?                      false          :
          :  GBSA solvation                  false          :
          :  PC potential                    false          :
          :  electronic temp.          300.0000000     K    :
          :  accuracy                    1.0000000          :
          :  -> integral cutoff          0.2500000E+02      :
          :  -> integral neglect         0.1000000E-07      :
          :  -> SCF convergence          0.1000000E-05 Eh   :
          :  -> wf. convergence          0.1000000E-03 e    :
          :  Broyden damping             0.4000000          :
          ...................................................

 iter      E             dE          RMSdq      gap      omega  full diag
   1   -339.2753735 -0.339275E+03  0.686E+00    0.21       0.0  T
   2   -322.1552579  0.171201E+02  0.880E+00    0.00       1.0  T
   3   -306.6297959  0.155255E+02  0.788E+00    0.03       1.0  T
   4   -327.7199402 -0.210901E+02  0.572E+00    0.09       1.0  T
   5   -301.1342526  0.265857E+02  0.578E+00    0.03       1.0  T
   6   -315.9365644 -0.148023E+02  0.546E+00    0.09       1.0  T
   7   -318.4323360 -0.249577E+01  0.591E+00    0.25       1.0  T
   8   -322.9920467 -0.455971E+01  0.706E+00    0.06       1.0  T
   9   -337.6216821 -0.146296E+02  0.316E+00    0.04       1.0  T
  10   -333.2437525  0.437793E+01  0.484E+00    0.02       1.0  T
  11   -338.9430495 -0.569930E+01  0.273E+00    0.02       1.0  T
  12   -337.6872720  0.125578E+01  0.325E+00    0.01       1.0  T
  13   -338.1066681 -0.419396E+00  0.305E+00    0.01       1.0  T
  14   -337.7463546  0.360314E+00  0.324E+00    0.01       1.0  T
  15   -339.1841038 -0.143775E+01  0.257E+00    0.11       1.0  T
  16   -339.3544936 -0.170390E+00  0.259E+00    0.05       1.0  T
  17   -337.2887096  0.206578E+01  0.366E+00    0.04       1.0  T
  18   -339.8687943 -0.258008E+01  0.216E+00    0.06       1.0  T
  19   -339.6067281  0.262066E+00  0.222E+00    0.05       1.0  T
  20   -339.7438605 -0.137132E+00  0.222E+00    0.07       1.0  T
  21   -339.7476631 -0.380266E-02  0.222E+00    0.07       1.0  T
  22   -338.6081006  0.113956E+01  0.251E+00    0.01       1.0  T
  23   -339.4365325 -0.828432E+00  0.218E+00    0.05       1.0  T
  24   -339.3234517  0.113081E+00  0.215E+00    0.04       1.0  T
  25   -337.0395098  0.228394E+01  0.370E+00    0.07       1.0  T
  26   -337.1390874 -0.995776E-01  0.362E+00    0.07       1.0  T
  27   -337.7191160 -0.580029E+00  0.306E+00    0.02       1.0  T
  28   -338.8403329 -0.112122E+01  0.240E+00    0.01       1.0  T
  29   -337.5641097  0.127622E+01  0.341E+00    0.04       1.0  T
  30   -338.7617645 -0.119765E+01  0.263E+00    0.00       1.0  T
  31   -338.8842600 -0.122495E+00  0.244E+00    0.03       1.0  T
  32   -338.9868259 -0.102566E+00  0.246E+00    0.02       1.0  T
  33   -338.9688518  0.179741E-01  0.251E+00    0.01       1.0  T
  34   -338.9910549 -0.222031E-01  0.250E+00    0.01       1.0  T
  35   -338.8225304  0.168524E+00  0.258E+00    0.01       1.0  T
  36   -339.2213369 -0.398806E+00  0.221E+00    0.03       1.0  T
  37   -337.1051731  0.211616E+01  0.338E+00    0.06       1.0  T
  38   -337.5418880 -0.436715E+00  0.313E+00    0.04       1.0  T
  39   -337.4681448  0.737432E-01  0.317E+00    0.04       1.0  T
  40   -337.9230825 -0.454938E+00  0.294E+00    0.04       1.0  T
  41   -339.5368607 -0.161378E+01  0.192E+00    0.01       1.0  T
  42   -339.4012934  0.135567E+00  0.202E+00    0.00       1.0  T
  43   -339.3161625  0.851309E-01  0.209E+00    0.03       1.0  T
  44   -339.9776382 -0.661476E+00  0.153E+00    0.02       1.0  T
  45   -340.0991166 -0.121478E+00  0.130E+00    0.04       1.0  T
  46   -340.0511251  0.479915E-01  0.144E+00    0.02       1.0  T
  47   -339.9048846  0.146241E+00  0.159E+00    0.02       1.0  T
  48   -340.0107493 -0.105865E+00  0.146E+00    0.03       1.0  T
  49   -340.3644081 -0.353659E+00  0.101E+00    0.02       1.0  T
  50   -339.3346719  0.102974E+01  0.200E+00    0.02       1.0  T
  51   -340.0536129 -0.718941E+00  0.139E+00    0.02       1.0  T
  52   -339.0851896  0.968423E+00  0.224E+00    0.02       1.0  T
  53   -339.2492598 -0.164070E+00  0.211E+00    0.02       1.0  T
  54   -340.5289336 -0.127967E+01  0.631E-01    0.01       1.0  T
  55   -340.5420692 -0.131356E-01  0.603E-01    0.00       1.0  T
  56   -340.2679179  0.274151E+00  0.108E+00    0.02       1.0  T
  57   -340.4214939 -0.153576E+00  0.819E-01    0.02       1.0  T
  58   -340.5040568 -0.825629E-01  0.619E-01    0.01       1.0  T
  59   -340.5532519 -0.491951E-01  0.497E-01    0.01       1.0  T
  60   -340.3667318  0.186520E+00  0.938E-01    0.02       1.0  T
  61   -340.3910774 -0.243456E-01  0.896E-01    0.02       1.0  T
  62   -340.4788636 -0.877861E-01  0.710E-01    0.01       1.0  T
  63   -340.4774984  0.136516E-02  0.706E-01    0.02       1.0  T
  64   -340.5719541 -0.944557E-01  0.410E-01    0.01       1.0  T
  65   -340.6119062 -0.399521E-01  0.169E-01    0.01       1.0  T
  66   -340.5977229  0.141833E-01  0.261E-01    0.01       1.0  T
  67   -340.6024021 -0.467923E-02  0.229E-01    0.01       1.0  T
  68   -340.6056656 -0.326347E-02  0.204E-01    0.01       1.0  T
  69   -340.5913722  0.142934E-01  0.294E-01    0.01       1.0  T
  70   -340.6036750 -0.123028E-01  0.218E-01    0.01       1.0  T
  71   -340.6100736 -0.639862E-02  0.162E-01    0.01       1.0  T
  72   -340.6114439 -0.137029E-02  0.144E-01    0.01       1.0  T
  73   -340.6136728 -0.222892E-02  0.110E-01    0.01       1.0  T
  74   -340.6154778 -0.180493E-02  0.707E-02    0.01       1.0  T
  75   -340.6138437  0.163409E-02  0.926E-02    0.01       1.0  T
  76   -340.6146165 -0.772883E-03  0.769E-02    0.01       1.0  T
  77   -340.6160331 -0.141656E-02  0.406E-02    0.01       1.0  T
  78   -340.6163286 -0.295526E-03  0.240E-02    0.01       1.0  T
  79   -340.6161596  0.169059E-03  0.275E-02    0.01       1.0  T
  80   -340.6162339 -0.743163E-04  0.214E-02    0.01       1.0  T
  81   -340.6161527  0.811412E-04  0.247E-02    0.01       1.0  T
  82   -340.6160080  0.144736E-03  0.323E-02    0.01       1.0  T
  83   -340.6162768 -0.268764E-03  0.153E-02    0.01       1.0  T
  84   -340.6163255 -0.487003E-04  0.959E-03    0.01       1.0  T
  85   -340.6163472 -0.217275E-04  0.585E-03    0.01       1.3  T
  86   -340.6163494 -0.222938E-05  0.533E-03    0.01       1.4  T
  87   -340.6163528 -0.332324E-05  0.427E-03    0.01       1.7  T
  88   -340.6163539 -0.114059E-05  0.391E-03    0.01       1.9  T
  89   -340.6163531  0.795778E-06  0.410E-03    0.01       1.8  T
  90   -340.6163547 -0.158147E-05  0.338E-03    0.01       2.2  T
  91   -340.6163568 -0.210475E-05  0.208E-03    0.01       3.5  T
  92   -340.6163567  0.549531E-07  0.200E-03    0.01       3.7  T
  93   -340.6163568 -0.452972E-07  0.184E-03    0.01       4.0  T
  94   -340.6163573 -0.538278E-06  0.107E-03    0.01       6.9  T
  95   -340.6163573 -0.173239E-07  0.796E-04    0.01       9.2  T
  96   -340.6163574 -0.780327E-07  0.471E-04    0.01      15.6  T

   *** convergence criteria satisfied after 96 iterations ***

         #    Occupation            Energy/Eh            Energy/eV
      -------------------------------------------------------------
         1        2.0000           -0.6705572             -18.2468
       ...           ...                  ...                  ...
       309        1.8443           -0.3446254              -9.3777
       310        1.8419           -0.3446095              -9.3773
       311        1.8277           -0.3445197              -9.3749
       312        1.8259           -0.3445090              -9.3746
       313        1.4764           -0.3432474              -9.3402
       314        1.4377           -0.3431527              -9.3377
       315        1.3862           -0.3430328              -9.3344 (HOMO)
       316        1.2574           -0.3427541              -9.3268 (LUMO)
       317        0.8505           -0.3419511              -9.3050
       318                         -0.3155338              -8.5861
       319                         -0.3084525              -8.3934
       320                         -0.3003377              -8.1726
       ...                                ...                  ...
       609                          1.4094722              38.3537
      -------------------------------------------------------------
                  HL-Gap            0.0002787 Eh            0.0076 eV
             Fermi-level           -0.3422433 Eh           -9.3129 eV

 SCC (total)                   0 d,  0 h,  0 min,  9.695 sec
 SCC setup                      ...        0 min,  0.006 sec (  0.065%)
 Dispersion                     ...        0 min,  0.015 sec (  0.150%)
 classical contributions        ...        0 min,  0.002 sec (  0.018%)
 integral evaluation            ...        0 min,  0.115 sec (  1.188%)
 iterations                     ...        0 min,  9.188 sec ( 94.770%)
 molecular gradient             ...        0 min,  0.358 sec (  3.689%)
 printout                       ...        0 min,  0.012 sec (  0.121%)

         :::::::::::::::::::::::::::::::::::::::::::::::::::::
         ::                     SUMMARY                     ::
         :::::::::::::::::::::::::::::::::::::::::::::::::::::
         :: total energy            -334.843902277311 Eh    ::
         :: gradient norm              0.000688366890 Eh/a0 ::
         :: HOMO-LUMO gap              0.007583763901 eV    ::
         ::.................................................::
         :: SCC energy              -340.616357412129 Eh    ::
         :: -> isotropic ES            0.079887798892 Eh    ::
         :: -> anisotropic ES          0.042276649519 Eh    ::
         :: -> anisotropic XC          0.169106754606 Eh    ::
         :: -> dispersion             -0.316452786577 Eh    ::
         :: repulsion energy           5.777085337369 Eh    ::
         :: add. restraining           0.000000000000 Eh    ::
         :: total charge               0.000000000145 e     ::
         :::::::::::::::::::::::::::::::::::::::::::::::::::::

           -------------------------------------------------
          |                Property Printout                |
           -------------------------------------------------

    * Orbital Energies and Occupations

         #    Occupation            Energy/Eh            Energy/eV
      -------------------------------------------------------------
         1        2.0000           -0.6705572             -18.2468
       ...           ...                  ...                  ...
       303        1.9369           -0.3455332              -9.4024
       304        1.9347           -0.3454996              -9.4015
       305        1.9309           -0.3454436              -9.4000
       306        1.9245           -0.3453563              -9.3976
       307        1.9201           -0.3453008              -9.3961
       308        1.8504           -0.3446667              -9.3789
       309        1.8443           -0.3446254              -9.3777
       310        1.8419           -0.3446095              -9.3773
       311        1.8277           -0.3445197              -9.3749
       312        1.8259           -0.3445090              -9.3746
       313        1.4764           -0.3432474              -9.3402
       314        1.4377           -0.3431527              -9.3377
       315        1.3862           -0.3430328              -9.3344 (HOMO)
       316        1.2574           -0.3427541              -9.3268 (LUMO)
       317        0.8505           -0.3419511              -9.3050
       318                         -0.3155338              -8.5861
       319                         -0.3084525              -8.3934
       320                         -0.3003377              -8.1726
       321                         -0.2973908              -8.0924
       322                         -0.2970181              -8.0823
       323                         -0.2969075              -8.0793
       324                         -0.2957770              -8.0485
       325                         -0.2955938              -8.0435
       326                         -0.2920207              -7.9463
       ...                                ...                  ...
       609                          1.4094722              38.3537
      -------------------------------------------------------------
                  HL-Gap            0.0002787 Eh            0.0076 eV
             Fermi-level           -0.3422433 Eh           -9.3129 eV

     #   Z          covCN         q      C6AA      α(0)
     1  27 Co       3.103     0.092   141.056    24.333
     2   6 C        3.023    -0.053    29.295     8.878
     3   6 C        3.021    -0.053    29.280     8.876
     4   6 C        3.188     0.072    25.945     8.310
     5   6 C        2.956     0.019    27.578     8.614
     6   6 C        3.185     0.072    25.953     8.313
     7   6 C        3.023    -0.051    29.236     8.869
     8   6 C        3.023    -0.053    29.298     8.879
     9   6 C        3.175     0.071    26.039     8.334
    10   7 N        2.644    -0.129    23.801     7.246
    11   6 C        2.904    -0.049    29.207     8.861
    12   6 C        3.171     0.072    26.032     8.335
    13   6 C        3.020    -0.053    29.279     8.876
    14   6 C        3.021    -0.053    29.280     8.876
    15   6 C        3.171     0.072    26.026     8.334
    16   7 N        2.645    -0.127    23.764     7.240
    17   6 C        2.904    -0.050    29.246     8.867
    18   6 C        3.171     0.072    26.026     8.334
    19   6 C        3.021    -0.053    29.281     8.876
    20   6 C        3.020    -0.053    29.279     8.876
    21   6 C        3.171     0.072    26.032     8.335
    22   7 N        2.645    -0.127    23.764     7.240
    23   6 C        2.904    -0.049    29.205     8.861
    24   6 C        3.174     0.071    26.045     8.335
    25   7 N        2.644    -0.128    23.792     7.244
    26   1 H        0.926     0.034     2.527     2.486
    27   1 H        0.926     0.036     2.505     2.475
    28   1 H        0.926     0.033     2.546     2.495
    29   1 H        0.926     0.034     2.528     2.487
    30   1 H        0.926     0.050     2.325     2.385
    31   1 H        0.926     0.034     2.526     2.485
    32   1 H        0.926     0.034     2.527     2.486
    33   1 H        0.926     0.049     2.332     2.388
    34   1 H        0.926     0.034     2.527     2.486
    35   1 H        0.926     0.034     2.526     2.485
    36   1 H        0.926     0.050     2.324     2.384
    37  27 Co       3.098     0.093   141.051    24.333
    38   6 C        3.023    -0.053    29.295     8.878
    39   6 C        3.021    -0.053    29.279     8.876
    40   6 C        3.189     0.072    25.941     8.309
    41   6 C        2.956     0.019    27.582     8.614
    42   6 C        3.185     0.072    25.953     8.313
    43   6 C        3.023    -0.051    29.230     8.868
    44   6 C        3.023    -0.053    29.298     8.879
    45   6 C        3.176     0.071    26.030     8.332
    46   7 N        2.643    -0.129    23.804     7.246
    47   6 C        2.904    -0.049    29.213     8.862
    48   6 C        3.172     0.072    26.024     8.333
    49   6 C        3.020    -0.052    29.279     8.876
    50   6 C        3.021    -0.053    29.279     8.876
    51   6 C        3.172     0.072    26.019     8.332
    52   7 N        2.643    -0.127    23.771     7.241
    53   6 C        2.904    -0.050    29.252     8.868
    54   6 C        3.171     0.072    26.020     8.333
    55   6 C        3.021    -0.053    29.280     8.876
    56   6 C        3.020    -0.052    29.279     8.876
    57   6 C        3.171     0.072    26.027     8.334
    58   7 N        2.644    -0.127    23.768     7.241
    59   6 C        2.904    -0.049    29.210     8.862
    60   6 C        3.174     0.071    26.038     8.334
    61   7 N        2.643    -0.128    23.796     7.245
    62   1 H        0.926     0.034     2.527     2.486
    63   1 H        0.926     0.036     2.504     2.475
    64   1 H        0.926     0.033     2.550     2.497
    65   1 H        0.926     0.034     2.529     2.487
    66   1 H        0.926     0.049     2.326     2.385
    67   1 H        0.926     0.034     2.526     2.486
    68   1 H        0.926     0.034     2.527     2.486
    69   1 H        0.926     0.049     2.333     2.388
    70   1 H        0.926     0.034     2.527     2.486
    71   1 H        0.926     0.034     2.526     2.486
    72   1 H        0.926     0.050     2.325     2.384
    73   6 C        1.989    -0.027    31.773     9.103
    74   6 C        1.988    -0.029    31.818     9.109
    75   6 C        1.989    -0.027    31.771     9.103
    76   6 C        1.988    -0.028    31.791     9.106
    77   6 C        1.988    -0.028    31.795     9.106
    78   6 C        1.989    -0.027    31.769     9.102
    79   6 C        1.988    -0.029    31.821     9.110
    80   6 C        1.989    -0.027    31.773     9.103
    81  27 Co       3.120     0.090   141.089    24.336
    82   6 C        3.023    -0.053    29.298     8.879
    83   6 C        3.021    -0.053    29.278     8.876
    84   6 C        3.185     0.071    25.965     8.315
    85   6 C        2.955     0.021    27.533     8.606
    86   6 C        3.183     0.072    25.971     8.318
    87   6 C        3.023    -0.051    29.236     8.869
    88   6 C        3.023    -0.053    29.299     8.879
    89   6 C        3.173     0.070    26.059     8.338
    90   7 N        2.650    -0.128    23.779     7.242
    91   6 C        2.903    -0.045    29.128     8.849
    92   6 C        3.172     0.070    26.067     8.340
    93   6 C        3.023    -0.053    29.293     8.878
    94   6 C        3.021    -0.053    29.282     8.876
    95   6 C        3.186     0.072    25.954     8.313
    96   7 N        2.650    -0.128    23.778     7.242
    97   6 C        2.955     0.020    27.556     8.610
    98   6 C        3.183     0.072    25.961     8.316
    99   6 C        3.023    -0.051    29.246     8.871
   100   6 C        3.023    -0.053    29.295     8.878
   101   6 C        3.173     0.070    26.063     8.339
   102   7 N        2.650    -0.128    23.786     7.243
   103   6 C        2.903    -0.045    29.128     8.849
   104   6 C        3.172     0.070    26.066     8.340
   105   7 N        2.650    -0.127    23.771     7.241
   106   1 H        0.926     0.034     2.526     2.486
   107   1 H        0.926     0.036     2.502     2.473
   108   1 H        0.926     0.033     2.544     2.494
   109   1 H        0.926     0.034     2.527     2.486
   110   1 H        0.926     0.051     2.313     2.379
   111   1 H        0.926     0.034     2.525     2.485
   112   1 H        0.926     0.036     2.506     2.475
   113   1 H        0.926     0.033     2.544     2.494
   114   1 H        0.926     0.034     2.527     2.486
   115   1 H        0.926     0.050     2.314     2.379
   116  27 Co       3.129     0.089   141.102    24.337
   117   6 C        3.023    -0.053    29.296     8.878
   118   6 C        3.022    -0.051    29.244     8.870
   119   6 C        3.182     0.072    25.972     8.318
   120   6 C        2.955     0.021    27.537     8.607
   121   6 C        3.184     0.072    25.968     8.316
   122   6 C        3.021    -0.053    29.281     8.876
   123   6 C        3.023    -0.053    29.295     8.878
   124   6 C        3.170     0.070    26.078     8.343
   125   7 N        2.652    -0.127    23.766     7.240
   126   6 C        2.903    -0.045    29.115     8.847
   127   6 C        3.171     0.070    26.074     8.341
   128   6 C        3.023    -0.053    29.296     8.878
   129   6 C        3.022    -0.051    29.245     8.871
   130   6 C        3.182     0.072    25.972     8.318
   131   7 N        2.653    -0.127    23.770     7.241
   132   6 C        2.955     0.021    27.535     8.607
   133   6 C        3.184     0.072    25.969     8.316
   134   6 C        3.021    -0.053    29.280     8.876
   135   6 C        3.023    -0.053    29.295     8.878
   136   6 C        3.170     0.070    26.079     8.343
   137   7 N        2.653    -0.127    23.766     7.240
   138   6 C        2.903    -0.045    29.115     8.847
   139   6 C        3.171     0.070    26.074     8.341
   140   7 N        2.652    -0.127    23.773     7.241
   141   1 H        0.926     0.034     2.526     2.485
   142   1 H        0.926     0.033     2.544     2.494
   143   1 H        0.926     0.036     2.507     2.476
   144   1 H        0.926     0.034     2.524     2.485
   145   1 H        0.926     0.051     2.312     2.378
   146   1 H        0.926     0.034     2.525     2.485
   147   1 H        0.926     0.033     2.542     2.493
   148   1 H        0.926     0.036     2.507     2.476
   149   1 H        0.926     0.034     2.524     2.485
   150   1 H        0.926     0.051     2.312     2.378
   151  27 Co       3.117     0.090   141.086    24.336
   152   6 C        3.023    -0.053    29.293     8.878
   153   6 C        3.021    -0.053    29.282     8.876
   154   6 C        3.187     0.072    25.948     8.311
   155   6 C        2.955     0.020    27.560     8.611
   156   6 C        3.184     0.072    25.957     8.315
   157   6 C        3.023    -0.051    29.247     8.871
   158   6 C        3.023    -0.053    29.294     8.878
   159   6 C        3.173     0.070    26.061     8.338
   160   7 N        2.649    -0.128    23.789     7.244
   161   6 C        2.903    -0.046    29.132     8.850
   162   6 C        3.172     0.070    26.062     8.339
   163   6 C        3.023    -0.053    29.297     8.879
   164   6 C        3.021    -0.052    29.276     8.875
   165   6 C        3.186     0.071    25.965     8.315
   166   7 N        2.650    -0.127    23.771     7.241
   167   6 C        2.955     0.021    27.535     8.607
   168   6 C        3.183     0.072    25.971     8.317
   169   6 C        3.023    -0.051    29.230     8.868
   170   6 C        3.022    -0.053    29.299     8.879
   171   6 C        3.174     0.070    26.053     8.337
   172   7 N        2.649    -0.128    23.783     7.243
   173   6 C        2.904    -0.046    29.132     8.850
   174   6 C        3.173     0.070    26.061     8.338
   175   7 N        2.649    -0.128    23.782     7.243
   176   1 H        0.926     0.034     2.525     2.485
   177   1 H        0.926     0.036     2.506     2.476
   178   1 H        0.926     0.033     2.542     2.493
   179   1 H        0.926     0.034     2.527     2.486
   180   1 H        0.926     0.050     2.314     2.379
   181   1 H        0.926     0.034     2.526     2.486
   182   1 H        0.926     0.036     2.501     2.473
   183   1 H        0.926     0.033     2.548     2.496
   184   1 H        0.926     0.034     2.527     2.486
   185   1 H        0.926     0.050     2.314     2.379

 Mol. C6AA /au·bohr⁶  :     655548.988800
 Mol. C8AA /au·bohr⁸  :   19069752.518505
 Mol. α(0) /au        :       1330.650281


Wiberg/Mayer (AO) data.
largest (>0.10) Wiberg bond orders for each atom

 ---------------------------------------------------------------------------
     #   Z sym  total        # sym  WBO       # sym  WBO       # sym  WBO
 ---------------------------------------------------------------------------
     1  27 Co   3.394 --    16 N    0.727    22 N    0.727    25 N    0.722
                            10 N    0.722
     2   6 C    3.953 --     3 C    1.640    24 C    1.174    26 H    0.972
     3   6 C    3.958 --     2 C    1.640     4 C    1.183    27 H    0.969
     4   6 C    3.921 --    25 N    1.265     5 C    1.252     3 C    1.183
     5   6 C    3.943 --     6 C    1.254     4 C    1.252    73 C    1.179
     6   6 C    3.921 --    10 N    1.265     5 C    1.254     7 C    1.184
     7   6 C    3.958 --     8 C    1.640     6 C    1.184    28 H    0.967
     8   6 C    3.953 --     7 C    1.640     9 C    1.174    29 H    0.972
     9   6 C    3.931 --    11 C    1.359    10 N    1.226     8 C    1.174
    10   7 N    3.512 --     6 C    1.265     9 C    1.226     1 Co   0.722
    11   6 C    3.935 --     9 C    1.359    12 C    1.354    30 H    0.964
    12   6 C    3.936 --    11 C    1.354    16 N    1.239    13 C    1.166
    13   6 C    3.958 --    14 C    1.656    12 C    1.166    31 H    0.972
    14   6 C    3.956 --    13 C    1.656    15 C    1.165    32 H    0.972
    15   6 C    3.937 --    17 C    1.355    16 N    1.241    14 C    1.165
    16   7 N    3.509 --    15 C    1.241    12 C    1.239     1 Co   0.727
    17   6 C    3.931 --    15 C    1.355    18 C    1.355    33 H    0.964
    18   6 C    3.937 --    17 C    1.355    22 N    1.241    19 C    1.166
    19   6 C    3.956 --    20 C    1.656    18 C    1.166    34 H    0.972
    20   6 C    3.958 --    19 C    1.656    21 C    1.166    35 H    0.972
    21   6 C    3.936 --    23 C    1.354    22 N    1.239    20 C    1.166
    22   7 N    3.509 --    18 C    1.241    21 C    1.239     1 Co   0.727
    23   6 C    3.935 --    24 C    1.359    21 C    1.354    36 H    0.964
    24   6 C    3.931 --    23 C    1.359    25 N    1.225     2 C    1.174
    25   7 N    3.512 --     4 C    1.265    24 C    1.225     1 Co   0.722
    26   1 H    0.998 --     2 C    0.972
    27   1 H    0.998 --     3 C    0.969
    28   1 H    0.998 --     7 C    0.967
    29   1 H    0.998 --     8 C    0.972
    30   1 H    0.996 --    11 C    0.964
    31   1 H    0.998 --    13 C    0.972
    32   1 H    0.998 --    14 C    0.972
    33   1 H    0.996 --    17 C    0.964
    34   1 H    0.998 --    19 C    0.972
    35   1 H    0.998 --    20 C    0.972
    36   1 H    0.996 --    23 C    0.964
    37  27 Co   3.387 --    58 N    0.726    52 N    0.726    61 N    0.722
                            46 N    0.722
    38   6 C    3.953 --    39 C    1.641    60 C    1.174    62 H    0.972
    39   6 C    3.958 --    38 C    1.641    40 C    1.183    63 H    0.969
    40   6 C    3.922 --    61 N    1.264    41 C    1.253    39 C    1.183
    41   6 C    3.943 --    42 C    1.257    40 C    1.253    80 C    1.176
    42   6 C    3.921 --    46 N    1.263    41 C    1.257    43 C    1.183
    43   6 C    3.958 --    44 C    1.641    42 C    1.183    64 H    0.966
    44   6 C    3.953 --    43 C    1.641    45 C    1.174    65 H    0.972
    45   6 C    3.931 --    47 C    1.358    46 N    1.227    44 C    1.174
    46   7 N    3.512 --    42 C    1.263    45 C    1.227    37 Co   0.722
    47   6 C    3.935 --    45 C    1.358    48 C    1.355    66 H    0.964
    48   6 C    3.936 --    47 C    1.355    52 N    1.239    49 C    1.166
    49   6 C    3.958 --    50 C    1.656    48 C    1.166    67 H    0.972
    50   6 C    3.956 --    49 C    1.656    51 C    1.165    68 H    0.972
    51   6 C    3.937 --    53 C    1.355    52 N    1.241    50 C    1.165
    52   7 N    3.509 --    51 C    1.241    48 C    1.239    37 Co   0.726
    53   6 C    3.932 --    51 C    1.355    54 C    1.355    69 H    0.964
    54   6 C    3.937 --    53 C    1.355    58 N    1.241    55 C    1.165
    55   6 C    3.956 --    56 C    1.656    54 C    1.165    70 H    0.972
    56   6 C    3.958 --    55 C    1.656    57 C    1.166    71 H    0.972
    57   6 C    3.935 --    59 C    1.355    58 N    1.239    56 C    1.166
    58   7 N    3.510 --    54 C    1.241    57 C    1.239    37 Co   0.726
    59   6 C    3.935 --    60 C    1.359    57 C    1.355    72 H    0.964
    60   6 C    3.931 --    59 C    1.359    61 N    1.226    38 C    1.174
    61   7 N    3.513 --    40 C    1.264    60 C    1.226    37 Co   0.722
    62   1 H    0.998 --    38 C    0.972
    63   1 H    0.998 --    39 C    0.969
    64   1 H    0.998 --    43 C    0.966
    65   1 H    0.998 --    44 C    0.972
    66   1 H    0.996 --    47 C    0.964
    67   1 H    0.998 --    49 C    0.972
    68   1 H    0.998 --    50 C    0.972
    69   1 H    0.996 --    53 C    0.964
    70   1 H    0.998 --    55 C    0.972
    71   1 H    0.998 --    56 C    0.972
    72   1 H    0.996 --    59 C    0.964
    73   6 C    3.923 --    74 C    2.566     5 C    1.179
    74   6 C    3.928 --    73 C    2.566    85 C    1.182
    75   6 C    3.922 --    76 C    2.556    97 C    1.188
    76   6 C    3.924 --    75 C    2.556   120 C    1.189
    77   6 C    3.924 --    78 C    2.556   132 C    1.190
    78   6 C    3.922 --    77 C    2.556   155 C    1.188
    79   6 C    3.928 --    80 C    2.570   167 C    1.179
    80   6 C    3.923 --    79 C    2.570    41 C    1.176
    81  27 Co   3.408 --   105 N    0.722    90 N    0.722    96 N    0.721
                           102 N    0.720
    82   6 C    3.955 --    83 C    1.638   104 C    1.176   106 H    0.972
    83   6 C    3.957 --    82 C    1.638    84 C    1.184   107 H    0.969
    84   6 C    3.922 --   105 N    1.266    85 C    1.249    83 C    1.184
    85   6 C    3.931 --    86 C    1.250    84 C    1.249    74 C    1.182
    86   6 C    3.922 --    90 N    1.266    85 C    1.250    87 C    1.185
    87   6 C    3.957 --    88 C    1.637    86 C    1.185   108 H    0.967
    88   6 C    3.954 --    87 C    1.637    89 C    1.176   109 H    0.972
    89   6 C    3.930 --    91 C    1.355    90 N    1.225    88 C    1.176
    90   7 N    3.505 --    86 C    1.266    89 C    1.225    81 Co   0.722
    91   6 C    3.928 --    92 C    1.357    89 C    1.355   110 H    0.964
    92   6 C    3.930 --    91 C    1.357    96 N    1.223    93 C    1.176
    93   6 C    3.954 --    94 C    1.638    92 C    1.176   111 H    0.972
    94   6 C    3.957 --    93 C    1.638    95 C    1.184   112 H    0.969
    95   6 C    3.922 --    96 N    1.268    97 C    1.246    94 C    1.184
    96   7 N    3.504 --    95 C    1.268    92 C    1.223    81 Co   0.721
    97   6 C    3.930 --    98 C    1.247    95 C    1.246    75 C    1.188
    98   6 C    3.922 --   102 N    1.269    97 C    1.247    99 C    1.185
    99   6 C    3.957 --   100 C    1.637    98 C    1.185   113 H    0.967
   100   6 C    3.954 --    99 C    1.637   101 C    1.176   114 H    0.972
   101   6 C    3.930 --   103 C    1.357   102 N    1.223   100 C    1.176
   102   7 N    3.504 --    98 C    1.269   101 C    1.223    81 Co   0.720
   103   6 C    3.928 --   101 C    1.357   104 C    1.354   115 H    0.964
   104   6 C    3.930 --   103 C    1.354   105 N    1.225    82 C    1.176
   105   7 N    3.505 --    84 C    1.266   104 C    1.225    81 Co   0.722
   106   1 H    0.998 --    82 C    0.972
   107   1 H    0.998 --    83 C    0.969
   108   1 H    0.998 --    87 C    0.967
   109   1 H    0.998 --    88 C    0.972
   110   1 H    0.996 --    91 C    0.964
   111   1 H    0.998 --    93 C    0.972
   112   1 H    0.998 --    94 C    0.969
   113   1 H    0.998 --    99 C    0.967
   114   1 H    0.998 --   100 C    0.972
   115   1 H    0.996 --   103 C    0.964
   116  27 Co   3.423 --   131 N    0.722   137 N    0.722   125 N    0.722
                           140 N    0.721
   117   6 C    3.954 --   118 C    1.636   139 C    1.176   141 H    0.972
   118   6 C    3.957 --   117 C    1.636   119 C    1.186   142 H    0.967
   119   6 C    3.922 --   140 N    1.269   120 C    1.246   118 C    1.186
   120   6 C    3.929 --   119 C    1.246   121 C    1.245    76 C    1.189
   121   6 C    3.922 --   125 N    1.268   120 C    1.245   122 C    1.185
   122   6 C    3.957 --   123 C    1.637   121 C    1.185   143 H    0.969
   123   6 C    3.954 --   122 C    1.637   124 C    1.177   144 H    0.972
   124   6 C    3.930 --   126 C    1.355   125 N    1.224   123 C    1.177
   125   7 N    3.505 --   121 C    1.268   124 C    1.224   116 Co   0.722
   126   6 C    3.928 --   127 C    1.356   124 C    1.355   145 H    0.964
   127   6 C    3.930 --   126 C    1.356   131 N    1.223   128 C    1.176
   128   6 C    3.954 --   129 C    1.636   127 C    1.176   146 H    0.972
   129   6 C    3.957 --   128 C    1.636   130 C    1.186   147 H    0.968
   130   6 C    3.922 --   131 N    1.269   132 C    1.245   129 C    1.186
   131   7 N    3.505 --   130 C    1.269   127 C    1.223   116 Co   0.722
   132   6 C    3.929 --   130 C    1.245   133 C    1.244    77 C    1.190
   133   6 C    3.922 --   137 N    1.268   132 C    1.244   134 C    1.185
   134   6 C    3.957 --   135 C    1.637   133 C    1.185   148 H    0.969
   135   6 C    3.954 --   134 C    1.637   136 C    1.177   149 H    0.972
   136   6 C    3.930 --   138 C    1.355   137 N    1.224   135 C    1.177
   137   7 N    3.505 --   133 C    1.268   136 C    1.224   116 Co   0.722
   138   6 C    3.928 --   139 C    1.356   136 C    1.355   150 H    0.964
   139   6 C    3.931 --   138 C    1.356   140 N    1.223   117 C    1.176
   140   7 N    3.504 --   119 C    1.269   139 C    1.223   116 Co   0.721
   141   1 H    0.998 --   117 C    0.972
   142   1 H    0.998 --   118 C    0.967
   143   1 H    0.998 --   122 C    0.969
   144   1 H    0.998 --   123 C    0.972
   145   1 H    0.996 --   126 C    0.964
   146   1 H    0.998 --   128 C    0.972
   147   1 H    0.998 --   129 C    0.968
   148   1 H    0.998 --   134 C    0.969
   149   1 H    0.998 --   135 C    0.972
   150   1 H    0.996 --   138 C    0.964
   151  27 Co   3.404 --   166 N    0.723   172 N    0.722   175 N    0.720
                           160 N    0.720
   152   6 C    3.954 --   153 C    1.638   174 C    1.176   176 H    0.972
   153   6 C    3.957 --   152 C    1.638   154 C    1.184   177 H    0.969
   154   6 C    3.922 --   175 N    1.268   155 C    1.246   153 C    1.184
   155   6 C    3.931 --   156 C    1.247   154 C    1.246    78 C    1.188
   156   6 C    3.922 --   160 N    1.269   155 C    1.247   157 C    1.185
   157   6 C    3.957 --   158 C    1.638   156 C    1.185   178 H    0.967
   158   6 C    3.954 --   157 C    1.638   159 C    1.176   179 H    0.972
   159   6 C    3.930 --   161 C    1.358   160 N    1.223   158 C    1.176
   160   7 N    3.504 --   156 C    1.269   159 C    1.223   151 Co   0.720
   161   6 C    3.928 --   159 C    1.358   162 C    1.354   180 H    0.964
   162   6 C    3.930 --   161 C    1.354   166 N    1.226   163 C    1.176
   163   6 C    3.955 --   164 C    1.638   162 C    1.176   181 H    0.972
   164   6 C    3.957 --   163 C    1.638   165 C    1.184   182 H    0.969
   165   6 C    3.923 --   166 N    1.265   167 C    1.251   164 C    1.184
   166   7 N    3.506 --   165 C    1.265   162 C    1.226   151 Co   0.723
   167   6 C    3.931 --   168 C    1.252   165 C    1.251    79 C    1.179
   168   6 C    3.923 --   172 N    1.265   167 C    1.252   169 C    1.185
   169   6 C    3.957 --   170 C    1.638   168 C    1.185   183 H    0.966
   170   6 C    3.955 --   169 C    1.638   171 C    1.176   184 H    0.972
   171   6 C    3.930 --   173 C    1.354   172 N    1.226   170 C    1.176
   172   7 N    3.505 --   168 C    1.265   171 C    1.226   151 Co   0.722
   173   6 C    3.928 --   174 C    1.357   171 C    1.354   185 H    0.964
   174   6 C    3.930 --   173 C    1.357   175 N    1.223   152 C    1.176
   175   7 N    3.504 --   154 C    1.268   174 C    1.223   151 Co   0.720
   176   1 H    0.998 --   152 C    0.972
   177   1 H    0.998 --   153 C    0.969
   178   1 H    0.998 --   157 C    0.967
   179   1 H    0.998 --   158 C    0.972
   180   1 H    0.996 --   161 C    0.964
   181   1 H    0.998 --   163 C    0.972
   182   1 H    0.998 --   164 C    0.969
   183   1 H    0.998 --   169 C    0.966
   184   1 H    0.998 --   170 C    0.972
   185   1 H    0.996 --   173 C    0.964
 ---------------------------------------------------------------------------

Topologies differ in total number of bonds
Writing topology from bond orders to xtbtopo.mol

molecular dipole:
                 x           y           z       tot (Debye)
 q only:       -0.066       0.006       0.009
   full:       -0.066       0.005      -0.004       0.169
molecular quadrupole (traceless):
                xx          xy          yy          xz          yz          zz
 q only:       23.259       3.555       9.833       1.465      -1.568     -33.092
  q+dip:       63.852       4.423      21.184      -0.558      -3.829     -85.036
   full:       37.656       3.842      13.693      -0.549      -2.385     -51.348


           -------------------------------------------------
          | TOTAL ENERGY             -334.843902277311 Eh   |
          | GRADIENT NORM               0.000688366890 Eh/α |
          | HOMO-LUMO GAP               0.007583763901 eV   |
           -------------------------------------------------

------------------------------------------------------------------------
 * finished run on 2021/11/21 at 19:10:47.167     
------------------------------------------------------------------------
 total:
 * wall-time:     0 d,  0 h,  0 min,  9.802 sec
 *  cpu-time:     0 d,  0 h,  0 min,  9.802 sec
 * ratio c/w:     1.000 speedup
 SCF:
 * wall-time:     0 d,  0 h,  0 min,  9.697 sec
 *  cpu-time:     0 d,  0 h,  0 min,  9.697 sec
 * ratio c/w:     1.000 speedup

