      -----------------------------------------------------------      
     |                   =====================                   |     
     |                           x T B                           |     
     |                   =====================                   |     
     |                         S. Grimme                         |     
     |          Mulliken Center for Theoretical Chemistry        |     
     |                    University of Bonn                     |     
      -----------------------------------------------------------      

   * xtb version 6.4.1 (bd6e46d) compiled by 'conda@4901f00b25ba' on 2021-06-10

   xtb is free software: you can redistribute it and/or modify it under
   the terms of the GNU Lesser General Public License as published by
   the Free Software Foundation, either version 3 of the License, or
   (at your option) any later version.
   
   xtb is distributed in the hope that it will be useful,
   but WITHOUT ANY WARRANTY; without even the implied warranty of
   MERCHANTABILITY or FITNESS FOR A PARTICULAR PURPOSE.  See the
   GNU Lesser General Public License for more details.
   
   Cite this work as:
   * C. Bannwarth, E. Caldeweyher, S. Ehlert, A. Hansen, P. Pracht,
     J. Seibert, S. Spicher, S. Grimme, WIREs Comput. Mol. Sci., 2020, 11,
     e01493. DOI: 10.1002/wcms.1493
   
   for GFN2-xTB:
   * C. Bannwarth, S. Ehlert and S. Grimme., J. Chem. Theory Comput., 2019,
     15, 1652-1671. DOI: 10.1021/acs.jctc.8b01176
   for GFN1-xTB:
   * S. Grimme, C. Bannwarth, P. Shushkov, J. Chem. Theory Comput., 2017,
     13, 1989-2009. DOI: 10.1021/acs.jctc.7b00118
   for GFN0-xTB:
   * P. Pracht, E. Caldeweyher, S. Ehlert, S. Grimme, ChemRxiv, 2019, preprint.
     DOI: 10.26434/chemrxiv.8326202.v1
   for GFN-FF:
   * S. Spicher and S. Grimme, Angew. Chem. Int. Ed., 2020, 59, 15665-15673.
     DOI: 10.1002/anie.202004239
   
   for DFT-D4:
   * E. Caldeweyher, C. Bannwarth and S. Grimme, J. Chem. Phys., 2017,
     147, 034112. DOI: 10.1063/1.4993215
   * E. Caldeweyher, S. Ehlert, A. Hansen, H. Neugebauer, S. Spicher,
     C. Bannwarth and S. Grimme, J. Chem. Phys., 2019, 150, 154122.
     DOI: 10.1063/1.5090222
   * E. Caldeweyher, J.-M. Mewes, S. Ehlert and S. Grimme, Phys. Chem. Chem. Phys.
     2020, 22, 8499-8512. DOI: 10.1039/D0CP00502A
   
   for sTDA-xTB:
   * S. Grimme and C. Bannwarth, J. Chem. Phys., 2016, 145, 054103.
     DOI: 10.1063/1.4959605
   
   in the mass-spec context:
   * V. Asgeirsson, C. Bauer and S. Grimme, Chem. Sci., 2017, 8, 4879.
     DOI: 10.1039/c7sc00601b
   * J. Koopman and S. Grimme, ACS Omega 2019, 4, 12, 15120-15133.
     DOI: 10.1021/acsomega.9b02011
   
   for metadynamics refer to:
   * S. Grimme, J. Chem. Theory Comput., 2019, 155, 2847-2862
     DOI: 10.1021/acs.jctc.9b00143
   
   for SPH calculations refer to:
   * S. Spicher and S. Grimme, J. Chem. Theory Comput., 2021, 17, 1701-1714
     DOI: 10.1021/acs.jctc.0c01306
   
   with help from (in alphabetical order)
   P. Atkinson, C. Bannwarth, F. Bohle, G. Brandenburg, E. Caldeweyher
   M. Checinski, S. Dohm, S. Ehlert, S. Ehrlich, I. Gerasimov, J. Koopman
   C. Lavigne, S. Lehtola, F. März, M. Müller, F. Musil, H. Neugebauer
   J. Pisarek, C. Plett, P. Pracht, J. Seibert, P. Shushkov, S. Spicher
   M. Stahn, M. Steiner, T. Strunk, J. Stückrath, T. Rose, and J. Unsleber
   
 * started run on 2021/11/19 at 14:59:31.295     

           -------------------------------------------------
          |                Calculation Setup                |
           -------------------------------------------------

          program call               : /home/jeff/miniconda3/bin/xtb /home/jeff/chem/final-year-proejct/_4_2_outenergy/input_structure.xyz --gfn 2 --parallel 1 --etemp 300 --chrg 0 --uhf 0 -I det_control.in
          coordinate file            : /home/jeff/chem/final-year-proejct/_4_2_outenergy/input_structure.xyz
          omp threads                :                     1
          number of atoms            :                    78
          number of electrons        :                   242
          charge                     :                     0
          spin                       :                   0.0
          first test random number   :      0.77673224313070

   ID    Z sym.   atoms
    1    6 C      1-8, 10-14, 16-20, 22, 23, 38-49, 51-55, 57-61, 63, 64
    2    7 N      9, 15, 21, 24, 50, 56, 62, 65
    3    1 H      25-37, 66-78

           -------------------------------------------------
          |                 G F N 2 - x T B                 |
           -------------------------------------------------

        Reference                      10.1021/acs.jctc.8b01176
      * Hamiltonian:
        H0-scaling (s, p, d)           1.850000    2.230000    2.230000
        zeta-weighting                 0.500000
      * Dispersion:
        s8                             2.700000
        a1                             0.520000
        a2                             5.000000
        s9                             5.000000
      * Repulsion:
        kExp                           1.500000    1.000000
        rExp                           1.000000
      * Coulomb:
        alpha                          2.000000
        third order                    shell-resolved
        anisotropic                    true
        a3                             3.000000
        a5                             4.000000
        cn-shift                       1.200000
        cn-exp                         4.000000
        max-rad                        5.000000


          ...................................................
          :                      SETUP                      :
          :.................................................:
          :  # basis functions                 234          :
          :  # atomic orbitals                 234          :
          :  # shells                          130          :
          :  # electrons                       242          :
          :  max. iterations                   250          :
          :  Hamiltonian                  GFN2-xTB          :
          :  restarted?                      false          :
          :  GBSA solvation                  false          :
          :  PC potential                    false          :
          :  electronic temp.          300.0000000     K    :
          :  accuracy                    1.0000000          :
          :  -> integral cutoff          0.2500000E+02      :
          :  -> integral neglect         0.1000000E-07      :
          :  -> SCF convergence          0.1000000E-05 Eh   :
          :  -> wf. convergence          0.1000000E-03 e    :
          :  Broyden damping             0.4000000          :
          ...................................................

 iter      E             dE          RMSdq      gap      omega  full diag
   1   -132.9231593 -0.132923E+03  0.479E+00    1.16       0.0  T
   2   -133.1165566 -0.193397E+00  0.310E+00    1.41       1.0  T
   3   -133.0908403  0.257163E-01  0.134E+00    1.30       1.0  T
   4   -133.1046011 -0.137607E-01  0.585E-01    1.37       1.0  T
   5   -133.1436864 -0.390853E-01  0.244E-01    1.40       1.0  T
   6   -133.1525517 -0.886527E-02  0.737E-02    1.40       1.0  T
   7   -133.1528712 -0.319503E-03  0.350E-02    1.40       1.0  T
   8   -133.1529347 -0.635480E-04  0.164E-02    1.40       1.0  T
   9   -133.1529419 -0.722184E-05  0.935E-03    1.40       1.2  T
  10   -133.1529472 -0.522504E-05  0.253E-03    1.40       4.5  T
  11   -133.1529477 -0.589409E-06  0.112E-03    1.40      10.1  T
  12   -133.1529479 -0.122718E-06  0.449E-04    1.40      25.2  T
  13   -133.1529479 -0.656780E-08  0.262E-04    1.40      43.3  T

   *** convergence criteria satisfied after 13 iterations ***

         #    Occupation            Energy/Eh            Energy/eV
      -------------------------------------------------------------
         1        2.0000           -0.6833643             -18.5953
       ...           ...                  ...                  ...
       115        2.0000           -0.3712508             -10.1022
       116        2.0000           -0.3702965             -10.0763
       117        2.0000           -0.3702691             -10.0755
       118        2.0000           -0.3678476             -10.0096
       119        2.0000           -0.3678203             -10.0089
       120        2.0000           -0.3546779              -9.6513
       121        2.0000           -0.3537007              -9.6247 (HOMO)
       122                         -0.3021838              -8.2228 (LUMO)
       123                         -0.3011595              -8.1950
       124                         -0.2966003              -8.0709
       125                         -0.2964960              -8.0681
       126                         -0.2604885              -7.0883
       ...                                ...                  ...
       234                          1.6323229              44.4178
      -------------------------------------------------------------
                  HL-Gap            0.0515169 Eh            1.4018 eV
             Fermi-level           -0.3279363 Eh           -8.9236 eV

 SCC (total)                   0 d,  0 h,  0 min,  0.247 sec
 SCC setup                      ...        0 min,  0.001 sec (  0.571%)
 Dispersion                     ...        0 min,  0.003 sec (  1.229%)
 classical contributions        ...        0 min,  0.001 sec (  0.232%)
 integral evaluation            ...        0 min,  0.023 sec (  9.182%)
 iterations                     ...        0 min,  0.136 sec ( 54.987%)
 molecular gradient             ...        0 min,  0.083 sec ( 33.356%)
 printout                       ...        0 min,  0.001 sec (  0.436%)

         :::::::::::::::::::::::::::::::::::::::::::::::::::::
         ::                     SUMMARY                     ::
         :::::::::::::::::::::::::::::::::::::::::::::::::::::
         :: total energy            -130.727279202782 Eh    ::
         :: gradient norm              0.000214296957 Eh/a0 ::
         :: HOMO-LUMO gap              1.401847165650 eV    ::
         ::.................................................::
         :: SCC energy              -133.152947875269 Eh    ::
         :: -> isotropic ES            0.068341897929 Eh    ::
         :: -> anisotropic ES         -0.005169388993 Eh    ::
         :: -> anisotropic XC          0.088574296447 Eh    ::
         :: -> dispersion             -0.104693637996 Eh    ::
         :: repulsion energy           2.426691244827 Eh    ::
         :: add. restraining           0.000000000000 Eh    ::
         :: total charge               0.000000000000 e     ::
         :::::::::::::::::::::::::::::::::::::::::::::::::::::

           -------------------------------------------------
          |                Property Printout                |
           -------------------------------------------------

    * Orbital Energies and Occupations

         #    Occupation            Energy/Eh            Energy/eV
      -------------------------------------------------------------
         1        2.0000           -0.6833643             -18.5953
       ...           ...                  ...                  ...
       109        2.0000           -0.3962937             -10.7837
       110        2.0000           -0.3885978             -10.5743
       111        2.0000           -0.3885511             -10.5730
       112        2.0000           -0.3872222             -10.5369
       113        2.0000           -0.3871969             -10.5362
       114        2.0000           -0.3713363             -10.1046
       115        2.0000           -0.3712508             -10.1022
       116        2.0000           -0.3702965             -10.0763
       117        2.0000           -0.3702691             -10.0755
       118        2.0000           -0.3678476             -10.0096
       119        2.0000           -0.3678203             -10.0089
       120        2.0000           -0.3546779              -9.6513
       121        2.0000           -0.3537007              -9.6247 (HOMO)
       122                         -0.3021838              -8.2228 (LUMO)
       123                         -0.3011595              -8.1950
       124                         -0.2966003              -8.0709
       125                         -0.2964960              -8.0681
       126                         -0.2604885              -7.0883
       127                         -0.2599456              -7.0735
       128                         -0.2127906              -5.7903
       129                         -0.2113031              -5.7498
       130                         -0.1885602              -5.1310
       131                         -0.1885239              -5.1300
       132                         -0.1701685              -4.6305
       ...                                ...                  ...
       234                          1.6323229              44.4178
      -------------------------------------------------------------
                  HL-Gap            0.0515169 Eh            1.4018 eV
             Fermi-level           -0.3279363 Eh           -8.9236 eV

     #   Z          covCN         q      C6AA      α(0)
     1   6 C        3.016    -0.055    29.336     8.885
     2   6 C        3.009    -0.053    29.297     8.879
     3   6 C        3.196     0.087    25.575     8.245
     4   6 C        2.952     0.012    27.750     8.640
     5   6 C        3.096     0.064    26.459     8.430
     6   6 C        3.026    -0.050    29.207     8.865
     7   6 C        3.034    -0.052    29.253     8.871
     8   6 C        3.073     0.065    26.479     8.437
     9   7 N        2.785    -0.082    22.829     7.096
    10   6 C        2.899    -0.056    29.384     8.888
    11   6 C        3.171     0.087    25.716     8.284
    12   6 C        3.012    -0.054    29.318     8.882
    13   6 C        3.010    -0.054    29.319     8.882
    14   6 C        3.174     0.086    25.708     8.281
    15   7 N        1.870    -0.321    29.187     8.008
    16   6 C        2.899    -0.057    29.419     8.893
    17   6 C        3.074     0.065    26.470     8.436
    18   6 C        3.026    -0.051    29.240     8.870
    19   6 C        3.031    -0.051    29.232     8.868
    20   6 C        3.068     0.066    26.463     8.435
    21   7 N        2.787    -0.081    22.820     7.095
    22   6 C        2.899    -0.056    29.380     8.887
    23   6 C        3.175     0.086    25.716     8.282
    24   7 N        1.870    -0.325    29.287     8.022
    25   1 H        0.926     0.019     2.755     2.596
    26   1 H        0.926     0.021     2.713     2.576
    27   1 H        0.926     0.043     2.406     2.425
    28   1 H        0.926     0.041     2.433     2.439
    29   1 H        0.860     0.214     1.037     1.595
    30   1 H        0.925     0.046     2.364     2.404
    31   1 H        0.926     0.019     2.746     2.591
    32   1 H        0.926     0.019     2.745     2.591
    33   1 H        0.926     0.046     2.373     2.409
    34   1 H        0.926     0.042     2.426     2.436
    35   1 H        0.926     0.042     2.427     2.436
    36   1 H        0.860     0.214     1.036     1.595
    37   1 H        0.925     0.047     2.362     2.403
    38   6 C        1.995    -0.022    31.625     9.082
    39   6 C        1.963    -0.011    31.364     9.044
    40   6 C        1.963    -0.011    31.364     9.044
    41   6 C        1.995    -0.022    31.623     9.082
    42   6 C        3.012    -0.054    29.318     8.882
    43   6 C        3.010    -0.054    29.319     8.882
    44   6 C        3.174     0.086    25.707     8.281
    45   6 C        2.899    -0.057    29.419     8.893
    46   6 C        3.073     0.065    26.470     8.436
    47   6 C        3.026    -0.051    29.240     8.870
    48   6 C        3.031    -0.051    29.232     8.868
    49   6 C        3.068     0.066    26.463     8.435
    50   7 N        2.787    -0.081    22.820     7.095
    51   6 C        2.899    -0.056    29.381     8.887
    52   6 C        3.175     0.086    25.716     8.282
    53   6 C        3.016    -0.055    29.337     8.885
    54   6 C        3.009    -0.053    29.292     8.878
    55   6 C        3.195     0.087    25.577     8.245
    56   7 N        1.870    -0.325    29.292     8.023
    57   6 C        2.952     0.012    27.749     8.640
    58   6 C        3.097     0.064    26.459     8.430
    59   6 C        3.026    -0.050    29.210     8.865
    60   6 C        3.033    -0.052    29.252     8.871
    61   6 C        3.073     0.065    26.479     8.437
    62   7 N        2.785    -0.082    22.825     7.096
    63   6 C        2.899    -0.056    29.382     8.888
    64   6 C        3.171     0.087    25.716     8.284
    65   7 N        1.870    -0.321    29.187     8.008
    66   1 H        0.926     0.019     2.746     2.591
    67   1 H        0.926     0.019     2.745     2.591
    68   1 H        0.926     0.046     2.373     2.409
    69   1 H        0.926     0.042     2.427     2.436
    70   1 H        0.926     0.042     2.427     2.436
    71   1 H        0.860     0.214     1.036     1.595
    72   1 H        0.925     0.047     2.363     2.404
    73   1 H        0.926     0.018     2.757     2.596
    74   1 H        0.926     0.021     2.715     2.576
    75   1 H        0.926     0.043     2.404     2.425
    76   1 H        0.926     0.041     2.432     2.438
    77   1 H        0.860     0.214     1.037     1.595
    78   1 H        0.925     0.047     2.363     2.404

 Mol. C6AA /au·bohr⁶  :      98167.835262
 Mol. C8AA /au·bohr⁸  :    2506800.128915
 Mol. α(0) /au        :        503.966862


Wiberg/Mayer (AO) data.
largest (>0.10) Wiberg bond orders for each atom

 ---------------------------------------------------------------------------
     #   Z sym  total        # sym  WBO       # sym  WBO       # sym  WBO
 ---------------------------------------------------------------------------
     1   6 C    3.961 --     2 C    1.718    23 C    1.114    25 H    0.973
     2   6 C    3.962 --     1 C    1.718     3 C    1.121    26 H    0.971
     3   6 C    3.921 --    24 N    1.354     4 C    1.253     2 C    1.121
     4   6 C    3.942 --     5 C    1.257     3 C    1.253    38 C    1.172
     5   6 C    3.906 --     4 C    1.257     6 C    1.234     9 N    1.222
     6   6 C    3.956 --     7 C    1.596     5 C    1.234    27 H    0.972
     7   6 C    3.950 --     6 C    1.596     8 C    1.222    28 H    0.973
     8   6 C    3.918 --    10 C    1.345     7 C    1.222     9 N    1.203
     9   7 N    3.591 --     5 C    1.222     8 C    1.203    29 H    0.900
    10   6 C    3.925 --    11 C    1.357     8 C    1.345    30 H    0.964
    11   6 C    3.939 --    10 C    1.357    15 N    1.324    12 C    1.107
    12   6 C    3.963 --    13 C    1.731    11 C    1.107    31 H    0.973
    13   6 C    3.962 --    12 C    1.731    14 C    1.109    32 H    0.973
    14   6 C    3.938 --    16 C    1.354    15 N    1.325    13 C    1.109
    15   7 N    3.005 --    14 C    1.325    11 C    1.324
    16   6 C    3.927 --    14 C    1.354    17 C    1.348    33 H    0.965
    17   6 C    3.921 --    16 C    1.348    18 C    1.215    21 N    1.210
    18   6 C    3.950 --    19 C    1.610    17 C    1.215    34 H    0.973
    19   6 C    3.953 --    18 C    1.610    20 C    1.214    35 H    0.973
    20   6 C    3.917 --    22 C    1.345    19 C    1.214    21 N    1.211
    21   7 N    3.587 --    20 C    1.211    17 C    1.210    36 H    0.900
    22   6 C    3.938 --    23 C    1.362    20 C    1.345    37 H    0.964
    23   6 C    3.926 --    22 C    1.362    24 N    1.305     1 C    1.114
    24   7 N    3.011 --     3 C    1.354    23 C    1.305
    25   1 H    0.999 --     1 C    0.973
    26   1 H    0.999 --     2 C    0.971
    27   1 H    0.998 --     6 C    0.972
    28   1 H    0.998 --     7 C    0.973
    29   1 H    0.954 --     9 N    0.900
    30   1 H    0.997 --    10 C    0.964
    31   1 H    0.999 --    12 C    0.973
    32   1 H    0.999 --    13 C    0.973
    33   1 H    0.997 --    16 C    0.965
    34   1 H    0.998 --    18 C    0.973
    35   1 H    0.998 --    19 C    0.973
    36   1 H    0.954 --    21 N    0.900
    37   1 H    0.997 --    22 C    0.964
    38   6 C    3.911 --    39 C    2.481     4 C    1.172    41 C    0.199
    39   6 C    3.923 --    38 C    2.481    40 C    1.290
    40   6 C    3.923 --    41 C    2.481    39 C    1.290
    41   6 C    3.911 --    40 C    2.481    57 C    1.172    38 C    0.199
    42   6 C    3.963 --    43 C    1.731    64 C    1.107    66 H    0.973
    43   6 C    3.962 --    42 C    1.731    44 C    1.109    67 H    0.973
    44   6 C    3.938 --    45 C    1.354    65 N    1.326    43 C    1.109
    45   6 C    3.927 --    44 C    1.354    46 C    1.348    68 H    0.965
    46   6 C    3.921 --    45 C    1.348    47 C    1.215    50 N    1.210
    47   6 C    3.950 --    48 C    1.610    46 C    1.215    69 H    0.973
    48   6 C    3.953 --    47 C    1.610    49 C    1.214    70 H    0.973
    49   6 C    3.917 --    51 C    1.345    48 C    1.214    50 N    1.211
    50   7 N    3.587 --    49 C    1.211    46 C    1.210    71 H    0.900
    51   6 C    3.938 --    52 C    1.362    49 C    1.345    72 H    0.964
    52   6 C    3.926 --    51 C    1.362    56 N    1.305    53 C    1.114
    53   6 C    3.961 --    54 C    1.718    52 C    1.114    73 H    0.973
    54   6 C    3.962 --    53 C    1.718    55 C    1.121    74 H    0.971
    55   6 C    3.921 --    56 N    1.354    57 C    1.255    54 C    1.121
    56   7 N    3.011 --    55 C    1.354    52 C    1.305
    57   6 C    3.942 --    58 C    1.255    55 C    1.255    41 C    1.172
    58   6 C    3.906 --    57 C    1.255    59 C    1.234    62 N    1.223
    59   6 C    3.956 --    60 C    1.596    58 C    1.234    75 H    0.972
    60   6 C    3.950 --    59 C    1.596    61 C    1.222    76 H    0.973
    61   6 C    3.918 --    63 C    1.345    60 C    1.222    62 N    1.203
    62   7 N    3.591 --    58 C    1.223    61 C    1.203    77 H    0.900
    63   6 C    3.925 --    64 C    1.357    61 C    1.345    78 H    0.964
    64   6 C    3.939 --    63 C    1.357    65 N    1.324    42 C    1.107
    65   7 N    3.005 --    44 C    1.326    64 C    1.324
    66   1 H    0.999 --    42 C    0.973
    67   1 H    0.999 --    43 C    0.973
    68   1 H    0.997 --    45 C    0.965
    69   1 H    0.998 --    47 C    0.973
    70   1 H    0.998 --    48 C    0.973
    71   1 H    0.954 --    50 N    0.900
    72   1 H    0.997 --    51 C    0.964
    73   1 H    0.999 --    53 C    0.973
    74   1 H    0.999 --    54 C    0.971
    75   1 H    0.998 --    59 C    0.972
    76   1 H    0.998 --    60 C    0.973
    77   1 H    0.954 --    62 N    0.900
    78   1 H    0.997 --    63 C    0.964
 ---------------------------------------------------------------------------

Topologies differ in total number of bonds
Writing topology from bond orders to xtbtopo.mol

molecular dipole:
                 x           y           z       tot (Debye)
 q only:       -0.007       0.030      -0.026
   full:       -0.012       0.042      -0.042       0.153
molecular quadrupole (traceless):
                xx          xy          yy          xz          yz          zz
 q only:        6.795       6.706      -6.740     -17.059      -2.181      -0.054
  q+dip:       28.413       9.092     -17.510     -14.295      -3.076     -10.903
   full:       16.937       6.448     -10.942     -11.525      -2.102      -5.995


           -------------------------------------------------
          | TOTAL ENERGY             -130.727279202782 Eh   |
          | GRADIENT NORM               0.000214296957 Eh/α |
          | HOMO-LUMO GAP               1.401847165650 eV   |
           -------------------------------------------------

------------------------------------------------------------------------
 * finished run on 2021/11/19 at 14:59:31.570     
------------------------------------------------------------------------
 total:
 * wall-time:     0 d,  0 h,  0 min,  0.275 sec
 *  cpu-time:     0 d,  0 h,  0 min,  0.275 sec
 * ratio c/w:     1.000 speedup
 SCF:
 * wall-time:     0 d,  0 h,  0 min,  0.248 sec
 *  cpu-time:     0 d,  0 h,  0 min,  0.248 sec
 * ratio c/w:     1.000 speedup

