      -----------------------------------------------------------      
     |                   =====================                   |     
     |                           x T B                           |     
     |                   =====================                   |     
     |                         S. Grimme                         |     
     |          Mulliken Center for Theoretical Chemistry        |     
     |                    University of Bonn                     |     
      -----------------------------------------------------------      

   * xtb version 6.4.1 (bd6e46d) compiled by 'conda@4901f00b25ba' on 2021-06-10

   xtb is free software: you can redistribute it and/or modify it under
   the terms of the GNU Lesser General Public License as published by
   the Free Software Foundation, either version 3 of the License, or
   (at your option) any later version.
   
   xtb is distributed in the hope that it will be useful,
   but WITHOUT ANY WARRANTY; without even the implied warranty of
   MERCHANTABILITY or FITNESS FOR A PARTICULAR PURPOSE.  See the
   GNU Lesser General Public License for more details.
   
   Cite this work as:
   * C. Bannwarth, E. Caldeweyher, S. Ehlert, A. Hansen, P. Pracht,
     J. Seibert, S. Spicher, S. Grimme, WIREs Comput. Mol. Sci., 2020, 11,
     e01493. DOI: 10.1002/wcms.1493
   
   for GFN2-xTB:
   * C. Bannwarth, S. Ehlert and S. Grimme., J. Chem. Theory Comput., 2019,
     15, 1652-1671. DOI: 10.1021/acs.jctc.8b01176
   for GFN1-xTB:
   * S. Grimme, C. Bannwarth, P. Shushkov, J. Chem. Theory Comput., 2017,
     13, 1989-2009. DOI: 10.1021/acs.jctc.7b00118
   for GFN0-xTB:
   * P. Pracht, E. Caldeweyher, S. Ehlert, S. Grimme, ChemRxiv, 2019, preprint.
     DOI: 10.26434/chemrxiv.8326202.v1
   for GFN-FF:
   * S. Spicher and S. Grimme, Angew. Chem. Int. Ed., 2020, 59, 15665-15673.
     DOI: 10.1002/anie.202004239
   
   for DFT-D4:
   * E. Caldeweyher, C. Bannwarth and S. Grimme, J. Chem. Phys., 2017,
     147, 034112. DOI: 10.1063/1.4993215
   * E. Caldeweyher, S. Ehlert, A. Hansen, H. Neugebauer, S. Spicher,
     C. Bannwarth and S. Grimme, J. Chem. Phys., 2019, 150, 154122.
     DOI: 10.1063/1.5090222
   * E. Caldeweyher, J.-M. Mewes, S. Ehlert and S. Grimme, Phys. Chem. Chem. Phys.
     2020, 22, 8499-8512. DOI: 10.1039/D0CP00502A
   
   for sTDA-xTB:
   * S. Grimme and C. Bannwarth, J. Chem. Phys., 2016, 145, 054103.
     DOI: 10.1063/1.4959605
   
   in the mass-spec context:
   * V. Asgeirsson, C. Bauer and S. Grimme, Chem. Sci., 2017, 8, 4879.
     DOI: 10.1039/c7sc00601b
   * J. Koopman and S. Grimme, ACS Omega 2019, 4, 12, 15120-15133.
     DOI: 10.1021/acsomega.9b02011
   
   for metadynamics refer to:
   * S. Grimme, J. Chem. Theory Comput., 2019, 155, 2847-2862
     DOI: 10.1021/acs.jctc.9b00143
   
   for SPH calculations refer to:
   * S. Spicher and S. Grimme, J. Chem. Theory Comput., 2021, 17, 1701-1714
     DOI: 10.1021/acs.jctc.0c01306
   
   with help from (in alphabetical order)
   P. Atkinson, C. Bannwarth, F. Bohle, G. Brandenburg, E. Caldeweyher
   M. Checinski, S. Dohm, S. Ehlert, S. Ehrlich, I. Gerasimov, J. Koopman
   C. Lavigne, S. Lehtola, F. März, M. Müller, F. Musil, H. Neugebauer
   J. Pisarek, C. Plett, P. Pracht, J. Seibert, P. Shushkov, S. Spicher
   M. Stahn, M. Steiner, T. Strunk, J. Stückrath, T. Rose, and J. Unsleber
   
 * started run on 2021/11/20 at 04:14:33.321     

           -------------------------------------------------
          |                Calculation Setup                |
           -------------------------------------------------

          program call               : /home/jeff/miniconda3/bin/xtb input_structure_1.xyz --gfn 2 --ohess normal --parallel 1 --etemp 300 --chrg 0 --uhf 0 -I det_control.in
          hostname                   : jelfscompute1
          coordinate file            : input_structure_1.xyz
          omp threads                :                     1
          number of atoms            :                   242
          number of electrons        :                   830
          charge                     :                     0
          spin                       :                   0.0
          first test random number   :      0.86570214811596

   ID    Z sym.   atoms
    1   26 Fe     1, 37, 103, 138, 173, 208
    2    6 C      2-9, 11-15, 17-21, 23, 24, 38-45, 47-51, 53-57, 59, 60,
                  73-102, 104-111, 113-117, 119-123, 125, 126, 139-146,
                  148-152, 154-158, 160, 161, 174-181, 183-187, 189-193, 195,
                  196, 209-216, 218-222, 224-228, 230, 231
    3    7 N      10, 16, 22, 25, 46, 52, 58, 61, 112, 118, 124, 127, 147,
                  153, 159, 162, 182, 188, 194, 197, 217, 223, 229, 232
    4    1 H      26-36, 62-72, 128-137, 163-172, 198-207, 233-242

molecular fragmentation (1/2 indicates fragments):
111111111111111111111111111111111111222222222222222222222222222222222222
222222222222222222222222222222222222222222222222222222222222222222222222
222222222222222222222222222222222222222222222222222222222222222222222222
22222222222222222222222222
# atoms in fragment 1/2:    36   206
 fragment masses (1/2) :      363.17     2172.16
CMA distance (Bohr)    :  90.056
constraining FC (au)   :  0.0500

           -------------------------------------------------
          |                 G F N 2 - x T B                 |
           -------------------------------------------------

        Reference                      10.1021/acs.jctc.8b01176
      * Hamiltonian:
        H0-scaling (s, p, d)           1.850000    2.230000    2.230000
        zeta-weighting                 0.500000
      * Dispersion:
        s8                             2.700000
        a1                             0.520000
        a2                             5.000000
        s9                             5.000000
      * Repulsion:
        kExp                           1.500000    1.000000
        rExp                           1.000000
      * Coulomb:
        alpha                          2.000000
        third order                    shell-resolved
        anisotropic                    true
        a3                             3.000000
        a5                             4.000000
        cn-shift                       1.200000
        cn-exp                         4.000000
        max-rad                        5.000000


          ...................................................
          :                      SETUP                      :
          :.................................................:
          :  # basis functions                 818          :
          :  # atomic orbitals                 812          :
          :  # shells                          428          :
          :  # electrons                       830          :
          :  max. iterations                   250          :
          :  Hamiltonian                  GFN2-xTB          :
          :  restarted?                      false          :
          :  GBSA solvation                  false          :
          :  PC potential                    false          :
          :  electronic temp.          300.0000000     K    :
          :  accuracy                    1.0000000          :
          :  -> integral cutoff          0.2500000E+02      :
          :  -> integral neglect         0.1000000E-07      :
          :  -> SCF convergence          0.1000000E-05 Eh   :
          :  -> wf. convergence          0.1000000E-03 e    :
          :  Broyden damping             0.4000000          :
          ...................................................

 iter      E             dE          RMSdq      gap      omega  full diag
   1   -442.7796042 -0.442780E+03  0.878E+00    0.06       0.0  T
   2   -412.0887994  0.306908E+02  0.116E+01    0.13       1.0  T
   3   -415.0554670 -0.296667E+01  0.867E+00    0.10       1.0  T
   4   -387.3040066  0.277515E+02  0.833E+00    0.06       1.0  T
   5   -332.2033407  0.551007E+02  0.981E+00    0.02       1.0  T
   6   -378.0949985 -0.458917E+02  0.877E+00    0.09       1.0  T
   7   -418.6921011 -0.405971E+02  0.646E+00    0.05       1.0  T
   8   -422.0340136 -0.334191E+01  0.657E+00    0.00       1.0  T
   9   -428.6964298 -0.666242E+01  0.626E+00    0.02       1.0  T
  10   -430.0176862 -0.132126E+01  0.625E+00    0.01       1.0  T
  11   -435.3752950 -0.535761E+01  0.560E+00    0.10       1.0  T
  12   -434.1993864  0.117591E+01  0.583E+00    0.06       1.0  T
  13   -432.0454589  0.215393E+01  0.560E+00    0.02       1.0  T
  14   -441.1443263 -0.909887E+01  0.442E+00    0.01       1.0  T
  15   -442.9214094 -0.177708E+01  0.458E+00    0.04       1.0  T
  16   -440.7121180  0.220929E+01  0.477E+00    0.01       1.0  T
  17   -435.7441984  0.496792E+01  0.576E+00    0.03       1.0  T
  18   -438.9440070 -0.319981E+01  0.458E+00    0.06       1.0  T
  19   -442.6757823 -0.373178E+01  0.409E+00    0.02       1.0  T
  20   -442.0453744  0.630408E+00  0.408E+00    0.01       1.0  T
  21   -434.6951837  0.735019E+01  0.565E+00    0.01       1.0  T
  22   -426.6436988  0.805148E+01  0.573E+00    0.13       1.0  T
  23   -437.8991324 -0.112554E+02  0.539E+00    0.06       1.0  T
  24   -443.1483119 -0.524918E+01  0.424E+00    0.03       1.0  T
  25   -438.5064078  0.464190E+01  0.558E+00    0.02       1.0  T
  26   -439.5923106 -0.108590E+01  0.532E+00    0.01       1.0  T
  27   -438.2631131  0.132920E+01  0.597E+00    0.05       1.0  T
  28   -438.3127584 -0.496453E-01  0.608E+00    0.08       1.0  T
  29   -438.4322239 -0.119466E+00  0.604E+00    0.07       1.0  T
  30   -438.4676774 -0.354534E-01  0.606E+00    0.09       1.0  T
  31   -438.6947669 -0.227090E+00  0.621E+00    0.07       1.0  T
  32   -438.6617259  0.330410E-01  0.601E+00    0.09       1.0  T
  33   -444.5530280 -0.589130E+01  0.473E+00    0.04       1.0  T
  34   -445.0605466 -0.507519E+00  0.465E+00    0.04       1.0  T
  35   -444.4330971  0.627450E+00  0.461E+00    0.01       1.0  T
  36   -443.6359593  0.797138E+00  0.481E+00    0.02       1.0  T
  37   -441.2277448  0.240821E+01  0.528E+00    0.04       1.0  T
  38   -440.4043859  0.823359E+00  0.551E+00    0.04       1.0  T
  39   -444.5562313 -0.415185E+01  0.441E+00    0.03       1.0  T
  40   -441.7509564  0.280527E+01  0.539E+00    0.01       1.0  T
  41   -443.3213674 -0.157041E+01  0.509E+00    0.01       1.0  T
  42   -444.4797789 -0.115841E+01  0.467E+00    0.00       1.0  T
  43   -444.7035690 -0.223790E+00  0.485E+00    0.02       1.0  T
  44   -444.3674168  0.336152E+00  0.475E+00    0.05       1.0  T
  45   -445.3450735 -0.977657E+00  0.472E+00    0.02       1.0  T
  46   -444.9882289  0.356845E+00  0.484E+00    0.02       1.0  T
  47   -445.2140197 -0.225791E+00  0.496E+00    0.01       1.0  T
  48   -442.3256325  0.288839E+01  0.580E+00    0.02       1.0  T
  49   -442.4803374 -0.154705E+00  0.583E+00    0.04       1.0  T
  50   -442.6593105 -0.178973E+00  0.580E+00    0.03       1.0  T
  51   -443.7456251 -0.108631E+01  0.576E+00    0.04       1.0  T
  52   -441.8841324  0.186149E+01  0.583E+00    0.01       1.0  T
  53   -442.2300866 -0.345954E+00  0.575E+00    0.01       1.0  T
  54   -442.7975139 -0.567427E+00  0.564E+00    0.01       1.0  T
  55   -442.6211129  0.176401E+00  0.558E+00    0.02       1.0  T
  56   -441.4517250  0.116939E+01  0.496E+00    0.02       1.0  T
  57   -440.5110497  0.940675E+00  0.520E+00    0.00       1.0  T
  58   -441.8313860 -0.132034E+01  0.487E+00    0.01       1.0  T
  59   -442.4059008 -0.574515E+00  0.553E+00    0.01       1.0  T
  60   -441.8665692  0.539332E+00  0.555E+00    0.00       1.0  T
  61   -442.5105867 -0.644018E+00  0.551E+00    0.00       1.0  T
  62   -442.6977792 -0.187192E+00  0.561E+00    0.01       1.0  T
  63   -442.3949249  0.302854E+00  0.571E+00    0.01       1.0  T
  64   -442.0221739  0.372751E+00  0.586E+00    0.01       1.0  T
  65   -442.5851683 -0.562994E+00  0.587E+00    0.01       1.0  T
  66   -442.5074054  0.777628E-01  0.589E+00    0.01       1.0  T
  67   -442.6281626 -0.120757E+00  0.586E+00    0.01       1.0  T
  68   -442.5947576  0.334050E-01  0.587E+00    0.01       1.0  T
  69   -442.0289219  0.565836E+00  0.604E+00    0.01       1.0  T
  70   -440.4341361  0.159479E+01  0.633E+00    0.01       1.0  T
  71   -441.1117921 -0.677656E+00  0.620E+00    0.01       1.0  T
  72   -441.1081180  0.367408E-02  0.621E+00    0.01       1.0  T
  73   -441.3204279 -0.212310E+00  0.619E+00    0.01       1.0  T
  74   -441.5215774 -0.201150E+00  0.612E+00    0.01       1.0  T
  75   -441.5515669 -0.299895E-01  0.613E+00    0.01       1.0  T
  76   -441.5824577 -0.308908E-01  0.613E+00    0.01       1.0  T
  77   -441.5485993  0.338584E-01  0.614E+00    0.01       1.0  T
  78   -440.7457370  0.802862E+00  0.628E+00    0.01       1.0  T
  79   -442.7170515 -0.197131E+01  0.576E+00    0.00       1.0  T
  80   -442.9223136 -0.205262E+00  0.580E+00    0.00       1.0  T
  81   -442.8936567  0.286568E-01  0.582E+00    0.01       1.0  T
  82   -442.9294301 -0.357733E-01  0.582E+00    0.01       1.0  T
  83   -442.9404397 -0.110096E-01  0.581E+00    0.01       1.0  T
  84   -442.8525810  0.878587E-01  0.583E+00    0.01       1.0  T
  85   -442.9217882 -0.692072E-01  0.581E+00    0.01       1.0  T
  86   -443.0856564 -0.163868E+00  0.575E+00    0.00       1.0  T
  87   -443.1249207 -0.392644E-01  0.573E+00    0.00       1.0  T
  88   -444.0160828 -0.891162E+00  0.546E+00    0.00       1.0  T
  89   -444.7696108 -0.753528E+00  0.514E+00    0.00       1.0  T
  90   -444.8652982 -0.956874E-01  0.512E+00    0.00       1.0  T
  91   -444.8427374  0.225608E-01  0.514E+00    0.01       1.0  T
  92   -444.8732656 -0.305281E-01  0.508E+00    0.01       1.0  T
  93   -445.1379392 -0.264674E+00  0.476E+00    0.00       1.0  T
  94   -445.2791873 -0.141248E+00  0.466E+00    0.00       1.0  T
  95   -445.2536934  0.254939E-01  0.466E+00    0.00       1.0  T
  96   -445.2445198  0.917357E-02  0.466E+00    0.00       1.0  T
  97   -444.9853660  0.259154E+00  0.460E+00    0.00       1.0  T
  98   -444.9276402  0.577258E-01  0.461E+00    0.00       1.0  T
  99   -444.8299630  0.976772E-01  0.453E+00    0.01       1.0  T
 100   -444.9974367 -0.167474E+00  0.444E+00    0.01       1.0  T
 101   -445.0821710 -0.847343E-01  0.419E+00    0.01       1.0  T
 102   -445.8817858 -0.799615E+00  0.425E+00    0.01       1.0  T
 103   -446.2750327 -0.393247E+00  0.454E+00    0.01       1.0  T
 104   -446.5549739 -0.279941E+00  0.498E+00    0.01       1.0  T
 105   -446.5860985 -0.311246E-01  0.499E+00    0.01       1.0  T
 106   -446.5572422  0.288563E-01  0.501E+00    0.00       1.0  T
 107   -446.5596623 -0.242004E-02  0.499E+00    0.00       1.0  T
 108   -446.5413833  0.182790E-01  0.494E+00    0.00       1.0  T
 109   -446.4121470  0.129236E+00  0.422E+00    0.00       1.0  T
 110   -446.5292281 -0.117081E+00  0.346E+00    0.00       1.0  T
 111   -447.2169126 -0.687684E+00  0.358E+00    0.01       1.0  T
 112   -447.2374206 -0.205080E-01  0.373E+00    0.00       1.0  T
 113   -446.5464362  0.690984E+00  0.292E+00    0.00       1.0  T
 114   -446.1114750  0.434961E+00  0.316E+00    0.01       1.0  T
 115   -446.3456992 -0.234224E+00  0.296E+00    0.00       1.0  T
 116   -446.3897354 -0.440362E-01  0.240E+00    0.00       1.0  T
 117   -444.4046241  0.198511E+01  0.412E+00    0.01       1.0  T
 118   -447.7810991 -0.337648E+01  0.237E+00    0.01       1.0  T
 119   -447.7869793 -0.588016E-02  0.255E+00    0.01       1.0  T
 120   -443.5453041  0.424168E+01  0.451E+00    0.03       1.0  T
 121   -445.9023378 -0.235703E+01  0.412E+00    0.01       1.0  T
 122   -446.2271066 -0.324769E+00  0.407E+00    0.01       1.0  T
 123   -447.6541151 -0.142701E+01  0.274E+00    0.01       1.0  T
 124   -446.9221457  0.731969E+00  0.261E+00    0.01       1.0  T
 125   -447.0817539 -0.159608E+00  0.262E+00    0.01       1.0  T
 126   -446.7445638  0.337190E+00  0.315E+00    0.00       1.0  T
 127   -447.2284869 -0.483923E+00  0.250E+00    0.01       1.0  T
 128   -447.3310998 -0.102613E+00  0.229E+00    0.00       1.0  T
 129   -447.8789070 -0.547807E+00  0.230E+00    0.00       1.0  T
 130   -447.8660552  0.128518E-01  0.307E+00    0.01       1.0  T
 131   -447.8623495  0.370567E-02  0.315E+00    0.00       1.0  T
 132   -447.7929746  0.693749E-01  0.316E+00    0.02       1.0  T
 133   -447.1228656  0.670109E+00  0.417E+00    0.00       1.0  T
 134   -447.8489651 -0.726099E+00  0.331E+00    0.00       1.0  T
 135   -447.4897368  0.359228E+00  0.372E+00    0.00       1.0  T
 136   -448.1919002 -0.702163E+00  0.290E+00    0.01       1.0  T
 137   -446.5216110  0.167029E+01  0.346E+00    0.00       1.0  T
 138   -448.1394485 -0.161784E+01  0.245E+00    0.01       1.0  T
 139   -447.9739068  0.165542E+00  0.258E+00    0.01       1.0  T
 140   -447.0241663  0.949740E+00  0.281E+00    0.00       1.0  T
 141   -447.8401309 -0.815965E+00  0.239E+00    0.01       1.0  T
 142   -448.2497152 -0.409584E+00  0.163E+00    0.01       1.0  T
 143   -448.1479891  0.101726E+00  0.147E+00    0.00       1.0  T
 144   -448.3755642 -0.227575E+00  0.127E+00    0.01       1.0  T
 145   -448.4673175 -0.917532E-01  0.107E+00    0.00       1.0  T
 146   -448.4439070  0.234105E-01  0.109E+00    0.00       1.0  T
 147   -448.4339727  0.993429E-02  0.106E+00    0.00       1.0  T
 148   -448.4587511 -0.247784E-01  0.114E+00    0.01       1.0  T
 149   -448.4467852  0.119659E-01  0.116E+00    0.00       1.0  T
 150   -448.3032919  0.143493E+00  0.129E+00    0.00       1.0  T
 151   -448.4995300 -0.196238E+00  0.113E+00    0.00       1.0  T
 152   -448.2163957  0.283134E+00  0.139E+00    0.00       1.0  T
 153   -448.5334780 -0.317082E+00  0.750E-01    0.01       1.0  T
 154   -448.4866382  0.468399E-01  0.965E-01    0.00       1.0  T
 155   -448.5040077 -0.173696E-01  0.703E-01    0.00       1.0  T
 156   -448.5348682 -0.308604E-01  0.509E-01    0.00       1.0  T
 157   -448.5349104 -0.422867E-04  0.380E-01    0.00       1.0  T
 158   -448.5531761 -0.182657E-01  0.375E-01    0.00       1.0  T
 159   -448.5398087  0.133674E-01  0.451E-01    0.00       1.0  T
 160   -448.4276651  0.112144E+00  0.636E-01    0.00       1.0  T
 161   -448.5261296 -0.984644E-01  0.382E-01    0.00       1.0  T
 162   -448.5300678 -0.393826E-02  0.306E-01    0.00       1.0  T
 163   -448.5463330 -0.162652E-01  0.240E-01    0.00       1.0  T
 164   -448.5627602 -0.164272E-01  0.953E-02    0.00       1.0  T
 165   -448.5614709  0.128932E-02  0.106E-01    0.00       1.0  T
 166   -448.5618552 -0.384301E-03  0.113E-01    0.00       1.0  T
 167   -448.5625130 -0.657844E-03  0.905E-02    0.00       1.0  T
 168   -448.5636172 -0.110424E-02  0.597E-02    0.00       1.0  T
 169   -448.5644341 -0.816880E-03  0.423E-02    0.00       1.0  T
 170   -448.5643937  0.404734E-04  0.351E-02    0.00       1.0  T
 171   -448.5643141  0.795181E-04  0.354E-02    0.00       1.0  T
 172   -448.5640645  0.249651E-03  0.459E-02    0.00       1.0  T
 173   -448.5640782 -0.137005E-04  0.402E-02    0.00       1.0  T
 174   -448.5645869 -0.508746E-03  0.185E-02    0.00       1.0  T
 175   -448.5646295 -0.425848E-04  0.134E-02    0.00       1.0  T
 176   -448.5645860  0.435467E-04  0.197E-02    0.00       1.0  T
 177   -448.5645240  0.620030E-04  0.224E-02    0.00       1.0  T
 178   -448.5646368 -0.112886E-03  0.147E-02    0.00       1.0  T
 179   -448.5646431 -0.624505E-05  0.145E-02    0.00       1.0  T
 180   -448.5646900 -0.469319E-04  0.666E-03    0.00       1.0  T
 181   -448.5646992 -0.916508E-05  0.465E-03    0.00       1.4  T
 182   -448.5646999 -0.706196E-06  0.424E-03    0.00       1.5  T
 183   -448.5647007 -0.760171E-06  0.386E-03    0.00       1.7  T
 184   -448.5647037 -0.299573E-05  0.223E-03    0.00       2.9  T
 185   -448.5647036  0.648221E-07  0.217E-03    0.00       3.0  T
 186   -448.5647027  0.897107E-06  0.284E-03    0.00       2.3  T
 187   -448.5647036 -0.935079E-06  0.213E-03    0.00       3.0  T
 188   -448.5647040 -0.406434E-06  0.168E-03    0.00       3.8  T
 189   -448.5647042 -0.168413E-06  0.135E-03    0.00       4.8  T
 190   -448.5647044 -0.247586E-06  0.877E-04    0.00       7.3  T
 191   -448.5647044  0.141335E-08  0.643E-04    0.00      10.0  T

   *** convergence criteria satisfied after 191 iterations ***

         #    Occupation            Energy/Eh            Energy/eV
      -------------------------------------------------------------
         1        2.0000           -0.6839438             -18.6111
       ...           ...                  ...                  ...
       409        1.8806           -0.3384076              -9.2085
       410        1.4708           -0.3367594              -9.1637
       411        1.4641           -0.3367432              -9.1632
       412        1.1499           -0.3360752              -9.1451
       413        1.1347           -0.3360459              -9.1443
       414        1.1039           -0.3359865              -9.1427
       415        1.0193           -0.3358250              -9.1383 (HOMO)
       416        0.9668           -0.3357251              -9.1355 (LUMO)
       417        0.9589           -0.3357101              -9.1351
       418        0.9563           -0.3357052              -9.1350
       419        0.9311           -0.3356571              -9.1337
       420        0.8674           -0.3355348              -9.1304
       ...           ...                  ...                  ...
       812                          2.2713814              61.8074
      -------------------------------------------------------------
                  HL-Gap            0.0000999 Eh            0.0027 eV
             Fermi-level           -0.3357883 Eh           -9.1373 eV

 SCC (total)                   0 d,  0 h,  0 min, 36.253 sec
 SCC setup                      ...        0 min,  0.011 sec (  0.030%)
 Dispersion                     ...        0 min,  0.026 sec (  0.071%)
 classical contributions        ...        0 min,  0.002 sec (  0.005%)
 integral evaluation            ...        0 min,  0.176 sec (  0.484%)
 iterations                     ...        0 min, 35.621 sec ( 98.256%)
 molecular gradient             ...        0 min,  0.394 sec (  1.087%)
 printout                       ...        0 min,  0.024 sec (  0.066%)

         :::::::::::::::::::::::::::::::::::::::::::::::::::::
         ::                     SUMMARY                     ::
         :::::::::::::::::::::::::::::::::::::::::::::::::::::
         :: total energy            -439.134751818145 Eh    ::
         :: gradient norm              2.010610411409 Eh/a0 ::
         :: HOMO-LUMO gap              0.002717974637 eV    ::
         ::.................................................::
         :: SCC energy              -448.564704447066 Eh    ::
         :: -> isotropic ES            0.023573391682 Eh    ::
         :: -> anisotropic ES          0.053465611722 Eh    ::
         :: -> anisotropic XC          0.308039428242 Eh    ::
         :: -> dispersion             -0.329623361665 Eh    ::
         :: repulsion energy           9.430435457907 Eh    ::
         :: add. restraining           0.000000000000 Eh    ::
         :: total charge               0.000000000103 e     ::
         :::::::::::::::::::::::::::::::::::::::::::::::::::::

      ----------------------------------------------------------- 
     |                   =====================                   |
     |                        A N C O P T                        |
     |                   =====================                   |
     |               Approximate Normal Coordinate               |
     |                Rational Function Optimizer                |
      ----------------------------------------------------------- 

          ...................................................
          :                      SETUP                      :
          :.................................................:
          :   optimization level            normal          :
          :   max. optcycles                   726          :
          :   ANC micro-cycles                  20          :
          :   degrees of freedom               720          :
          :.................................................:
          :   RF solver                   davidson          :
          :   write xtbopt.log                true          :
          :   linear?                        false          :
          :   energy convergence         0.5000000E-05 Eh   :
          :   grad. convergence          0.1000000E-02 Eh/α :
          :   maximium RF displ.         1.0000000          :
          :   Hlow (freq-cutoff)         0.1000000E-01      :
          :   Hmax (freq-cutoff)         5.0000000          :
          :   S6 in model hess.         20.0000000          :
          ...................................................

generating ANC from model Hessian ...
Using Lindh-Hessian (1995)
 Shifting diagonal of input Hessian by    1.0134354595250760E-002
 Lowest  eigenvalues of input Hessian
    0.010000    0.010034    0.010100    0.010100    0.010100    0.010101
    0.010106    0.010110    0.010115    0.010117    0.010118    0.010122
    0.010124    0.010127    0.010129    0.010129    0.010132    0.000000
 Highest eigenvalues
    3.325873    3.327672    3.495154    3.495769    3.495770    3.495772


........................................................................
.............................. CYCLE    1 ..............................
........................................................................
   1   -448.5647044 -0.448565E+03  0.658E-04    0.00       0.0  T
   2   -448.5616490  0.305540E-02  0.859E-02    0.00       1.0  T
   3   -448.5646968 -0.304784E-02  0.461E-03    0.00       1.4  T
   4   -448.5635851  0.111172E-02  0.516E-02    0.00       1.0  T
   5   -448.5646464 -0.106132E-02  0.114E-02    0.00       1.0  T
   6   -448.5640857  0.560685E-03  0.387E-02    0.00       1.0  T
   7   -448.5643693 -0.283589E-03  0.283E-02    0.00       1.0  T
   8   -448.5642005  0.168842E-03  0.335E-02    0.00       1.0  T
   9   -448.5646420 -0.441468E-03  0.123E-02    0.00       1.0  T
  10   -448.5645259  0.116015E-03  0.215E-02    0.00       1.0  T
  11   -448.5646939 -0.167937E-03  0.559E-03    0.00       1.2  T
  12   -448.5646173  0.765981E-04  0.146E-02    0.00       1.0  T
  13   -448.5647025 -0.852117E-04  0.235E-03    0.00       2.7  T
  14   -448.5647034 -0.867425E-06  0.185E-03    0.00       3.5  T
  15   -448.5647043 -0.958249E-06  0.767E-04    0.00       8.4  T
  16   -448.5647045 -0.146520E-06  0.405E-04    0.00      15.9  T
     SCC iter.                  ...        0 min,  2.933 sec
     gradient                   ...        0 min,  0.394 sec
 * total energy  :  -439.1347518 Eh     change       -0.1525683E-07 Eh
   gradient norm :     2.0106105 Eh/α   predicted     0.0000000E+00 (-100.00%)
   displ. norm   :     0.6339672 α      lambda       -0.1196436E+01
   maximum displ.:     0.2254056 α      in ANC's #572, #706, #718, ...

........................................................................
.............................. CYCLE    2 ..............................
........................................................................
   1   -448.5888314 -0.448589E+03  0.495E-01    0.01       0.0  T
   2   -438.0112686  0.105776E+02  0.554E+00    0.02       1.0  T
   3   -436.7824258  0.122884E+01  0.562E+00    0.01       1.0  T
   4   -443.7642756 -0.698185E+01  0.328E+00    0.00       1.0  T
   5   -443.3834878  0.380788E+00  0.385E+00    0.01       1.0  T
   6   -445.6851302 -0.230164E+01  0.306E+00    0.00       1.0  T
   7   -435.7315025  0.995363E+01  0.566E+00    0.03       1.0  T
   8   -445.3130789 -0.958158E+01  0.305E+00    0.00       1.0  T
   9   -439.8636579  0.544942E+01  0.504E+00    0.08       1.0  T
  10   -445.1323685 -0.526871E+01  0.293E+00    0.04       1.0  T
  11   -447.3308183 -0.219845E+01  0.185E+00    0.01       1.0  T
  12   -446.0660482  0.126477E+01  0.271E+00    0.01       1.0  T
  13   -440.9832678  0.508278E+01  0.463E+00    0.04       1.0  T
  14   -440.5904126  0.392855E+00  0.470E+00    0.04       1.0  T
  15   -441.4192667 -0.828854E+00  0.448E+00    0.01       1.0  T
  16   -443.5145204 -0.209525E+01  0.366E+00    0.00       1.0  T
  17   -445.4263864 -0.191187E+01  0.281E+00    0.00       1.0  T
  18   -443.8183720  0.160801E+01  0.378E+00    0.01       1.0  T
  19   -445.5140047 -0.169563E+01  0.282E+00    0.01       1.0  T
  20   -445.1382578  0.375747E+00  0.302E+00    0.01       1.0  T
  21   -445.3220676 -0.183810E+00  0.289E+00    0.01       1.0  T
  22   -445.3425528 -0.204852E-01  0.289E+00    0.01       1.0  T
  23   -445.5276082 -0.185055E+00  0.279E+00    0.01       1.0  T
  24   -445.2288171  0.298791E+00  0.300E+00    0.01       1.0  T
  25   -446.1886330 -0.959816E+00  0.246E+00    0.01       1.0  T
  26   -448.0475101 -0.185888E+01  0.139E+00    0.00       1.0  T
  27   -448.0977314 -0.502213E-01  0.131E+00    0.01       1.0  T
  28   -447.7118359  0.385895E+00  0.159E+00    0.01       1.0  T
  29   -447.9244630 -0.212627E+00  0.140E+00    0.01       1.0  T
  30   -447.9811548 -0.566918E-01  0.141E+00    0.00       1.0  T
  31   -448.2971775 -0.316023E+00  0.105E+00    0.00       1.0  T
  32   -448.0200921  0.277085E+00  0.131E+00    0.01       1.0  T
  33   -448.3984145 -0.378322E+00  0.912E-01    0.00       1.0  T
  34   -448.3910180  0.739644E-02  0.916E-01    0.00       1.0  T
  35   -448.4270545 -0.360365E-01  0.853E-01    0.00       1.0  T
  36   -448.5800924 -0.153038E+00  0.544E-01    0.00       1.0  T
  37   -448.5942832 -0.141908E-01  0.473E-01    0.01       1.0  T
  38   -448.5875598  0.672334E-02  0.458E-01    0.00       1.0  T
  39   -448.5860884  0.147139E-02  0.476E-01    0.00       1.0  T
  40   -448.5995746 -0.134862E-01  0.397E-01    0.00       1.0  T
  41   -448.6273808 -0.278061E-01  0.268E-01    0.00       1.0  T
  42   -448.6346709 -0.729013E-02  0.235E-01    0.00       1.0  T
  43   -448.6177626  0.169083E-01  0.282E-01    0.00       1.0  T
  44   -448.5876953  0.300673E-01  0.383E-01    0.00       1.0  T
  45   -448.5856989  0.199636E-02  0.393E-01    0.00       1.0  T
  46   -448.5775935  0.810543E-02  0.421E-01    0.00       1.0  T
  47   -448.5715260  0.606754E-02  0.432E-01    0.00       1.0  T
  48   -448.6159794 -0.444535E-01  0.257E-01    0.00       1.0  T
  49   -448.6320700 -0.160906E-01  0.144E-01    0.00       1.0  T
  50   -448.6350790 -0.300900E-02  0.985E-02    0.00       1.0  T
  51   -448.6371673 -0.208829E-02  0.521E-02    0.00       1.0  T
  52   -448.6376706 -0.503361E-03  0.338E-02    0.00       1.0  T
  53   -448.6371785  0.492144E-03  0.497E-02    0.00       1.0  T
  54   -448.6377652 -0.586749E-03  0.318E-02    0.00       1.0  T
  55   -448.6378723 -0.107109E-03  0.243E-02    0.00       1.0  T
  56   -448.6379824 -0.110075E-03  0.183E-02    0.00       1.0  T
  57   -448.6380607 -0.782850E-04  0.748E-03    0.00       1.0  T
  58   -448.6380434  0.173321E-04  0.973E-03    0.00       1.0  T
  59   -448.6380714 -0.280336E-04  0.471E-03    0.00       1.4  T
  60   -448.6380365  0.349402E-04  0.107E-02    0.00       1.0  T
  61   -448.6380737 -0.372801E-04  0.385E-03    0.00       1.7  T
  62   -448.6380722  0.157047E-05  0.425E-03    0.00       1.5  T
  63   -448.6380780 -0.580961E-05  0.191E-03    0.00       3.4  T
  64   -448.6380787 -0.730466E-06  0.137E-03    0.00       4.7  T
  65   -448.6380789 -0.208301E-06  0.114E-03    0.00       5.6  T
  66   -448.6380793 -0.414663E-06  0.561E-04    0.00      11.5  T
  67   -448.6380792  0.828292E-07  0.687E-04    0.00       9.4  T
     SCC iter.                  ...        0 min, 12.299 sec
     gradient                   ...        0 min,  0.393 sec
 * total energy  :  -439.9555947 Eh     change       -0.8208428E+00 Eh
   gradient norm :     0.8435255 Eh/α   predicted    -0.8386630E+00 (   2.17%)
   displ. norm   :     0.5995206 α      lambda       -0.4429904E+00
   maximum displ.:     0.1791292 α      in ANC's #572, #252, #247, ...

........................................................................
.............................. CYCLE    3 ..............................
........................................................................
   1   -448.6153032 -0.448615E+03  0.660E-01    0.01       0.0  T
   2   -438.5918242  0.100235E+02  0.419E+00    0.12       1.0  T
   3   -441.6165744 -0.302475E+01  0.385E+00    0.01       1.0  T
   4   -436.1508366  0.546574E+01  0.648E+00    0.10       1.0  T
   5   -440.3246950 -0.417386E+01  0.519E+00    0.08       1.0  T
   6   -443.6996198 -0.337492E+01  0.379E+00    0.02       1.0  T
   7   -440.5800965  0.311952E+01  0.495E+00    0.03       1.0  T
   8   -440.7637451 -0.183649E+00  0.486E+00    0.02       1.0  T
   9   -445.0918753 -0.432813E+01  0.322E+00    0.01       1.0  T
  10   -440.9028176  0.418906E+01  0.494E+00    0.03       1.0  T
  11   -442.6773656 -0.177455E+01  0.417E+00    0.01       1.0  T
  12   -445.1765136 -0.249915E+01  0.319E+00    0.02       1.0  T
  13   -444.7638274  0.412686E+00  0.339E+00    0.02       1.0  T
  14   -446.6930215 -0.192919E+01  0.230E+00    0.01       1.0  T
  15   -445.8048865  0.888135E+00  0.285E+00    0.00       1.0  T
  16   -447.0533316 -0.124845E+01  0.219E+00    0.01       1.0  T
  17   -446.3022794  0.751052E+00  0.258E+00    0.00       1.0  T
  18   -445.0597618  0.124252E+01  0.324E+00    0.01       1.0  T
  19   -445.1036117 -0.438499E-01  0.323E+00    0.01       1.0  T
  20   -445.1528190 -0.492073E-01  0.321E+00    0.01       1.0  T
  21   -445.5199908 -0.367172E+00  0.302E+00    0.02       1.0  T
  22   -446.1204264 -0.600436E+00  0.256E+00    0.01       1.0  T
  23   -447.5554042 -0.143498E+01  0.175E+00    0.01       1.0  T
  24   -447.3639386  0.191466E+00  0.184E+00    0.00       1.0  T
  25   -448.0815123 -0.717574E+00  0.124E+00    0.01       1.0  T
  26   -447.4443732  0.637139E+00  0.171E+00    0.00       1.0  T
  27   -447.7806476 -0.336274E+00  0.150E+00    0.01       1.0  T
  28   -448.3401159 -0.559468E+00  0.903E-01    0.01       1.0  T
  29   -448.4762210 -0.136105E+00  0.804E-01    0.01       1.0  T
  30   -448.4341446  0.420764E-01  0.758E-01    0.00       1.0  T
  31   -448.4356739 -0.152933E-02  0.790E-01    0.00       1.0  T
  32   -448.5186027 -0.829288E-01  0.652E-01    0.00       1.0  T
  33   -448.4326266  0.859762E-01  0.851E-01    0.00       1.0  T
  34   -448.4302240  0.240254E-02  0.793E-01    0.00       1.0  T
  35   -448.5802020 -0.149978E+00  0.432E-01    0.00       1.0  T
  36   -448.6237877 -0.435858E-01  0.292E-01    0.00       1.0  T
  37   -448.6130622  0.107255E-01  0.338E-01    0.00       1.0  T
  38   -448.6224155 -0.935328E-02  0.270E-01    0.00       1.0  T
  39   -448.6193415  0.307396E-02  0.272E-01    0.00       1.0  T
  40   -448.6292878 -0.994621E-02  0.232E-01    0.00       1.0  T
  41   -448.6288286  0.459206E-03  0.227E-01    0.00       1.0  T
  42   -448.6334506 -0.462204E-02  0.205E-01    0.00       1.0  T
  43   -448.6353951 -0.194450E-02  0.191E-01    0.00       1.0  T
  44   -448.6396392 -0.424411E-02  0.158E-01    0.00       1.0  T
  45   -448.6378493  0.178989E-02  0.171E-01    0.00       1.0  T
  46   -448.6440006 -0.615129E-02  0.107E-01    0.00       1.0  T
  47   -448.6459698 -0.196915E-02  0.752E-02    0.00       1.0  T
  48   -448.6468745 -0.904764E-03  0.564E-02    0.01       1.0  T
  49   -448.6470646 -0.190130E-03  0.460E-02    0.00       1.0  T
  50   -448.6471982 -0.133593E-03  0.399E-02    0.01       1.0  T
  51   -448.6476622 -0.463972E-03  0.190E-02    0.01       1.0  T
  52   -448.6477430 -0.807577E-04  0.103E-02    0.01       1.0  T
  53   -448.6476330  0.110021E-03  0.190E-02    0.00       1.0  T
  54   -448.6477623 -0.129302E-03  0.607E-03    0.01       1.1  T
  55   -448.6477567  0.551014E-05  0.704E-03    0.01       1.0  T
  56   -448.6477709 -0.141577E-04  0.336E-03    0.01       1.9  T
  57   -448.6477698  0.107276E-05  0.348E-03    0.01       1.8  T
  58   -448.6477735 -0.368401E-05  0.176E-03    0.01       3.7  T
  59   -448.6477738 -0.282575E-06  0.140E-03    0.01       4.6  T
  60   -448.6477741 -0.328719E-06  0.968E-04    0.01       6.6  T
  61   -448.6477742 -0.706441E-07  0.765E-04    0.01       8.4  T
     SCC iter.                  ...        0 min, 11.203 sec
     gradient                   ...        0 min,  0.394 sec
 * total energy  :  -440.2917010 Eh     change       -0.3361064E+00 Eh
   gradient norm :     0.4192453 Eh/α   predicted    -0.3011061E+00 ( -10.41%)
   displ. norm   :     0.6661054 α      lambda       -0.2266884E+00
   maximum displ.:     0.2428764 α      in ANC's #252, #247, #276, ...

........................................................................
.............................. CYCLE    4 ..............................
........................................................................
   1   -448.6821480 -0.448682E+03  0.125E+00    0.02       0.0  T
   2   -436.6559290  0.120262E+02  0.477E+00    0.22       1.0  T
   3   -437.5212589 -0.865330E+00  0.550E+00    0.02       1.0  T
   4   -434.2453189  0.327594E+01  0.680E+00    0.04       1.0  T
   5   -439.9811318 -0.573581E+01  0.530E+00    0.01       1.0  T
   6   -438.4427460  0.153839E+01  0.515E+00    0.01       1.0  T
   7   -441.3027267 -0.285998E+01  0.462E+00    0.01       1.0  T
   8   -444.8979066 -0.359518E+01  0.336E+00    0.00       1.0  T
   9   -440.5918542  0.430605E+01  0.482E+00    0.01       1.0  T
  10   -441.9319217 -0.134007E+01  0.454E+00    0.03       1.0  T
  11   -441.8150856  0.116836E+00  0.462E+00    0.03       1.0  T
  12   -441.9843814 -0.169296E+00  0.443E+00    0.00       1.0  T
  13   -445.6019799 -0.361760E+01  0.312E+00    0.02       1.0  T
  14   -447.5032267 -0.190125E+01  0.202E+00    0.02       1.0  T
  15   -444.3986366  0.310459E+01  0.363E+00    0.00       1.0  T
  16   -444.1251275  0.273509E+00  0.374E+00    0.02       1.0  T
  17   -444.1612486 -0.361210E-01  0.370E+00    0.01       1.0  T
  18   -444.4863278 -0.325079E+00  0.349E+00    0.03       1.0  T
  19   -448.1210338 -0.363471E+01  0.142E+00    0.02       1.0  T
  20   -446.7152133  0.140582E+01  0.242E+00    0.01       1.0  T
  21   -445.8093801  0.905833E+00  0.277E+00    0.02       1.0  T
  22   -446.5171251 -0.707745E+00  0.239E+00    0.02       1.0  T
  23   -446.8049052 -0.287780E+00  0.206E+00    0.02       1.0  T
  24   -447.9090142 -0.110411E+01  0.157E+00    0.01       1.0  T
  25   -447.8430969  0.659172E-01  0.159E+00    0.02       1.0  T
  26   -444.9095497  0.293355E+01  0.313E+00    0.01       1.0  T
  27   -445.7100956 -0.800546E+00  0.269E+00    0.01       1.0  T
  28   -447.5549698 -0.184487E+01  0.192E+00    0.00       1.0  T
  29   -446.8853167  0.669653E+00  0.235E+00    0.01       1.0  T
  30   -447.8371847 -0.951868E+00  0.170E+00    0.00       1.0  T
  31   -448.0091604 -0.171976E+00  0.151E+00    0.00       1.0  T
  32   -448.5216533 -0.512493E+00  0.875E-01    0.00       1.0  T
  33   -448.6192036 -0.975503E-01  0.590E-01    0.00       1.0  T
  34   -448.6338894 -0.146858E-01  0.604E-01    0.00       1.0  T
  35   -448.3965503  0.237339E+00  0.102E+00    0.00       1.0  T
  36   -448.6984605 -0.301910E+00  0.426E-01    0.00       1.0  T
  37   -448.7082944 -0.983388E-02  0.455E-01    0.01       1.0  T
  38   -448.6943706  0.139238E-01  0.498E-01    0.00       1.0  T
  39   -448.6826428  0.117278E-01  0.542E-01    0.01       1.0  T
  40   -448.6896176 -0.697476E-02  0.470E-01    0.00       1.0  T
  41   -448.7090703 -0.194527E-01  0.432E-01    0.00       1.0  T
  42   -448.7126816 -0.361134E-02  0.352E-01    0.00       1.0  T
  43   -448.7185437 -0.586211E-02  0.242E-01    0.01       1.0  T
  44   -448.6653705  0.531732E-01  0.396E-01    0.01       1.0  T
  45   -448.7189175 -0.535470E-01  0.228E-01    0.01       1.0  T
  46   -448.7171647  0.175284E-02  0.204E-01    0.01       1.0  T
  47   -448.7218471 -0.468241E-02  0.186E-01    0.01       1.0  T
  48   -448.7226869 -0.839759E-03  0.175E-01    0.01       1.0  T
  49   -448.7213076  0.137929E-02  0.184E-01    0.01       1.0  T
  50   -448.7233256 -0.201807E-02  0.156E-01    0.02       1.0  T
  51   -448.7273221 -0.399645E-02  0.116E-01    0.02       1.0  T
  52   -448.7314001 -0.407806E-02  0.554E-02    0.01       1.0  T
  53   -448.7317613 -0.361139E-03  0.551E-02    0.01       1.0  T
  54   -448.7319131 -0.151812E-03  0.478E-02    0.01       1.0  T
  55   -448.7317820  0.131100E-03  0.472E-02    0.01       1.0  T
  56   -448.7325061 -0.724123E-03  0.202E-02    0.01       1.0  T
  57   -448.7324949  0.112390E-04  0.222E-02    0.01       1.0  T
  58   -448.7325174 -0.225175E-04  0.167E-02    0.01       1.0  T
  59   -448.7324857  0.317403E-04  0.179E-02    0.01       1.0  T
  60   -448.7325074 -0.217328E-04  0.159E-02    0.01       1.0  T
  61   -448.7325386 -0.312125E-04  0.131E-02    0.01       1.0  T
  62   -448.7325878 -0.491852E-04  0.781E-03    0.01       1.0  T
  63   -448.7326077 -0.199025E-04  0.272E-03    0.01       2.4  T
  64   -448.7326090 -0.133698E-05  0.187E-03    0.01       3.4  T
  65   -448.7326069  0.211091E-05  0.323E-03    0.01       2.0  T
  66   -448.7326082 -0.127336E-05  0.227E-03    0.01       2.8  T
  67   -448.7326079  0.330718E-06  0.223E-03    0.01       2.9  T
  68   -448.7326092 -0.137288E-05  0.121E-03    0.01       5.3  T
  69   -448.7326097 -0.481094E-06  0.432E-04    0.01      14.9  T
  70   -448.7326097 -0.473864E-08  0.344E-04    0.01      18.7  T
     SCC iter.                  ...        0 min, 13.003 sec
     gradient                   ...        0 min,  0.394 sec
 * total energy  :  -440.4635848 Eh     change       -0.1718838E+00 Eh
   gradient norm :     0.1879562 Eh/α   predicted    -0.1636348E+00 (  -4.80%)
   displ. norm   :     0.7652196 α      lambda       -0.1264286E+00
   maximum displ.:     0.3096939 α      in ANC's #252, #247, #192, ...

........................................................................
.............................. CYCLE    5 ..............................
........................................................................
   1   -448.7485402 -0.448749E+03  0.170E+00    0.04       0.0  T
   2   -435.6646851  0.130839E+02  0.535E+00    0.30       1.0  T
   3   -420.0937949  0.155709E+02  0.794E+00    0.01       1.0  T
   4   -435.4831326 -0.153893E+02  0.705E+00    0.01       1.0  T
   5   -445.4829610 -0.999983E+01  0.387E+00    0.02       1.0  T
   6   -440.4871968  0.499576E+01  0.486E+00    0.01       1.0  T
   7   -440.0092272  0.477970E+00  0.517E+00    0.01       1.0  T
   8   -439.9196431  0.895841E-01  0.517E+00    0.02       1.0  T
   9   -443.3022791 -0.338264E+01  0.424E+00    0.02       1.0  T
  10   -445.7712509 -0.246897E+01  0.316E+00    0.01       1.0  T
  11   -440.4147126  0.535654E+01  0.499E+00    0.11       1.0  T
  12   -445.5957460 -0.518103E+01  0.302E+00    0.06       1.0  T
  13   -446.9852782 -0.138953E+01  0.235E+00    0.03       1.0  T
  14   -447.1742143 -0.188936E+00  0.216E+00    0.00       1.0  T
  15   -442.3142563  0.485996E+01  0.430E+00    0.03       1.0  T
  16   -444.2459942 -0.193174E+01  0.370E+00    0.01       1.0  T
  17   -445.6694824 -0.142349E+01  0.311E+00    0.03       1.0  T
  18   -447.4774201 -0.180794E+01  0.190E+00    0.01       1.0  T
  19   -446.6211387  0.856281E+00  0.204E+00    0.00       1.0  T
  20   -446.6199561  0.118265E-02  0.261E+00    0.00       1.0  T
  21   -447.0462220 -0.426266E+00  0.252E+00    0.02       1.0  T
  22   -447.1272526 -0.810306E-01  0.248E+00    0.02       1.0  T
  23   -447.1699085 -0.426559E-01  0.243E+00    0.01       1.0  T
  24   -447.0663725  0.103536E+00  0.231E+00    0.01       1.0  T
  25   -447.6683174 -0.601945E+00  0.202E+00    0.03       1.0  T
  26   -447.0529986  0.615319E+00  0.267E+00    0.00       1.0  T
  27   -447.1618115 -0.108813E+00  0.260E+00    0.00       1.0  T
  28   -446.7782616  0.383550E+00  0.273E+00    0.01       1.0  T
  29   -447.4703493 -0.692088E+00  0.223E+00    0.01       1.0  T
  30   -448.2834821 -0.813133E+00  0.143E+00    0.00       1.0  T
  31   -448.1283328  0.155149E+00  0.161E+00    0.02       1.0  T
  32   -447.7157868  0.412546E+00  0.183E+00    0.02       1.0  T
  33   -447.2665537  0.449233E+00  0.221E+00    0.02       1.0  T
  34   -447.0706892  0.195864E+00  0.227E+00    0.00       1.0  T
  35   -447.8346601 -0.763971E+00  0.178E+00    0.02       1.0  T
  36   -448.2992106 -0.464550E+00  0.137E+00    0.01       1.0  T
  37   -448.3892667 -0.900561E-01  0.132E+00    0.01       1.0  T
  38   -448.6463941 -0.257127E+00  0.857E-01    0.00       1.0  T
  39   -448.4925576  0.153837E+00  0.979E-01    0.00       1.0  T
  40   -448.6527536 -0.160196E+00  0.716E-01    0.01       1.0  T
  41   -448.4768881  0.175866E+00  0.930E-01    0.01       1.0  T
  42   -448.5843086 -0.107420E+00  0.920E-01    0.01       1.0  T
  43   -448.6273628 -0.430542E-01  0.752E-01    0.01       1.0  T
  44   -448.6763478 -0.489850E-01  0.699E-01    0.00       1.0  T
  45   -448.7591866 -0.828389E-01  0.467E-01    0.01       1.0  T
  46   -448.7617725 -0.258587E-02  0.489E-01    0.00       1.0  T
  47   -448.7572430  0.452945E-02  0.460E-01    0.00       1.0  T
  48   -448.7551448  0.209828E-02  0.472E-01    0.00       1.0  T
  49   -448.7872285 -0.320838E-01  0.315E-01    0.01       1.0  T
  50   -448.7959762 -0.874770E-02  0.248E-01    0.01       1.0  T
  51   -448.8084964 -0.125202E-01  0.166E-01    0.01       1.0  T
  52   -448.8080592  0.437229E-03  0.173E-01    0.01       1.0  T
  53   -448.8099167 -0.185755E-02  0.128E-01    0.02       1.0  T
  54   -448.8118080 -0.189130E-02  0.107E-01    0.02       1.0  T
  55   -448.8136214 -0.181336E-02  0.884E-02    0.02       1.0  T
  56   -448.8145615 -0.940087E-03  0.699E-02    0.02       1.0  T
  57   -448.8161426 -0.158115E-02  0.348E-02    0.02       1.0  T
  58   -448.8162975 -0.154841E-03  0.245E-02    0.02       1.0  T
  59   -448.8158679  0.429591E-03  0.403E-02    0.02       1.0  T
  60   -448.8162294 -0.361555E-03  0.240E-02    0.02       1.0  T
  61   -448.8162597 -0.302305E-04  0.215E-02    0.02       1.0  T
  62   -448.8163551 -0.954720E-04  0.123E-02    0.02       1.0  T
  63   -448.8163664 -0.113152E-04  0.109E-02    0.02       1.0  T
  64   -448.8163826 -0.161320E-04  0.620E-03    0.02       1.0  T
  65   -448.8163854 -0.284985E-05  0.589E-03    0.02       1.1  T
  66   -448.8163882 -0.277591E-05  0.346E-03    0.02       1.9  T
  67   -448.8163845  0.365891E-05  0.407E-03    0.02       1.6  T
  68   -448.8163855 -0.910844E-06  0.399E-03    0.02       1.6  T
  69   -448.8163901 -0.463769E-05  0.190E-03    0.02       3.4  T
  70   -448.8163894  0.668396E-06  0.224E-03    0.02       2.9  T
  71   -448.8163898 -0.412988E-06  0.185E-03    0.02       3.5  T
  72   -448.8163900 -0.162670E-06  0.174E-03    0.02       3.7  T
  73   -448.8163906 -0.614241E-06  0.129E-03    0.02       5.0  T
  74   -448.8163910 -0.382066E-06  0.876E-04    0.02       7.3  T
  75   -448.8163913 -0.289765E-06  0.404E-04    0.02      15.9  T
     SCC iter.                  ...        0 min, 13.790 sec
     gradient                   ...        0 min,  0.395 sec
 * total energy  :  -440.5704148 Eh     change       -0.1068299E+00 Eh
   gradient norm :     0.1263552 Eh/α   predicted    -0.1002301E+00 (  -6.18%)
   displ. norm   :     0.8379910 α      lambda       -0.9822278E-01
   maximum displ.:     0.3325892 α      in ANC's #252, #247, #138, ...

........................................................................
.............................. CYCLE    6 ..............................
........................................................................
   1   -448.8011511 -0.448801E+03  0.177E+00    0.07       0.0  T
   2   -436.4549792  0.123462E+02  0.600E+00    0.01       1.0  T
   3   -429.1436520  0.731133E+01  0.699E+00    0.01       1.0  T
   4   -435.5885910 -0.644494E+01  0.660E+00    0.04       1.0  T
   5   -440.5449198 -0.495633E+01  0.499E+00    0.02       1.0  T
   6   -440.7956284 -0.250709E+00  0.470E+00    0.01       1.0  T
   7   -439.1747015  0.162093E+01  0.570E+00    0.12       1.0  T
   8   -443.8401715 -0.466547E+01  0.403E+00    0.02       1.0  T
   9   -446.1460455 -0.230587E+01  0.317E+00    0.02       1.0  T
  10   -447.1054160 -0.959370E+00  0.258E+00    0.02       1.0  T
  11   -447.4558701 -0.350454E+00  0.203E+00    0.02       1.0  T
  12   -448.6946124 -0.123874E+01  0.894E-01    0.01       1.0  T
  13   -447.7704564  0.924156E+00  0.200E+00    0.02       1.0  T
  14   -447.6121362  0.158320E+00  0.217E+00    0.00       1.0  T
  15   -447.1391754  0.472961E+00  0.233E+00    0.01       1.0  T
  16   -447.7107823 -0.571607E+00  0.195E+00    0.00       1.0  T
  17   -447.3503457  0.360437E+00  0.217E+00    0.00       1.0  T
  18   -447.0494517  0.300894E+00  0.254E+00    0.02       1.0  T
  19   -446.9822133  0.672383E-01  0.260E+00    0.02       1.0  T
  20   -445.7168757  0.126534E+01  0.261E+00    0.03       1.0  T
  21   -444.7834876  0.933388E+00  0.253E+00    0.01       1.0  T
  22   -447.0659716 -0.228248E+01  0.210E+00    0.00       1.0  T
  23   -448.5420611 -0.147609E+01  0.104E+00    0.02       1.0  T
  24   -447.2035389  0.133852E+01  0.224E+00    0.01       1.0  T
  25   -447.5461330 -0.342594E+00  0.206E+00    0.02       1.0  T
  26   -447.9060431 -0.359910E+00  0.191E+00    0.03       1.0  T
  27   -447.7674105  0.138633E+00  0.185E+00    0.00       1.0  T
  28   -447.6054614  0.161949E+00  0.193E+00    0.01       1.0  T
  29   -448.2710076 -0.665546E+00  0.126E+00    0.02       1.0  T
  30   -448.4929436 -0.221936E+00  0.110E+00    0.01       1.0  T
  31   -448.7029719 -0.210028E+00  0.819E-01    0.00       1.0  T
  32   -448.5982376  0.104734E+00  0.100E+00    0.02       1.0  T
  33   -448.6111463 -0.129086E-01  0.104E+00    0.02       1.0  T
  34   -448.7338849 -0.122739E+00  0.717E-01    0.01       1.0  T
  35   -448.7578869 -0.240019E-01  0.649E-01    0.02       1.0  T
  36   -448.8435871 -0.857002E-01  0.318E-01    0.02       1.0  T
  37   -448.8482669 -0.467982E-02  0.344E-01    0.02       1.0  T
  38   -448.8392077  0.905916E-02  0.340E-01    0.02       1.0  T
  39   -448.8353344  0.387336E-02  0.398E-01    0.02       1.0  T
  40   -448.8397539 -0.441952E-02  0.393E-01    0.02       1.0  T
  41   -448.8454220 -0.566808E-02  0.397E-01    0.02       1.0  T
  42   -448.8600141 -0.145921E-01  0.283E-01    0.03       1.0  T
  43   -448.8444119  0.156022E-01  0.319E-01    0.03       1.0  T
  44   -448.8615316 -0.171197E-01  0.278E-01    0.03       1.0  T
  45   -448.8520068  0.952475E-02  0.323E-01    0.03       1.0  T
  46   -448.8688292 -0.168224E-01  0.229E-01    0.03       1.0  T
  47   -448.8729510 -0.412181E-02  0.186E-01    0.03       1.0  T
  48   -448.8683407  0.461032E-02  0.200E-01    0.03       1.0  T
  49   -448.8738957 -0.555497E-02  0.174E-01    0.03       1.0  T
  50   -448.8743572 -0.461485E-03  0.175E-01    0.03       1.0  T
  51   -448.8742888  0.683616E-04  0.175E-01    0.03       1.0  T
  52   -448.8743092 -0.203896E-04  0.175E-01    0.03       1.0  T
  53   -448.8781841 -0.387487E-02  0.128E-01    0.03       1.0  T
  54   -448.8789619 -0.777833E-03  0.111E-01    0.04       1.0  T
  55   -448.8784451  0.516806E-03  0.107E-01    0.03       1.0  T
  56   -448.8785042 -0.590835E-04  0.106E-01    0.03       1.0  T
  57   -448.8785485 -0.443503E-04  0.109E-01    0.03       1.0  T
  58   -448.8786590 -0.110492E-03  0.107E-01    0.03       1.0  T
  59   -448.8791303 -0.471286E-03  0.990E-02    0.03       1.0  T
  60   -448.8800146 -0.884250E-03  0.849E-02    0.03       1.0  T
  61   -448.8797936  0.220904E-03  0.727E-02    0.03       1.0  T
  62   -448.8810543 -0.126066E-02  0.366E-02    0.04       1.0  T
  63   -448.8812659 -0.211627E-03  0.239E-02    0.04       1.0  T
  64   -448.8812948 -0.288852E-04  0.229E-02    0.04       1.0  T
  65   -448.8813737 -0.789237E-04  0.121E-02    0.04       1.0  T
  66   -448.8813484  0.253847E-04  0.127E-02    0.04       1.0  T
  67   -448.8813805 -0.321810E-04  0.800E-03    0.04       1.0  T
  68   -448.8813610  0.195849E-04  0.995E-03    0.04       1.0  T
  69   -448.8813756 -0.146073E-04  0.746E-03    0.04       1.0  T
  70   -448.8813870 -0.114454E-04  0.378E-03    0.04       1.7  T
  71   -448.8813896 -0.260127E-05  0.253E-03    0.04       2.5  T
  72   -448.8813906 -0.952587E-06  0.201E-03    0.04       3.2  T
  73   -448.8813909 -0.300553E-06  0.163E-03    0.04       3.9  T
  74   -448.8813916 -0.773982E-06  0.771E-04    0.04       8.3  T
  75   -448.8813916  0.590552E-07  0.747E-04    0.04       8.6  T
     SCC iter.                  ...        0 min, 13.909 sec
     gradient                   ...        0 min,  0.395 sec
 * total energy  :  -440.6577667 Eh     change       -0.8735197E-01 Eh
   gradient norm :     0.1085598 Eh/α   predicted    -0.8359885E-01 (  -4.30%)
   displ. norm   :     0.8722305 α      lambda       -0.8273268E-01
   maximum displ.:     0.3234362 α      in ANC's #252, #138, #247, ...

........................................................................
.............................. CYCLE    7 ..............................
........................................................................
   1   -448.8455799 -0.448846E+03  0.152E+00    0.09       0.0  T
   2   -437.2115047  0.116341E+02  0.634E+00    0.08       1.0  T
   3   -432.3558033  0.485570E+01  0.693E+00    0.03       1.0  T
   4   -441.2020032 -0.884620E+01  0.524E+00    0.03       1.0  T
   5   -441.9535148 -0.751512E+00  0.518E+00    0.04       1.0  T
   6   -446.6218837 -0.466837E+01  0.276E+00    0.00       1.0  T
   7   -442.7752154  0.384667E+01  0.461E+00    0.03       1.0  T
   8   -446.8876914 -0.411248E+01  0.257E+00    0.06       1.0  T
   9   -446.5698167  0.317875E+00  0.288E+00    0.01       1.0  T
  10   -446.5956137 -0.257969E-01  0.277E+00    0.03       1.0  T
  11   -447.1645008 -0.568887E+00  0.244E+00    0.05       1.0  T
  12   -446.6281551  0.536346E+00  0.261E+00    0.01       1.0  T
  13   -446.6242440  0.391115E-02  0.306E+00    0.02       1.0  T
  14   -443.2313418  0.339290E+01  0.430E+00    0.05       1.0  T
  15   -446.5800289 -0.334869E+01  0.302E+00    0.03       1.0  T
  16   -446.9304303 -0.350401E+00  0.284E+00    0.07       1.0  T
  17   -446.9261664  0.426391E-02  0.284E+00    0.07       1.0  T
  18   -446.6247917  0.301375E+00  0.287E+00    0.01       1.0  T
  19   -446.6878341 -0.630424E-01  0.298E+00    0.07       1.0  T
  20   -446.6872339  0.600224E-03  0.298E+00    0.07       1.0  T
  21   -445.8109498  0.876284E+00  0.327E+00    0.01       1.0  T
  22   -446.6380471 -0.827097E+00  0.270E+00    0.00       1.0  T
  23   -446.2218466  0.416201E+00  0.296E+00    0.01       1.0  T
  24   -448.5568223 -0.233498E+01  0.139E+00    0.00       1.0  T
  25   -448.3813312  0.175491E+00  0.179E+00    0.03       1.0  T
  26   -448.4077123 -0.263810E-01  0.141E+00    0.01       1.0  T
  27   -448.7471451 -0.339433E+00  0.140E+00    0.07       1.0  T
  28   -448.7086953  0.384497E-01  0.108E+00    0.05       1.0  T
  29   -448.8882416 -0.179546E+00  0.978E-01    0.05       1.0  T
  30   -448.8603441  0.278975E-01  0.929E-01    0.03       1.0  T
  31   -448.8617722 -0.142808E-02  0.960E-01    0.04       1.0  T
  32   -448.7995507  0.622215E-01  0.980E-01    0.02       1.0  T
  33   -448.7667919  0.327588E-01  0.102E+00    0.02       1.0  T
  34   -448.7859950 -0.192031E-01  0.972E-01    0.02       1.0  T
  35   -448.7561594  0.298356E-01  0.100E+00    0.01       1.0  T
  36   -448.7676864 -0.115271E-01  0.963E-01    0.01       1.0  T
  37   -448.7450996  0.225868E-01  0.989E-01    0.01       1.0  T
  38   -448.7480681 -0.296847E-02  0.980E-01    0.01       1.0  T
  39   -448.8145693 -0.665011E-01  0.757E-01    0.02       1.0  T
  40   -448.8965811 -0.820119E-01  0.481E-01    0.04       1.0  T
  41   -448.8927847  0.379644E-02  0.482E-01    0.04       1.0  T
  42   -448.9246646 -0.318799E-01  0.352E-01    0.05       1.0  T
  43   -448.8979083  0.267562E-01  0.477E-01    0.04       1.0  T
  44   -448.8927740  0.513432E-02  0.413E-01    0.04       1.0  T
  45   -448.9071537 -0.143797E-01  0.420E-01    0.04       1.0  T
  46   -448.8972736  0.988011E-02  0.388E-01    0.04       1.0  T
  47   -448.9082612 -0.109875E-01  0.292E-01    0.04       1.0  T
  48   -448.9279327 -0.196715E-01  0.183E-01    0.05       1.0  T
  49   -448.9280459 -0.113219E-03  0.176E-01    0.05       1.0  T
  50   -448.9275616  0.484258E-03  0.193E-01    0.05       1.0  T
  51   -448.9300441 -0.248245E-02  0.178E-01    0.05       1.0  T
  52   -448.9292055  0.838582E-03  0.169E-01    0.05       1.0  T
  53   -448.9318302 -0.262470E-02  0.123E-01    0.05       1.0  T
  54   -448.9318085  0.217327E-04  0.991E-02    0.05       1.0  T
  55   -448.9328460 -0.103752E-02  0.548E-02    0.05       1.0  T
  56   -448.9322741  0.571897E-03  0.676E-02    0.05       1.0  T
  57   -448.9329085 -0.634386E-03  0.394E-02    0.05       1.0  T
  58   -448.9330996 -0.191098E-03  0.258E-02    0.06       1.0  T
  59   -448.9330819  0.176622E-04  0.269E-02    0.06       1.0  T
  60   -448.9331677 -0.858333E-04  0.173E-02    0.06       1.0  T
  61   -448.9331554  0.123701E-04  0.182E-02    0.06       1.0  T
  62   -448.9331850 -0.296597E-04  0.122E-02    0.06       1.0  T
  63   -448.9331922 -0.720514E-05  0.951E-03    0.06       1.0  T
  64   -448.9332051 -0.128400E-04  0.420E-03    0.06       1.5  T
  65   -448.9332058 -0.712487E-06  0.283E-03    0.06       2.3  T
  66   -448.9332053  0.483158E-06  0.362E-03    0.06       1.8  T
  67   -448.9332052  0.831466E-07  0.347E-03    0.06       1.9  T
  68   -448.9332047  0.550515E-06  0.334E-03    0.06       1.9  T
  69   -448.9332056 -0.908621E-06  0.266E-03    0.06       2.4  T
  70   -448.9332060 -0.375603E-06  0.193E-03    0.06       3.3  T
  71   -448.9332064 -0.425478E-06  0.140E-03    0.06       4.6  T
  72   -448.9332066 -0.176120E-06  0.116E-03    0.06       5.6  T
  73   -448.9332066 -0.141194E-07  0.853E-04    0.06       7.5  T
  74   -448.9332066 -0.296502E-07  0.511E-04    0.06      12.6  T
     SCC iter.                  ...        0 min, 13.723 sec
     gradient                   ...        0 min,  0.395 sec
 * total energy  :  -440.7324589 Eh     change       -0.7469220E-01 Eh
   gradient norm :     0.0918265 Eh/α   predicted    -0.7283728E-01 (  -2.48%)
   displ. norm   :     0.8822931 α      lambda       -0.6926282E-01
   maximum displ.:     0.3064398 α      in ANC's #138, #252, #192, ...

........................................................................
.............................. CYCLE    8 ..............................
........................................................................
   1   -448.8902417 -0.448890E+03  0.114E+00    0.12       0.0  T
   2   -438.3028246  0.105874E+02  0.571E+00    0.06       1.0  T
   3   -432.1627443  0.614008E+01  0.712E+00    0.41       1.0  T
   4   -445.3068961 -0.131442E+02  0.379E+00    0.02       1.0  T
   5   -443.7871188  0.151978E+01  0.429E+00    0.01       1.0  T
   6   -447.0363870 -0.324927E+01  0.277E+00    0.02       1.0  T
   7   -445.1792109  0.185718E+01  0.370E+00    0.01       1.0  T
   8   -447.5283153 -0.234910E+01  0.244E+00    0.04       1.0  T
   9   -447.6063305 -0.780152E-01  0.235E+00    0.01       1.0  T
  10   -446.7573856  0.848945E+00  0.286E+00    0.02       1.0  T
  11   -445.4066638  0.135072E+01  0.393E+00    0.06       1.0  T
  12   -446.7333057 -0.132664E+01  0.303E+00    0.04       1.0  T
  13   -446.6114422  0.121863E+00  0.329E+00    0.06       1.0  T
  14   -447.3466473 -0.735205E+00  0.274E+00    0.03       1.0  T
  15   -448.6644658 -0.131782E+01  0.119E+00    0.01       1.0  T
  16   -448.7266692 -0.622034E-01  0.952E-01    0.05       1.0  T
  17   -448.4771036  0.249566E+00  0.124E+00    0.02       1.0  T
  18   -448.3019806  0.175123E+00  0.206E+00    0.05       1.0  T
  19   -448.2803876  0.215929E-01  0.211E+00    0.05       1.0  T
  20   -448.3132264 -0.328388E-01  0.197E+00    0.06       1.0  T
  21   -448.3177445 -0.451807E-02  0.198E+00    0.06       1.0  T
  22   -448.3291689 -0.114244E-01  0.197E+00    0.06       1.0  T
  23   -448.3242891  0.487978E-02  0.191E+00    0.02       1.0  T
  24   -448.1476911  0.176598E+00  0.243E+00    0.06       1.0  T
  25   -448.1606592 -0.129681E-01  0.213E+00    0.05       1.0  T
  26   -448.4608859 -0.300227E+00  0.199E+00    0.03       1.0  T
  27   -448.2041185  0.256767E+00  0.233E+00    0.03       1.0  T
  28   -448.1564793  0.476391E-01  0.240E+00    0.04       1.0  T
  29   -448.1671376 -0.106583E-01  0.240E+00    0.04       1.0  T
  30   -448.1622868  0.485080E-02  0.245E+00    0.04       1.0  T
  31   -448.4138834 -0.251597E+00  0.217E+00    0.01       1.0  T
  32   -448.4280240 -0.141406E-01  0.208E+00    0.02       1.0  T
  33   -448.6578467 -0.229823E+00  0.150E+00    0.02       1.0  T
  34   -448.6443449  0.135019E-01  0.132E+00    0.01       1.0  T
  35   -448.8631437 -0.218799E+00  0.852E-01    0.02       1.0  T
  36   -448.9385061 -0.753624E-01  0.402E-01    0.04       1.0  T
  37   -448.9218688  0.166373E-01  0.473E-01    0.04       1.0  T
  38   -448.9228035 -0.934708E-03  0.471E-01    0.04       1.0  T
  39   -448.9253412 -0.253775E-02  0.459E-01    0.04       1.0  T
  40   -448.9399541 -0.146129E-01  0.419E-01    0.04       1.0  T
  41   -448.9449357 -0.498157E-02  0.359E-01    0.04       1.0  T
  42   -448.9562171 -0.112813E-01  0.280E-01    0.05       1.0  T
  43   -448.9664197 -0.102026E-01  0.221E-01    0.06       1.0  T
  44   -448.9712156 -0.479596E-02  0.181E-01    0.07       1.0  T
  45   -448.9703819  0.833754E-03  0.182E-01    0.06       1.0  T
  46   -448.9718288 -0.144689E-02  0.164E-01    0.06       1.0  T
  47   -448.9720344 -0.205593E-03  0.164E-01    0.07       1.0  T
  48   -448.9734595 -0.142513E-02  0.128E-01    0.07       1.0  T
  49   -448.9747062 -0.124672E-02  0.999E-02    0.07       1.0  T
  50   -448.9754716 -0.765403E-03  0.656E-02    0.07       1.0  T
  51   -448.9754258  0.458241E-04  0.614E-02    0.07       1.0  T
  52   -448.9752741  0.151671E-03  0.740E-02    0.07       1.0  T
  53   -448.9758847 -0.610557E-03  0.619E-02    0.07       1.0  T
  54   -448.9761097 -0.225043E-03  0.512E-02    0.07       1.0  T
  55   -448.9760879  0.217800E-04  0.487E-02    0.07       1.0  T
  56   -448.9761829 -0.949930E-04  0.368E-02    0.07       1.0  T
  57   -448.9762949 -0.111961E-03  0.159E-02    0.07       1.0  T
  58   -448.9763269 -0.320021E-04  0.131E-02    0.07       1.0  T
  59   -448.9763321 -0.518895E-05  0.104E-02    0.07       1.0  T
  60   -448.9763354 -0.332382E-05  0.686E-03    0.07       1.0  T
  61   -448.9763371 -0.170292E-05  0.518E-03    0.07       1.2  T
  62   -448.9763367  0.439231E-06  0.407E-03    0.07       1.6  T
  63   -448.9763387 -0.207304E-05  0.272E-03    0.07       2.4  T
  64   -448.9763391 -0.338234E-06  0.180E-03    0.07       3.6  T
  65   -448.9763391 -0.145459E-07  0.138E-03    0.07       4.7  T
  66   -448.9763392 -0.104171E-06  0.929E-04    0.07       6.9  T
  67   -448.9763392 -0.275105E-07  0.790E-04    0.07       8.1  T
     SCC iter.                  ...        0 min, 12.421 sec
     gradient                   ...        0 min,  0.395 sec
 * total energy  :  -440.7944525 Eh     change       -0.6199361E-01 Eh
   gradient norm :     0.0722967 Eh/α   predicted    -0.6158995E-01 (  -0.65%)
   displ. norm   :     0.8704026 α      lambda       -0.5466398E-01
   maximum displ.:     0.3148148 α      in ANC's #138, #252, #134, ...

........................................................................
.............................. CYCLE    9 ..............................
........................................................................
   1   -448.9381959 -0.448938E+03  0.861E-01    0.13       0.0  T
   2   -441.3887610  0.754943E+01  0.525E+00    0.04       1.0  T
   3   -435.0761040  0.631266E+01  0.692E+00    0.01       1.0  T
   4   -447.4758819 -0.123998E+02  0.224E+00    0.04       1.0  T
   5   -447.9018785 -0.425997E+00  0.251E+00    0.01       1.0  T
   6   -447.6325079  0.269371E+00  0.252E+00    0.11       1.0  T
   7   -444.9215342  0.271097E+01  0.361E+00    0.06       1.0  T
   8   -447.0350585 -0.211352E+01  0.330E+00    0.05       1.0  T
   9   -447.2407792 -0.205721E+00  0.314E+00    0.00       1.0  T
  10   -446.9529042  0.287875E+00  0.335E+00    0.09       1.0  T
  11   -447.1534345 -0.200530E+00  0.313E+00    0.05       1.0  T
  12   -448.0692834 -0.915849E+00  0.231E+00    0.02       1.0  T
  13   -448.0413847  0.278986E-01  0.230E+00    0.01       1.0  T
  14   -447.2762223  0.765162E+00  0.301E+00    0.06       1.0  T
  15   -447.2320565  0.441658E-01  0.283E+00    0.00       1.0  T
  16   -446.9937646  0.238292E+00  0.325E+00    0.04       1.0  T
  17   -447.2937781 -0.300014E+00  0.253E+00    0.00       1.0  T
  18   -447.7520502 -0.458272E+00  0.197E+00    0.01       1.0  T
  19   -448.1986711 -0.446621E+00  0.198E+00    0.00       1.0  T
  20   -447.4614147  0.737256E+00  0.188E+00    0.02       1.0  T
  21   -448.1759206 -0.714506E+00  0.177E+00    0.00       1.0  T
  22   -447.2101939  0.965727E+00  0.213E+00    0.01       1.0  T
  23   -448.4178830 -0.120769E+01  0.160E+00    0.02       1.0  T
  24   -448.7358220 -0.317939E+00  0.180E+00    0.05       1.0  T
  25   -448.7610117 -0.251896E-01  0.173E+00    0.05       1.0  T
  26   -448.7724167 -0.114050E-01  0.173E+00    0.06       1.0  T
  27   -448.7902952 -0.178784E-01  0.172E+00    0.06       1.0  T
  28   -448.8231431 -0.328480E-01  0.167E+00    0.07       1.0  T
  29   -448.8324662 -0.932309E-02  0.168E+00    0.07       1.0  T
  30   -448.8386921 -0.622592E-02  0.164E+00    0.07       1.0  T
  31   -448.8366774  0.201473E-02  0.135E+00    0.07       1.0  T
  32   -448.9193046 -0.826272E-01  0.105E+00    0.09       1.0  T
  33   -448.1194177  0.799887E+00  0.186E+00    0.06       1.0  T
  34   -447.9827940  0.136624E+00  0.198E+00    0.06       1.0  T
  35   -448.2686383 -0.285844E+00  0.168E+00    0.06       1.0  T
  36   -448.0131580  0.255480E+00  0.199E+00    0.06       1.0  T
  37   -448.8385315 -0.825373E+00  0.765E-01    0.02       1.0  T
  38   -448.9047877 -0.662562E-01  0.533E-01    0.04       1.0  T
  39   -448.9226555 -0.178678E-01  0.552E-01    0.06       1.0  T
  40   -448.8556281  0.670274E-01  0.543E-01    0.03       1.0  T
  41   -448.9131365 -0.575084E-01  0.639E-01    0.06       1.0  T
  42   -448.9488577 -0.357211E-01  0.691E-01    0.08       1.0  T
  43   -448.9658082 -0.169505E-01  0.770E-01    0.09       1.0  T
  44   -448.9625529  0.325530E-02  0.853E-01    0.10       1.0  T
  45   -448.9619813  0.571632E-03  0.867E-01    0.10       1.0  T
  46   -448.9625355 -0.554247E-03  0.867E-01    0.10       1.0  T
  47   -448.9685283 -0.599276E-02  0.851E-01    0.10       1.0  T
  48   -448.9785609 -0.100327E-01  0.782E-01    0.10       1.0  T
  49   -448.9883732 -0.981231E-02  0.658E-01    0.09       1.0  T
  50   -448.9935016 -0.512837E-02  0.473E-01    0.08       1.0  T
  51   -448.9958856 -0.238400E-02  0.465E-01    0.08       1.0  T
  52   -448.9946836  0.120198E-02  0.406E-01    0.08       1.0  T
  53   -448.9995548 -0.487111E-02  0.381E-01    0.08       1.0  T
  54   -449.0025393 -0.298450E-02  0.294E-01    0.08       1.0  T
  55   -449.0025452 -0.596514E-05  0.276E-01    0.08       1.0  T
  56   -449.0044492 -0.190403E-02  0.278E-01    0.09       1.0  T
  57   -449.0061923 -0.174304E-02  0.219E-01    0.09       1.0  T
  58   -449.0063680 -0.175699E-03  0.195E-01    0.08       1.0  T
  59   -449.0076653 -0.129735E-02  0.171E-01    0.09       1.0  T
  60   -449.0082246 -0.559244E-03  0.134E-01    0.09       1.0  T
  61   -449.0076183  0.606326E-03  0.151E-01    0.09       1.0  T
  62   -449.0083320 -0.713711E-03  0.103E-01    0.09       1.0  T
  63   -449.0083322 -0.232673E-06  0.917E-02    0.08       1.0  T
  64   -449.0088604 -0.528151E-03  0.605E-02    0.09       1.0  T
  65   -449.0088643 -0.395232E-05  0.558E-02    0.09       1.0  T
  66   -449.0088968 -0.324859E-04  0.493E-02    0.09       1.0  T
  67   -449.0089270 -0.301844E-04  0.449E-02    0.09       1.0  T
  68   -449.0089214  0.560227E-05  0.393E-02    0.09       1.0  T
  69   -449.0089572 -0.358229E-04  0.307E-02    0.09       1.0  T
  70   -449.0090074 -0.502129E-04  0.234E-02    0.09       1.0  T
  71   -449.0090197 -0.122697E-04  0.179E-02    0.09       1.0  T
  72   -449.0090240 -0.436099E-05  0.145E-02    0.09       1.0  T
  73   -449.0090261 -0.202125E-05  0.935E-03    0.09       1.0  T
  74   -449.0090324 -0.634624E-05  0.476E-03    0.09       1.4  T
  75   -449.0090330 -0.587169E-06  0.402E-03    0.09       1.6  T
  76   -449.0090339 -0.883783E-06  0.308E-03    0.09       2.1  T
  77   -449.0090336  0.229931E-06  0.269E-03    0.09       2.4  T
  78   -449.0090339 -0.227940E-06  0.232E-03    0.09       2.8  T
  79   -449.0090344 -0.516375E-06  0.168E-03    0.09       3.8  T
  80   -449.0090346 -0.229253E-06  0.111E-03    0.09       5.8  T
  81   -449.0090347 -0.125019E-06  0.968E-04    0.09       6.6  T
  82   -449.0090348 -0.799831E-07  0.710E-04    0.09       9.1  T
     SCC iter.                  ...        0 min, 15.194 sec
     gradient                   ...        0 min,  0.396 sec
 * total energy  :  -440.8421827 Eh     change       -0.4773013E-01 Eh
   gradient norm :     0.0545683 Eh/α   predicted    -0.4803878E-01 (   0.65%)
   displ. norm   :     0.8411221 α      lambda       -0.3981857E-01
   maximum displ.:     0.2890596 α      in ANC's #138, #134, #50, ...

........................................................................
.............................. CYCLE   10 ..............................
........................................................................
   1   -448.9886040 -0.448989E+03  0.669E-01    0.14       0.0  T
   2   -445.2810059  0.370760E+01  0.443E+00    0.11       1.0  T
   3   -446.0388609 -0.757855E+00  0.405E+00    0.07       1.0  T
   4   -448.4204352 -0.238157E+01  0.151E+00    0.02       1.0  T
   5   -444.9570547  0.346338E+01  0.478E+00    0.01       1.0  T
   6   -446.8200802 -0.186303E+01  0.377E+00    0.09       1.0  T
   7   -446.8498194 -0.297392E-01  0.364E+00    0.05       1.0  T
   8   -446.9707215 -0.120902E+00  0.355E+00    0.05       1.0  T
   9   -447.9661700 -0.995448E+00  0.230E+00    0.06       1.0  T
  10   -448.0820000 -0.115830E+00  0.236E+00    0.08       1.0  T
  11   -447.7867876  0.295212E+00  0.217E+00    0.06       1.0  T
  12   -448.6123071 -0.825519E+00  0.122E+00    0.05       1.0  T
  13   -448.1004083  0.511899E+00  0.178E+00    0.04       1.0  T
  14   -448.6899163 -0.589508E+00  0.134E+00    0.03       1.0  T
  15   -448.6433402  0.465761E-01  0.129E+00    0.05       1.0  T
  16   -448.7317081 -0.883679E-01  0.110E+00    0.04       1.0  T
  17   -448.9116433 -0.179935E+00  0.815E-01    0.07       1.0  T
  18   -448.9982762 -0.866330E-01  0.963E-01    0.15       1.0  T
  19   -449.0075137 -0.923746E-02  0.778E-01    0.11       1.0  T
  20   -449.0049525  0.256116E-02  0.752E-01    0.10       1.0  T
  21   -449.0087476 -0.379513E-02  0.861E-01    0.15       1.0  T
  22   -449.0026492  0.609839E-02  0.859E-01    0.14       1.0  T
  23   -449.0054630 -0.281370E-02  0.797E-01    0.14       1.0  T
  24   -449.0079377 -0.247480E-02  0.441E-01    0.09       1.0  T
  25   -448.9794386  0.284992E-01  0.513E-01    0.05       1.0  T
  26   -448.9929810 -0.135425E-01  0.455E-01    0.07       1.0  T
  27   -448.9809408  0.120403E-01  0.496E-01    0.07       1.0  T
  28   -448.9970321 -0.160913E-01  0.430E-01    0.06       1.0  T
  29   -449.0106895 -0.136574E-01  0.322E-01    0.07       1.0  T
  30   -449.0165871 -0.589768E-02  0.274E-01    0.07       1.0  T
  31   -449.0094281  0.715902E-02  0.304E-01    0.06       1.0  T
  32   -449.0113760 -0.194791E-02  0.294E-01    0.07       1.0  T
  33   -449.0153612 -0.398513E-02  0.255E-01    0.07       1.0  T
  34   -449.0182397 -0.287850E-02  0.216E-01    0.07       1.0  T
  35   -449.0300470 -0.118074E-01  0.117E-01    0.08       1.0  T
  36   -449.0291018  0.945209E-03  0.113E-01    0.08       1.0  T
  37   -449.0320004 -0.289862E-02  0.959E-02    0.09       1.0  T
  38   -449.0325871 -0.586695E-03  0.111E-01    0.09       1.0  T
  39   -449.0325987 -0.115793E-04  0.103E-01    0.09       1.0  T
  40   -449.0326503 -0.515515E-04  0.102E-01    0.09       1.0  T
  41   -449.0326152  0.350959E-04  0.100E-01    0.09       1.0  T
  42   -449.0326576 -0.424644E-04  0.844E-02    0.09       1.0  T
  43   -449.0326807 -0.230738E-04  0.661E-02    0.09       1.0  T
  44   -449.0327126 -0.319412E-04  0.622E-02    0.09       1.0  T
  45   -449.0326830  0.296075E-04  0.583E-02    0.09       1.0  T
  46   -449.0327189 -0.358673E-04  0.525E-02    0.09       1.0  T
  47   -449.0327628 -0.438826E-04  0.421E-02    0.09       1.0  T
  48   -449.0327847 -0.218885E-04  0.359E-02    0.09       1.0  T
  49   -449.0328103 -0.256754E-04  0.256E-02    0.10       1.0  T
  50   -449.0328342 -0.238306E-04  0.102E-02    0.10       1.0  T
  51   -449.0328410 -0.684451E-05  0.400E-03    0.10       1.6  T
  52   -449.0328416 -0.546118E-06  0.301E-03    0.10       2.1  T
  53   -449.0328421 -0.489897E-06  0.267E-03    0.10       2.4  T
  54   -449.0328421 -0.895184E-07  0.237E-03    0.10       2.7  T
  55   -449.0328422 -0.727751E-07  0.179E-03    0.10       3.6  T
  56   -449.0328422  0.541587E-08  0.136E-03    0.10       4.7  T
  57   -449.0328422 -0.246784E-07  0.100E-03    0.10       6.4  T
  58   -449.0328423 -0.258420E-07  0.699E-04    0.10       9.2  T
  59   -449.0328423 -0.542877E-08  0.467E-04    0.10      13.8  T
     SCC iter.                  ...        0 min, 10.818 sec
     gradient                   ...        0 min,  0.395 sec
 * total energy  :  -440.8760935 Eh     change       -0.3391082E-01 Eh
   gradient norm :     0.0403464 Eh/α   predicted    -0.3399486E-01 (   0.25%)
   displ. norm   :     0.8157357 α      lambda       -0.2746791E-01
   maximum displ.:     0.2545603 α      in ANC's #50, #46, #138, ...

........................................................................
.............................. CYCLE   11 ..............................
........................................................................
   1   -449.0329028 -0.449033E+03  0.509E-01    0.14       0.0  T
   2   -445.9606134  0.307229E+01  0.444E+00    0.17       1.0  T
   3   -446.6179945 -0.657381E+00  0.382E+00    0.03       1.0  T
   4   -448.9975181 -0.237952E+01  0.644E-01    0.14       1.0  T
   5   -448.8445707  0.152947E+00  0.790E-01    0.09       1.0  T
   6   -447.9749958  0.869575E+00  0.282E+00    0.01       1.0  T
   7   -447.9535856  0.214101E-01  0.283E+00    0.01       1.0  T
   8   -447.6994199  0.254166E+00  0.300E+00    0.01       1.0  T
   9   -448.7629052 -0.106349E+01  0.116E+00    0.03       1.0  T
  10   -449.0008189 -0.237914E+00  0.566E-01    0.11       1.0  T
  11   -448.6197429  0.381076E+00  0.108E+00    0.03       1.0  T
  12   -448.8119505 -0.192208E+00  0.922E-01    0.15       1.0  T
  13   -448.8471826 -0.352320E-01  0.911E-01    0.10       1.0  T
  14   -448.8167607  0.304219E-01  0.973E-01    0.06       1.0  T
  15   -448.9340933 -0.117333E+00  0.904E-01    0.17       1.0  T
  16   -448.9544719 -0.203785E-01  0.906E-01    0.15       1.0  T
  17   -449.0005735 -0.461016E-01  0.881E-01    0.18       1.0  T
  18   -449.0041808 -0.360729E-02  0.865E-01    0.17       1.0  T
  19   -449.0059422 -0.176145E-02  0.858E-01    0.18       1.0  T
  20   -449.0090600 -0.311776E-02  0.797E-01    0.15       1.0  T
  21   -449.0224974 -0.134374E-01  0.726E-01    0.16       1.0  T
  22   -449.0300434 -0.754598E-02  0.653E-01    0.15       1.0  T
  23   -449.0315147 -0.147130E-02  0.639E-01    0.15       1.0  T
  24   -449.0429821 -0.114674E-01  0.355E-01    0.11       1.0  T
  25   -449.0436568 -0.674711E-03  0.373E-01    0.11       1.0  T
  26   -449.0453709 -0.171412E-02  0.382E-01    0.12       1.0  T
  27   -449.0479795 -0.260862E-02  0.316E-01    0.12       1.0  T
  28   -449.0494387 -0.145917E-02  0.268E-01    0.12       1.0  T
  29   -449.0510016 -0.156296E-02  0.147E-01    0.10       1.0  T
  30   -449.0511337 -0.132024E-03  0.129E-01    0.10       1.0  T
  31   -449.0512404 -0.106690E-03  0.116E-01    0.10       1.0  T
  32   -449.0512816 -0.412712E-04  0.921E-02    0.10       1.0  T
  33   -449.0512301  0.515756E-04  0.703E-02    0.10       1.0  T
  34   -449.0512257  0.439129E-05  0.583E-02    0.10       1.0  T
  35   -449.0512818 -0.560879E-04  0.541E-02    0.10       1.0  T
  36   -449.0513350 -0.532294E-04  0.480E-02    0.10       1.0  T
  37   -449.0513603 -0.253020E-04  0.367E-02    0.10       1.0  T
  38   -449.0513997 -0.394517E-04  0.240E-02    0.10       1.0  T
  39   -449.0513974  0.235460E-05  0.223E-02    0.10       1.0  T
  40   -449.0514008 -0.346615E-05  0.160E-02    0.10       1.0  T
  41   -449.0513978  0.305550E-05  0.161E-02    0.10       1.0  T
  42   -449.0514029 -0.509948E-05  0.134E-02    0.10       1.0  T
  43   -449.0514086 -0.572720E-05  0.106E-02    0.10       1.0  T
  44   -449.0514144 -0.583246E-05  0.688E-03    0.10       1.0  T
  45   -449.0514177 -0.326518E-05  0.428E-03    0.10       1.5  T
  46   -449.0514190 -0.127509E-05  0.175E-03    0.10       3.7  T
  47   -449.0514192 -0.166513E-06  0.103E-03    0.10       6.3  T
  48   -449.0514192 -0.682638E-07  0.968E-04    0.10       6.6  T
  49   -449.0514193 -0.487142E-07  0.596E-04    0.10      10.8  T
     SCC iter.                  ...        0 min,  8.979 sec
     gradient                   ...        0 min,  0.396 sec
 * total energy  :  -440.8992637 Eh     change       -0.2317016E-01 Eh
   gradient norm :     0.0308534 Eh/α   predicted    -0.2287286E-01 (  -1.28%)
   displ. norm   :     0.8254928 α      lambda       -0.1962174E-01
   maximum displ.:     0.3179625 α      in ANC's #50, #46, #56, ...

........................................................................
.............................. CYCLE   12 ..............................
........................................................................
   1   -449.0633440 -0.449063E+03  0.416E-01    0.13       0.0  T
   2   -446.6646420  0.239870E+01  0.443E+00    0.15       1.0  T
   3   -448.2444003 -0.157976E+01  0.211E+00    0.02       1.0  T
   4   -446.9305559  0.131384E+01  0.398E+00    0.12       1.0  T
   5   -447.3285178 -0.397962E+00  0.327E+00    0.01       1.0  T
   6   -447.6593836 -0.330866E+00  0.306E+00    0.00       1.0  T
   7   -447.6448246  0.145590E-01  0.254E+00    0.03       1.0  T
   8   -447.8442200 -0.199395E+00  0.259E+00    0.07       1.0  T
   9   -448.4326184 -0.588398E+00  0.173E+00    0.05       1.0  T
  10   -448.9491035 -0.516485E+00  0.104E+00    0.06       1.0  T
  11   -449.0207923 -0.716888E-01  0.106E+00    0.21       1.0  T
  12   -449.0249110 -0.411870E-02  0.967E-01    0.17       1.0  T
  13   -448.9994874  0.254236E-01  0.886E-01    0.18       1.0  T
  14   -449.0468367 -0.473493E-01  0.697E-01    0.18       1.0  T
  15   -449.0331857  0.136510E-01  0.650E-01    0.16       1.0  T
  16   -448.9870800  0.461056E-01  0.556E-01    0.06       1.0  T
  17   -448.9140777  0.730023E-01  0.962E-01    0.04       1.0  T
  18   -449.0088877 -0.948100E-01  0.536E-01    0.06       1.0  T
  19   -449.0443253 -0.354376E-01  0.273E-01    0.08       1.0  T
  20   -449.0563119 -0.119866E-01  0.246E-01    0.10       1.0  T
  21   -449.0514846  0.482732E-02  0.305E-01    0.10       1.0  T
  22   -449.0587832 -0.729867E-02  0.221E-01    0.10       1.0  T
[...]
 241:  0.00 242:  0.00 243:  0.00 244:  0.00 245:  0.00 246:  0.00 247:  0.00 248:  0.00
 249:  0.00 250:  0.00 251:  0.00 252:  0.00 253:  0.00 254:  0.00 255:  0.00 256:  0.00
 257:  0.00 258:  0.00 259:  0.00 260:  0.00 261:  0.00 262:  0.00 263:  0.00 264:  0.00
 265:  0.00 266:  0.00 267:  0.00 268:  0.00 269:  0.00 270:  0.00 271:  0.00 272:  0.00
 273:  0.00 274:  0.00 275:  0.00 276:  0.00 277:  0.00 278:  0.00 279:  0.00 280:  0.00
 281:  0.00 282:  0.00 283:  0.00 284:  0.00 285:  0.00 286:  0.00 287:  0.00 288:  0.00
 289:  0.00 290:  0.00 291:  0.00 292:  0.00 293:  0.00 294:  0.00 295:  0.00 296:  0.00
 297:  0.00 298:  0.00 299:  0.00 300:  0.00 301:  0.00 302:  0.00 303:  0.00 304:  0.00
 305:  0.00 306:  0.00 307:  0.00 308:  0.00 309:  0.00 310:  0.00 311:  0.00 312:  0.00
 313:  0.00 314:  0.00 315:  0.00 316:  0.00 317:  0.00 318:  0.00 319:  0.00 320:  0.00
 321:  0.00 322:  0.00 323:  0.00 324:  0.00 325:  0.00 326:  0.00 327:  0.00 328:  0.00
 329:  0.00 330:  0.00 331:  0.00 332:  0.00 333:  0.00 334:  0.00 335:  0.00 336:  0.00
 337:  0.00 338:  0.00 339:  0.00 340:  0.00 341:  0.00 342:  0.00 343:  0.00 344:  0.00
 345:  0.00 346:  0.00 347:  0.00 348:  0.00 349:  0.00 350:  0.00 351:  0.00 352:  0.00
 353:  0.00 354:  0.00 355:  0.00 356:  0.00 357:  0.00 358:  0.00 359:  0.00 360:  0.00
 361:  0.00 362:  0.00 363:  0.00 364:  0.00 365:  0.00 366:  0.00 367:  0.00 368:  0.00
 369:  0.00 370:  0.00 371:  0.00 372:  0.00 373:  0.00 374:  0.00 375:  0.00 376:  0.00
 377:  0.00 378:  0.00 379:  0.00 380:  0.00 381:  0.00 382:  0.00 383:  0.00 384:  0.00
 385:  0.00 386:  0.00 387:  0.00 388:  0.00 389:  0.00 390:  0.00 391:  0.00 392:  0.00
 393:  0.00 394:  0.00 395:  0.00 396:  0.00 397:  0.00 398:  0.00 399:  0.00 400:  0.00
 401:  0.00 402:  0.00 403:  0.00 404:  0.00 405:  0.00 406:  0.00 407:  0.00 408:  0.00
 409:  0.00 410:  0.00 411:  0.00 412:  0.00 413:  0.00 414:  0.00 415:  0.00 416:  0.00
 417:  0.00 418:  0.00 419:  0.00 420:  0.00 421:  0.00 422:  0.00 423:  0.00 424:  0.00
 425:  0.00 426:  0.00 427:  0.00 428:  0.00 429:  0.00 430:  0.00 431:  0.00 432:  0.00
 433:  0.00 434:  0.00 435:  0.00 436:  0.00 437:  0.00 438:  0.00 439:  0.00 440:  0.00
 441:  0.00 442:  0.00 443:  0.00 444:  0.00 445:  0.00 446:  0.00 447:  0.00 448:  0.00
 449:  0.00 450:  0.00 451:  0.00 452:  0.00 453:  0.00 454:  0.00 455:  0.00 456:  0.00
 457:  0.00 458:  0.00 459:  0.00 460:  0.00 461:  0.00 462:  0.00 463:  0.00 464:  0.00
 465:  0.00 466:  0.00 467:  0.00 468:  0.00 469:  0.00 470:  0.00 471:  0.00 472:  0.00
 473:  0.00 474:  0.00 475:  0.00 476:  0.00 477:  0.00 478:  0.00 479:  0.00 480:  0.00
 481:  0.00 482:  0.00 483:  0.00 484:  0.00 485:  0.00 486:  0.00 487:  0.00 488:  0.00
 489:  0.00 490:  0.00 491:  0.00 492:  0.00 493:  0.00 494:  0.00 495:  0.00 496:  0.00
 497:  0.00 498:  0.00 499:  0.00 500:  0.00 501:  0.00 502:  0.00 503:  0.00 504:  0.00
 505:  0.00 506:  0.00 507:  0.00 508:  0.00 509:  0.00 510:  0.00 511:  0.00 512:  0.00
 513:  0.00 514:  0.00 515:  0.00 516:  0.00 517:  0.00 518:  0.00 519:  0.00 520:  0.00
 521:  0.00 522:  0.00 523:  0.00 524:  0.00 525:  0.00 526:  0.00 527:  0.00 528:  0.00
 529:  0.00 530:  0.00 531:  0.00 532:  0.00 533:  0.00 534:  0.00 535:  0.00 536:  0.00
 537:  0.00 538:  0.00 539:  0.00 540:  0.00 541:  0.00 542:  0.00 543:  0.00 544:  0.00
 545:  0.00 546:  0.00 547:  0.00 548:  0.00 549:  0.00 550:  0.00 551:  0.00 552:  0.00
 553:  0.00 554:  0.00 555:  0.00 556:  0.00 557:  0.00 558:  0.00 559:  0.00 560:  0.00
 561:  0.00 562:  0.00 563:  0.00 564:  0.00 565:  0.00 566:  0.00 567:  0.00 568:  0.00
 569:  0.00 570:  0.00 571:  0.00 572:  0.00 573:  0.00 574:  0.00 575:  0.00 576:  0.00
 577:  0.00 578:  0.00 579:  0.00 580:  0.00 581:  0.00 582:  0.00 583:  0.00 584:  0.00
 585:  0.00 586:  0.00 587:  0.00 588:  0.00 589:  0.00 590:  0.00 591:  0.00 592:  0.00
 593:  0.00 594:  0.00 595:  0.00 596:  0.00 597:  0.00 598:  0.00 599:  0.00 600:  0.00
 601:  0.00 602:  0.00 603:  0.00 604:  0.00 605:  0.00 606:  0.00 607:  0.00 608:  0.00
 609:  0.00 610:  0.00 611:  0.00 612:  0.00 613:  0.00 614:  0.00 615:  0.00 616:  0.00
 617:  0.00 618:  0.00 619:  0.00 620:  0.00 621:  0.00 622:  0.00 623:  0.00 624:  0.00
 625:  0.00 626:  0.00 627:  0.00 628:  0.00 629:  0.00 630:  0.00 631:  0.00 632:  0.00
 633:  0.00 634:  0.00 635:  0.00 636:  0.00 637:  0.00 638:  0.00 639:  0.00 640:  0.00
 641:  0.00 642:  0.00 643:  0.00 644:  0.00 645:  0.00 646:  0.00 647:  0.00 648:  0.00
 649:  0.00 650:  0.00 651:  0.00 652:  0.00 653:  0.00 654:  0.00 655:  0.00 656:  0.00
 657:  0.00 658:  0.00 659:  0.00 660:  0.00 661:  0.00 662:  0.00 663:  0.00 664:  0.00
 665:  0.00 666:  0.00 667:  0.00 668:  0.00 669:  0.00 670:  0.00 671:  0.00 672:  0.00
 673:  0.00 674:  0.00 675:  0.00 676:  0.00 677:  0.00 678:  0.00 679:  0.00 680:  0.00
 681:  0.00 682:  0.00 683:  0.00 684:  0.00 685:  0.00 686:  0.00 687:  0.00 688:  0.00
 689:  0.00 690:  0.00 691:  0.00 692:  0.00 693:  0.00 694:  0.00 695:  0.00 696:  0.00
 697:  0.00 698:  0.00 699:  0.00 700:  0.00 701:  0.00 702:  0.00 703:  0.00 704:  0.00
 705:  0.00 706:  0.00 707:  0.00 708:  0.00 709:  0.00 710:  0.00 711:  0.00 712:  0.00
 713:  0.00 714:  0.00 715:  0.00 716:  0.00 717:  0.00 718:  0.00 719:  0.00 720:  0.00
 721:  0.00 722:  0.00 723:  0.00 724:  0.00 725:  0.00 726:  0.00
 output can be read by thermo (or use thermo option).
 writing <g98.out> molden fake output.
 recommended (thermochemical) frequency scaling factor: 1.0
           -------------------------------------------------
          |             Thermodynamic Functions             |
           -------------------------------------------------
 symmetry recognition skipped because # atoms >         200
 inverting freq            1   3.1156469622439467     

          ...................................................
          :                      SETUP                      :
          :.................................................:
          :  # frequencies                         717      :
          :  # imaginary freq.                       0      :
          :  linear?                             false      :
          :  only rotor calc.                    false      :
          :  symmetry                               C1      :
          :  rotational number                       1      :
          :  scaling factor                  1.0000000      :
          :  rotor cutoff                   50.0000000 cm⁻¹ :
          :  imag. cutoff                  -20.0000000 cm⁻¹ :
          :.................................................:

    mode    ω/cm⁻¹     T·S(HO)/kcal·mol⁻¹    T·S(FR)/kcal·mol⁻¹   T·S(vib)
   ------------------------------------------------------------------------
       1      3.12    -3.07936 (  0.00%)    -1.87879 (100.00%)    -1.87881
       2      1.34    -3.57901 (  0.00%)    -2.12862 (100.00%)    -2.12862
       3      1.59    -3.47701 (  0.00%)    -2.07762 (100.00%)    -2.07762
       4      1.78    -3.41033 (  0.00%)    -2.04428 (100.00%)    -2.04428
       5      2.21    -3.28294 (  0.00%)    -1.98058 (100.00%)    -1.98059
       6      2.53    -3.20278 (  0.00%)    -1.94050 (100.00%)    -1.94051
       7      3.32    -3.04163 (  0.00%)    -1.85993 (100.00%)    -1.85995
       8      3.35    -3.03603 (  0.00%)    -1.85713 (100.00%)    -1.85715
       9      3.46    -3.01782 (  0.00%)    -1.84802 (100.00%)    -1.84805
      10      5.69    -2.72242 (  0.02%)    -1.70032 ( 99.98%)    -1.70049
      11      7.74    -2.54001 (  0.06%)    -1.60910 ( 99.94%)    -1.60964
      12      8.23    -2.50414 (  0.07%)    -1.59117 ( 99.93%)    -1.59184
      13      8.88    -2.45885 (  0.10%)    -1.56852 ( 99.90%)    -1.56940
      14     11.79    -2.29093 (  0.31%)    -1.48454 ( 99.69%)    -1.48703
      15     14.70    -2.16048 (  0.74%)    -1.41929 ( 99.26%)    -1.42478
      16     15.10    -2.14422 (  0.83%)    -1.41116 ( 99.17%)    -1.41721
      17     18.07    -2.03799 (  1.68%)    -1.35802 ( 98.32%)    -1.36943
      18     19.06    -2.00655 (  2.07%)    -1.34229 ( 97.93%)    -1.35602
      19     20.04    -1.97672 (  2.52%)    -1.32736 ( 97.48%)    -1.34371
      20     22.12    -1.91829 (  3.69%)    -1.29812 ( 96.31%)    -1.32101
      21     23.70    -1.87759 (  4.80%)    -1.27775 ( 95.20%)    -1.30656
      22     25.71    -1.82944 (  6.53%)    -1.25365 ( 93.47%)    -1.29124
      23     27.33    -1.79314 (  8.20%)    -1.23547 ( 91.80%)    -1.28119
      24     27.35    -1.79270 (  8.22%)    -1.23525 ( 91.78%)    -1.28107
      25     27.66    -1.78615 (  8.56%)    -1.23197 ( 91.44%)    -1.27941
      26     29.67    -1.74458 ( 11.03%)    -1.21115 ( 88.97%)    -1.27000
      27     30.01    -1.73792 ( 11.48%)    -1.20782 ( 88.52%)    -1.26868
      28     30.03    -1.73738 ( 11.52%)    -1.20755 ( 88.48%)    -1.26858
      29     31.03    -1.71813 ( 12.91%)    -1.19791 ( 87.09%)    -1.26508
      30     31.06    -1.71750 ( 12.96%)    -1.19759 ( 87.04%)    -1.26498
      31     31.64    -1.70664 ( 13.81%)    -1.19215 ( 86.19%)    -1.26322
      32     37.01    -1.61388 ( 23.09%)    -1.14566 ( 76.91%)    -1.25377
      33     42.57    -1.53124 ( 34.44%)    -1.10422 ( 65.56%)    -1.25130
      34     44.61    -1.50360 ( 38.79%)    -1.09035 ( 61.21%)    -1.25063
      35     47.80    -1.46283 ( 45.51%)    -1.06987 ( 54.49%)    -1.24872
      36     53.19    -1.39987 ( 56.15%)    -1.03824 ( 43.85%)    -1.24129
      37     62.22    -1.30754 ( 70.57%)    -0.99178 ( 29.43%)    -1.21461
      38     66.82    -1.26558 ( 76.14%)    -0.97063 ( 23.86%)    -1.19519
      39     69.30    -1.24425 ( 78.68%)    -0.95987 ( 21.32%)    -1.18361
      40     75.63    -1.19296 ( 83.96%)    -0.93396 ( 16.04%)    -1.15142
      41     81.47    -1.14940 ( 87.58%)    -0.91191 ( 12.42%)    -1.11989
      42     82.32    -1.14335 ( 88.02%)    -0.90885 ( 11.98%)    -1.11525
      43     84.07    -1.13106 ( 88.88%)    -0.90262 ( 11.12%)    -1.10565
      44     86.07    -1.11732 ( 89.77%)    -0.89566 ( 10.23%)    -1.09466
      45     86.59    -1.11379 ( 90.00%)    -0.89386 ( 10.00%)    -1.09178
      46     90.62    -1.08727 ( 91.52%)    -0.88041 (  8.48%)    -1.06972
      47     92.85    -1.07305 ( 92.24%)    -0.87317 (  7.76%)    -1.05755
      48     93.27    -1.07046 ( 92.37%)    -0.87186 (  7.63%)    -1.05531
      49     93.47    -1.06921 ( 92.43%)    -0.87123 (  7.57%)    -1.05423
      50     93.56    -1.06862 ( 92.46%)    -0.87092 (  7.54%)    -1.05371
      51     94.27    -1.06426 ( 92.67%)    -0.86871 (  7.33%)    -1.04992
      52     95.88    -1.05438 ( 93.11%)    -0.86368 (  6.89%)    -1.04124
      53     97.86    -1.04248 ( 93.62%)    -0.85762 (  6.38%)    -1.03069
      54     99.97    -1.03008 ( 94.11%)    -0.85130 (  5.89%)    -1.01955
      55    107.49    -0.98800 ( 95.53%)    -0.82982 (  4.47%)    -0.98092
      56    113.20    -0.95805 ( 96.33%)    -0.81449 (  3.67%)    -0.95278
      57    113.70    -0.95547 ( 96.40%)    -0.81317 (  3.60%)    -0.95034
      58    118.67    -0.93078 ( 96.95%)    -0.80049 (  3.05%)    -0.92680
      59    118.71    -0.93061 ( 96.95%)    -0.80040 (  3.05%)    -0.92664
      60    121.66    -0.91646 ( 97.23%)    -0.79313 (  2.77%)    -0.91304
      61    125.10    -0.90043 ( 97.51%)    -0.78487 (  2.49%)    -0.89755
      62    125.14    -0.90022 ( 97.51%)    -0.78477 (  2.49%)    -0.89735
      63    126.29    -0.89497 ( 97.60%)    -0.78206 (  2.40%)    -0.89226
      64    126.38    -0.89456 ( 97.61%)    -0.78185 (  2.39%)    -0.89187
      65    128.68    -0.88421 ( 97.77%)    -0.77651 (  2.23%)    -0.88181
      66    133.65    -0.86248 ( 98.08%)    -0.76528 (  1.92%)    -0.86061
      67    136.82    -0.84909 ( 98.25%)    -0.75834 (  1.75%)    -0.84750
      68    139.35    -0.83861 ( 98.37%)    -0.75290 (  1.63%)    -0.83721
      69    162.82    -0.75037 ( 99.12%)    -0.70680 (  0.88%)    -0.74998
      70    168.58    -0.73083 ( 99.23%)    -0.69650 (  0.77%)    -0.73057
      71    170.12    -0.72573 ( 99.26%)    -0.69380 (  0.74%)    -0.72549
      72    173.59    -0.71443 ( 99.32%)    -0.68782 (  0.68%)    -0.71425
      73    176.39    -0.70550 ( 99.36%)    -0.68309 (  0.64%)    -0.70536
      74    178.58    -0.69863 ( 99.39%)    -0.67943 (  0.61%)    -0.69851
      75    178.72    -0.69818 ( 99.39%)    -0.67919 (  0.61%)    -0.69807
      76    181.48    -0.68965 ( 99.43%)    -0.67465 (  0.57%)    -0.68956
      77    181.60    -0.68930 ( 99.43%)    -0.67446 (  0.57%)    -0.68921
      78    181.83    -0.68860 ( 99.43%)    -0.67410 (  0.57%)    -0.68852
      79    182.31    -0.68711 ( 99.44%)    -0.67330 (  0.56%)    -0.68703
      80    183.10    -0.68471 ( 99.45%)    -0.67202 (  0.55%)    -0.68464
      81    185.03    -0.67891 ( 99.47%)    -0.66892 (  0.53%)    -0.67886
      82    185.15    -0.67856 ( 99.47%)    -0.66873 (  0.53%)    -0.67850
      83    185.50    -0.67748 ( 99.47%)    -0.66816 (  0.53%)    -0.67743
      84    187.07    -0.67282 ( 99.49%)    -0.66567 (  0.51%)    -0.67278
      85    188.25    -0.66933 ( 99.50%)    -0.66380 (  0.50%)    -0.66931
      86    190.21    -0.66361 ( 99.52%)    -0.66074 (  0.48%)    -0.66360
      87    202.14    -0.63015 ( 99.63%)    -0.64272 (  0.37%)    -0.63020
      88    207.11    -0.61688 ( 99.66%)    -0.63553 (  0.34%)    -0.61694
      89    207.17    -0.61671 ( 99.66%)    -0.63543 (  0.34%)    -0.61677
      90    209.82    -0.60979 ( 99.68%)    -0.63167 (  0.32%)    -0.60986
      91    209.87    -0.60966 ( 99.68%)    -0.63160 (  0.32%)    -0.60973
      92    214.30    -0.59831 ( 99.70%)    -0.62541 (  0.30%)    -0.59839
      93    216.97    -0.59159 ( 99.72%)    -0.62174 (  0.28%)    -0.59167
      94    218.21    -0.58850 ( 99.73%)    -0.62005 (  0.27%)    -0.58859
      95    220.46    -0.58297 ( 99.74%)    -0.61702 (  0.26%)    -0.58306
      96    220.69    -0.58240 ( 99.74%)    -0.61670 (  0.26%)    -0.58249
      97    220.94    -0.58181 ( 99.74%)    -0.61638 (  0.26%)    -0.58190
      98    221.38    -0.58074 ( 99.74%)    -0.61579 (  0.26%)    -0.58083
      99    222.24    -0.57864 ( 99.74%)    -0.61464 (  0.26%)    -0.57873
     100    223.71    -0.57508 ( 99.75%)    -0.61268 (  0.25%)    -0.57518
     101    223.74    -0.57501 ( 99.75%)    -0.61264 (  0.25%)    -0.57510
     102    224.84    -0.57238 ( 99.76%)    -0.61119 (  0.24%)    -0.57248
     103    224.92    -0.57219 ( 99.76%)    -0.61109 (  0.24%)    -0.57229
     104    225.56    -0.57065 ( 99.76%)    -0.61024 (  0.24%)    -0.57075
     105    226.14    -0.56929 ( 99.76%)    -0.60949 (  0.24%)    -0.56938
     106    226.20    -0.56914 ( 99.76%)    -0.60940 (  0.24%)    -0.56923
     107    226.21    -0.56910 ( 99.76%)    -0.60938 (  0.24%)    -0.56920
     108    230.01    -0.56018 ( 99.78%)    -0.60445 (  0.22%)    -0.56028
     109    232.42    -0.55460 ( 99.79%)    -0.60136 (  0.21%)    -0.55470
     110    235.42    -0.54776 ( 99.80%)    -0.59756 (  0.20%)    -0.54786
     111    236.26    -0.54587 ( 99.80%)    -0.59651 (  0.20%)    -0.54597
     112    237.05    -0.54410 ( 99.80%)    -0.59552 (  0.20%)    -0.54420
     113    240.93    -0.53548 ( 99.81%)    -0.59071 (  0.19%)    -0.53558
     114    241.04    -0.53524 ( 99.82%)    -0.59058 (  0.18%)    -0.53534
     115    244.32    -0.52809 ( 99.82%)    -0.58658 (  0.18%)    -0.52819
     116    246.55    -0.52329 ( 99.83%)    -0.58389 (  0.17%)    -0.52339
     117    246.56    -0.52327 ( 99.83%)    -0.58387 (  0.17%)    -0.52337
     118    247.57    -0.52112 ( 99.83%)    -0.58266 (  0.17%)    -0.52122
     119    247.59    -0.52107 ( 99.83%)    -0.58264 (  0.17%)    -0.52117
     120    254.09    -0.50745 ( 99.85%)    -0.57496 (  0.15%)    -0.50756
     121    254.11    -0.50742 ( 99.85%)    -0.57494 (  0.15%)    -0.50752
     122    255.75    -0.50405 ( 99.85%)    -0.57303 (  0.15%)    -0.50415
     123    255.84    -0.50387 ( 99.85%)    -0.57293 (  0.15%)    -0.50397
     124    256.82    -0.50187 ( 99.86%)    -0.57179 (  0.14%)    -0.50197
     125    257.07    -0.50136 ( 99.86%)    -0.57151 (  0.14%)    -0.50146
     126    271.74    -0.47259 ( 99.89%)    -0.55506 (  0.11%)    -0.47269
     127    273.96    -0.46843 ( 99.89%)    -0.55266 (  0.11%)    -0.46852
     128    274.40    -0.46759 ( 99.89%)    -0.55218 (  0.11%)    -0.46769
     129    276.39    -0.46390 ( 99.89%)    -0.55004 (  0.11%)    -0.46399
     130    278.93    -0.45922 ( 99.90%)    -0.54733 (  0.10%)    -0.45932
     131    279.01    -0.45908 ( 99.90%)    -0.54725 (  0.10%)    -0.45917
     132    279.88    -0.45749 ( 99.90%)    -0.54632 (  0.10%)    -0.45758
     133    280.00    -0.45726 ( 99.90%)    -0.54619 (  0.10%)    -0.45735
     134    282.55    -0.45265 ( 99.90%)    -0.54351 (  0.10%)    -0.45274
     135    289.40    -0.44050 ( 99.91%)    -0.53641 (  0.09%)    -0.44059
     136    293.39    -0.43360 ( 99.92%)    -0.53235 (  0.08%)    -0.43369
     137    295.15    -0.43061 ( 99.92%)    -0.53059 (  0.08%)    -0.43069
     138    299.72    -0.42292 ( 99.92%)    -0.52603 (  0.08%)    -0.42300
   ------------------------------------------------------------------------

   temp. (K)  partition function   enthalpy   heat capacity  entropy
                                   cal/mol     cal/K/mol   cal/K/mol   J/K/mol
 298.15  VIB  0.216E+81            90611.294    574.597    579.913
         ROT  0.146E+11              888.752      2.981     49.494
         INT  0.316E+91            91500.047    577.578    629.407
         TR   0.124E+30             1481.254      4.968     49.332
         TOT                       92981.3007   582.5461   678.7388  2839.8432

       T/K    H(0)-H(T)+PV         H(T)/Eh          T*S/Eh         G(T)/Eh
   ------------------------------------------------------------------------
    298.15    0.148175E+00    0.177811E+01    0.322491E+00    0.145562E+01
   ------------------------------------------------------------------------

         :::::::::::::::::::::::::::::::::::::::::::::::::::::
         ::                  THERMODYNAMIC                  ::
         :::::::::::::::::::::::::::::::::::::::::::::::::::::
         :: total free energy        -440.034654155394 Eh   ::
         ::.................................................::
         :: total energy             -441.490272677190 Eh   ::
         :: zero point energy           1.629934094766 Eh   ::
         :: G(RRHO) w/o ZPVE           -0.174315572969 Eh   ::
         :: G(RRHO) contrib.            1.455618521797 Eh   ::
         :::::::::::::::::::::::::::::::::::::::::::::::::::::

optimized geometry written to: xtbopt.xyz


           -------------------------------------------------
          | TOTAL ENERGY             -441.490272677190 Eh   |
          | TOTAL ENTHALPY           -439.712163447987 Eh   |
          | TOTAL FREE ENERGY        -440.034654155394 Eh   |
          | GRADIENT NORM               0.000308126155 Eh/α |
          | HOMO-LUMO GAP               0.149571957392 eV   |
           -------------------------------------------------

------------------------------------------------------------------------
 * finished run on 2021/11/20 at 05:20:01.312     
------------------------------------------------------------------------
 total:
 * wall-time:     0 d,  1 h,  5 min, 27.991 sec
 *  cpu-time:     0 d,  1 h,  5 min, 28.023 sec
 * ratio c/w:     1.000 speedup
 SCF:
 * wall-time:     0 d,  0 h,  0 min, 36.257 sec
 *  cpu-time:     0 d,  0 h,  0 min, 36.257 sec
 * ratio c/w:     1.000 speedup
 ANC optimizer:
 * wall-time:     0 d,  0 h,  8 min, 22.080 sec
 *  cpu-time:     0 d,  0 h,  8 min, 22.071 sec
 * ratio c/w:     1.000 speedup
 analytical hessian:
 * wall-time:     0 d,  0 h, 56 min, 29.284 sec
 *  cpu-time:     0 d,  0 h, 56 min, 29.324 sec
 * ratio c/w:     1.000 speedup

