242
 energy: -439.134751833402 gnorm: 2.010610513472 xtb: 6.4.1 (bd6e46d)
Fe       28.97656200000000    0.03786500000000   -0.01212500000000
C        31.30555300000000   -3.10892900000000    1.31056400000000
C        32.22166000000000   -2.16472100000000    1.26028200000000
C        31.81048100000000   -1.11081700000000    0.33899000000000
C        32.42935200000000    0.01352900000000   -0.00742000000000
C        31.72530900000000    1.23347700000000   -0.37152500000000
C        32.05342000000000    2.19353200000000   -1.21899900000000
C        31.01864000000000    3.20981800000000   -1.23589600000000
C        30.08237200000000    2.83335600000000   -0.38900500000000
N        30.48436200000000    1.60034500000000    0.17481200000000
C        28.82129800000000    3.47835500000000   -0.00985300000000
C        27.72608000000000    2.84357200000000    0.34090700000000
C        26.65245500000000    3.16152800000000    1.30993500000000
C        25.81489200000000    2.16477500000000    1.23276900000000
C        26.25319000000000    1.16109100000000    0.25231700000000
N        27.35812800000000    1.59994400000000   -0.23197500000000
C        25.64235500000000   -0.09218000000000   -0.16123100000000
C        26.30651500000000   -1.19668600000000   -0.41565600000000
C        25.93266700000000   -2.25962800000000   -1.37318300000000
C        26.88141400000000   -3.15338300000000   -1.28416400000000
C        27.86713800000000   -2.71593300000000   -0.30128600000000
N        27.51409200000000   -1.57012800000000    0.19551100000000
C        29.09802600000000   -3.37200400000000    0.14443500000000
C        30.22106700000001   -2.72614300000000    0.41155600000000
N        30.54966700000000   -1.47870100000000   -0.18684700000000
H        31.36581500000000   -4.01870900000000    1.92811100000000
H        33.13798800000000   -2.20467000000000    1.83833000000000
H        32.98078500000000    2.21032800000000   -1.82014200000000
H        31.03553900000000    4.11450600000000   -1.84851800000000
H        28.77357500000000    4.57315800000000   -0.01363000000000
H        26.59963300000000    4.04025300000000    1.93492800000000
H        24.90326200000001    2.12910500000000    1.85009300000000
H        24.54410400000000   -0.08926900000000   -0.26050200000000
H        25.06381100000000   -2.31209300000000   -2.02213300000000
H        26.87856800000000   -4.06969200000000   -1.88292300000000
H        29.06254300000000   -4.46780500000000    0.25636000000000
Fe      110.60605400000000   -0.00951100000000   -0.01655800000000
C       108.27706300000000    2.83728100000000    1.86694700000000
C       107.36095600000000    1.91879100000000    1.64237300000000
C       107.77213500000001    1.05409400000000    0.54155900000000
C       107.15326500000002    0.01352900000000   -0.00742000000000
C       107.85730700000002   -1.11769600000000   -0.59152300000000
C       107.52919600000000   -1.90386700000000   -1.60238900000000
C       108.56397600000000   -2.89937700000000   -1.80753000000000
C       109.50024400000000   -2.68656000000000   -0.90549900000000
N       109.09825400000000   -1.57954900000000   -0.12272800000000
C       110.76131800000000   -3.39070100000000   -0.65258600000000
C       111.85653600000001   -2.83200900000000   -0.19015300000000
C       112.93016100000000   -3.32421400000000    0.70306900000000
C       113.76772400000002   -2.33044700000000    0.81215400000000
C       113.32942700000001   -1.16229800000000    0.03491900000000
N       112.22448900000001   -1.50369000000000   -0.52238000000000
C       113.94026100000001    0.14593700000000   -0.13895100000000
C       113.27610100000001    1.27847000000000   -0.18405700000000
C       113.64995000000000    2.50059600000000   -0.92777200000000
C       112.70120199999999    3.36232300000000   -0.67449300000000
C       111.71547800000000    2.75012900000000    0.21017000000000
N       112.06852400000000    1.53205000000000    0.48578000000000
C       110.48459099999999    3.31212300000000    0.76986500000000
C       109.36154900000000    2.62791800000000    0.91253200000000
N       109.03294900000000    1.51314300000000    0.09309800000000
H       108.21680100000000    3.61670500000000    2.64255100000000
H       106.44462799999999    1.85081100000000    2.21779900000000
H       106.60183100000000   -1.80885100000000   -2.19621400000000
H       108.54707700000000   -3.67471100000000   -2.57735000000000
H       110.80904099999999   -4.46579900000000   -0.85940000000000
H       112.98298300000000   -4.30363100000000    1.15419600000000
H       114.67935400000002   -2.40991900000000    1.42538000000000
H       115.03851200000000    0.16149300000000   -0.23703800000000
H       114.51880500000000    2.67254000000000   -1.55572400000000
H       112.70404800000000    4.37380400000000   -1.09287100000000
H       110.52007300000000    4.36813900000000    1.08313400000000
C        35.40136300000000    0.02466000000000   -0.00337800000000
C        36.61689600000000   -0.00068300000000   -0.01385800000000
C        38.03841300000000   -0.02210700000000   -0.01803400000000
C        39.24697500000001   -0.02431800000000   -0.01792900000000
C        40.66805000000000   -0.00535800000000   -0.01855600000000
C        41.87919200000000    0.02466000000000   -0.00337800000000
C        50.97653900000000    0.02466000000000   -0.00337800000000
C        52.19207200000000   -0.00068300000000   -0.01385800000000
C        53.61358900000000   -0.02210700000000   -0.01803400000000
C        54.82215000000000   -0.02431800000000   -0.01792900000000
C        56.24322500000001   -0.00535800000000   -0.01855600000000
C        57.45436800000000    0.02466000000000   -0.00337800000000
C        66.55171400000000    0.02466000000000   -0.00337800000000
C        67.76724700000000   -0.00068300000000   -0.01385800000000
C        69.18876400000001   -0.02210700000000   -0.01803400000000
C        70.39732600000001   -0.02431800000000   -0.01792900000000
C        71.81840099999999   -0.00535800000000   -0.01855600000000
C        73.02954300000000    0.02466000000000   -0.00337800000000
C        82.12689000000000    0.02466000000000   -0.00337800000000
C        83.34242300000000   -0.00068300000000   -0.01385800000000
C        84.76394000000001   -0.02210700000000   -0.01803400000000
C        85.97250099999999   -0.02431800000000   -0.01792900000000
C        87.39357699999999   -0.00535800000000   -0.01855600000000
C        88.60471900000000    0.02466000000000   -0.00337800000000
C        97.70206500000000    0.02466000000000   -0.00337800000000
C        98.91759800000000   -0.00068300000000   -0.01385800000000
C       100.33911500000001   -0.02210700000000   -0.01803400000000
C       101.54767699999999   -0.02431800000000   -0.01792900000000
C       102.96875200000001   -0.00535800000000   -0.01855600000000
C       104.17989400000000    0.02466000000000   -0.00337800000000
Fe       46.46778200000001    0.03627700000000    0.00145000000000
C        44.18797200000000   -3.22517000000000   -0.90821600000000
C        43.23176200000001   -2.32582000000000   -1.01024200000000
C        43.62413600000001   -1.16351500000000   -0.20772600000000
C        42.98902000000000   -0.01224200000000    0.00454000000000
C        43.67447700000001    1.26235700000000    0.23076900000000
C        43.33918700000000    2.34095700000000    0.93500900000000
C        44.36372800000000    3.36027400000000    0.84442800000000
C        45.31432500000000    2.86334900000000    0.07106300000000
N        44.93733100000000    1.54674400000000   -0.34508000000000
C        46.56146500000000    3.47505100000000   -0.34580200000000
C        47.66301700000000    2.80779400000000   -0.67757400000000
C        48.65656300000000    3.05977800000000   -1.71174400000000
C        49.55044600000001    2.09891900000000   -1.61026000000000
C        49.17074800000000    1.18703500000000   -0.50628300000000
N        48.07583300000000    1.63635400000000    0.00108400000000
C        49.82795500000000   -0.01224200000000    0.00454000000000
C        49.20454400000000   -1.08142400000000    0.46605700000000
C        49.58325600000000   -2.01354000000000    1.54153200000000
C        48.64258700000000   -2.92768600000000    1.62739800000000
C        47.63428600000000   -2.63190700000000    0.62997100000000
N        47.97206100000000   -1.57852900000000   -0.01932400000000
C        46.38189300000000   -3.33891400000000    0.29877800000000
C        45.26801600000000   -2.74221700000000   -0.04856400000000
N        44.88590400000000   -1.45946000000000    0.36911900000000
H        44.18831600000000   -4.21624400000000   -1.39945000000000
H        42.32322800000000   -2.44751400000000   -1.59139000000000
H        42.41433500000000    2.45930900000000    1.51193500000000
H        44.39102300000000    4.34943800000000    1.30107800000000
H        46.64740500000000    4.57242900000000   -0.40782500000000
H        48.68923500000000    3.86599400000000   -2.43856800000000
H        50.44350800000000    1.98595100000000   -2.24403400000000
H        50.49800600000000   -1.93913300000000    2.15170200000000
H        48.66163400000001   -3.74129400000000    2.33566600000000
H        46.42037700000000   -4.43887300000000    0.35781400000000
Fe       62.04295800000001    0.03627700000000    0.00145000000000
C        59.76314700000000   -3.22517000000000   -0.90821600000000
C        58.80693800000001   -2.32582000000000   -1.01024200000000
C        59.19931200000001   -1.16351500000000   -0.20772600000000
C        58.56419500000000   -0.01224200000000    0.00454000000000
C        59.24965200000000    1.26235700000000    0.23076900000000
C        58.91436200000000    2.34095700000000    0.93500900000000
C        59.93890300000000    3.36027400000000    0.84442800000000
C        60.88950100000000    2.86334900000000    0.07106300000000
N        60.51250700000000    1.54674400000000   -0.34508000000000
C        62.13664000000000    3.47505100000000   -0.34580200000000
C        63.23819200000000    2.80779400000000   -0.67757400000000
C        64.23173900000000    3.05977800000000   -1.71174400000000
C        65.12562200000001    2.09891900000000   -1.61026000000000
C        64.74592400000000    1.18703500000000   -0.50628300000000
N        63.65100800000000    1.63635400000000    0.00108400000000
C        65.40313100000000   -0.01224200000000    0.00454000000000
C        64.77971900000000   -1.08142400000000    0.46605700000000
C        65.15843200000000   -2.01354000000000    1.54153200000000
C        64.21776300000001   -2.92768600000000    1.62739800000000
C        63.20946200000000   -2.63190700000000    0.62997100000000
N        63.54723700000001   -1.57852900000000   -0.01932400000000
C        61.95706800000000   -3.33891400000000    0.29877800000000
C        60.84319200000000   -2.74221700000000   -0.04856400000000
N        60.46108000000000   -1.45946000000000    0.36911900000000
H        59.76349200000000   -4.21624400000000   -1.39945000000000
H        57.89840300000000   -2.44751400000000   -1.59139000000000
H        57.98951000000000    2.45930900000000    1.51193500000000
H        59.96619800000000    4.34943800000000    1.30107800000000
H        62.22258000000000    4.57242900000000   -0.40782500000000
H        64.26441100000000    3.86599400000000   -2.43856800000000
H        66.01868300000000    1.98595100000000   -2.24403400000000
H        66.07318200000000   -1.93913300000000    2.15170200000000
H        64.23681000000001   -3.74129400000000    2.33566600000000
H        61.99555300000000   -4.43887300000000    0.35781400000000
Fe       77.61813300000001    0.03627700000000    0.00145000000000
C        75.33832300000000   -3.22517000000000   -0.90821600000000
C        74.38211300000002   -2.32582000000000   -1.01024200000000
C        74.77448700000001   -1.16351500000000   -0.20772600000000
C        74.13937100000000   -0.01224200000000    0.00454000000000
C        74.82482800000000    1.26235700000000    0.23076900000000
C        74.48953800000000    2.34095700000000    0.93500900000000
C        75.51407900000001    3.36027400000000    0.84442800000000
C        76.46467600000000    2.86334900000000    0.07106300000000
N        76.08768200000000    1.54674400000000   -0.34508000000000
C        77.71181600000000    3.47505100000000   -0.34580200000000
C        78.81336800000000    2.80779400000000   -0.67757400000000
C        79.80691400000001    3.05977800000000   -1.71174400000000
C        80.70079700000001    2.09891900000000   -1.61026000000000
C        80.32109900000000    1.18703500000000   -0.50628300000000
N        79.22618400000000    1.63635400000000    0.00108400000000
C        80.97830600000000   -0.01224200000000    0.00454000000000
C        80.35489500000000   -1.08142400000000    0.46605700000000
C        80.73360700000001   -2.01354000000000    1.54153200000000
C        79.79293900000000   -2.92768600000000    1.62739800000000
C        78.78463700000000   -2.63190700000000    0.62997100000000
N        79.12241200000000   -1.57852900000000   -0.01932400000000
C        77.53224400000001   -3.33891400000000    0.29877800000000
C        76.41836700000000   -2.74221700000000   -0.04856400000000
N        76.03625500000000   -1.45946000000000    0.36911900000000
H        75.33866700000000   -4.21624400000000   -1.39945000000000
H        73.47357900000000   -2.44751400000000   -1.59139000000000
H        73.56468599999999    2.45930900000000    1.51193500000000
H        75.54137400000000    4.34943800000000    1.30107800000000
H        77.79775600000001    4.57242900000000   -0.40782500000000
H        79.83958600000000    3.86599400000000   -2.43856800000000
H        81.59385899999999    1.98595100000000   -2.24403400000000
H        81.64835700000000   -1.93913300000000    2.15170200000000
H        79.81198500000001   -3.74129400000000    2.33566600000000
H        77.57072800000000   -4.43887300000000    0.35781400000000
Fe       93.19330900000000    0.03627700000000    0.00145000000000
C        90.91349800000002   -3.22517000000000   -0.90821600000000
C        89.95728900000000   -2.32582000000000   -1.01024200000000
C        90.34966300000001   -1.16351500000000   -0.20772600000000
C        89.71454600000000   -0.01224200000000    0.00454000000000
C        90.40000400000001    1.26235700000000    0.23076900000000
C        90.06471300000000    2.34095700000000    0.93500900000000
C        91.08925499999999    3.36027400000000    0.84442800000000
C        92.03985200000000    2.86334900000000    0.07106300000000
N        91.66285800000000    1.54674400000000   -0.34508000000000
C        93.28699100000000    3.47505100000000   -0.34580200000000
C        94.38854300000000    2.80779400000000   -0.67757400000000
C        95.38209000000001    3.05977800000000   -1.71174400000000
C        96.27597299999999    2.09891900000000   -1.61026000000000
C        95.89627500000000    1.18703500000000   -0.50628300000000
N        94.80135900000001    1.63635400000000    0.00108400000000
C        96.55348200000002   -0.01224200000000    0.00454000000000
C        95.93007000000000   -1.08142400000000    0.46605700000000
C        96.30878300000001   -2.01354000000000    1.54153200000000
C        95.36811400000001   -2.92768600000000    1.62739800000000
C        94.35981300000002   -2.63190700000000    0.62997100000000
N        94.69758800000001   -1.57852900000000   -0.01932400000000
C        93.10742000000000   -3.33891400000000    0.29877800000000
C        91.99354300000000   -2.74221700000000   -0.04856400000000
N        91.61143100000000   -1.45946000000000    0.36911900000000
H        90.91384300000001   -4.21624400000000   -1.39945000000000
H        89.04875400000000   -2.44751400000000   -1.59139000000000
H        89.13986100000000    2.45930900000000    1.51193500000000
H        91.11654900000001    4.34943800000000    1.30107800000000
H        93.37293099999999    4.57242900000000   -0.40782500000000
H        95.41476200000000    3.86599400000000   -2.43856800000000
H        97.16903400000000    1.98595100000000   -2.24403400000000
H        97.22353300000000   -1.93913300000000    2.15170200000000
H        95.38716100000002   -3.74129400000000    2.33566600000000
H        93.14590400000000   -4.43887300000000    0.35781400000000
242
 energy: -439.955594659676 gnorm: 0.843525481936 xtb: 6.4.1 (bd6e46d)
Fe       28.98106658458224    0.03776056339300   -0.01190091490446
C        31.30401605304673   -3.11488138154536    1.30827843013382
C        32.22967992597462   -2.16331113019423    1.26004803673560
C        31.80802736844276   -1.11465025143123    0.34141719920413
C        32.41899507432716    0.02531079530794   -0.00898959712042
C        31.71958853066137    1.22651340356648   -0.36425134090576
C        32.05999990846708    2.21138879336549   -1.23222718494525
C        31.03781321465770    3.21160237081917   -1.24634491417180
C        30.07579287473543    2.82108937358912   -0.38151449558966
N        30.47284543790243    1.59192459161705    0.17780392446199
C        28.83318448898511    3.48077219011698   -0.01161812876190
C        27.71625963955666    2.83458182790508    0.34246889520942
C        26.65668408510781    3.16706175492023    1.30291372323065
C        25.79974933538215    2.15871901967584    1.23574162516791
C        26.24712830908053    1.16172157097730    0.26067671697516
N        27.37570374483732    1.59463286696180   -0.22856213029732
C        25.63446705000075   -0.07827920768925   -0.15711006656636
C        26.30988241353374   -1.20258123352387   -0.41905509490532
C        25.92721472957582   -2.25642229984230   -1.36786756282438
C        26.88695959659494   -3.16583849725630   -1.28423636460633
C        27.87323782935263   -2.72451690573200   -0.30477773580963
N        27.51631506875240   -1.55875790048745    0.18795659164113
C        29.08514080196668   -3.37728243267861    0.13972992126161
C        30.22788464914049   -2.71570943138860    0.41238982465903
N        30.54688469054930   -1.47878092432771   -0.17592942584423
H        31.36276935618081   -4.01574540060012    1.92477870274672
H        33.13905991337781   -2.20114248018131    1.83708472078785
H        32.97835544040059    2.21314443652902   -1.81980836781280
H        31.03757396565631    4.11265254566904   -1.84855194121373
H        28.77886055565747    4.57183248148860   -0.01142024649660
H        26.60192400534686    4.03954310278607    1.93314980784721
H        24.90304137989499    2.12573436960279    1.84883229270361
H        24.54573162907831   -0.08693685718844   -0.26224169240009
H        25.06488835485140   -2.30859344273499   -2.01943323065460
H        26.88248015203309   -4.07007027895529   -1.88112706047424
H        29.06120921728603   -4.46546560851858    0.25636094802664
Fe      110.60154842430040   -0.00944275175798   -0.01632253208950
C       108.27860298489438    2.84355122920582    1.86580575651121
C       107.35294289193035    1.91744683909145    1.64187355383547
C       107.77461929549717    1.05742015433097    0.54465074170716
C       107.16363173280685    0.00230070674698   -0.01114852795452
C       107.86302977367089   -1.11219100645731   -0.58308287816501
C       107.52262238078561   -1.91895981002796   -1.61869095961580
C       108.54480107726545   -2.89918922875607   -1.81812306130571
C       109.50682608606301   -2.67589306837731   -0.89585897969522
N       109.10976284646881   -1.57183340041951   -0.11822564183754
C       110.74942766687604   -3.39275101256225   -0.65477058241295
C       111.86635746103495   -2.82345861353445   -0.18694897474605
C       112.92592965316544   -3.32834655362249    0.69514357787258
C       113.78286812539083   -2.32504622413264    0.81619570109225
C       113.33549122568964   -1.16446632420115    0.04301638805984
N       112.20691173810131   -1.49911055101505   -0.51804411952785
C       113.94814904048799    0.13150884686491   -0.13747815050804
C       113.27272931585759    1.28489602524801   -0.18630528089670
C       113.65540119474862    2.49645759975636   -0.92314343208300
C       112.69565409020855    3.37457504936590   -0.67225275453436
C       111.70937883638763    2.75921224134551    0.20833094900432
N       112.06630538918193    1.52227992214358    0.47625151525125
C       110.49747543808689    3.31818737955576    0.76622044855800
C       109.35473417868540    2.61751029273580    0.91141610723045
N       109.03575282409335    1.51119276652746    0.10384825939834
H       108.21984715295808    3.61441256952962    2.63872793646763
H       106.44355633124511    1.84757582310915    2.21591857946001
H       106.60426151367543   -1.81167694179022   -2.19641555062497
H       108.54504359316851   -3.67288427011937   -2.57704325447606
H       110.80375685609783   -4.46490858492627   -0.85698670182610
H       112.98069241956189   -4.30260465491816    1.15258040883664
H       114.67957578333811   -2.40637333315862    1.42476700945654
H       115.03688499905785    0.15952386003436   -0.23917823363211
H       114.51772821960468    2.66860027399577   -1.55372033456175
H       112.70013603707950    4.37384368565520   -1.09103581687102
H       110.52140722588737    4.36584294637874    1.08270154602214
C        35.40056185830812    0.02448752005704   -0.00325808366425
C        36.62517336594775   -0.00094762168741   -0.01379092387185
C        38.02659883798027   -0.02169475624890   -0.01802655378654
C        39.25147021814425   -0.02384609886359   -0.01791004222993
C        40.62050214627848   -0.00565935079021   -0.01848123173837
C        41.80958490208253    0.03208526467070   -0.00484280893242
C        51.03706401360150    0.03038626660728   -0.00318797751095
C        52.23242561000139   -0.00113877169385   -0.01350914132149
C        53.60510738236535   -0.02157034619042   -0.01849901887600
C        54.82863670675830   -0.02380523088875   -0.01791739262239
C        56.19600159468233   -0.00566669910919   -0.01845308229493
C        57.38476675366157    0.03205946441870   -0.00506538786302
C        66.61218819680677    0.03038351492225   -0.00304898717662
C        67.80761705349468   -0.00111142026212   -0.01348342437107
C        69.18028033654177   -0.02158041506133   -0.01852776299685
C        70.40381027945135   -0.02380469984518   -0.01791204415131
C        71.77120612340352   -0.00565836193374   -0.01845013007121
C        72.95991647443834    0.03205044719946   -0.00510273605411
C        82.18730328887668    0.03037795293327   -0.00302395352929
C        83.38290279239267   -0.00111072712850   -0.01346790935629
C        84.75537104405554   -0.02158473675736   -0.01853187164766
C        85.97906559060782   -0.02380284216229   -0.01791494936144
C        87.34632268324573   -0.00565527081206   -0.01845170080432
C        88.53506267146059    0.03203507132985   -0.00510609823076
C        97.76265370235292    0.03046949172467   -0.00294074211904
C        98.95830147369105   -0.00099302252547   -0.01334088096554
C       100.33318988486675   -0.02157675020397   -0.01852792983962
C       101.55832164724318   -0.02390712696125   -0.01811521829085
C       102.95935595231266   -0.00571902124080   -0.01836043290561
C       104.18217273074598    0.02439705817839   -0.00323855384540
Fe       46.46471248362054    0.03718518234933    0.00023077602181
C        44.19068987225149   -3.23682028841543   -0.90663899266824
C        43.22801805902879   -2.32302876951503   -1.00738158354572
C        43.65546767426353   -1.18285971902237   -0.21003946034980
C        43.05305175715078   -0.00216129542424    0.00554653600272
C        43.70195680522581    1.26720778448228    0.22774054098804
C        43.33401236325210    2.35735001507239    0.94356232659572
C        44.34850276418309    3.36222268210211    0.85097997899280
C        45.32244049710092    2.85259958391136    0.06542411188948
N        44.94889841040081    1.54369823628042   -0.34177715251336
C        46.55253755976633    3.47781240480787   -0.34530692143972
C        47.67030553463743    2.80185422216268   -0.67855727713195
C        48.65688477325845    3.06537665620322   -1.70723817800021
C        49.56192726566749    2.09067785174745   -1.61032397945854
C        49.16386751380092    1.19182952903393   -0.51717213111442
N        48.05702010087830    1.63452960052383   -0.00223660687875
C        49.78353454073486   -0.00171771484316   -0.00118127859294
C        49.18024364719202   -1.09873697003386    0.47501703869288
C        49.59075443439493   -2.00874174663928    1.53748600334645
C        48.63835613042156   -2.93783376638208    1.62826427921058
C        47.62721019363774   -2.64200312129825    0.63599929111432
N        47.96612852715339   -1.56335966571647   -0.01862828806259
C        46.39658761882781   -3.34508477895961    0.30500160819235
C        45.25717997925769   -2.73474881676442   -0.05295053050988
N        44.89094501155044   -1.45760032583042    0.35810132637380
H        44.19000083175246   -4.21356171959970   -1.39755979986873
H        42.32391182341555   -2.44347125122076   -1.58961443096618
H        42.41507833802229    2.46008414117800    1.51178066496527
H        44.38729551783155    4.34677288086417    1.30170551804248
H        46.64138818026177    4.57004301175927   -0.40989005973935
H        48.68644119005675    3.86520277080171   -2.43575124082875
H        50.44217606318072    1.98373132272517   -2.24201540700307
H        50.49485850120301   -1.93705289182905    2.14808916844571
H        48.65895007047678   -3.74329122541249    2.33578756301810
H        46.42212763686550   -4.43718989051355    0.35670931882035
Fe       62.03984722158289    0.03712165264304    0.00065477062650
C        59.76555136149167   -3.23678210693694   -0.90674864873742
C        58.80312736295583   -2.32337028663682   -1.00736221875238
C        59.23051941264124   -1.18264087835458   -0.20945110478574
C        58.62844120875196   -0.00235385952550    0.00544031708297
C        59.27716390412414    1.26732079810424    0.22746506452159
C        58.90926258231982    2.35751287770571    0.94363500203833
C        59.92345736682532    3.36221693580947    0.85100636393834
C        60.89768323854916    2.85256814380169    0.06521518282962
N        60.52399473846851    1.54368737424548   -0.34178942481508
C        62.12751204233011    3.47773560534731   -0.34516994529298
C        63.24562858341253    2.80173296666875   -0.67857490884950
C        64.23200013159301    3.06537178498370   -1.70727236051645
C        65.13715280913746    2.09066049305310   -1.61032532336551
C        64.73890923888648    1.19203148532584   -0.51729862149889
N        63.63226121877700    1.63455455418900   -0.00247871023408
C        65.35868756813539   -0.00189670811133   -0.00107022490137
C        64.75553402563386   -1.09872191656504    0.47495320691157
C        65.16601916014523   -2.00883794388185    1.53751003312700
C        64.21359635703877   -2.93774270226258    1.62837590279979
C        63.20256715267267   -2.64164693369099    0.63597570684755
N        63.54129895413177   -1.56364586612791   -0.01869763283349
C        61.97144932023303   -3.34507462219064    0.30480011100931
C        60.83264832918221   -2.73466933882705   -0.05280613190295
N        60.46623715880300   -1.45753502998056    0.35796512161558
H        59.76514509035631   -4.21356243362752   -1.39758366964265
H        57.89908075896186   -2.44349297688571   -1.58966154480535
H        57.99026334404054    2.46009387792138    1.51182808344172
H        59.96244975728287    4.34677338127059    1.30172573390280
H        62.21655998150332    4.57003478109314   -0.40981248020860
H        64.26161849074749    3.86520954044710   -2.43574737018679
H        66.01735581076431    1.98373256759130   -2.24201547159742
H        66.07004787192604   -1.93706570410137    2.14810506305773
H        64.23412443765297   -3.74327281549528    2.33580500615714
H        61.99729604002904   -4.43718654546038    0.35661724228760
Fe       77.61500050189321    0.03712164054308    0.00067037806678
C        75.34065709547730   -3.23678318192997   -0.90675992796743
C        74.37830835555124   -2.32344152326895   -1.00737286197893
C        74.80569530271384   -1.18257622002855   -0.20939157065012
C        74.20363778936694   -0.00239740960882    0.00542118982485
C        74.85235392056660    1.26733548257841    0.22746751341715
C        74.48445883970804    2.35752406065899    0.94365386688124
C        75.49861057086599    3.36222030974680    0.85100388573016
C        76.47288143499905    2.85257526070261    0.06518687508807
N        76.09914829239338    1.54367113958050   -0.34177734094230
C        77.70264518318369    3.47772135344451   -0.34514451042011
C        78.82082617061282    2.80172249093915   -0.67858564940838
C        79.80715250371664    3.06537812395070   -1.70727208061842
C        80.71232623475274    2.09064295192260   -1.61032626628665
C        80.31402841331605    1.19209955067189   -0.51732482592321
N        79.20748446515572    1.63456150442497   -0.00250269881026
C        80.93391200783266   -0.00193694921216   -0.00104386132431
C        80.33076311945706   -1.09875473171326    0.47496298341169
C        80.74122136075081   -2.00881405845481    1.53747903322643
C        79.78873645496014   -2.93772022848426    1.62838824252554
C        78.77783333664084   -2.64155187806040    0.63602207614918
N        79.11647290002468   -1.56372509602180   -0.01869331823147
C        77.54648668125674   -3.34508941119622    0.30473024506900
C        76.40790238073475   -2.73470783115508   -0.05274980236336
N        76.04142295810568   -1.45747083045431    0.35796276507340
H        75.34031231653380   -4.21356413225125   -1.39758887506194
H        73.47425791115259   -2.44349793724409   -1.58967290814799
H        73.56544098863053    2.46009618056840    1.51183372909972
H        75.53762097938412    4.34677778231802    1.30172367905682
H        77.79173504743498    4.57003345016544   -0.40980302750054
H        79.83679340311699    3.86521183889294   -2.43574535790891