242
 energy: -441.490272603169 gnorm: 0.000308167211 xtb: 6.4.1 (bd6e46d)
Fe       29.70431705871155   -0.00163139684879   -0.01233157287422
C        32.20488009690676   -3.38944596049841    0.02653751130779
C        33.19671585954756   -2.46807530274488    0.02442281084507
C        32.55568388730606   -1.18901160974864    0.00942166387100
C        33.23142657948068    0.03539888433528   -0.00007547512906
C        32.53032536816717    1.24534491111044   -0.01185630588715
C        33.14447956890508    2.53758028673470   -0.01919407514482
C        32.13356804640341    3.43796899925740   -0.02494679245301
C        30.90950308427211    2.68984382554377   -0.02167652520711
N        31.17333653615383    1.34517607957016   -0.01416375669440
C        29.66725603238384    3.29362133001748   -0.02499546450095
C        28.43957969679697    2.66137764046745   -0.02539567436179
C        27.19594488124642    3.38101151524348   -0.03077577920300
C        26.20870193539243    2.45744834273627   -0.03400727455670
C        26.85208392639662    1.17562466327806   -0.03009404923690
N        28.20980512849560    1.31342831510045   -0.02411703213005
C        26.19479564967989   -0.03850065601189   -0.03302110652315
C        26.87736352312384   -1.23858607148519   -0.02663335859026
C        26.26101173831592   -2.53362944694724   -0.02766098750580
C        27.26737609477881   -3.43625255563307   -0.01588246949636
C        28.49560224228345   -2.69066005478358   -0.00808788988217
N        28.23763889205602   -1.34784965932030   -0.01560204074122
C        29.73621369216952   -3.29694395761989    0.00639606173956
C        30.96547134060404   -2.66718668023836    0.01245889666883
N        31.20111528486072   -1.31728619678006    0.00318773129713
H        32.28535689222686   -4.45926388536589    0.03627742277801
H        34.25888602170881   -2.61790021232632    0.03207946865070
H        34.20331958005107    2.70961241557594   -0.01932215991132
H        32.19164203943784    4.50926509814068   -0.03100843321726
H        29.65599554665088    4.37442217607027   -0.02855935013642
H        27.11392577550104    4.45097524809622   -0.03212333178117
H        25.14627099597296    2.60655347078030   -0.03850331557159
H        25.11592806699983   -0.04980498466206   -0.03984181039428
H        25.20197340752985   -2.70502821823222   -0.03605186628587
H        27.20782692482539   -4.50769858250011   -0.01263669117136
H        29.74764135550968   -4.37772786111702    0.01301669014490
Fe      109.90739329220214    0.03375505291282   -0.01071580137202
C       107.41419549363457    3.36819234534613    0.61964084695029
C       106.42037880741066    2.46425719179001    0.45273538312910
C       107.05869451669707    1.20583854274963    0.21582102409782
C       106.38037249509441    0.00297471316541   -0.00486035986884
C       107.07870452497170   -1.18821564543386   -0.22591112393945
C       106.46165881133150   -2.45798213785384   -0.45848050721029
C       107.47054799233446   -3.34493444427544   -0.62615080141991
C       108.69627802074631   -2.61111554863374   -0.49517321146828
N       108.43547812435857   -1.28848337609737   -0.24945270418667
C       109.93716656156755   -3.20653853644813   -0.61098053175656
C       111.16620032770305   -2.58636190966210   -0.50256147011197
C       112.40824493528540   -3.29541265596439   -0.64085714397564
C       113.39750755483716   -2.38840235452786   -0.47867517037570
C       112.75695385176721   -1.12727780745611   -0.24137816231814
N       111.39893909914278   -1.26120197348264   -0.25851808818295
C       113.41692337721948    0.06566077352786   -0.02351951826727
C       112.73703020561976    1.24625961843423    0.20026606686475
C       113.35628955493429    2.51852574311568    0.43455628706891
C       112.35192721033356    3.40697257377848    0.60645630540947
C       111.12201349087347    2.67560504361223    0.47639438323178
N       111.37698055992053    1.35532552541489    0.22816621117384
C       109.88273354446301    3.27329096492013    0.59403576676816
C       108.65207880012318    2.65614208386734    0.48308966201000
N       108.41356128739315    1.32960984794067    0.23565319480742
H       107.33600660875922    4.41989539144844    0.81683642683436
H       105.35851450029639    2.61329955537381    0.48348281525276
H       105.40243677746670   -2.62544967023055   -0.48580942013361
H       107.41009103254991   -4.39826458895627   -0.82088761774374
H       109.94603926104179   -4.26932297028824   -0.80764863412195
H       112.48789790919717   -4.34759290820288   -0.83611930431258
H       114.45960007761396   -2.53622912511198   -0.51214405865425
H       114.49581804516650    0.07551794181543   -0.02783099831032
H       114.41572979343837    2.68573160953349    0.45978349165253
H       112.41385070148864    4.46010506161591    0.80301103462272
H       109.87368464534040    4.33565362655481    0.79295666969838
C        34.62712486216738    0.04932927084503    0.00207597299984
C        35.84673742529483    0.05795822434911    0.00377155941560
C        37.18355613146312    0.06606158775374    0.00379289730241
C        38.40762090727800    0.07160035453582    0.00022333288043
C        39.74431784532607    0.07338280371248   -0.00152647409141
C        40.96413510541043    0.07247424670004   -0.00224783322207
C        50.81797532488292    0.04288145405168   -0.02529780871630
C        52.03778141813549    0.03896029223224   -0.02463873333453
C        53.37434625960280    0.03600202755833   -0.02537090953268
C        54.59836747814215    0.03550001768354   -0.02513223303480
C        55.93517452814545    0.03457925781249   -0.02484182593075
C        57.15473183025999    0.03455210691639   -0.02395016397853
C        66.63827256575350    0.03650503583153   -0.02058456291362
C        67.85769721002873    0.03736813418650   -0.02061690914638
C        69.19459494454421    0.03777571686087   -0.02074382323417
C        70.41842700800896    0.03846948779337   -0.02050316986161
C        71.75532464892673    0.04006117679807   -0.02010774031293
C        72.97474840096520    0.04058532272803   -0.02002714493120
C        82.45762206642360    0.04788122793869   -0.02267484534961
C        83.67715475377082    0.04672474021336   -0.02270174587915
C        85.01393290327910    0.04562926174917   -0.02331670155496
C        86.23793863781192    0.04321733557124   -0.02340590556908
C        87.57446464661795    0.03942543957005   -0.02297414222661
C        88.79424680896307    0.03532902882592   -0.02130898380514
C        98.64756988109768   -0.01453574784699   -0.01228508140587
C        99.86733482145689   -0.01817983286268   -0.01016175196921
C       101.20408465528935   -0.01951909452215   -0.00838383639573
C       102.42809411358591   -0.01837151251472   -0.00618332936826
C       103.76498892651577   -0.01394635387943   -0.00477876970444
C       104.98456503841726   -0.00788211969731   -0.00479407215653
Fe       45.89116412349731    0.05788222258712   -0.01580466779623
C        43.41443525285446   -3.32661913943637    0.37080808401185
C        42.41487690179176   -2.41901473627157    0.27016079351693
C        43.04538021320837   -1.14279990190332    0.12624626413445
C        42.35922147392608    0.06911410932461   -0.00630852607959
C        43.05218209150836    1.27665616220468   -0.14276337309557
C        42.42907503728784    2.55684311219711   -0.28360524109010
C        43.43385431463646    3.45800198637105   -0.39017527515513
C        44.66256016070135    2.72205309966699   -0.31350377605354
N        44.40776825336564    1.38402697517490   -0.16107953033605
C        45.90051162152437    3.32908435038536   -0.38979612217372
C        47.13502089457727    2.71355404344620   -0.32572119490660
C        48.36793787400421    3.44087153192076   -0.41549640788372
C        49.36747201560581    2.53330364806633   -0.31385935888866
C        48.73692491000506    1.25794876068322   -0.16307646698325
N        47.38200170103745    1.37430010090996   -0.17156445902358
C        49.42301894871307    0.04681981885036   -0.02348553169999
C        48.73008029588206   -1.16014259416336    0.11824937655754
C        49.35326936425189   -2.43952986330663    0.26541787863210
C        48.34850389783302   -3.34091003573868    0.37043746511644
C        47.11981314709173   -2.60576335708835    0.28692585663371
N        47.37450403772026   -1.26797544577542    0.13265338055123
C        45.88177204940612   -3.21347451946496    0.35692320860834
C        44.64736119073920   -2.59849937648848    0.28765731248168
N        44.40030494636123   -1.25880076070630    0.13709738490604
H        43.34299389547930   -4.39041710706246    0.49033708652178
H        41.35396930649954   -2.57645004732507    0.28916242577991
H        41.36909344673505    2.72102068678233   -0.29686269007683
H        43.36858431412770    4.52219825613040   -0.50972978388884
H        45.90362014052666    4.40300605904497   -0.51277243451351
H        48.43947463831614    4.50414101338206   -0.53954163772903
H        50.42838235083820    2.69025799497568   -0.33642989117658
H        50.41325290511501   -2.60320082523508    0.28303643611963
H        48.41386537849612   -4.40474689681424    0.49305376834987
H        45.87865038078426   -4.28746166137286    0.47930575747206
Fe       61.89657667433195    0.03539201754368   -0.02219195951823
C        59.40748555661393   -3.41298211185821    0.38055081646318
C        58.48070841373270   -2.43326466038879    0.26572924368460
C        59.19919602421275   -1.20023923600221    0.12151057488632
C        58.55431235300515    0.03474296251985   -0.02343746862832
C        59.19880979045689    1.26999564439696   -0.16786693989224
C        58.47996692272039    2.50275107772504   -0.31262653456146
C        59.40646116956456    3.48281059884047   -0.42681004751825
C        60.68454131894061    2.84278023376133   -0.35110929863835
N        60.54297629640243    1.49114135875925   -0.19302786744064
C        61.89604598644217    3.49890730139838   -0.42710011630112
C        63.10784879565487    2.84335230379275   -0.34974910239574
C        64.38575414893657    3.48386568758680   -0.42390825586922
C        65.31247421580449    2.50408941778899   -0.30899070590449
C        64.59389734745578    1.27107789395343   -0.16525840610255
N        63.24966699564099    1.49178034194908   -0.19174919605271
C        65.23866927107036    0.03605569179530   -0.02080885364526
C        64.59430748942907   -1.19924226113893    0.12302753073304
C        65.31324692514308   -2.43201708221371    0.26696562635917
C        64.38680832234222   -3.41215976481836    0.38110099904317
C        63.10871022829765   -2.77211725105743    0.30612124649232
N        63.25013465020656   -1.42047859959848    0.14838445736909
C        61.89709337339495   -3.42813809275420    0.38257964107872
C        60.68538781886500   -2.77247362579736    0.30579930331462
N        60.54342665296431   -1.42087814345375    0.14765609321387
H        59.25821654895288   -4.46797199216960    0.50398308252595
H        57.41138335199538   -2.51708569985451    0.27536546730734
H        57.41062439097892    2.58619561219197   -0.32302733688000
H        59.25689323710284    4.53774071903820   -0.55038343519727
H        61.89587525103165    4.57090446333172   -0.55246911038009
H        64.53515777258951    4.53886503832243   -0.54710170012004
H        66.38179848299671    2.58787870944217   -0.31825162390553
H        66.38260210657332   -2.51538395840191    0.27699627987679
H        64.53651178373011   -4.46712295907426    0.50424073591250
H        61.89723012956876   -4.50015066126567    0.50782898929363
Fe       77.71615895179795    0.04411401606995   -0.02178281429833
C        75.22926574615165   -3.40592221681971    0.38120300450417
C        74.30199221452713   -2.42673150825506    0.26573615808443
C        75.01986984589264   -1.19321896958075    0.12264768142463
C        74.37435361739871    0.04154451841473   -0.02077377942821
C        75.01785386460200    1.27729659689667   -0.16456045440982
C        74.29797462299270    2.50967592415084   -0.30724984859668
C        75.22365929618265    3.49028489125232   -0.42339580500245
C        76.50223604303507    2.85092039913766   -0.35083731166570
N        76.36186232562956    1.49926246293413   -0.19228637293543
C        77.71335059127777    3.50742773728765   -0.43094962020273
C        78.92545513486691    2.85230212569206   -0.35597775267984
C        80.20301097482891    3.49306251353075   -0.43449418262039
C        81.13030185525054    2.51392583575921   -0.31890625545410
C        80.41245064125916    1.28101210198236   -0.17050784935391
N        79.06811006570480    1.50108934869162   -0.19519266612709
C        81.05806415356106    0.04678952783320   -0.02259251574739
C        80.41452645656523   -1.18853200597182    0.12556822863712
C        81.13434151400683   -2.42035037033779    0.27358110141165
C        80.20861800578433   -3.40092439390524    0.38957476502782
C        78.93003963323999   -2.76214038339179    0.31175115745895
N        79.07053702160815   -1.41070900957224    0.15089896805711
C        77.71900075355083   -3.41917421296657    0.38732109694238
C        76.50680645740647   -2.76456971673158    0.30794063332274
N        76.36423431219029   -1.41312225863816    0.14952992542856
H        75.08047582643134   -4.46103546101200    0.50420322274891
H        73.23271035565760   -2.51121393116469    0.27427984185511
H        73.22855988413362    2.59250134277513   -0.31515282375002
H        75.07315158516869    4.54514962456472   -0.54642349681067
H        77.71245936050526    4.57926609545069   -0.55764604888749
H        80.35172661211179    4.54780380647341   -0.56071729757837
H        82.19958860798307    2.59806164738766   -0.33056855242570
H        82.20374806943168   -2.50289693481248    0.28467851262486
H        80.35903358376210   -4.45544011046525    0.51567957543929
H        77.71987949377747   -4.49102400113637    0.51392517000377
Fe       93.72075647637301    0.00995121229576   -0.01975159593276
C        91.23583945640391   -3.36827720485395    0.36966147688047
C        90.23854383479186   -2.45850570269307    0.26588653439509
C        90.87225853673495   -1.18432677489392    0.11839973441365
C        90.18916421633020    0.02842125847621   -0.02181815706171
C        90.88491928498634    1.23392717443896   -0.16183167727628
C        90.26471133617380    2.51455375096040   -0.31083642001988
C        91.27158172914199    3.41373875507819   -0.41454039874761
C        92.49855604609954    2.67607171079468   -0.32789295161407
N        92.24073920629478    1.33892285779599   -0.17327191527827
C        93.73803815129270    3.28106951801584   -0.39579178851510
C        94.97092416990357    2.66352441778596   -0.32222291923341
C        96.20565166536790    3.38890501298147   -0.40269197277406
C        97.20296538744198    2.47949751144411   -0.29631762506654
C        96.56930822049850    1.20488575256709   -0.15184631253727
N        95.21465391563358    1.32362805497117   -0.16814399140838
C        97.25240971499380   -0.00817707636942   -0.01475871227905
C        96.55666036802259   -1.21425973307989    0.11965015813666
C        97.17680901017754   -2.49541979710041    0.26468358290498
C        96.16992080619717   -3.39467846785457    0.36717217753400
C        94.94292643448215   -2.65657606356214    0.28404745132348
N        95.20080582013863   -1.31913093480659    0.13188541906036
C        93.70353611041718   -3.26136632599786    0.35436444303004
C        92.47055246425241   -2.64340639899015    0.28500934960887
N        92.22688622178941   -1.30350822898745    0.13110452429862
H        91.16169367559232   -4.43155441527332    0.49212546507056
H        89.17724807009377   -2.61329149991341    0.28468531113005
H        89.20510345345858    2.68041178676724   -0.33080981051189
H        91.20870657202795    4.47762526815689   -0.53803773480419
H        93.74377472581696    4.35487881151725   -0.51962013448317
H        96.27970533777967    4.45226572130060   -0.52450403608165
H        98.26426012145028    2.63467577689574   -0.31211034800723
H        98.23641956328460   -2.66146546679347    0.28330596251632
H        96.23270132754192   -4.45887023158846    0.48806448837599
H        93.69783539867836   -4.33529303842449    0.47716585490734
