 Entering Gaussian System
 *********************************************
 Gaussian 98:
 frequency output generated by the xtb code
 *********************************************
                         Standard orientation:
 --------------------------------------------------------------------
  Center     Atomic     Atomic              Coordinates (Angstroms)
  Number     Number      Type              X           Y           Z
 --------------------------------------------------------------------
    1          6             0        3.359410   -3.013629   -0.326003
    2          6             0        2.287971   -2.199793   -0.260332
    3          6             0        2.809845   -0.870836    0.003170
    4          6             0        1.990096    0.263547    0.157659
    5          6             0        2.474480    1.563309    0.376495
    6          6             0        1.711536    2.746286    0.566235
    7          6             0        2.588035    3.779331    0.733259
    8          6             0        3.906243    3.248678    0.656015
    9          7             0        3.784748    1.909208    0.442846
   10          6             0        5.090491    3.960976    0.777063
   11          6             0        6.383861    3.459372    0.739983
   12          6             0        7.559805    4.305147    0.886682
   13          6             0        8.623923    3.483638    0.823636
   14          6             0        8.089751    2.143234    0.638185
   15          7             0        6.741323    2.167364    0.588069
   16          6             0        8.888200    1.010694    0.538702
   17          6             0        8.426630   -0.284123    0.359591
   18          6             0        9.191127   -1.480554    0.246064
   19          6             0        8.318607   -2.512592    0.065798
   20          6             0        6.998637   -1.974241    0.065466
   21          7             0        7.116975   -0.632866    0.248928
   22          6             0        5.815667   -2.677735   -0.103738
   23          6             0        4.523956   -2.172013   -0.109024
   24          7             0        4.151820   -0.883545    0.079015
   25          1             0        3.394306   -4.071212   -0.504542
   26          1             0        1.249718   -2.435441   -0.388108
   27          1             0        0.640184    2.785275    0.585703
   28          1             0        2.353965    4.812769    0.900010
   29          1             0        4.548521    1.249331    0.351721
   30          1             0        4.990815    5.027375    0.925699
   31          1             0        7.532918    5.370078    1.017636
   32          1             0        9.668453    3.720692    0.891389
   33          1             0        9.957448    1.150193    0.605891
   34          1             0       10.261550   -1.529492    0.296152
   35          1             0        8.552815   -3.552335   -0.056962
   36          1             0        6.355694    0.033507    0.297649
   37          1             0        5.912602   -3.744387   -0.253040
   38          6             0        0.600538    0.095676    0.091032
   39          6             0       -0.603793   -0.044786    0.040680
   40          6             0       -8.319612    2.353908   -1.193616
   41          6             0       -9.174320    1.331976   -1.002929
   42          6             0       -8.357032    0.181898   -0.648484
   43          6             0       -8.883576   -1.075731   -0.381725
   44          6             0       -8.145625   -2.198629   -0.040711
   45          6             0       -8.623152   -3.509273    0.247086
   46          6             0       -7.542734   -4.286588    0.542710
   47          6             0       -6.377238   -3.471779    0.443022
   48          7             0       -6.792089   -2.227716    0.086564
   49          6             0       -5.068414   -3.864430    0.679190
   50          6             0       -3.922601   -3.087187    0.594121
   51          6             0       -2.602410   -3.611386    0.900481
   52          6             0       -1.739222   -2.594672    0.711190
   53          6             0       -2.541355   -1.462341    0.284377
   54          7             0       -3.845339   -1.784448    0.232290
   55          6             0       -1.994448   -0.202615   -0.026798
   56          6             0       -2.755480    0.916499   -0.401200
   57          6             0       -2.276802    2.208839   -0.744986
   58          6             0       -3.361314    2.987025   -1.030532
   59          6             0       -4.526431    2.184840   -0.874077
   60          7             0       -4.108675    0.945131   -0.496091
   61          6             0       -5.838356    2.589580   -1.072667
   62          6             0       -6.986699    1.819490   -0.953759
   63          7             0       -7.048666    0.512442   -0.625550
   64          1             0       -8.529308    3.370374   -1.467108
   65          1             0      -10.244384    1.318825   -1.084341
   66          1             0       -9.956236   -1.188297   -0.444670
   67          1             0       -9.654861   -3.802384    0.228064
   68          1             0       -7.538657   -5.326378    0.806919
   69          1             0       -6.200631   -1.419726   -0.066495
   70          1             0       -4.925781   -4.896446    0.969145
   71          1             0       -2.402443   -4.616917    1.217499
   72          1             0       -0.676456   -2.573556    0.852291
   73          1             0       -1.242011    2.487619   -0.779546
   74          1             0       -3.364482    4.018090   -1.326281
   75          1             0       -4.703503    0.145116   -0.313386
   76          1             0       -5.978508    3.622755   -1.359317
 --------------------------------------------------------------------
     1 basis functions        1 primitive gaussians
     1 alpha electrons        1 beta electrons

 Harmonic frequencies (cm**-1), IR intensities (km*mol⁻¹),
 Raman scattering activities (A**4/amu), Raman depolarization ratios,
 reduced masses (AMU), force constants (mDyne/A) and normal coordinates:
                      1                      2                      3
                        a                      a                      a 
 Frequencies --     9.6697                10.9591                12.1851
 Red. masses --    11.3773                11.2566                11.3157
 Frc consts  --     0.0000                 0.0000                 0.0000
 IR Inten    --     0.1011                 0.3860                 0.6503
 Raman Activ --     0.0000                 0.0000                 0.0000
 Depolar     --     0.0000                 0.0000                 0.0000
 Atom AN      X      Y      Z        X      Y      Z        X      Y      Z
   1   6     0.03   0.01  -0.15    -0.02  -0.01   0.12    -0.12   0.08  -0.12
   2   6     0.03   0.01  -0.18    -0.01   0.00   0.07    -0.09   0.12  -0.10
   3   6     0.02   0.00  -0.14    -0.01   0.01   0.03    -0.05   0.09  -0.06
   4   6     0.01  -0.00  -0.15    -0.00   0.02  -0.02    -0.01   0.12  -0.04
   5   6    -0.00  -0.00  -0.13     0.01   0.03  -0.08     0.03   0.10  -0.04
   6   6    -0.01  -0.00  -0.16     0.02   0.04  -0.14     0.07   0.13  -0.05
   7   6    -0.02  -0.00  -0.12     0.03   0.04  -0.19     0.10   0.09  -0.03
   8   6    -0.02  -0.00  -0.06     0.03   0.03  -0.16     0.09   0.05  -0.01
   9   7    -0.01  -0.00  -0.08     0.02   0.02  -0.10     0.04   0.06  -0.02
  10   6    -0.02  -0.00   0.00     0.03   0.02  -0.20     0.11   0.00   0.01
  11   6    -0.02  -0.01   0.08     0.03   0.01  -0.16     0.09  -0.05   0.04
  12   6    -0.03  -0.01   0.15     0.04   0.01  -0.19     0.12  -0.09   0.08
  13   6    -0.02  -0.01   0.21     0.03  -0.00  -0.13     0.09  -0.13   0.10
  14   6    -0.02  -0.01   0.17     0.02  -0.01  -0.05     0.05  -0.11   0.07
  15   7    -0.01  -0.01   0.10     0.02  -0.00  -0.08     0.05  -0.06   0.04
  16   6    -0.01  -0.01   0.21     0.01  -0.03   0.04     0.01  -0.14   0.07
  17   6    -0.00  -0.01   0.16     0.00  -0.03   0.11    -0.04  -0.12   0.03
  18   6     0.00  -0.00   0.19    -0.01  -0.05   0.19    -0.08  -0.14   0.02
  19   6     0.01  -0.00   0.12    -0.02  -0.05   0.23    -0.11  -0.10  -0.02
  20   6     0.01   0.00   0.05    -0.02  -0.03   0.17    -0.09  -0.06  -0.04
  21   7     0.00  -0.00   0.09    -0.00  -0.02   0.11    -0.05  -0.07  -0.00
  22   6     0.02   0.01  -0.03    -0.02  -0.02   0.18    -0.11  -0.01  -0.08
  23   6     0.02   0.01  -0.09    -0.01  -0.01   0.12    -0.09   0.04  -0.08
  24   7     0.01   0.00  -0.09    -0.01   0.00   0.06    -0.05   0.05  -0.06
  25   1     0.01   0.00  -0.05    -0.01  -0.00   0.05    -0.04   0.02  -0.04
  26   1     0.01   0.00  -0.07    -0.00   0.00   0.01    -0.03   0.05  -0.03
  27   1    -0.00  -0.00  -0.06     0.01   0.02  -0.04     0.02   0.05  -0.02
  28   1    -0.01  -0.00  -0.04     0.01   0.02  -0.07     0.04   0.03  -0.01
  29   1    -0.00  -0.00  -0.01     0.00   0.00  -0.02     0.01   0.01  -0.00
  30   1    -0.01  -0.00   0.00     0.01   0.01  -0.08     0.04   0.00   0.00
  31   1    -0.01  -0.00   0.05     0.01   0.00  -0.08     0.05  -0.03   0.03
  32   1    -0.01  -0.00   0.08     0.01  -0.00  -0.04     0.03  -0.05   0.04
  33   1    -0.00  -0.00   0.08     0.00  -0.01   0.01     0.00  -0.05   0.03
  34   1    -0.00  -0.00   0.07    -0.00  -0.02   0.06    -0.02  -0.05   0.01
  35   1     0.01   0.00   0.03    -0.01  -0.02   0.09    -0.04  -0.03  -0.01
  36   1     0.00  -0.00   0.01     0.00  -0.00   0.01    -0.01  -0.01  -0.00
  37   1     0.01   0.00  -0.01    -0.01  -0.01   0.07    -0.04  -0.00  -0.03
  38   6     0.01  -0.01  -0.18    -0.00   0.03  -0.02    -0.02   0.15  -0.02
  39   6     0.01  -0.01  -0.18    -0.00   0.03  -0.01    -0.02   0.15   0.01
  40   6    -0.03   0.01   0.12    -0.04   0.03   0.21    -0.09  -0.13  -0.07
  41   6    -0.03   0.02   0.19    -0.03   0.01   0.15    -0.06  -0.16  -0.09
  42   6    -0.02   0.02   0.16    -0.02  -0.01   0.07    -0.02  -0.12  -0.06
  43   6    -0.01   0.03   0.21    -0.01  -0.03  -0.00     0.03  -0.14  -0.06
  44   6    -0.00   0.03   0.17     0.01  -0.04  -0.08     0.06  -0.11  -0.03
  45   6     0.00   0.03   0.21     0.03  -0.06  -0.16     0.10  -0.12  -0.02
  46   6     0.01   0.03   0.15     0.04  -0.07  -0.20     0.13  -0.07   0.03
  47   6     0.01   0.01   0.07     0.03  -0.04  -0.16     0.10  -0.03   0.04
  48   7     0.00   0.02   0.10     0.01  -0.03  -0.09     0.06  -0.06   0.01
  49   6     0.02   0.00  -0.00     0.03  -0.04  -0.17     0.11   0.02   0.08
  50   6     0.02  -0.01  -0.07     0.02  -0.02  -0.13     0.08   0.07   0.08
  51   6     0.04  -0.01  -0.13     0.02  -0.02  -0.14     0.09   0.12   0.11
  52   6     0.03  -0.02  -0.16     0.02  -0.00  -0.09     0.06   0.15   0.09
  53   6     0.02  -0.01  -0.13     0.01   0.01  -0.05     0.02   0.11   0.06
  54   7     0.02  -0.01  -0.08     0.01  -0.00  -0.07     0.04   0.07   0.06
  55   6     0.01  -0.01  -0.15    -0.00   0.02  -0.00    -0.02   0.12   0.03
  56   6    -0.00  -0.02  -0.14    -0.02   0.03   0.06    -0.05   0.09   0.03
  57   6    -0.01  -0.02  -0.17    -0.04   0.05   0.11    -0.10   0.11   0.04
  58   6    -0.01  -0.02  -0.14    -0.05   0.06   0.17    -0.12   0.07   0.03
  59   6    -0.01  -0.01  -0.08    -0.04   0.04   0.15    -0.09   0.03   0.01
  60   7    -0.00  -0.01  -0.09    -0.02   0.03   0.09    -0.06   0.05   0.02
  61   6    -0.02  -0.01  -0.02    -0.04   0.04   0.19    -0.11  -0.02  -0.01
  62   6    -0.02   0.00   0.05    -0.04   0.02   0.16    -0.08  -0.07  -0.03
  63   7    -0.01   0.01   0.08    -0.03   0.00   0.09    -0.04  -0.08  -0.03
  64   1    -0.01   0.00   0.03    -0.02   0.01   0.08    -0.04  -0.04  -0.02
  65   1    -0.01   0.01   0.07    -0.01   0.00   0.05    -0.02  -0.06  -0.03
  66   1    -0.01   0.01   0.08    -0.00  -0.01  -0.00     0.01  -0.05  -0.03
  67   1    -0.00   0.01   0.08     0.01  -0.02  -0.05     0.03  -0.05  -0.01
  68   1     0.00   0.01   0.05     0.02  -0.02  -0.08     0.05  -0.02   0.01
  69   1     0.00   0.00   0.01    -0.00  -0.00  -0.01     0.01  -0.01   0.00
  70   1     0.01   0.00  -0.00     0.01  -0.02  -0.07     0.04   0.01   0.03
  71   1     0.01  -0.00  -0.04     0.01  -0.01  -0.05     0.04   0.04   0.04
  72   1     0.01  -0.01  -0.06     0.00   0.00  -0.02     0.02   0.05   0.03
  73   1    -0.00  -0.01  -0.06    -0.01   0.02   0.03    -0.03   0.04   0.01
  74   1    -0.01  -0.01  -0.05    -0.02   0.02   0.06    -0.05   0.02   0.01
  75   1    -0.00  -0.00  -0.01    -0.00   0.00   0.02    -0.01   0.01   0.00
  76   1    -0.01  -0.00  -0.01    -0.02   0.02   0.07    -0.04  -0.01  -0.00
                      4                      5                      6
                        a                      a                      a 
 Frequencies --    31.8922                41.5281                42.1192
 Red. masses --    11.3506                11.5752                10.8798
 Frc consts  --     0.0000                 0.0000                 0.0000
 IR Inten    --     2.0642                 0.1381                 2.1865
 Raman Activ --     0.0000                 0.0000                 0.0000
 Depolar     --     0.0000                 0.0000                 0.0000
 Atom AN      X      Y      Z        X      Y      Z        X      Y      Z
   1   6    -0.07   0.02   0.19    -0.10  -0.02  -0.13    -0.01  -0.05   0.21
   2   6    -0.05   0.05   0.14    -0.07   0.02  -0.13    -0.01  -0.05   0.20
   3   6    -0.03   0.04   0.11    -0.02  -0.01  -0.06    -0.01  -0.03   0.08
   4   6    -0.01   0.06   0.08    -0.00  -0.00  -0.00    -0.00  -0.01  -0.02
   5   6     0.01   0.05   0.11    -0.03  -0.00   0.05    -0.00   0.00  -0.10
   6   6     0.03   0.05   0.14    -0.07  -0.04   0.12    -0.01   0.02  -0.21
   7   6     0.05   0.03   0.18    -0.12  -0.01   0.13    -0.01   0.02  -0.19
   8   6     0.04   0.01   0.17    -0.10   0.06   0.06    -0.01   0.00  -0.08
   9   7     0.02   0.02   0.14    -0.05   0.06   0.03    -0.01  -0.00  -0.04
  10   6     0.05  -0.01   0.14    -0.11   0.08   0.01    -0.02  -0.01   0.02
  11   6     0.05  -0.02   0.05    -0.12   0.06  -0.05    -0.02  -0.02   0.10
  12   6     0.06  -0.03  -0.03    -0.09   0.03  -0.12    -0.02  -0.02   0.21
  13   6     0.06  -0.03  -0.15    -0.12  -0.01  -0.12    -0.02  -0.02   0.19
  14   6     0.03  -0.03  -0.12    -0.17  -0.00  -0.06    -0.01  -0.01   0.08
  15   7     0.03  -0.02  -0.00    -0.18   0.04  -0.03    -0.01  -0.01   0.05
  16   6     0.02  -0.03  -0.18    -0.19  -0.02  -0.01    -0.01   0.01  -0.01
  17   6    -0.00  -0.03  -0.12    -0.17  -0.03   0.04     0.00   0.01  -0.10
  18   6    -0.02  -0.04  -0.13    -0.13  -0.01   0.11     0.01   0.03  -0.20
  19   6    -0.05  -0.04  -0.02    -0.09  -0.05   0.11     0.02   0.03  -0.19
  20   6    -0.04  -0.03   0.06    -0.10  -0.09   0.04     0.01   0.01  -0.08
  21   7    -0.02  -0.02  -0.00    -0.17  -0.09   0.01     0.00   0.00  -0.05
  22   6    -0.06  -0.02   0.16    -0.09  -0.10  -0.01     0.00  -0.01   0.01
  23   6    -0.05   0.00   0.17    -0.07  -0.07  -0.06    -0.00  -0.03   0.09
  24   7    -0.03   0.02   0.14    -0.03  -0.06  -0.03    -0.00  -0.02   0.04
  25   1    -0.03   0.00   0.06    -0.04  -0.00  -0.05    -0.00  -0.02   0.08
  26   1    -0.01   0.02   0.03    -0.02   0.02  -0.05    -0.00  -0.02   0.08
  27   1     0.01   0.02   0.04    -0.02  -0.03   0.05    -0.00   0.01  -0.08
  28   1     0.02   0.01   0.06    -0.05  -0.01   0.05    -0.00   0.01  -0.07
  29   1     0.00   0.00   0.03     0.00   0.04  -0.00    -0.00  -0.00   0.01
  30   1     0.02  -0.00   0.05    -0.03   0.02   0.00    -0.01  -0.00   0.01
  31   1     0.02  -0.01  -0.00    -0.02   0.01  -0.04    -0.01  -0.01   0.08
  32   1     0.02  -0.01  -0.07    -0.03  -0.01  -0.05    -0.01  -0.01   0.07
  33   1     0.01  -0.01  -0.08    -0.05  -0.01  -0.00    -0.00   0.00  -0.01
  34   1    -0.01  -0.01  -0.06    -0.04   0.01   0.04     0.00   0.01  -0.08
  35   1    -0.02  -0.01   0.00    -0.01  -0.01   0.04     0.01   0.01  -0.07
  36   1    -0.00  -0.00   0.01    -0.06  -0.04  -0.01    -0.00  -0.00   0.01
  37   1    -0.02  -0.01   0.06    -0.03  -0.03  -0.00     0.00  -0.00   0.00
  38   6    -0.01   0.08   0.03    -0.00   0.00   0.00    -0.00  -0.01  -0.03
  39   6    -0.01   0.08  -0.04     0.00   0.00   0.00    -0.01   0.01  -0.03
  40   6    -0.06  -0.04   0.04     0.08   0.05   0.08    -0.02   0.06   0.22
  41   6    -0.05  -0.02   0.15     0.12   0.03   0.09    -0.01   0.05   0.20
  42   6    -0.03  -0.02   0.12     0.16   0.04   0.05     0.01   0.02   0.09
  43   6    -0.01  -0.01   0.19     0.18   0.02   0.01     0.02  -0.01  -0.01
  44   6     0.01  -0.01   0.12     0.17   0.00  -0.03     0.03  -0.03  -0.10
  45   6     0.03  -0.02   0.13     0.13   0.01  -0.08     0.04  -0.05  -0.21
  46   6     0.06  -0.03   0.02     0.09  -0.03  -0.07     0.04  -0.05  -0.20
  47   6     0.05  -0.02  -0.06     0.12  -0.07  -0.02     0.03  -0.03  -0.09
  48   7     0.02  -0.02   0.00     0.18  -0.05   0.00     0.03  -0.02  -0.05
  49   6     0.07  -0.02  -0.15     0.11  -0.08   0.02     0.02   0.00   0.01
  50   6     0.05  -0.01  -0.17     0.09  -0.04   0.06     0.00   0.03   0.10
  51   6     0.06   0.01  -0.19     0.10   0.01   0.10    -0.01   0.08   0.22
  52   6     0.04   0.04  -0.14     0.06   0.04   0.09    -0.02   0.08   0.21
  53   6     0.02   0.03  -0.11     0.03   0.00   0.05    -0.01   0.04   0.08
  54   7     0.03   0.01  -0.14     0.05  -0.05   0.04    -0.00   0.02   0.04
  55   6    -0.00   0.05  -0.09     0.00  -0.00   0.00    -0.01   0.01  -0.02
  56   6    -0.02   0.03  -0.12     0.03  -0.00  -0.04     0.00  -0.02  -0.11
  57   6    -0.04   0.03  -0.15     0.08  -0.03  -0.09     0.01  -0.05  -0.22
  58   6    -0.05  -0.00  -0.19     0.12   0.01  -0.10     0.01  -0.04  -0.20
  59   6    -0.04  -0.02  -0.17     0.09   0.07  -0.06     0.00  -0.00  -0.08
  60   7    -0.02  -0.00  -0.14     0.03   0.06  -0.03    -0.00   0.01  -0.05
  61   6    -0.05  -0.04  -0.14     0.09   0.10  -0.02    -0.00   0.02   0.02
  62   6    -0.04  -0.04  -0.05     0.10   0.08   0.03    -0.01   0.04   0.10
  63   7    -0.03  -0.02   0.01     0.16   0.08   0.02     0.01   0.02   0.05
  64   1    -0.02  -0.01   0.01     0.01   0.02   0.03    -0.01   0.02   0.08
  65   1    -0.02  -0.01   0.07     0.03   0.00   0.04    -0.00   0.02   0.08
  66   1    -0.01  -0.00   0.08     0.05   0.01   0.00     0.01  -0.00  -0.01
  67   1     0.01  -0.00   0.06     0.03   0.01  -0.03     0.01  -0.02  -0.08
  68   1     0.02  -0.01  -0.00     0.02  -0.01  -0.03     0.01  -0.02  -0.07
  69   1     0.00  -0.00  -0.01     0.07  -0.02   0.01     0.01  -0.00   0.01
  70   1     0.03  -0.01  -0.06     0.03  -0.02   0.01     0.01   0.00   0.01
  71   1     0.02   0.00  -0.06     0.04   0.01   0.04    -0.00   0.03   0.09
  72   1     0.01   0.02  -0.04     0.02   0.02   0.03    -0.01   0.03   0.08
  73   1    -0.01   0.01  -0.04     0.03  -0.02  -0.03     0.00  -0.02  -0.09
  74   1    -0.02  -0.00  -0.06     0.05   0.00  -0.04     0.01  -0.02  -0.08
  75   1    -0.00  -0.00  -0.03    -0.01   0.03  -0.00    -0.00   0.01   0.01
  76   1    -0.02  -0.01  -0.05     0.02   0.03  -0.01    -0.00   0.01   0.01
                      7                      8                      9
                        a                      a                      a 
 Frequencies --    48.0417                51.8749                63.9206
 Red. masses --    11.2117                11.1515                11.2488
 Frc consts  --     0.0000                 0.0000                 0.0000
 IR Inten    --     1.2029                 1.9688                 0.8093
 Raman Activ --     0.0000                 0.0000                 0.0000
 Depolar     --     0.0000                 0.0000                 0.0000
 Atom AN      X      Y      Z        X      Y      Z        X      Y      Z
   1   6    -0.08   0.11  -0.08    -0.07  -0.06   0.20     0.08  -0.10  -0.05
   2   6    -0.07   0.12   0.05    -0.05  -0.03   0.18     0.06  -0.14   0.07
   3   6    -0.04   0.10   0.08    -0.02  -0.02   0.08     0.04  -0.13   0.09
   4   6    -0.03   0.10   0.14    -0.00   0.00  -0.00     0.04  -0.15   0.14
   5   6    -0.00   0.11   0.06    -0.01   0.02  -0.09     0.02  -0.13   0.09
   6   6     0.04   0.14  -0.00    -0.03   0.02  -0.19    -0.02  -0.15   0.06
   7   6     0.07   0.13  -0.12    -0.06   0.04  -0.20    -0.06  -0.10  -0.05
   8   6     0.05   0.09  -0.11    -0.05   0.06  -0.11    -0.05  -0.05  -0.08
   9   7     0.01   0.09  -0.01    -0.02   0.05  -0.06     0.00  -0.08   0.02
  10   6     0.07   0.07  -0.16    -0.06   0.05  -0.03    -0.07  -0.01  -0.16
  11   6     0.06   0.03  -0.07    -0.07   0.02   0.06    -0.06   0.01  -0.10
  12   6     0.08  -0.00  -0.04    -0.05  -0.01   0.16    -0.07   0.02  -0.10
  13   6     0.06  -0.04   0.09    -0.07  -0.04   0.16    -0.07   0.02   0.04
  14   6     0.03  -0.03   0.10    -0.10  -0.01   0.07    -0.05   0.00   0.09
  15   7     0.04   0.01   0.01    -0.10   0.02   0.03    -0.05  -0.00   0.01
  16   6     0.00  -0.05   0.15    -0.11  -0.01  -0.02    -0.04   0.01   0.16
  17   6    -0.02  -0.03   0.07    -0.09  -0.01  -0.09    -0.00   0.01   0.09
  18   6    -0.05  -0.05   0.03    -0.06   0.02  -0.18     0.04   0.04   0.04
  19   6    -0.07  -0.01  -0.09    -0.04  -0.00  -0.16     0.09   0.02  -0.08
  20   6    -0.06   0.03  -0.10    -0.05  -0.05  -0.06     0.07  -0.02  -0.10
  21   7    -0.03   0.01  -0.01    -0.09  -0.05  -0.04     0.02  -0.03   0.00
  22   6    -0.07   0.07  -0.16    -0.05  -0.07   0.04     0.09  -0.04  -0.16
  23   6    -0.06   0.09  -0.09    -0.05  -0.06   0.11     0.07  -0.08  -0.08
  24   7    -0.04   0.09   0.00    -0.02  -0.05   0.06     0.05  -0.11   0.01
  25   1    -0.03   0.04  -0.04    -0.03  -0.02   0.08     0.03  -0.03  -0.03
  26   1    -0.02   0.04   0.03    -0.02  -0.01   0.06     0.02  -0.05   0.04
  27   1     0.01   0.05   0.01    -0.01   0.00  -0.07    -0.01  -0.06   0.03
  28   1     0.03   0.04  -0.06    -0.02   0.01  -0.08    -0.03  -0.03  -0.03
  29   1    -0.00   0.01   0.00     0.00   0.02   0.01     0.01  -0.01   0.01
  30   1     0.03   0.02  -0.07    -0.02   0.02  -0.01    -0.03   0.00  -0.07
  31   1     0.03   0.00  -0.02    -0.01  -0.01   0.06    -0.02   0.01  -0.05
  32   1     0.02  -0.02   0.04    -0.02  -0.02   0.06    -0.02   0.01   0.02
  33   1     0.00  -0.02   0.06    -0.03  -0.00  -0.01    -0.01   0.01   0.07
  34   1    -0.02  -0.02   0.02    -0.02   0.02  -0.07     0.01   0.02   0.03
  35   1    -0.03  -0.00  -0.04    -0.00   0.00  -0.06     0.04   0.01  -0.04
  36   1    -0.00   0.01  -0.00    -0.04  -0.03   0.01    -0.00  -0.02   0.00
  37   1    -0.03   0.02  -0.07    -0.02  -0.02   0.02     0.03  -0.01  -0.07
  38   6    -0.03   0.08   0.21    -0.00   0.00  -0.00     0.03  -0.11   0.16
  39   6    -0.01  -0.06   0.22    -0.00   0.01   0.00     0.00   0.13   0.15
  40   6     0.08   0.01  -0.04     0.06  -0.02  -0.16    -0.07  -0.05  -0.09
  41   6     0.05   0.06   0.08     0.08  -0.04  -0.16    -0.06  -0.03   0.04
  42   6     0.02   0.05   0.09     0.10  -0.00  -0.06    -0.05  -0.01   0.09
  43   6    -0.01   0.07   0.14     0.11   0.01   0.02    -0.04   0.00   0.16
  44   6    -0.03   0.03   0.07     0.09   0.02   0.09    -0.00   0.01   0.09
  45   6    -0.06   0.04   0.02     0.05   0.06   0.17     0.05  -0.02   0.05
  46   6    -0.07  -0.02  -0.08     0.04   0.03   0.16     0.09  -0.01  -0.08
  47   6    -0.05  -0.06  -0.10     0.06  -0.02   0.06     0.06   0.02  -0.10
  48   7    -0.02  -0.02  -0.01     0.10  -0.02   0.04     0.01   0.04  -0.00
  49   6    -0.05  -0.10  -0.15     0.07  -0.06  -0.03     0.08   0.04  -0.16
  50   6    -0.04  -0.11  -0.08     0.06  -0.06  -0.10     0.05   0.09  -0.09
  51   6    -0.05  -0.14  -0.06     0.08  -0.06  -0.19     0.06   0.11  -0.07
  52   6    -0.04  -0.13   0.06     0.06  -0.04  -0.17     0.03   0.16   0.05
  53   6    -0.02  -0.10   0.10     0.02  -0.03  -0.08     0.01   0.15   0.07
  54   7    -0.02  -0.10   0.01     0.03  -0.05  -0.05     0.03   0.12   0.00
  55   6    -0.01  -0.09   0.15     0.00   0.00   0.00     0.00   0.17   0.12
  56   6     0.02  -0.10   0.08     0.00   0.03   0.08    -0.01   0.14   0.07
  57   6     0.07  -0.13   0.02     0.02   0.05   0.18    -0.06   0.15   0.04
  58   6     0.10  -0.13  -0.10     0.04   0.08   0.19    -0.08   0.08  -0.07
  59   6     0.08  -0.09  -0.10     0.03   0.08   0.10    -0.06   0.03  -0.08
  60   7     0.03  -0.08   0.00     0.01   0.06   0.05    -0.01   0.08   0.01
  61   6     0.09  -0.07  -0.15     0.04   0.07   0.02    -0.06  -0.03  -0.15
  62   6     0.07  -0.02  -0.07     0.06   0.03  -0.06    -0.06  -0.03  -0.09
  63   7     0.04  -0.00   0.01     0.09   0.04  -0.03    -0.05  -0.01   0.01
  64   1     0.03   0.00  -0.02     0.01  -0.01  -0.06    -0.02  -0.02  -0.05
  65   1     0.01   0.03   0.04     0.02  -0.02  -0.06    -0.02  -0.01   0.03
  66   1    -0.00   0.03   0.06     0.03   0.00   0.01    -0.01  -0.00   0.07
  67   1    -0.02   0.02   0.02     0.01   0.03   0.07     0.02  -0.01   0.03
  68   1    -0.03  -0.01  -0.04     0.00   0.01   0.06     0.04  -0.01  -0.04
  69   1     0.00  -0.01   0.00     0.04  -0.02  -0.00    -0.01   0.02  -0.00
  70   1    -0.02  -0.04  -0.06     0.02  -0.02  -0.01     0.03   0.01  -0.07
  71   1    -0.02  -0.05  -0.04     0.03  -0.02  -0.07     0.02   0.03  -0.03
  72   1    -0.01  -0.04   0.03     0.02  -0.01  -0.06     0.01   0.05   0.03
  73   1     0.02  -0.04   0.02     0.01   0.01   0.07    -0.02   0.06   0.02
  74   1     0.04  -0.04  -0.05     0.02   0.03   0.07    -0.03   0.02  -0.03
  75   1    -0.00  -0.01   0.00    -0.01   0.02  -0.01     0.01   0.01   0.00
  76   1     0.04  -0.02  -0.06     0.01   0.02   0.01    -0.02  -0.02  -0.07
                     10                     11                     12
                        a                      a                      a 
 Frequencies --    68.7423                79.6469                94.5513
 Red. masses --    11.7498                11.0224                10.8842
 Frc consts  --     0.0000                 0.0000                 0.0000
 IR Inten    --     0.2885                21.4227                13.5644
 Raman Activ --     0.0000                 0.0000                 0.0000
 Depolar     --     0.0000                 0.0000                 0.0000
 Atom AN      X      Y      Z        X      Y      Z        X      Y      Z
   1   6    -0.03  -0.03   0.00     0.01  -0.02   0.03    -0.02  -0.03   0.17
   2   6     0.03   0.05  -0.01     0.01  -0.01  -0.10    -0.02  -0.04   0.18
   3   6     0.12   0.01  -0.01     0.01   0.01  -0.18    -0.00   0.00  -0.05
   4   6     0.16   0.05  -0.01     0.01   0.01  -0.20     0.00   0.00  -0.04
   5   6     0.13   0.06  -0.00     0.01   0.01  -0.18     0.01   0.00  -0.04
   6   6     0.05   0.01  -0.01    -0.00  -0.01  -0.09     0.01  -0.03   0.17
   7   6    -0.03   0.07   0.00    -0.01  -0.03   0.04     0.01  -0.03   0.17
   8   6     0.01   0.16   0.02    -0.00  -0.02   0.02     0.01   0.01  -0.05
   9   7     0.11   0.16   0.01     0.00   0.01  -0.15     0.01   0.03  -0.20
  10   6    -0.01   0.18   0.04    -0.01  -0.03   0.16     0.01   0.01  -0.05
  11   6    -0.03   0.13   0.03    -0.01  -0.01   0.11     0.01   0.02  -0.08
  12   6     0.02   0.04   0.03    -0.02  -0.02   0.21     0.00  -0.01   0.14
  13   6    -0.04  -0.03   0.00    -0.01   0.01   0.04    -0.00  -0.02   0.16
  14   6    -0.13   0.01  -0.01     0.01   0.03  -0.13     0.00   0.01  -0.05
  15   7    -0.14   0.11   0.01     0.01   0.02  -0.09     0.01   0.03  -0.21
  16   6    -0.18  -0.02  -0.03     0.01   0.04  -0.20    -0.00   0.00  -0.00
  17   6    -0.14  -0.03  -0.02     0.01   0.03  -0.12    -0.00   0.01  -0.04
  18   6    -0.06   0.01  -0.02     0.00   0.01   0.04    -0.02  -0.02   0.17
  19   6     0.01  -0.05  -0.00    -0.00  -0.02   0.21    -0.01  -0.01   0.14
  20   6    -0.02  -0.14  -0.01     0.00  -0.01   0.11    -0.00   0.01  -0.08
  21   7    -0.13  -0.14  -0.02     0.01   0.02  -0.09     0.00   0.03  -0.22
  22   6    -0.00  -0.17  -0.00     0.00  -0.02   0.16    -0.00   0.01  -0.06
  23   6     0.02  -0.11  -0.00     0.01  -0.01   0.01    -0.00   0.00  -0.06
  24   7     0.12  -0.09  -0.00     0.01   0.01  -0.15     0.01   0.03  -0.21
  25   1    -0.03  -0.01   0.00     0.00  -0.01   0.04    -0.01  -0.02   0.09
  26   1     0.00   0.03  -0.00     0.00  -0.00  -0.04    -0.01  -0.02   0.10
  27   1     0.01  -0.02  -0.01    -0.00  -0.00  -0.03     0.00  -0.02   0.09
  28   1    -0.03   0.02   0.00    -0.00  -0.01   0.04     0.00  -0.02   0.09
  29   1     0.06   0.08   0.01     0.00   0.00  -0.04     0.00   0.01  -0.09
  30   1     0.00   0.05   0.01    -0.01  -0.02   0.09     0.00  -0.00   0.02
  31   1     0.03   0.01   0.01    -0.01  -0.01   0.11    -0.00  -0.01   0.08
  32   1    -0.01  -0.03  -0.00    -0.00   0.00   0.01    -0.00  -0.01   0.09
  33   1    -0.05  -0.01  -0.01     0.00   0.01  -0.07    -0.00  -0.01   0.04
  34   1    -0.02   0.03  -0.01     0.00   0.00   0.02    -0.01  -0.01   0.10
  35   1     0.03  -0.01   0.00    -0.00  -0.01   0.11    -0.01  -0.01   0.08
  36   1    -0.06  -0.07  -0.01     0.00   0.01  -0.04     0.00   0.01  -0.09
  37   1    -0.01  -0.05   0.00     0.00  -0.01   0.09    -0.00  -0.00   0.01
  38   6     0.16   0.04  -0.00     0.00   0.00  -0.10    -0.00   0.00   0.02
  39   6     0.16  -0.01  -0.00    -0.01   0.01   0.09    -0.00   0.00   0.02
  40   6     0.03  -0.03   0.03     0.02  -0.04  -0.21    -0.01   0.03   0.14
  41   6    -0.04   0.02   0.00     0.00   0.00  -0.03    -0.01   0.03   0.15
  42   6    -0.13  -0.04  -0.01    -0.01   0.04   0.12     0.01  -0.02  -0.05
  43   6    -0.18  -0.02  -0.03    -0.02   0.06   0.20     0.00  -0.01  -0.01
  44   6    -0.15  -0.00  -0.03    -0.02   0.04   0.12     0.00  -0.01  -0.04
  45   6    -0.06  -0.03  -0.01    -0.01  -0.00  -0.04    -0.02   0.04   0.16
  46   6     0.00   0.06  -0.01     0.01  -0.04  -0.20    -0.02   0.03   0.14
  47   6    -0.05   0.14  -0.03     0.00  -0.02  -0.11     0.00  -0.02  -0.07
  48   7    -0.16   0.11  -0.04    -0.02   0.03   0.08     0.02  -0.06  -0.20
  49   6    -0.04   0.17  -0.02     0.00  -0.04  -0.16     0.00  -0.01  -0.05
  50   6    -0.00   0.11  -0.02    -0.00  -0.01  -0.01     0.00  -0.01  -0.06
  51   6    -0.04   0.02  -0.00    -0.01  -0.03  -0.02    -0.03   0.05   0.15
  52   6     0.04  -0.04   0.00    -0.01   0.00   0.11    -0.03   0.05   0.16
  53   6     0.12   0.01  -0.01    -0.01   0.03   0.18    -0.00  -0.01  -0.05
  54   7     0.10   0.11  -0.02    -0.01   0.03   0.14     0.02  -0.05  -0.20
  55   6     0.17  -0.01  -0.00    -0.01   0.03   0.20     0.00  -0.01  -0.04
  56   6     0.14  -0.03   0.00    -0.01   0.03   0.18     0.01  -0.01  -0.05
  57   6     0.05  -0.00  -0.01     0.00   0.00   0.10    -0.00   0.05   0.15
  58   6    -0.01  -0.08   0.01     0.01  -0.03  -0.03    -0.00   0.05   0.15
  59   6     0.04  -0.15   0.04     0.01  -0.02  -0.02     0.01  -0.01  -0.05
  60   7     0.14  -0.13   0.03    -0.01   0.02   0.14     0.02  -0.05  -0.18
  61   6     0.03  -0.18   0.06     0.02  -0.05  -0.16     0.01  -0.01  -0.04
  62   6    -0.01  -0.13   0.04     0.01  -0.03  -0.10     0.01  -0.02  -0.07
  63   7    -0.11  -0.14   0.02    -0.01   0.02   0.09     0.02  -0.06  -0.20
  64   1     0.03  -0.00   0.01     0.01  -0.02  -0.11    -0.00   0.02   0.08
  65   1    -0.01   0.03  -0.00     0.00   0.00  -0.01    -0.01   0.02   0.09
  66   1    -0.05  -0.00  -0.01    -0.01   0.02   0.07    -0.00   0.01   0.03
  67   1    -0.01  -0.03  -0.00    -0.00  -0.00  -0.02    -0.01   0.02   0.09
  68   1     0.02   0.02  -0.00     0.01  -0.02  -0.10    -0.01   0.02   0.08
  69   1    -0.08   0.06  -0.02    -0.01   0.01   0.04     0.01  -0.02  -0.08
  70   1    -0.02   0.05  -0.00     0.00  -0.02  -0.09    -0.00   0.00   0.02
  71   1    -0.03   0.00   0.00    -0.00  -0.02  -0.03    -0.01   0.03   0.09
  72   1     0.01  -0.03   0.00    -0.00   0.00   0.04    -0.01   0.03   0.09
  73   1     0.01   0.02  -0.01     0.00   0.00   0.03    -0.00   0.03   0.08
  74   1    -0.03  -0.02   0.00     0.01  -0.02  -0.04    -0.00   0.03   0.08
  75   1     0.07  -0.06   0.02    -0.00   0.01   0.04     0.01  -0.02  -0.08
  76   1     0.01  -0.05   0.02     0.01  -0.03  -0.09    -0.00   0.01   0.02
                     13                     14                     15
                        a                      a                      a 
 Frequencies --   101.1281               111.2654               116.4768
 Red. masses --    10.7333                10.7445                10.8394
 Frc consts  --     0.0000                 0.0000                 0.0000
 IR Inten    --    13.6920                 0.1999                 0.5070
 Raman Activ --     0.0000                 0.0000                 0.0000
 Depolar     --     0.0000                 0.0000                 0.0000
 Atom AN      X      Y      Z        X      Y      Z        X      Y      Z
   1   6     0.02   0.02  -0.20     0.02   0.01  -0.17     0.01   0.01  -0.10
   2   6     0.02   0.02  -0.23     0.01  -0.00  -0.07     0.02   0.03  -0.21
   3   6     0.00  -0.01  -0.02     0.00  -0.03   0.09    -0.00  -0.00  -0.03
   4   6     0.00  -0.01  -0.02    -0.00  -0.04   0.16    -0.01  -0.01   0.02
   5   6    -0.00  -0.01  -0.02    -0.00  -0.03   0.08    -0.00  -0.01   0.03
   6   6    -0.00   0.02  -0.22    -0.00   0.01  -0.14     0.00  -0.04   0.19
   7   6    -0.01   0.02  -0.19    -0.01   0.02  -0.20     0.00  -0.02   0.06
   8   6    -0.01  -0.02   0.04    -0.01  -0.01  -0.01     0.00   0.01  -0.15
   9   7    -0.00  -0.03   0.14    -0.00  -0.04   0.16     0.00   0.01  -0.18
  10   6    -0.01  -0.02   0.10    -0.01  -0.01   0.05     0.00   0.02  -0.20
  11   6    -0.01  -0.01   0.12    -0.01  -0.01   0.06     0.00   0.01  -0.11
  12   6    -0.01   0.01  -0.05    -0.02  -0.02   0.19    -0.01  -0.01   0.12
  13   6    -0.00   0.03  -0.15    -0.01  -0.00   0.05    -0.01  -0.02   0.21
  14   6    -0.00   0.01   0.00     0.00   0.02  -0.13     0.00   0.00   0.02
  15   7    -0.01  -0.02   0.18    -0.00   0.01  -0.12     0.01   0.02  -0.16
  16   6     0.00   0.02  -0.07     0.01   0.03  -0.20     0.01   0.01  -0.04
  17   6     0.00   0.01  -0.00     0.01   0.02  -0.13     0.01   0.01  -0.06
  18   6     0.02   0.03  -0.14     0.00  -0.01   0.12     0.01   0.03  -0.19
  19   6     0.01   0.02  -0.05    -0.00  -0.03   0.22     0.00   0.01  -0.06
  20   6     0.00  -0.01   0.12     0.01  -0.01   0.02    -0.01  -0.01   0.14
  21   7    -0.00  -0.02   0.19     0.01   0.02  -0.19    -0.00  -0.01   0.14
  22   6     0.01  -0.01   0.09     0.01  -0.01  -0.01    -0.01  -0.02   0.21
  23   6     0.01  -0.01   0.04     0.01  -0.00  -0.05    -0.01  -0.02   0.12
  24   7    -0.01  -0.03   0.14     0.00  -0.03   0.08    -0.01  -0.03   0.16
  25   1     0.01   0.01  -0.10     0.01   0.01  -0.09     0.01   0.01  -0.05
  26   1     0.01   0.01  -0.11     0.00   0.00  -0.03     0.01   0.02  -0.12
  27   1    -0.00   0.01  -0.11    -0.00   0.01  -0.07     0.00  -0.02   0.11
  28   1    -0.00   0.01  -0.09    -0.00   0.01  -0.11     0.00  -0.01   0.04
  29   1    -0.00  -0.01   0.07    -0.00  -0.01   0.08     0.00   0.01  -0.08
  30   1    -0.01  -0.00   0.01    -0.00  -0.00   0.02     0.00   0.00  -0.05
  31   1    -0.00   0.01  -0.04    -0.01  -0.01   0.10    -0.00  -0.01   0.06
  32   1     0.00   0.02  -0.09    -0.00  -0.00   0.02    -0.00  -0.01   0.12
  33   1     0.00   0.01  -0.07     0.00   0.01  -0.06     0.00   0.00  -0.02
  34   1     0.01   0.01  -0.08    -0.00  -0.01   0.07     0.01   0.01  -0.11
  35   1     0.01   0.01  -0.04    -0.00  -0.02   0.12     0.00   0.00  -0.03
  36   1    -0.00  -0.01   0.07     0.01   0.01  -0.09    -0.00  -0.01   0.07
  37   1     0.00  -0.00   0.01     0.00  -0.00   0.01    -0.00  -0.01   0.06
  38   6     0.00  -0.01  -0.03    -0.00  -0.03   0.19    -0.01  -0.01   0.05
  39   6    -0.00  -0.01   0.04    -0.01   0.05   0.18    -0.01   0.02   0.06
  40   6     0.00   0.02   0.06    -0.03   0.04   0.18    -0.01   0.03   0.13
  41   6    -0.01   0.05   0.15    -0.01   0.01   0.05    -0.02   0.05   0.20
  42   6    -0.00   0.01  -0.00     0.01  -0.03  -0.12     0.00  -0.00   0.00
  43   6    -0.01   0.03   0.07     0.02  -0.05  -0.19     0.01  -0.01  -0.05
  44   6    -0.01   0.01  -0.00     0.01  -0.03  -0.12     0.01  -0.02  -0.07
  45   6    -0.02   0.05   0.14    -0.00   0.02   0.11     0.02  -0.04  -0.15
  46   6    -0.02   0.02   0.06    -0.01   0.05   0.21     0.00  -0.01  -0.03
  47   6     0.00  -0.03  -0.12     0.01   0.01   0.02    -0.01   0.03   0.12
  48   7     0.01  -0.04  -0.19     0.02  -0.04  -0.17    -0.00   0.02   0.09
  49   6    -0.00  -0.03  -0.09     0.01   0.01  -0.00    -0.01   0.04   0.18
  50   6    -0.00  -0.02  -0.04     0.01  -0.00  -0.05    -0.01   0.03   0.11
  51   6    -0.03   0.04   0.20     0.02  -0.03  -0.16     0.02  -0.03  -0.10
  52   6    -0.03   0.05   0.23     0.01  -0.01  -0.08     0.02  -0.05  -0.19
  53   6    -0.00  -0.01   0.02    -0.01   0.04   0.08    -0.00   0.00  -0.00
  54   7     0.02  -0.05  -0.15    -0.01   0.04   0.08    -0.02   0.04   0.16
  55   6     0.00  -0.01   0.02    -0.01   0.06   0.14    -0.01   0.02   0.05
  56   6     0.00  -0.01   0.02    -0.01   0.04   0.07    -0.01   0.02   0.05
  57   6    -0.01   0.05   0.23    -0.00  -0.02  -0.13    -0.01   0.05   0.15
  58   6    -0.00   0.04   0.19    -0.00  -0.04  -0.19    -0.00   0.02   0.02
  59   6     0.01  -0.02  -0.04    -0.01   0.01  -0.02     0.01  -0.03  -0.14
  60   7     0.01  -0.05  -0.14    -0.01   0.05   0.14     0.00  -0.03  -0.13
  61   6     0.02  -0.03  -0.10    -0.01   0.02   0.04     0.01  -0.04  -0.18
  62   6     0.02  -0.03  -0.12    -0.01   0.02   0.06     0.00  -0.02  -0.10
  63   7     0.02  -0.04  -0.19     0.00  -0.03  -0.12     0.01  -0.04  -0.16
  64   1     0.00   0.01   0.04    -0.01   0.02   0.10    -0.01   0.02   0.07
  65   1    -0.01   0.03   0.09    -0.00   0.00   0.02    -0.01   0.03   0.11
  66   1    -0.01   0.02   0.07     0.00  -0.02  -0.05     0.00  -0.01  -0.02
  67   1    -0.01   0.03   0.09    -0.00   0.01   0.06     0.01  -0.02  -0.09
  68   1    -0.01   0.01   0.04    -0.01   0.03   0.11     0.00  -0.00  -0.01
  69   1     0.01  -0.02  -0.07     0.01  -0.02  -0.08    -0.00   0.01   0.04
  70   1    -0.00  -0.00  -0.01     0.00   0.01   0.01    -0.00   0.01   0.05
  71   1    -0.02   0.02   0.10     0.01  -0.02  -0.09     0.01  -0.02  -0.06
  72   1    -0.01   0.03   0.11     0.01  -0.01  -0.03     0.01  -0.03  -0.11
  73   1    -0.00   0.03   0.11     0.00  -0.01  -0.07    -0.01   0.03   0.09
  74   1    -0.00   0.02   0.09     0.00  -0.02  -0.10    -0.00   0.01   0.02
  75   1     0.01  -0.02  -0.07    -0.00   0.02   0.07     0.00  -0.01  -0.05
  76   1     0.01  -0.00  -0.01    -0.01   0.01   0.01     0.00  -0.01  -0.05
                     16                     17                     18
                        a                      a                      a 
 Frequencies --   118.5924               123.1708               142.3372
 Red. masses --    10.8046                11.1510                12.0203
 Frc consts  --     0.0000                 0.0000                 0.0000
 IR Inten    --     0.0172                 0.1159                 0.0503
 Raman Activ --     0.0000                 0.0000                 0.0000
 Depolar     --     0.0000                 0.0000                 0.0000
 Atom AN      X      Y      Z        X      Y      Z        X      Y      Z
   1   6     0.00  -0.01   0.05    -0.01  -0.04   0.18     0.10   0.11   0.03
   2   6     0.01   0.01  -0.08    -0.01  -0.04   0.18     0.10   0.10   0.03
   3   6     0.00   0.01  -0.13     0.00   0.01  -0.08     0.08   0.11   0.02
   4   6     0.00   0.02  -0.14     0.01   0.02  -0.14    -0.00   0.05   0.01
   5   6     0.01   0.01  -0.10     0.00   0.02  -0.14    -0.10   0.08   0.01
   6   6     0.00  -0.03   0.15    -0.00   0.02  -0.13    -0.11   0.07   0.02
   7   6     0.00  -0.04   0.18    -0.01  -0.01   0.04    -0.12   0.08   0.02
   8   6     0.01   0.00  -0.05    -0.01  -0.01   0.11    -0.12   0.08   0.00
   9   7     0.01   0.03  -0.23     0.00   0.01  -0.01    -0.12   0.09   0.00
  10   6     0.01   0.00  -0.06    -0.01  -0.02   0.18    -0.06  -0.01  -0.01
  11   6     0.01   0.01  -0.05    -0.01  -0.01   0.11    -0.10  -0.12  -0.03
  12   6     0.01   0.01  -0.07     0.00   0.02  -0.17    -0.10  -0.12  -0.02
  13   6     0.00   0.00   0.02     0.00   0.02  -0.22    -0.10  -0.12  -0.01
  14   6     0.00  -0.01   0.09    -0.01  -0.01   0.05    -0.09  -0.12  -0.02
  15   7     0.01  -0.01   0.05    -0.02  -0.03   0.23    -0.11  -0.13  -0.04
  16   6     0.00  -0.01   0.09    -0.01  -0.01   0.10     0.01  -0.05  -0.00
  17   6     0.00  -0.01   0.07    -0.01  -0.01   0.10     0.11  -0.09  -0.01
  18   6     0.01   0.03  -0.19    -0.01  -0.01   0.07     0.12  -0.09   0.00
  19   6     0.01   0.03  -0.17     0.00   0.00  -0.06     0.12  -0.09  -0.00
  20   6    -0.00  -0.00   0.09     0.00   0.01  -0.09     0.12  -0.08  -0.01
  21   7    -0.01  -0.02   0.24    -0.01  -0.01   0.01     0.13  -0.09  -0.02
  22   6    -0.00  -0.01   0.13     0.00   0.01  -0.11     0.07   0.01   0.00
  23   6    -0.00  -0.01   0.08     0.00   0.01  -0.07     0.10   0.11   0.02
  24   7    -0.00   0.01  -0.04     0.01   0.03  -0.23     0.10   0.13   0.02
  25   1     0.00  -0.01   0.04    -0.01  -0.02   0.10     0.03   0.03   0.01
  26   1     0.00   0.00  -0.04    -0.01  -0.02   0.10     0.03   0.03   0.01
  27   1     0.00  -0.02   0.08    -0.00   0.01  -0.07    -0.03   0.02   0.01
  28   1     0.00  -0.02   0.10    -0.00  -0.01   0.03    -0.03   0.02   0.01
  29   1     0.00   0.01  -0.10     0.00   0.00   0.00    -0.03   0.03   0.00
  30   1     0.00  -0.00  -0.01    -0.00  -0.01   0.06     0.01  -0.00  -0.00
  31   1     0.00   0.01  -0.04     0.00   0.01  -0.10    -0.03  -0.04  -0.00
  32   1     0.00   0.00   0.01     0.00   0.01  -0.13    -0.03  -0.03   0.00
  33   1     0.00  -0.00   0.01    -0.00  -0.00   0.02    -0.00   0.01   0.01
  34   1     0.01   0.01  -0.11    -0.00  -0.00   0.04     0.03  -0.03   0.00
  35   1     0.00   0.01  -0.10     0.00   0.00  -0.03     0.03  -0.03   0.00
  36   1    -0.00  -0.01   0.11    -0.00  -0.00   0.01     0.03  -0.03  -0.01
  37   1     0.00  -0.00   0.04     0.00   0.00  -0.03    -0.01   0.00  -0.00
  38   6     0.00   0.01  -0.06     0.00   0.02  -0.07     0.01  -0.03  -0.01
  39   6    -0.00   0.02   0.06    -0.01   0.02   0.06    -0.00   0.03  -0.01
  40   6    -0.01   0.01   0.06    -0.01   0.04   0.17    -0.13   0.09  -0.03
  41   6    -0.00  -0.01  -0.06    -0.01   0.05   0.22    -0.13   0.09  -0.02
  42   6    -0.00  -0.02  -0.09     0.01  -0.01  -0.05    -0.12   0.09  -0.03
  43   6    -0.00  -0.02  -0.09     0.02  -0.02  -0.10    -0.01   0.05  -0.01
  44   6    -0.00  -0.01  -0.06     0.02  -0.02  -0.10     0.09   0.11  -0.02
  45   6    -0.03   0.05   0.22     0.01  -0.02  -0.07     0.10   0.11  -0.01
  46   6    -0.02   0.05   0.18    -0.00   0.01   0.05     0.10   0.11  -0.02
  47   6     0.01  -0.02  -0.11    -0.00   0.02   0.08     0.10   0.11  -0.03
  48   7     0.01  -0.06  -0.27     0.01  -0.01  -0.01     0.11   0.12  -0.04
  49   6     0.01  -0.03  -0.16    -0.01   0.02   0.11     0.07   0.00   0.00
  50   6     0.01  -0.02  -0.10    -0.00   0.01   0.07     0.12  -0.09   0.03
  51   6    -0.00  -0.02  -0.04     0.02  -0.06  -0.17     0.13  -0.08   0.04
  52   6    -0.01   0.02   0.11     0.02  -0.06  -0.17     0.12  -0.08   0.04
  53   6    -0.01   0.03   0.13    -0.01   0.02   0.08     0.11  -0.08   0.03
  54   7     0.00   0.01   0.01    -0.02   0.06   0.22     0.13  -0.10   0.04
  55   6    -0.01   0.03   0.14    -0.01   0.03   0.14     0.01  -0.05   0.01
  56   6    -0.01   0.02   0.09    -0.01   0.04   0.14    -0.08  -0.10   0.02
  57   6     0.01  -0.06  -0.18    -0.01   0.03   0.13    -0.10  -0.10   0.03
  58   6     0.01  -0.06  -0.19     0.01  -0.01  -0.03    -0.10  -0.10   0.03
  59   6    -0.01   0.01   0.07     0.01  -0.03  -0.11    -0.10  -0.10   0.02
  60   7    -0.02   0.06   0.26    -0.00   0.01   0.01    -0.10  -0.12   0.02
  61   6    -0.01   0.02   0.10     0.02  -0.04  -0.18    -0.07  -0.00  -0.01
  62   6    -0.01   0.01   0.07     0.01  -0.02  -0.11    -0.13   0.09  -0.04
  63   7    -0.01  -0.01  -0.03     0.03  -0.05  -0.23    -0.14   0.10  -0.05
  64   1    -0.00   0.01   0.04    -0.01   0.02   0.09    -0.04   0.03  -0.01
  65   1     0.00  -0.01  -0.03    -0.01   0.03   0.12    -0.04   0.03  -0.00
  66   1    -0.00  -0.00  -0.01     0.00  -0.00  -0.02     0.00  -0.01   0.01
  67   1    -0.01   0.03   0.13     0.00  -0.01  -0.04     0.03   0.03  -0.00
  68   1    -0.01   0.03   0.11    -0.00   0.01   0.03     0.03   0.03  -0.00
  69   1     0.01  -0.03  -0.12     0.00  -0.00  -0.00     0.03   0.03  -0.01
  70   1     0.00  -0.01  -0.05    -0.00   0.01   0.03    -0.01  -0.00  -0.00
  71   1     0.00  -0.01  -0.03     0.01  -0.03  -0.10     0.04  -0.02   0.01
  72   1    -0.01   0.01   0.06     0.01  -0.03  -0.09     0.04  -0.02   0.01
  73   1     0.01  -0.03  -0.10    -0.00   0.02   0.06    -0.03  -0.03   0.01
  74   1     0.01  -0.03  -0.11     0.00  -0.01  -0.03    -0.03  -0.03   0.01
  75   1    -0.01   0.03   0.11    -0.00   0.00  -0.00    -0.02  -0.03   0.01
  76   1    -0.00   0.00   0.02     0.01  -0.01  -0.06     0.01   0.00  -0.00
                     19                     20                     21
                        a                      a                      a 
 Frequencies --   142.9658               169.6372               182.8123
 Red. masses --    12.0254                11.8012                11.3817
 Frc consts  --     0.0000                 0.0000                 0.0000
 IR Inten    --     0.0958                 0.0234                 0.4050
 Raman Activ --     0.0000                 0.0000                 0.0000
 Depolar     --     0.0000                 0.0000                 0.0000
 Atom AN      X      Y      Z        X      Y      Z        X      Y      Z
   1   6     0.10   0.12   0.01     0.01   0.00  -0.08    -0.04  -0.02   0.10
   2   6     0.10   0.12   0.02    -0.00  -0.03   0.09    -0.03   0.01  -0.13
   3   6     0.08   0.12   0.01    -0.00  -0.01   0.01    -0.03   0.02  -0.18
   4   6    -0.01   0.06   0.00    -0.00  -0.02   0.07    -0.02   0.00  -0.06
   5   6    -0.11   0.09  -0.00     0.01   0.01  -0.12    -0.04  -0.03   0.11
   6   6    -0.12   0.09   0.01    -0.00  -0.01  -0.01    -0.04  -0.01   0.04
   7   6    -0.12   0.09   0.01    -0.01  -0.01  -0.02    -0.03  -0.01  -0.04
   8   6    -0.12   0.08  -0.00    -0.01   0.01  -0.11    -0.03  -0.03   0.03
   9   7    -0.13   0.10  -0.01     0.00   0.04  -0.30    -0.04  -0.06   0.20
  10   6    -0.06  -0.02  -0.00    -0.01  -0.02   0.11    -0.02  -0.03  -0.14
  11   6    -0.10  -0.12  -0.01    -0.01  -0.03   0.16    -0.02  -0.05  -0.05
  12   6    -0.10  -0.12  -0.01    -0.01  -0.02   0.09    -0.05  -0.01  -0.14
  13   6    -0.10  -0.12  -0.02    -0.00   0.01  -0.14    -0.03  -0.01   0.09
  14   6    -0.09  -0.12  -0.02    -0.00   0.00  -0.07     0.01  -0.03   0.18
  15   7    -0.11  -0.14  -0.02    -0.01  -0.02   0.10     0.00  -0.08   0.16
  16   6     0.01  -0.05  -0.02     0.01   0.01  -0.12     0.04  -0.00   0.07
  17   6     0.11  -0.09  -0.01     0.01  -0.01   0.06     0.03   0.03  -0.15
  18   6     0.12  -0.09  -0.01     0.01   0.00  -0.03    -0.01  -0.00  -0.07
  19   6     0.11  -0.09  -0.00     0.01  -0.00   0.02    -0.05   0.01   0.05
  20   6     0.12  -0.08   0.00     0.00  -0.02   0.13    -0.03   0.06  -0.02
  21   7     0.13  -0.09   0.00    -0.00  -0.04   0.26     0.02   0.09  -0.25
  22   6     0.06   0.02   0.01     0.01   0.01  -0.05    -0.04   0.02   0.18
  23   6     0.10   0.12   0.01     0.02   0.02  -0.14    -0.04   0.00   0.07
  24   7     0.10   0.14   0.01     0.01   0.02  -0.15    -0.04   0.03  -0.13
  25   1     0.03   0.04   0.00     0.01   0.00  -0.03    -0.01  -0.01   0.07
  26   1     0.03   0.03   0.01    -0.00  -0.02   0.06    -0.01   0.01  -0.06
  27   1    -0.03   0.02   0.01    -0.00  -0.01   0.02    -0.01  -0.00   0.00
  28   1    -0.03   0.03   0.00    -0.00  -0.01   0.02    -0.00   0.00  -0.04
  29   1    -0.03   0.03  -0.00     0.00   0.01  -0.09    -0.02  -0.02   0.06
  30   1     0.01  -0.00   0.00    -0.00  -0.01   0.07     0.00  -0.00  -0.10
  31   1    -0.03  -0.04  -0.00    -0.00  -0.01   0.04    -0.02   0.00  -0.09
  32   1    -0.03  -0.03  -0.01     0.00   0.01  -0.08    -0.01   0.00   0.04
  33   1    -0.00   0.02  -0.00     0.00   0.01  -0.09     0.01  -0.00   0.04
  34   1     0.03  -0.03  -0.01     0.01   0.01  -0.04    -0.00  -0.01  -0.01
  35   1     0.03  -0.03  -0.00     0.00   0.00  -0.01    -0.03  -0.00   0.05
  36   1     0.03  -0.02   0.00    -0.00  -0.01   0.08     0.02   0.04  -0.06
  37   1    -0.01   0.00   0.00     0.00   0.00  -0.03    -0.01  -0.00   0.12
  38   6     0.00  -0.03  -0.00    -0.01  -0.03   0.29    -0.00   0.01  -0.05
  39   6     0.00  -0.03   0.01    -0.02   0.06   0.28    -0.00   0.02   0.05
  40   6     0.13  -0.09   0.03    -0.02   0.03   0.09     0.05   0.02   0.14
  41   6     0.12  -0.09   0.04     0.00  -0.03  -0.13     0.03  -0.02  -0.09
  42   6     0.11  -0.09   0.04    -0.00  -0.01  -0.07     0.00  -0.06  -0.17
  43   6     0.00  -0.05   0.02     0.01  -0.03  -0.11    -0.03  -0.02  -0.07
  44   6    -0.09  -0.11   0.02     0.00   0.02   0.06    -0.04   0.04   0.14
  45   6    -0.09  -0.11   0.03     0.01  -0.01  -0.04     0.01   0.01   0.07
  46   6    -0.09  -0.11   0.02     0.01   0.01   0.02     0.05   0.02  -0.05
  47   6    -0.09  -0.10   0.01    -0.00   0.04   0.12     0.02   0.07   0.01
  48   7    -0.10  -0.12   0.01    -0.01   0.07   0.25    -0.05   0.12   0.24
  49   6    -0.06   0.00  -0.01     0.01  -0.01  -0.04     0.03   0.01  -0.18
  50   6    -0.12   0.09  -0.03     0.02  -0.03  -0.14     0.04   0.00  -0.07
  51   6    -0.12   0.09  -0.03     0.02  -0.01  -0.07     0.04  -0.02  -0.10
  52   6    -0.12   0.09  -0.03    -0.01   0.04   0.08     0.02   0.04   0.13
  53   6    -0.11   0.09  -0.03    -0.00   0.01   0.00     0.02   0.05   0.17
  54   7    -0.12   0.11  -0.03     0.02  -0.04  -0.15     0.03   0.05   0.12
  55   6    -0.00   0.05  -0.01    -0.01   0.03   0.06     0.01   0.02   0.06
  56   6     0.08   0.11  -0.01     0.01  -0.02  -0.12     0.05  -0.03  -0.11
  57   6     0.09   0.11  -0.02    -0.00   0.01  -0.01     0.04  -0.01  -0.04
  58   6     0.09   0.11  -0.02    -0.01   0.00  -0.02     0.03   0.00   0.04
  59   6     0.09   0.10  -0.01     0.00  -0.03  -0.11     0.04  -0.03  -0.03
  60   7     0.10   0.12  -0.01     0.02  -0.08  -0.29     0.06  -0.07  -0.19
  61   6     0.06  -0.00   0.00    -0.02   0.03   0.11     0.02  -0.01   0.14
  62   6     0.12  -0.09   0.03    -0.02   0.04   0.15     0.04  -0.04   0.06
  63   7     0.13  -0.11   0.03    -0.02   0.03   0.10     0.02  -0.10  -0.15
  64   1     0.04  -0.03   0.01    -0.01   0.01   0.04     0.02   0.02   0.09
  65   1     0.04  -0.02   0.01     0.00  -0.02  -0.08     0.01   0.00  -0.04
  66   1    -0.00   0.02   0.00     0.01  -0.02  -0.08    -0.01  -0.01  -0.04
  67   1    -0.03  -0.03   0.01     0.01  -0.01  -0.04     0.01  -0.01   0.01
  68   1    -0.03  -0.03   0.00     0.00  -0.00  -0.01     0.03  -0.00  -0.05
  69   1    -0.03  -0.03   0.00    -0.00   0.02   0.07    -0.03   0.04   0.06
  70   1     0.01   0.01  -0.00     0.01  -0.01  -0.03     0.01  -0.02  -0.12
  71   1    -0.04   0.03  -0.01     0.01  -0.00  -0.02     0.01  -0.02  -0.07
  72   1    -0.03   0.02  -0.01    -0.01   0.02   0.06     0.00   0.02   0.06
  73   1     0.03   0.03  -0.01    -0.00   0.01   0.02     0.01   0.00  -0.00
  74   1     0.03   0.03  -0.01    -0.01   0.01   0.02     0.00   0.01   0.04
  75   1     0.02   0.03  -0.00     0.01  -0.02  -0.09     0.02  -0.02  -0.05
  76   1    -0.01  -0.00  -0.00    -0.01   0.02   0.07    -0.00   0.01   0.10
                     22                     23                     24
                        a                      a                      a 
 Frequencies --   186.1942               186.7112               201.6894
 Red. masses --    11.7675                11.5680                11.6269
 Frc consts  --     0.0000                 0.0000                 0.0000
 IR Inten    --     0.5381                 0.0246                 6.1544
 Raman Activ --     0.0000                 0.0000                 0.0000
 Depolar     --     0.0000                 0.0000                 0.0000
 Atom AN      X      Y      Z        X      Y      Z        X      Y      Z
   1   6    -0.01  -0.02   0.07    -0.09   0.01  -0.03     0.01  -0.01   0.02
   2   6    -0.00   0.00  -0.06    -0.11  -0.02   0.05     0.01   0.02  -0.14
   3   6     0.00   0.02  -0.19    -0.12  -0.03   0.07    -0.00  -0.01   0.05
   4   6    -0.00  -0.01   0.02    -0.06  -0.01   0.02     0.00   0.02  -0.12
   5   6    -0.01  -0.02   0.11    -0.11  -0.01  -0.05     0.01   0.02  -0.15
   6   6    -0.01  -0.02   0.08    -0.10  -0.01  -0.03     0.00   0.01  -0.12
   7   6    -0.01   0.01  -0.08    -0.07  -0.04   0.00    -0.01  -0.02   0.11
   8   6    -0.01   0.00  -0.07    -0.09  -0.07  -0.02    -0.01  -0.02   0.13
   9   7    -0.01  -0.02   0.07    -0.12  -0.06  -0.09     0.00   0.01  -0.03
  10   6    -0.01   0.01  -0.12    -0.06  -0.15   0.03    -0.01  -0.02   0.11
  11   6    -0.01  -0.02   0.07    -0.06  -0.17  -0.01    -0.00   0.01  -0.10
  12   6    -0.01   0.00  -0.08    -0.13  -0.09   0.04    -0.01   0.01  -0.08
  13   6    -0.01  -0.00   0.03    -0.06   0.01  -0.04    -0.01  -0.00   0.01
  14   6    -0.01  -0.02   0.17     0.05  -0.02  -0.08    -0.01  -0.00  -0.01
  15   7    -0.01  -0.05   0.29     0.04  -0.15  -0.09    -0.00   0.02  -0.15
  16   6     0.01   0.01  -0.03     0.10   0.01  -0.01    -0.01  -0.02   0.17
  17   6     0.02   0.02  -0.16     0.05   0.02   0.07     0.01  -0.01   0.04
  18   6     0.00   0.01  -0.11    -0.06  -0.04   0.03     0.01  -0.01   0.10
  19   6    -0.01  -0.01   0.10    -0.17   0.07  -0.03     0.02   0.01  -0.10
  20   6    -0.01   0.00   0.07    -0.12   0.18   0.02     0.02   0.02  -0.17
  21   7     0.01   0.03  -0.14     0.00   0.17   0.12     0.02   0.02  -0.20
  22   6    -0.01  -0.01   0.16    -0.09   0.15  -0.06     0.01  -0.01   0.01
  23   6    -0.00   0.01  -0.05    -0.11   0.04  -0.01    -0.01  -0.04   0.22
  24   7     0.01   0.04  -0.28    -0.14   0.01   0.07    -0.02  -0.06   0.32
  25   1    -0.00  -0.01   0.06    -0.02   0.01  -0.02     0.00   0.00  -0.02
  26   1    -0.00  -0.00  -0.01    -0.03  -0.01   0.02     0.01   0.02  -0.11
  27   1    -0.00  -0.01   0.04    -0.03   0.00  -0.00     0.00   0.01  -0.06
  28   1    -0.00   0.01  -0.05    -0.01  -0.01   0.01    -0.00  -0.01   0.06
  29   1    -0.00  -0.01   0.02    -0.05  -0.03  -0.02     0.00   0.00   0.01
  30   1     0.00   0.01  -0.09    -0.00  -0.05   0.03    -0.00  -0.01   0.07
  31   1    -0.00   0.01  -0.07    -0.06  -0.03   0.03    -0.00   0.00  -0.03
  32   1    -0.00   0.00  -0.01    -0.02   0.03  -0.01    -0.00  -0.00   0.02
  33   1     0.00   0.01  -0.03     0.03   0.01  -0.01    -0.01  -0.01   0.11
  34   1     0.00   0.00  -0.04    -0.02  -0.04   0.00     0.00  -0.01   0.07
  35   1    -0.01  -0.01   0.07    -0.08   0.01  -0.03     0.01   0.00  -0.04
  36   1     0.01   0.01  -0.03     0.04   0.09   0.04     0.01   0.00  -0.05
  37   1    -0.01  -0.01   0.12     0.00   0.05  -0.04     0.00   0.00  -0.01
  38   6    -0.00  -0.01   0.14    -0.01  -0.01   0.00     0.00   0.03  -0.13
  39   6    -0.01   0.03   0.13     0.01  -0.01  -0.02    -0.01   0.05   0.13
  40   6     0.01  -0.02  -0.08     0.15  -0.06  -0.01     0.00   0.02   0.08
  41   6    -0.00   0.01   0.03     0.06   0.02   0.03     0.01  -0.00  -0.01
  42   6    -0.02   0.04   0.18    -0.04  -0.03   0.05     0.01   0.00   0.01
  43   6    -0.00  -0.01  -0.03    -0.11  -0.01   0.01     0.01  -0.04  -0.17
  44   6     0.01  -0.04  -0.16    -0.05   0.01  -0.05    -0.01  -0.01  -0.04
  45   6     0.02  -0.03  -0.11     0.07  -0.02  -0.01    -0.01  -0.02  -0.09
  46   6     0.00   0.03   0.10     0.15   0.10   0.00    -0.03   0.02   0.10
  47   6    -0.00   0.03   0.06     0.07   0.20  -0.05    -0.03   0.03   0.17
  48   7     0.01  -0.03  -0.15    -0.04   0.15  -0.12    -0.03   0.04   0.19
  49   6    -0.01   0.05   0.17     0.05   0.17   0.02    -0.01  -0.01  -0.01
  50   6     0.01  -0.01  -0.05     0.10   0.06   0.01     0.02  -0.06  -0.21
  51   6    -0.00   0.03   0.07     0.09   0.03   0.02    -0.00  -0.01  -0.02
  52   6     0.01  -0.01  -0.07     0.12  -0.00  -0.04    -0.02   0.03   0.14
  53   6     0.03  -0.05  -0.19     0.12  -0.00  -0.05     0.00  -0.02  -0.04
  54   7     0.04  -0.07  -0.28     0.14   0.04  -0.04     0.03  -0.09  -0.31
  55   6     0.01   0.01   0.02     0.06   0.00  -0.02    -0.01   0.03   0.12
  56   6     0.00   0.04   0.11     0.11   0.02   0.04    -0.01   0.04   0.14
  57   6    -0.00   0.03   0.08     0.10   0.01   0.02    -0.01   0.03   0.12
  58   6     0.01  -0.02  -0.08     0.08  -0.02   0.01     0.01  -0.03  -0.11
  59   6     0.01  -0.02  -0.06     0.10  -0.05   0.04     0.01  -0.03  -0.13
  60   7     0.00   0.02   0.08     0.13  -0.02   0.09    -0.00   0.01   0.02
  61   6     0.01  -0.04  -0.12     0.09  -0.14   0.00     0.01  -0.03  -0.11
  62   6    -0.00   0.01   0.07     0.10  -0.15   0.02     0.00   0.02   0.10
  63   7    -0.03   0.07   0.30    -0.00  -0.15   0.07    -0.00   0.04   0.15
  64   1     0.01  -0.02  -0.07     0.07  -0.02  -0.02     0.00   0.01   0.03
  65   1     0.00  -0.00  -0.01     0.02   0.03   0.01     0.00  -0.01  -0.02
  66   1     0.00  -0.01  -0.03    -0.03   0.00   0.01     0.01  -0.02  -0.11
  67   1     0.01  -0.01  -0.04     0.03  -0.03   0.01     0.00  -0.02  -0.07
  68   1    -0.00   0.02   0.07     0.08   0.03   0.01    -0.01   0.01   0.04
  69   1     0.00  -0.00  -0.03    -0.06   0.07  -0.04    -0.01   0.01   0.05
  70   1    -0.01   0.03   0.12    -0.01   0.05   0.02    -0.00   0.00   0.01
  71   1    -0.01   0.02   0.07     0.02   0.01   0.02    -0.01   0.00   0.02
  72   1     0.00   0.00  -0.01     0.03  -0.00  -0.01    -0.01   0.03   0.10
  73   1    -0.00   0.01   0.04     0.03   0.01  -0.00    -0.00   0.02   0.06
  74   1     0.00  -0.01  -0.05     0.01  -0.01  -0.01     0.01  -0.02  -0.06
  75   1     0.00   0.00   0.02     0.05  -0.02   0.03    -0.00  -0.00  -0.01
  76   1     0.01  -0.03  -0.09     0.01  -0.05  -0.02     0.01  -0.02  -0.07
                     25                     26                     27
                        a                      a                      a 
 Frequencies --   202.6390               204.2274               245.1856
 Red. masses --    12.4528                12.3521                10.8316
 Frc consts  --     0.0000                 0.0000                 0.0000
 IR Inten    --     9.9463                24.5803                 5.5847
 Raman Activ --     0.0000                 0.0000                 0.0000
 Depolar     --     0.0000                 0.0000                 0.0000
 Atom AN      X      Y      Z        X      Y      Z        X      Y      Z
   1   6    -0.00  -0.01   0.06     0.00   0.01  -0.08     0.00   0.02  -0.07
   2   6    -0.00  -0.01   0.07    -0.00   0.00  -0.01    -0.01  -0.01   0.17
   3   6     0.01   0.02  -0.12    -0.00  -0.02   0.12     0.00  -0.01   0.14
   4   6     0.00   0.00  -0.01    -0.00  -0.01   0.07    -0.00   0.01  -0.02
   5   6    -0.00  -0.02   0.12     0.00   0.01  -0.06    -0.02  -0.01   0.11
   6   6     0.00   0.01  -0.04     0.00  -0.01   0.11    -0.01  -0.01   0.17
   7   6     0.00   0.01  -0.06     0.00   0.00   0.02     0.01   0.01  -0.03
   8   6     0.00  -0.02   0.10     0.00   0.03  -0.16     0.00   0.02  -0.12
   9   7    -0.00  -0.05   0.30     0.00   0.05  -0.31    -0.02  -0.01   0.03
  10   6     0.00   0.01  -0.04     0.00   0.01  -0.01     0.01   0.02  -0.18
  11   6     0.00   0.02  -0.12     0.00  -0.02   0.17     0.01  -0.00   0.08
  12   6    -0.00  -0.01   0.06     0.01   0.01  -0.02     0.01  -0.00   0.08
  13   6    -0.00  -0.01   0.08     0.01   0.01  -0.09     0.01   0.00   0.00
  14   6     0.00   0.01  -0.11     0.00  -0.01   0.11     0.01   0.00   0.01
  15   7     0.01   0.03  -0.26    -0.01  -0.04   0.33     0.00  -0.01   0.17
  16   6    -0.00   0.00  -0.03     0.01   0.01  -0.05     0.01   0.02  -0.20
  17   6    -0.01  -0.01   0.09     0.01   0.01  -0.11    -0.01   0.00  -0.05
  18   6     0.00   0.01  -0.07    -0.00  -0.01   0.03    -0.01  -0.00   0.01
  19   6     0.00   0.00  -0.04    -0.01  -0.01   0.09    -0.01  -0.02   0.11
  20   6    -0.01  -0.02   0.12     0.00   0.00  -0.05    -0.01  -0.01   0.06
  21   7    -0.02  -0.04   0.29     0.01   0.03  -0.21    -0.02  -0.02   0.09
  22   6    -0.00   0.00  -0.00     0.00  -0.00  -0.01     0.01   0.02  -0.17
  23   6     0.01   0.02  -0.13    -0.00  -0.01   0.04     0.01   0.02  -0.10
  24   7     0.02   0.05  -0.29    -0.01  -0.03   0.18     0.01  -0.00   0.07
  25   1    -0.00  -0.01   0.06     0.00   0.01  -0.06     0.00   0.01  -0.04
  26   1    -0.00  -0.01   0.07     0.00   0.01  -0.02    -0.01  -0.01   0.09
  27   1    -0.00   0.01  -0.05     0.00  -0.01   0.08    -0.00  -0.01   0.09
  28   1     0.00   0.01  -0.06     0.00  -0.01   0.04     0.01   0.01  -0.02
  29   1    -0.00  -0.01   0.07     0.00   0.01  -0.08    -0.01  -0.00  -0.00
  30   1     0.00   0.00  -0.02     0.00   0.00  -0.01     0.00   0.02  -0.11
  31   1    -0.00  -0.01   0.06     0.00   0.01  -0.05     0.00  -0.00   0.03
  32   1    -0.00  -0.01   0.07     0.01   0.01  -0.08     0.00   0.00  -0.01
  33   1    -0.00   0.00  -0.01     0.00   0.00  -0.04     0.01   0.01  -0.12
  34   1     0.00   0.01  -0.06    -0.00  -0.01   0.04    -0.00   0.00  -0.00
  35   1     0.00   0.01  -0.05    -0.00  -0.01   0.07    -0.00  -0.01   0.05
  36   1    -0.00  -0.01   0.07     0.00   0.01  -0.05    -0.01  -0.01   0.02
  37   1    -0.00   0.00   0.00     0.00  -0.00  -0.00     0.00   0.01  -0.10
  38   6     0.00   0.00  -0.02    -0.00  -0.02   0.07     0.01   0.02  -0.37
  39   6     0.00  -0.00  -0.02     0.00  -0.02  -0.06     0.02  -0.06  -0.36
  40   6    -0.01   0.02   0.06    -0.01   0.01   0.03     0.01   0.02   0.08
  41   6    -0.01   0.02   0.07    -0.01   0.02   0.09     0.01  -0.00   0.00
  42   6     0.01  -0.02  -0.10     0.00  -0.03  -0.11     0.01   0.00   0.01
  43   6     0.00  -0.01  -0.03    -0.01   0.01   0.05     0.01  -0.05  -0.20
  44   6    -0.01   0.02   0.08    -0.01   0.03   0.11    -0.01  -0.01  -0.05
  45   6     0.00  -0.02  -0.07     0.00  -0.01  -0.04    -0.01  -0.00   0.01
  46   6    -0.00  -0.01  -0.04     0.01  -0.02  -0.09    -0.02   0.03   0.11
  47   6    -0.01   0.03   0.12    -0.00   0.01   0.05    -0.01   0.02   0.06
  48   7    -0.03   0.07   0.28    -0.02   0.06   0.22    -0.02   0.03   0.09
  49   6    -0.00  -0.01  -0.00     0.00  -0.00   0.01     0.01  -0.04  -0.16
  50   6     0.01  -0.04  -0.13     0.01  -0.02  -0.04     0.01  -0.03  -0.10
  51   6    -0.01   0.01   0.05    -0.01   0.03   0.08     0.01  -0.03  -0.07
  52   6    -0.01   0.02   0.07    -0.00   0.01   0.01    -0.01   0.03   0.17
  53   6     0.01  -0.03  -0.12     0.01  -0.03  -0.12    -0.00   0.03   0.14
  54   7     0.03  -0.08  -0.28     0.02  -0.06  -0.18     0.01   0.01   0.07
  55   6     0.00  -0.00  -0.01     0.01  -0.02  -0.07    -0.00  -0.01  -0.02
  56   6    -0.01   0.03   0.12    -0.01   0.02   0.06    -0.02   0.02   0.11
  57   6     0.00  -0.01  -0.03     0.00  -0.03  -0.11    -0.01   0.03   0.17
  58   6     0.00  -0.02  -0.06    -0.00  -0.00  -0.02     0.01  -0.02  -0.03
  59   6    -0.01   0.03   0.08    -0.01   0.05   0.16     0.01  -0.03  -0.12
  60   7    -0.02   0.08   0.28    -0.02   0.09   0.32    -0.02   0.01   0.03
  61   6     0.00  -0.01  -0.04    -0.01   0.01   0.01     0.02  -0.04  -0.18
  62   6     0.01  -0.03  -0.11     0.01  -0.04  -0.17     0.01   0.01   0.08
  63   7     0.02  -0.06  -0.23     0.02  -0.08  -0.33    -0.00   0.03   0.17
  64   1    -0.00   0.01   0.06    -0.01   0.01   0.05     0.00   0.01   0.03
  65   1    -0.01   0.02   0.06    -0.01   0.02   0.08     0.00  -0.00  -0.01
  66   1     0.00  -0.00  -0.02    -0.00   0.01   0.04     0.01  -0.03  -0.12
  67   1     0.00  -0.02  -0.06     0.00  -0.01  -0.04    -0.00  -0.00  -0.00
  68   1     0.00  -0.01  -0.04     0.01  -0.02  -0.07    -0.01   0.01   0.05
  69   1    -0.01   0.02   0.06    -0.00   0.01   0.05    -0.01   0.01   0.02
  70   1    -0.00  -0.00   0.00    -0.00  -0.00   0.00     0.01  -0.02  -0.10
  71   1    -0.01   0.02   0.06    -0.01   0.02   0.06     0.00  -0.02  -0.04
  72   1    -0.01   0.02   0.07    -0.00   0.01   0.02    -0.01   0.02   0.09
  73   1     0.00  -0.01  -0.04     0.00  -0.02  -0.08    -0.00   0.02   0.09
  74   1     0.00  -0.02  -0.06     0.00  -0.01  -0.04     0.01  -0.01  -0.02
  75   1    -0.01   0.02   0.06    -0.01   0.02   0.08    -0.01   0.00  -0.00
  76   1     0.00  -0.01  -0.02    -0.00   0.00   0.01     0.01  -0.03  -0.11
                     28                     29                     30
                        a                      a                      a 
 Frequencies --   263.2128               265.3800               266.8019
 Red. masses --    11.2133                10.4722                11.4499
 Frc consts  --     0.0000                 0.0000                 0.0000
 IR Inten    --     3.8638                 2.3620                14.5786
 Raman Activ --     0.0000                 0.0000                 0.0000
 Depolar     --     0.0000                 0.0000                 0.0000
 Atom AN      X      Y      Z        X      Y      Z        X      Y      Z
   1   6    -0.07  -0.10   0.00    -0.00  -0.02   0.18     0.00   0.08  -0.03
   2   6    -0.07  -0.09  -0.03     0.02   0.04  -0.16     0.06   0.13   0.05
   3   6    -0.05  -0.08  -0.03     0.02   0.04  -0.15     0.13   0.09   0.05
   4   6     0.10   0.02  -0.01    -0.01  -0.00   0.00    -0.02  -0.01   0.02
   5   6     0.16  -0.01   0.03    -0.03  -0.02   0.16    -0.18   0.05  -0.05
   6   6     0.04  -0.08   0.02    -0.01  -0.01   0.16    -0.08   0.11  -0.05
   7   6    -0.09   0.04  -0.02     0.01   0.02  -0.16     0.04  -0.00   0.04
   8   6    -0.04   0.17  -0.00     0.01  -0.00  -0.16    -0.01  -0.12   0.03
   9   7     0.12   0.16   0.04    -0.02  -0.03   0.01    -0.16  -0.09  -0.04
  10   6    -0.01   0.09  -0.00     0.00  -0.01  -0.02     0.01  -0.14   0.01
  11   6    -0.07  -0.09   0.01     0.00  -0.01   0.15     0.05  -0.03  -0.05
  12   6    -0.07  -0.10   0.02     0.00  -0.01   0.18     0.01   0.04  -0.05
  13   6    -0.07  -0.09  -0.03     0.02   0.03  -0.17     0.06   0.09   0.05
  14   6    -0.05  -0.08  -0.03     0.02   0.03  -0.14     0.12   0.06   0.05
  15   7    -0.07  -0.11  -0.01     0.01   0.01   0.01     0.14  -0.00  -0.01
  16   6     0.10   0.02  -0.01    -0.01  -0.00  -0.00    -0.02  -0.02   0.02
  17   6     0.17  -0.00   0.03    -0.03  -0.02   0.15    -0.17   0.04  -0.04
  18   6     0.04  -0.08   0.01    -0.01  -0.01   0.16    -0.11   0.09  -0.04
  19   6    -0.10   0.05  -0.01     0.02   0.02  -0.15    -0.03   0.01   0.03
  20   6    -0.05   0.19   0.00     0.01  -0.00  -0.16    -0.05  -0.06   0.02
  21   7     0.12   0.17   0.04    -0.02  -0.02   0.00    -0.17  -0.04  -0.03
  22   6    -0.01   0.11  -0.00     0.00  -0.01  -0.02    -0.01  -0.10   0.01
  23   6    -0.07  -0.08   0.00    -0.00  -0.01   0.14     0.04   0.01  -0.03
  24   7    -0.08  -0.10  -0.00     0.01   0.02  -0.01     0.14   0.05   0.00
  25   1    -0.02  -0.03   0.01    -0.00  -0.01   0.10    -0.02   0.02  -0.02
  26   1    -0.02  -0.03  -0.01     0.01   0.02  -0.09     0.01   0.06   0.03
  27   1     0.01  -0.06   0.01    -0.00  -0.00   0.09    -0.02   0.07  -0.02
  28   1    -0.06   0.00  -0.02     0.01   0.01  -0.09     0.04   0.01   0.03
  29   1     0.07   0.09   0.02    -0.01  -0.01  -0.00    -0.08  -0.07  -0.01
  30   1     0.04   0.03  -0.01    -0.00  -0.00  -0.01    -0.01  -0.04   0.01
  31   1    -0.02  -0.03   0.01    -0.00  -0.01   0.10    -0.01   0.01  -0.03
  32   1    -0.02  -0.02  -0.02     0.01   0.02  -0.10     0.01   0.04   0.03
  33   1     0.02   0.04  -0.00    -0.00  -0.01  -0.00     0.00  -0.05   0.01
  34   1     0.01  -0.06   0.00    -0.01  -0.00   0.09    -0.03   0.05  -0.02
  35   1    -0.07   0.00  -0.01     0.01   0.01  -0.08     0.01   0.01   0.02
  36   1     0.08   0.10   0.02    -0.01  -0.01  -0.00    -0.07  -0.04  -0.01
  37   1     0.04   0.03  -0.00    -0.00  -0.00  -0.01    -0.01  -0.03   0.01
  38   6     0.09   0.14  -0.02    -0.01  -0.02  -0.01     0.03  -0.24   0.02
  39   6     0.12  -0.11   0.00    -0.01   0.02  -0.01     0.03  -0.24   0.01
  40   6    -0.09   0.08   0.00    -0.00   0.04   0.18    -0.03   0.04   0.04
  41   6    -0.09   0.06  -0.04     0.03  -0.05  -0.17    -0.08   0.07  -0.06
  42   6    -0.06   0.06  -0.04     0.02  -0.04  -0.14    -0.13   0.03  -0.05
  43   6     0.10   0.01  -0.01    -0.01  -0.00  -0.00     0.03  -0.02  -0.02
  44   6     0.15   0.04   0.02    -0.04   0.03   0.15     0.17   0.08   0.03
  45   6     0.01   0.08   0.00    -0.02   0.03   0.16     0.09   0.11   0.02
  46   6    -0.09  -0.07  -0.01     0.03  -0.03  -0.15     0.02   0.01  -0.03
  47   6    -0.01  -0.19   0.03     0.01  -0.02  -0.16     0.06  -0.06  -0.01
  48   7     0.15  -0.14   0.06    -0.02   0.02   0.00     0.18  -0.01   0.03
  49   6     0.02  -0.10   0.01    -0.00   0.01  -0.02     0.04  -0.10   0.00
  50   6    -0.08   0.06  -0.00    -0.00   0.03   0.14    -0.04   0.00   0.02
  51   6    -0.09   0.08  -0.01    -0.01   0.04   0.18    -0.02   0.08   0.02
  52   6    -0.08   0.06  -0.04     0.03  -0.06  -0.16    -0.09   0.11  -0.07
  53   6    -0.06   0.06  -0.04     0.03  -0.05  -0.14    -0.14   0.06  -0.06
  54   7    -0.09   0.08  -0.02     0.02  -0.01  -0.00    -0.15   0.02  -0.00
  55   6     0.10   0.01  -0.00    -0.01  -0.00   0.00     0.02  -0.01  -0.01
  56   6     0.15   0.05   0.03    -0.03   0.04   0.16     0.17   0.10   0.04
  57   6     0.02   0.09   0.01    -0.01   0.03   0.16     0.05   0.13   0.03
  58   6    -0.08  -0.06  -0.02     0.02  -0.04  -0.16    -0.04  -0.02  -0.04
  59   6    -0.00  -0.17   0.02     0.01  -0.02  -0.16     0.03  -0.13  -0.01
  60   7     0.15  -0.12   0.05    -0.02   0.02   0.00     0.18  -0.05   0.05
  61   6     0.01  -0.08   0.01    -0.00   0.01  -0.02     0.02  -0.15   0.01
  62   6    -0.08   0.07  -0.00    -0.00   0.03   0.15    -0.05  -0.04   0.05
  63   7    -0.09   0.09  -0.02     0.01  -0.01   0.01    -0.14  -0.03   0.01
  64   1    -0.03   0.03   0.01    -0.00   0.02   0.10     0.01   0.02   0.02
  65   1    -0.02   0.01  -0.02     0.01  -0.03  -0.09    -0.02   0.03  -0.03
  66   1     0.03  -0.04   0.00    -0.00   0.00  -0.00     0.01  -0.06  -0.00
  67   1    -0.01   0.06  -0.00    -0.01   0.01   0.09     0.02   0.06   0.01
  68   1    -0.07  -0.02  -0.01     0.02  -0.02  -0.08    -0.01   0.00  -0.02
  69   1     0.09  -0.07   0.03    -0.01   0.01  -0.00     0.08  -0.02   0.01
  70   1     0.05  -0.02   0.00    -0.01   0.00  -0.01     0.02  -0.03  -0.01
  71   1    -0.02   0.02   0.00    -0.01   0.03   0.10     0.01   0.03   0.01
  72   1    -0.02   0.02  -0.02     0.02  -0.03  -0.09    -0.02   0.05  -0.03
  73   1    -0.00   0.06   0.00    -0.00   0.02   0.09     0.01   0.07   0.01
  74   1    -0.06  -0.02  -0.01     0.01  -0.02  -0.09    -0.05  -0.01  -0.03
  75   1     0.09  -0.07   0.03    -0.01   0.01  -0.00     0.09  -0.05   0.02
  76   1     0.04  -0.02  -0.00    -0.01   0.00  -0.01     0.02  -0.04  -0.01
                     31                     32                     33
                        a                      a                      a 
 Frequencies --   267.3966               285.2722               297.2296
 Red. masses --    10.5425                11.8373                11.8770
 Frc consts  --     0.0000                 0.0000                 0.0000
 IR Inten    --     2.8990                 0.4028                 0.0886
 Raman Activ --     0.0000                 0.0000                 0.0000
 Depolar     --     0.0000                 0.0000                 0.0000
 Atom AN      X      Y      Z        X      Y      Z        X      Y      Z
   1   6    -0.02  -0.01   0.18     0.07   0.04   0.01     0.10   0.15   0.03
   2   6     0.02   0.07  -0.18    -0.03  -0.09  -0.02     0.06   0.08   0.02
   3   6     0.04   0.05  -0.15    -0.17  -0.04  -0.02     0.01   0.07   0.02
   4   6    -0.00  -0.00   0.01    -0.11   0.00  -0.02    -0.02   0.01  -0.04
   5   6    -0.05  -0.02   0.16     0.08  -0.06  -0.00     0.10  -0.08  -0.01
   6   6    -0.03   0.00   0.16     0.09  -0.07  -0.00     0.11  -0.10   0.00
   7   6     0.01   0.03  -0.15     0.07  -0.07  -0.01     0.15  -0.15  -0.01
   8   6    -0.00  -0.00  -0.16     0.07  -0.04  -0.01     0.11  -0.20  -0.03
   9   7    -0.04  -0.02   0.00     0.10  -0.07   0.00     0.13  -0.21  -0.01
  10   6     0.00  -0.03  -0.01    -0.02   0.12   0.01    -0.02  -0.04  -0.05
  11   6     0.01  -0.03   0.14    -0.00   0.18   0.03    -0.05  -0.01   0.01
  12   6     0.00  -0.01   0.17     0.08   0.06   0.02    -0.05  -0.04   0.01
  13   6     0.03   0.05  -0.17    -0.02  -0.08  -0.01    -0.09  -0.08  -0.01
  14   6     0.04   0.03  -0.14    -0.16  -0.03  -0.01    -0.15  -0.05  -0.01
  15   7     0.04   0.00   0.00    -0.17   0.14   0.02    -0.15  -0.03   0.02
  16   6    -0.00  -0.01   0.01    -0.10   0.00  -0.01    -0.11   0.00  -0.04
  17   6    -0.05  -0.01   0.15     0.09  -0.06  -0.00    -0.10   0.02  -0.00
  18   6    -0.03   0.00   0.15     0.10  -0.07   0.00    -0.06   0.05   0.02
  19   6     0.01   0.02  -0.16     0.10  -0.08  -0.01    -0.03   0.03   0.01
  20   6     0.00   0.00  -0.16     0.09  -0.07  -0.01    -0.02   0.02  -0.01
  21   7    -0.04  -0.01  -0.00     0.12  -0.09  -0.01    -0.10   0.01   0.01
  22   6    -0.00  -0.03  -0.00    -0.01   0.10   0.01    -0.02   0.08  -0.03
  23   6    -0.00  -0.03   0.14    -0.01   0.16   0.03     0.04   0.20   0.04
  24   7     0.04   0.01  -0.01    -0.18   0.11   0.02     0.01   0.20   0.06
  25   1    -0.01  -0.01   0.10     0.06   0.01   0.00     0.05   0.04   0.01
  26   1     0.01   0.03  -0.09    -0.00  -0.07  -0.01     0.02   0.01   0.01
  27   1    -0.01   0.00   0.08     0.02  -0.03  -0.00     0.03  -0.03   0.00
  28   1     0.01   0.02  -0.09     0.02  -0.02  -0.00     0.06  -0.04  -0.00
  29   1    -0.02  -0.02  -0.00     0.03  -0.02   0.00     0.02  -0.08  -0.01
  30   1    -0.00  -0.01  -0.01    -0.04   0.03  -0.00    -0.04  -0.01  -0.03
  31   1    -0.01  -0.01   0.09     0.06   0.02   0.01    -0.01  -0.01   0.01
  32   1     0.01   0.02  -0.09     0.00  -0.06  -0.01    -0.02  -0.04  -0.01
  33   1     0.00  -0.01   0.00    -0.03   0.04  -0.00    -0.03   0.01  -0.02
  34   1    -0.01   0.00   0.08     0.03  -0.02   0.00    -0.02   0.03   0.01
  35   1     0.01   0.01  -0.08     0.03  -0.02  -0.00    -0.01   0.01   0.00
  36   1    -0.02  -0.01  -0.00     0.03  -0.03  -0.00    -0.03  -0.01  -0.00
  37   1    -0.00  -0.01   0.00    -0.04   0.02  -0.00    -0.04   0.02  -0.02
  38   6     0.01  -0.06   0.01    -0.13   0.16  -0.00    -0.01   0.09  -0.07
  39   6     0.01  -0.07   0.00    -0.09  -0.18   0.02    -0.01   0.10   0.06
  40   6     0.00  -0.03  -0.17     0.10  -0.04   0.02     0.06  -0.03  -0.00
  41   6    -0.04   0.06   0.16    -0.04   0.07  -0.02     0.11  -0.06   0.02
  42   6    -0.05   0.04   0.13    -0.16  -0.01  -0.01     0.16  -0.01   0.02
  43   6     0.00  -0.01  -0.01    -0.10  -0.03  -0.01     0.11   0.03   0.04
  44   6     0.05  -0.02  -0.15     0.08   0.08  -0.01     0.10   0.04  -0.00
  45   6     0.03  -0.01  -0.15     0.08   0.09  -0.01     0.05   0.06  -0.03
  46   6    -0.01   0.04   0.15     0.08   0.10  -0.02     0.02   0.03  -0.01
  47   6    -0.00   0.02   0.15     0.07   0.09  -0.02     0.02   0.02   0.01
  48   7     0.04  -0.01   0.01     0.09   0.11  -0.02     0.09   0.03  -0.01
  49   6     0.01  -0.03   0.01     0.01  -0.10   0.02     0.00   0.09   0.02
  50   6     0.01  -0.04  -0.14     0.03  -0.15   0.05    -0.08   0.18  -0.07
  51   6     0.02  -0.03  -0.17     0.08  -0.02   0.01    -0.13   0.11  -0.05
  52   6    -0.04   0.08   0.16    -0.05   0.08  -0.03    -0.07   0.06  -0.03
  53   6    -0.06   0.06   0.14    -0.18  -0.00  -0.02    -0.02   0.07  -0.03
  54   7    -0.04   0.00   0.01    -0.15  -0.15   0.03    -0.05   0.18  -0.09
  55   6     0.00  -0.00  -0.01    -0.10  -0.03  -0.01     0.02   0.02   0.03
  56   6     0.05  -0.02  -0.16     0.07   0.08  -0.01    -0.07  -0.10   0.02
  57   6     0.03  -0.01  -0.16     0.07   0.09  -0.01    -0.09  -0.12   0.01
  58   6    -0.02   0.04   0.15     0.05   0.08  -0.02    -0.11  -0.17   0.03
  59   6    -0.00   0.02   0.15     0.06   0.06  -0.01    -0.06  -0.21   0.06
  60   7     0.05  -0.01  -0.00     0.09   0.09  -0.01    -0.08  -0.23   0.04
  61   6     0.00  -0.03   0.02     0.01  -0.12   0.02     0.03  -0.03   0.05
  62   6    -0.00  -0.05  -0.13     0.04  -0.17   0.05     0.05  -0.00  -0.01
  63   7    -0.04  -0.01  -0.00    -0.13  -0.17   0.04     0.15  -0.00  -0.02
  64   1     0.01  -0.02  -0.09     0.07  -0.00   0.01     0.01  -0.01  -0.00
  65   1    -0.02   0.03   0.09    -0.01   0.06  -0.02     0.03  -0.04   0.01
  66   1     0.00  -0.01  -0.00    -0.02  -0.05   0.01     0.03   0.02   0.02
  67   1     0.01  -0.01  -0.08     0.02   0.03  -0.00     0.01   0.03  -0.02
  68   1    -0.01   0.02   0.08     0.03   0.03  -0.00     0.00   0.01  -0.01
  69   1     0.02  -0.01   0.01     0.02   0.03  -0.01     0.03   0.00   0.00
  70   1     0.00  -0.01  -0.00    -0.04  -0.03   0.00     0.03   0.03   0.02
  71   1     0.02  -0.02  -0.09     0.06   0.00   0.01    -0.06   0.03  -0.02
  72   1    -0.02   0.04   0.09    -0.01   0.06  -0.02    -0.02   0.01  -0.01
  73   1     0.01  -0.01  -0.08     0.02   0.03  -0.00    -0.03  -0.03   0.00
  74   1    -0.02   0.02   0.08     0.01   0.02  -0.01    -0.05  -0.05   0.01
  75   1     0.02  -0.01   0.00     0.03   0.02  -0.00     0.00  -0.08   0.02
  76   1     0.00  -0.01   0.01    -0.03  -0.04   0.00     0.04  -0.00   0.03
                     34                     35                     36
                        a                      a                      a 
 Frequencies --   300.9283               303.7158               334.9379
 Red. masses --    11.9993                10.9083                11.6212
 Frc consts  --     0.0000                 0.0000                 0.0000
 IR Inten    --     0.0440                 0.7399                 3.8275
 Raman Activ --     0.0000                 0.0000                 0.0000
 Depolar     --     0.0000                 0.0000                 0.0000
 Atom AN      X      Y      Z        X      Y      Z        X      Y      Z
   1   6    -0.08  -0.12  -0.02     0.03   0.03  -0.04     0.09  -0.06   0.01
   2   6    -0.09  -0.11  -0.03     0.01   0.01  -0.04     0.13  -0.00  -0.01
   3   6    -0.09  -0.08  -0.02    -0.00   0.01  -0.01     0.15   0.00  -0.00
   4   6    -0.05  -0.01   0.00    -0.00  -0.03   0.19     0.08  -0.02  -0.02
   5   6    -0.13   0.06   0.01     0.05  -0.02   0.01     0.08   0.01  -0.01
   6   6    -0.12   0.09   0.01     0.04  -0.03  -0.05     0.05   0.00  -0.00
   7   6    -0.12   0.11   0.01     0.03  -0.01  -0.07    -0.02   0.07   0.03
   8   6    -0.09   0.13   0.02     0.03  -0.01  -0.01     0.01   0.14   0.03
[...]
  74   1     0.00  -0.44   0.13     0.00  -0.67   0.19    -0.00   0.01  -0.00
  75   1    -0.00   0.00  -0.00    -0.00   0.00  -0.00    -0.00  -0.00  -0.00
  76   1     0.00  -0.01   0.00     0.00  -0.02   0.00     0.00  -0.00   0.00
                    214                    215                    216
                        a                      a                      a 
 Frequencies --  3166.6994              3168.8177              3169.1825
 Red. masses --     1.9549                 1.9612                 1.9613
 Frc consts  --     0.0000                 0.0000                 0.0000
 IR Inten    --    65.7860               145.7208               118.3242
 Raman Activ --     0.0000                 0.0000                 0.0000
 Depolar     --     0.0000                 0.0000                 0.0000
 Atom AN      X      Y      Z        X      Y      Z        X      Y      Z
   1   6    -0.01   0.08   0.01     0.00  -0.01  -0.00     0.00  -0.01  -0.00
   2   6     0.18   0.03   0.02    -0.02  -0.00  -0.00    -0.01  -0.00  -0.00
   3   6     0.00  -0.00  -0.00    -0.00   0.00   0.00    -0.00   0.00   0.00
   4   6     0.00   0.00   0.00    -0.00  -0.00  -0.00     0.00  -0.00  -0.00
   5   6     0.00  -0.00  -0.00     0.00  -0.00  -0.00     0.00  -0.00  -0.00
   6   6    -0.01   0.00   0.00    -0.00   0.00   0.00    -0.01   0.00   0.00
   7   6    -0.00   0.01   0.00     0.00  -0.00  -0.00    -0.00   0.00   0.00
   8   6     0.00   0.00   0.00     0.00  -0.00  -0.00     0.00  -0.00  -0.00
   9   7     0.00  -0.00  -0.00    -0.00   0.00   0.00    -0.00   0.00   0.00
  10   6    -0.00   0.00   0.00     0.00  -0.00  -0.00     0.00   0.00   0.00
  11   6     0.00   0.00   0.00    -0.00   0.00   0.00    -0.00   0.00   0.00
  12   6    -0.00   0.00   0.00    -0.00   0.00   0.00    -0.00   0.01   0.00
  13   6     0.00   0.00   0.00     0.00   0.00   0.00     0.01   0.00   0.00
  14   6     0.00   0.00   0.00     0.00  -0.00   0.00     0.00  -0.00   0.00
  15   7    -0.00  -0.00  -0.00    -0.00  -0.00  -0.00    -0.00  -0.00  -0.00
  16   6     0.00  -0.00   0.00     0.00  -0.00   0.00     0.00  -0.00   0.00
  17   6     0.00   0.00   0.00     0.00   0.01   0.00     0.00   0.01   0.00
  18   6     0.02  -0.00   0.00     0.16  -0.00   0.01     0.14  -0.00   0.01
  19   6     0.00  -0.01  -0.00     0.03  -0.14  -0.02     0.02  -0.13  -0.02
  20   6    -0.00  -0.00  -0.00    -0.01  -0.00  -0.00    -0.01  -0.00  -0.00
  21   7    -0.00   0.00  -0.00    -0.00   0.00   0.00    -0.00   0.00   0.00
  22   6     0.00   0.00   0.00     0.00  -0.00  -0.00     0.00  -0.00  -0.00
  23   6    -0.00   0.00  -0.00     0.00  -0.00   0.00     0.00   0.00   0.00
  24   7    -0.00  -0.00  -0.00     0.00   0.00   0.00     0.00   0.00   0.00
  25   1     0.01  -0.25  -0.04    -0.00   0.03   0.01    -0.00   0.02   0.00
  26   1    -0.59  -0.13  -0.07     0.06   0.01   0.01     0.04   0.01   0.00
  27   1     0.03  -0.00  -0.00     0.01  -0.00  -0.00     0.02  -0.00  -0.00
  28   1     0.01  -0.02  -0.00    -0.00   0.00   0.00     0.00  -0.00  -0.00
  29   1    -0.00   0.00   0.00     0.00  -0.00  -0.00     0.00  -0.00  -0.00
  30   1     0.00  -0.00  -0.00     0.00   0.00   0.00     0.00  -0.00  -0.00
  31   1     0.00  -0.00  -0.00     0.00  -0.01  -0.00     0.00  -0.02  -0.00
  32   1    -0.00  -0.00  -0.00    -0.01  -0.00  -0.00    -0.02  -0.01  -0.00
  33   1    -0.00  -0.00  -0.00    -0.01  -0.00  -0.00    -0.01  -0.00  -0.00
  34   1    -0.05   0.00  -0.00    -0.53   0.02  -0.03    -0.46   0.02  -0.02
  35   1    -0.01   0.04   0.00    -0.10   0.47   0.05    -0.09   0.40   0.05
  36   1     0.00  -0.00  -0.00    -0.00   0.00   0.00    -0.00   0.00   0.00
  37   1     0.00  -0.00  -0.00    -0.00   0.01   0.00    -0.00   0.01   0.00
  38   6     0.00   0.00  -0.00     0.00  -0.00   0.00     0.00   0.00   0.00
  39   6     0.00  -0.00  -0.00     0.00   0.00   0.00    -0.00  -0.00   0.00
  40   6     0.00  -0.00   0.00     0.00  -0.00   0.00    -0.00   0.01  -0.00
  41   6     0.00   0.00   0.00     0.00   0.00   0.00    -0.01  -0.00  -0.00
  42   6     0.00  -0.00   0.00     0.00   0.00   0.00    -0.00  -0.00  -0.00
  43   6     0.00   0.00   0.00     0.00   0.00   0.00    -0.00  -0.00  -0.00
  44   6     0.00  -0.00   0.00     0.00  -0.01   0.00    -0.00   0.01  -0.00
  45   6     0.01   0.00   0.00     0.14   0.03   0.00    -0.16  -0.04  -0.00
  46   6    -0.00   0.01  -0.00    -0.00   0.12  -0.03     0.01  -0.14   0.04
  47   6    -0.00   0.00  -0.00    -0.01   0.00  -0.00     0.01  -0.00   0.00
  48   7    -0.00  -0.00   0.00    -0.00  -0.00   0.00     0.00   0.00  -0.00
  49   6     0.00  -0.00   0.00     0.00   0.00  -0.00    -0.00  -0.00   0.00
  50   6    -0.00  -0.00   0.00     0.00   0.00   0.00    -0.00  -0.00  -0.00
  51   6     0.01  -0.08   0.03    -0.00   0.01  -0.00     0.00  -0.01   0.00
  52   6     0.19   0.01   0.02    -0.02  -0.00  -0.00     0.01   0.00   0.00
  53   6     0.00   0.01  -0.00    -0.00  -0.00   0.00     0.00   0.00  -0.00
  54   7    -0.00   0.00  -0.00     0.00  -0.00   0.00    -0.00   0.00  -0.00
  55   6     0.00  -0.00   0.00    -0.00   0.00  -0.00    -0.00  -0.00   0.00
  56   6    -0.00   0.00  -0.00     0.00   0.00  -0.00     0.00  -0.00   0.00
  57   6    -0.01  -0.00   0.00    -0.00  -0.00   0.00     0.01   0.00  -0.00
  58   6     0.00  -0.01   0.00     0.00   0.00  -0.00    -0.00   0.00  -0.00
  59   6     0.00   0.00   0.00    -0.00   0.00  -0.00    -0.00  -0.00   0.00
  60   7     0.00   0.00  -0.00    -0.00  -0.00   0.00     0.00   0.00  -0.00
  61   6    -0.00  -0.00   0.00     0.00   0.00  -0.00    -0.00   0.00  -0.00
  62   6     0.00  -0.00   0.00    -0.00  -0.00   0.00     0.00   0.00  -0.00
  63   7    -0.00  -0.00  -0.00    -0.00   0.00  -0.00     0.00  -0.00   0.00
  64   1    -0.00   0.00  -0.00    -0.00   0.01  -0.00     0.00  -0.02   0.01
  65   1    -0.00  -0.00  -0.00    -0.01  -0.00  -0.00     0.03   0.00   0.00
  66   1    -0.00  -0.00  -0.00    -0.01  -0.00  -0.00     0.01   0.00   0.00
  67   1    -0.04  -0.01  -0.00    -0.45  -0.13  -0.01     0.52   0.15   0.01
  68   1     0.00  -0.03   0.01     0.00  -0.40   0.10    -0.00   0.47  -0.12
  69   1    -0.00   0.00  -0.00    -0.00  -0.00   0.00     0.00   0.00  -0.00
  70   1    -0.00   0.00  -0.00     0.00  -0.01   0.00    -0.00   0.01  -0.00
  71   1    -0.05   0.24  -0.08     0.00  -0.02   0.01    -0.00   0.02  -0.01
  72   1    -0.63  -0.01  -0.08     0.05   0.00   0.01    -0.04  -0.00  -0.01
  73   1     0.04   0.01  -0.00     0.01   0.00  -0.00    -0.02  -0.01   0.00
  74   1    -0.00   0.02  -0.01    -0.00  -0.00   0.00     0.00  -0.01   0.00
  75   1    -0.00  -0.00   0.00     0.00   0.00  -0.00    -0.00  -0.00   0.00
  76   1    -0.00   0.00  -0.00     0.00  -0.00   0.00    -0.00  -0.00   0.00
                    217                    218                    219
                        a                      a                      a 
 Frequencies --  3173.8962              3175.5811              3347.9648
 Red. masses --     1.9487                 1.9462                 1.8926
 Frc consts  --     0.0000                 0.0000                 0.0000
 IR Inten    --    64.2907                36.2852                31.2451
 Raman Activ --     0.0000                 0.0000                 0.0000
 Depolar     --     0.0000                 0.0000                 0.0000
 Atom AN      X      Y      Z        X      Y      Z        X      Y      Z
   1   6     0.00  -0.00  -0.00     0.00  -0.01  -0.00    -0.00  -0.00  -0.00
   2   6    -0.01  -0.00  -0.00    -0.01  -0.00  -0.00    -0.00  -0.00  -0.00
   3   6    -0.00   0.00   0.00    -0.00   0.00   0.00    -0.00   0.00   0.00
   4   6    -0.00   0.00   0.00    -0.00   0.00   0.00     0.00  -0.00   0.00
   5   6    -0.00  -0.01  -0.00    -0.00  -0.01  -0.00    -0.00  -0.00   0.00
   6   6    -0.17   0.00   0.00    -0.18   0.00   0.00    -0.00  -0.00  -0.00
   7   6    -0.02   0.11   0.02    -0.02   0.10   0.02     0.00   0.00  -0.00
   8   6     0.00   0.00   0.00     0.00   0.00   0.00     0.00   0.00  -0.00
   9   7     0.00  -0.00  -0.00     0.00  -0.00  -0.00    -0.00   0.00   0.00
  10   6    -0.00   0.00   0.00    -0.00   0.00   0.00    -0.00   0.00   0.00
  11   6     0.00  -0.00  -0.00     0.00  -0.00  -0.00     0.00  -0.00   0.00
  12   6    -0.00   0.00   0.00    -0.00   0.00   0.00     0.00   0.00   0.00
  13   6     0.00   0.00   0.00     0.00   0.00   0.00     0.00   0.00   0.00
  14   6     0.00  -0.00  -0.00     0.00  -0.00  -0.00     0.00  -0.00   0.00
  15   7    -0.00  -0.00  -0.00    -0.00  -0.00  -0.00    -0.00   0.00  -0.00
  16   6    -0.00   0.00  -0.00    -0.00   0.00   0.00    -0.00  -0.00  -0.00
  17   6    -0.00  -0.00  -0.00    -0.00  -0.00  -0.00    -0.00   0.00   0.00
  18   6    -0.00   0.00  -0.00    -0.00   0.00  -0.00     0.00  -0.00   0.00
  19   6    -0.00   0.00   0.00    -0.00   0.00   0.00     0.00  -0.00  -0.00
  20   6     0.00   0.00   0.00     0.00   0.00   0.00    -0.00   0.00  -0.00
  21   7     0.00  -0.00  -0.00     0.00  -0.00  -0.00    -0.00   0.00   0.00
  22   6    -0.00  -0.00  -0.00     0.00  -0.00  -0.00    -0.00   0.00   0.00
  23   6     0.00  -0.00  -0.00     0.00  -0.00  -0.00     0.00   0.00   0.00
  24   7     0.00   0.00   0.00     0.00   0.00   0.00     0.00  -0.00  -0.00
  25   1    -0.00   0.01   0.00    -0.00   0.02   0.00     0.00   0.00   0.00
  26   1     0.02   0.00   0.00     0.04   0.01   0.00     0.00   0.00   0.00
  27   1     0.57  -0.02  -0.01     0.60  -0.02  -0.01    -0.00  -0.00   0.00
  28   1     0.08  -0.34  -0.05     0.07  -0.30  -0.05     0.00   0.00   0.00
  29   1     0.00  -0.00  -0.00     0.00  -0.00  -0.00     0.00  -0.00  -0.00
  30   1     0.00  -0.01  -0.00     0.00  -0.01  -0.00     0.00  -0.00  -0.00
  31   1     0.00  -0.01  -0.00     0.00  -0.01  -0.00     0.00  -0.00  -0.00
  32   1    -0.01  -0.00  -0.00    -0.00  -0.00  -0.00    -0.00  -0.00  -0.00
  33   1     0.00   0.00   0.00     0.00   0.00   0.00     0.00   0.00   0.00
  34   1     0.02  -0.00   0.00     0.01  -0.00   0.00    -0.00   0.00  -0.00
  35   1     0.00  -0.01  -0.00     0.00  -0.01  -0.00    -0.00   0.00   0.00
  36   1    -0.00   0.00  -0.00    -0.00   0.00   0.00     0.00  -0.00  -0.00
  37   1    -0.00   0.00   0.00    -0.00   0.00   0.00     0.00  -0.00   0.00
  38   6    -0.00  -0.00   0.00    -0.00   0.00  -0.00    -0.00  -0.00  -0.00
  39   6     0.00  -0.00  -0.00    -0.00  -0.00  -0.00     0.00   0.00   0.00
  40   6    -0.00   0.00  -0.00     0.00  -0.00   0.00    -0.00   0.00  -0.00
  41   6    -0.00  -0.00  -0.00     0.00   0.00   0.00    -0.00   0.00  -0.00
  42   6    -0.00  -0.00   0.00     0.00   0.00  -0.00    -0.00  -0.00   0.00
  43   6     0.00   0.00  -0.00    -0.00  -0.00   0.00     0.00   0.00  -0.00
  44   6     0.00  -0.00   0.00    -0.00   0.00  -0.00     0.00   0.00   0.00
  45   6     0.01   0.00   0.00    -0.00  -0.00  -0.00    -0.00  -0.00   0.00
  46   6    -0.00   0.01  -0.00     0.00  -0.00   0.00    -0.00  -0.00   0.00
  47   6    -0.00   0.00  -0.00     0.00  -0.00   0.00    -0.00   0.00  -0.00
  48   7    -0.00  -0.00   0.00     0.00   0.00  -0.00     0.03   0.04  -0.01
  49   6     0.00   0.00  -0.00     0.00  -0.00   0.00     0.00   0.00  -0.00
  50   6    -0.00  -0.00   0.00     0.00   0.00  -0.00    -0.00   0.00  -0.00
  51   6     0.00  -0.00   0.00    -0.00   0.01  -0.00     0.00   0.00   0.00
  52   6     0.01   0.00   0.00    -0.01  -0.00  -0.00     0.00  -0.00   0.00
  53   6     0.00   0.00  -0.00    -0.00  -0.00   0.00    -0.00  -0.00   0.00
  54   7    -0.00   0.00  -0.00     0.00  -0.00   0.00     0.00  -0.00   0.00
  55   6     0.00   0.00  -0.00    -0.00  -0.00   0.00    -0.00   0.00  -0.00
  56   6     0.00  -0.01   0.00    -0.00   0.01  -0.00     0.00   0.00  -0.00
  57   6     0.17   0.04  -0.00    -0.17  -0.04   0.00    -0.00  -0.00   0.00
  58   6    -0.00   0.11  -0.03     0.00  -0.09   0.03    -0.00  -0.00   0.00
  59   6    -0.00  -0.00  -0.00     0.00   0.00   0.00     0.00   0.00  -0.00
  60   7    -0.00  -0.00   0.00     0.00   0.00  -0.00     0.15   0.20  -0.05
  61   6     0.00   0.00  -0.00    -0.00  -0.00   0.00     0.00   0.00  -0.00
  62   6    -0.00  -0.00   0.00     0.00   0.00  -0.00    -0.00  -0.00   0.00
  63   7     0.00  -0.00   0.00    -0.00   0.00  -0.00    -0.00   0.00  -0.00
  64   1     0.00  -0.01   0.00    -0.00   0.01  -0.00     0.00  -0.00   0.00
  65   1     0.01   0.00   0.00    -0.00  -0.00  -0.00     0.00   0.00  -0.00
  66   1    -0.00   0.00  -0.00     0.00   0.00   0.00    -0.00  -0.00  -0.00
  67   1    -0.02  -0.01  -0.00     0.01   0.00   0.00    -0.00  -0.00   0.00
  68   1     0.00  -0.02   0.00    -0.00   0.01  -0.00    -0.00  -0.00   0.00
  69   1     0.00   0.00  -0.00    -0.00  -0.00   0.00    -0.12  -0.16   0.03
  70   1     0.00   0.00  -0.00    -0.00  -0.00   0.00     0.00  -0.00   0.00
  71   1    -0.00   0.01  -0.00     0.00  -0.02   0.00     0.00  -0.00   0.00
  72   1    -0.02  -0.00  -0.00     0.04   0.00   0.01     0.00  -0.00   0.00
  73   1    -0.56  -0.15   0.02     0.57   0.16  -0.02    -0.00  -0.00   0.00
  74   1     0.00  -0.34   0.10    -0.00   0.30  -0.09    -0.00  -0.00   0.00
  75   1    -0.00  -0.00   0.00     0.00   0.00  -0.00    -0.56  -0.74   0.17
  76   1     0.00  -0.01   0.00    -0.00   0.01  -0.00     0.00  -0.00   0.00
                    220                    221                    222
                        a                      a                      a 
 Frequencies --  3349.3145              3356.7852              3357.9966
 Red. masses --     1.8926                 1.8874                 1.8873
 Frc consts  --     0.0000                 0.0000                 0.0000
 IR Inten    --    20.0807                 2.1062                 0.6676
 Raman Activ --     0.0000                 0.0000                 0.0000
 Depolar     --     0.0000                 0.0000                 0.0000
 Atom AN      X      Y      Z        X      Y      Z        X      Y      Z
   1   6     0.00   0.00   0.00    -0.00  -0.00  -0.00     0.00   0.00   0.00
   2   6    -0.00   0.00   0.00    -0.00  -0.00  -0.00     0.00   0.00   0.00
   3   6    -0.00   0.00   0.00     0.00   0.00   0.00    -0.00   0.00  -0.00
   4   6    -0.00  -0.00  -0.00     0.00   0.00   0.00    -0.00   0.00   0.00
   5   6     0.00  -0.00  -0.00     0.00  -0.00  -0.00    -0.00  -0.00  -0.00
   6   6    -0.00   0.00   0.00    -0.00   0.00   0.00    -0.00   0.00   0.00
   7   6    -0.00   0.00   0.00    -0.00   0.00   0.00    -0.00   0.00   0.00
   8   6     0.00  -0.00  -0.00     0.00   0.00   0.00     0.00   0.00   0.00
   9   7     0.19  -0.16  -0.02    -0.00   0.00   0.00     0.04  -0.04  -0.01
  10   6     0.00  -0.00  -0.00    -0.00   0.00   0.00    -0.00   0.00   0.00
  11   6    -0.00   0.00   0.00     0.00   0.00  -0.00    -0.00   0.00   0.00
  12   6    -0.00  -0.00  -0.00    -0.00   0.00   0.00    -0.00  -0.00  -0.00
  13   6    -0.00  -0.00  -0.00     0.00  -0.00   0.00     0.00  -0.00  -0.00
  14   6    -0.00   0.00   0.00     0.00   0.00   0.00     0.00  -0.00  -0.00
  15   7    -0.00  -0.00  -0.00    -0.00  -0.00  -0.00    -0.00  -0.00  -0.00
  16   6     0.00  -0.00  -0.00     0.00   0.00   0.00    -0.00   0.00   0.00
  17   6     0.00  -0.00   0.00    -0.00   0.00   0.00    -0.00   0.00   0.00
  18   6    -0.00   0.00   0.00     0.00  -0.00  -0.00     0.00  -0.00  -0.00
  19   6    -0.00   0.00   0.00     0.00  -0.00  -0.00     0.00  -0.00  -0.00
  20   6     0.00  -0.00  -0.00    -0.00   0.00   0.00    -0.00   0.00  -0.00
  21   7     0.04  -0.04  -0.00    -0.00   0.00   0.00    -0.19   0.17   0.01
  22   6     0.00  -0.00  -0.00    -0.00  -0.00  -0.00    -0.00   0.00  -0.00
  23   6    -0.00  -0.00  -0.00     0.00  -0.00  -0.00     0.00  -0.00  -0.00
  24   7     0.00   0.00   0.00     0.00   0.00   0.00     0.00   0.00   0.00
  25   1     0.00   0.00   0.00    -0.00   0.00   0.00     0.00   0.00   0.00
  26   1     0.00   0.00   0.00     0.00   0.00   0.00     0.00   0.00   0.00
  27   1    -0.00   0.00   0.00     0.00  -0.00  -0.00     0.00  -0.00  -0.00
  28   1    -0.00   0.00   0.00     0.00  -0.00  -0.00     0.00  -0.00  -0.00
  29   1    -0.72   0.60   0.08     0.00  -0.00  -0.00    -0.16   0.13   0.02
  30   1    -0.00   0.00   0.00     0.00  -0.00  -0.00     0.00  -0.00  -0.00
  31   1     0.00   0.00   0.00    -0.00  -0.00  -0.00    -0.00  -0.00  -0.00
  32   1     0.00  -0.00  -0.00    -0.00  -0.00  -0.00    -0.00  -0.00  -0.00
  33   1    -0.00  -0.00  -0.00    -0.00  -0.00  -0.00     0.00   0.00   0.00
  34   1    -0.00   0.00  -0.00    -0.00  -0.00  -0.00     0.00  -0.00   0.00
  35   1    -0.00   0.00   0.00    -0.00   0.00   0.00     0.00  -0.00  -0.00
  36   1    -0.16   0.14   0.01     0.01  -0.01  -0.00     0.72  -0.61  -0.04
  37   1    -0.00   0.00   0.00    -0.00   0.00   0.00     0.00  -0.00  -0.00
  38   6     0.00   0.00   0.00    -0.00  -0.00  -0.00     0.00   0.00   0.00
  39   6    -0.00  -0.00  -0.00     0.00   0.00   0.00    -0.00  -0.00  -0.00
  40   6     0.00  -0.00   0.00    -0.00  -0.00  -0.00     0.00  -0.00   0.00
  41   6     0.00   0.00   0.00    -0.00   0.00  -0.00     0.00  -0.00   0.00
  42   6     0.00   0.00  -0.00     0.00   0.00  -0.00    -0.00  -0.00   0.00
  43   6    -0.00  -0.00  -0.00    -0.00  -0.00   0.00     0.00   0.00   0.00
  44   6     0.00  -0.00   0.00    -0.00  -0.00   0.00     0.00   0.00  -0.00
  45   6     0.00   0.00   0.00     0.00   0.00  -0.00    -0.00  -0.00   0.00
  46   6     0.00   0.00  -0.00     0.00   0.00  -0.00    -0.00  -0.00   0.00
  47   6    -0.00  -0.00   0.00    -0.00  -0.00   0.00     0.00  -0.00   0.00
  48   7    -0.00  -0.00   0.00    -0.15  -0.20   0.04     0.00   0.00  -0.00
  49   6    -0.00   0.00  -0.00    -0.00  -0.00   0.00    -0.00   0.00  -0.00
  50   6     0.00  -0.00  -0.00     0.00   0.00  -0.00     0.00  -0.00   0.00
  51   6    -0.00   0.00  -0.00     0.00  -0.00   0.00    -0.00   0.00  -0.00
  52   6    -0.00   0.00  -0.00     0.00  -0.00   0.00    -0.00   0.00  -0.00
  53   6    -0.00  -0.00   0.00    -0.00  -0.00  -0.00     0.00  -0.00   0.00
  54   7     0.00  -0.00   0.00     0.00  -0.00   0.00    -0.00   0.00  -0.00
  55   6     0.00   0.00   0.00    -0.00  -0.00   0.00     0.00   0.00   0.00
  56   6    -0.00   0.00  -0.00    -0.00   0.00  -0.00     0.00   0.00   0.00
  57   6    -0.00  -0.00  -0.00    -0.00  -0.00   0.00    -0.00  -0.00   0.00
  58   6    -0.00  -0.00  -0.00    -0.00  -0.00   0.00    -0.00  -0.00   0.00
  59   6     0.00  -0.00   0.00     0.00  -0.00   0.00     0.00  -0.00  -0.00
  60   7     0.00   0.00  -0.00     0.03   0.04  -0.01    -0.00  -0.00   0.00
  61   6    -0.00   0.00  -0.00    -0.00  -0.00   0.00    -0.00  -0.00   0.00
  62   6    -0.00   0.00  -0.00    -0.00  -0.00   0.00     0.00   0.00  -0.00
  63   7    -0.00   0.00   0.00    -0.00   0.00  -0.00     0.00  -0.00   0.00
  64   1    -0.00   0.00  -0.00    -0.00   0.00  -0.00    -0.00   0.00  -0.00
  65   1    -0.00  -0.00  -0.00    -0.00   0.00  -0.00    -0.00  -0.00  -0.00
  66   1     0.00   0.00   0.00     0.00   0.00   0.00    -0.00  -0.00  -0.00
  67   1    -0.00  -0.00  -0.00     0.00   0.00  -0.00     0.00   0.00   0.00
  68   1     0.00  -0.00   0.00     0.00   0.00  -0.00    -0.00  -0.00   0.00
  69   1     0.00   0.00  -0.00     0.56   0.74  -0.14    -0.01  -0.01   0.00
  70   1     0.00  -0.00   0.00    -0.00   0.00  -0.00     0.00  -0.00   0.00
  71   1     0.00  -0.00   0.00     0.00  -0.00   0.00     0.00  -0.00   0.00
  72   1     0.00   0.00   0.00     0.00  -0.00   0.00     0.00   0.00   0.00
  73   1    -0.00   0.00   0.00     0.00   0.00  -0.00     0.00   0.00  -0.00
  74   1     0.00  -0.00   0.00     0.00   0.00  -0.00    -0.00   0.00  -0.00
  75   1    -0.00  -0.00   0.00    -0.12  -0.16   0.04     0.00   0.00  -0.00
  76   1     0.00  -0.00   0.00    -0.00   0.00  -0.00    -0.00   0.00  -0.00
