76
 energy: -126.208157145092 gnorm: 0.402526171903 xtb: 6.4.1 (bd6e46d)
C         3.54358800000000   -3.20449700000000    1.77390400000000
C         2.43389000000000   -2.49940400000000    1.61436500000000
C         2.76798800000000   -1.18264500000000    1.14354100000000
C         2.04967300000000   -0.00895100000000    0.80281300000000
C         2.58163200000000    1.29108300000000    0.65795800000000
C         1.99172000000000    2.42504900000000    1.27574200000000
C         2.74593500000000    3.50419500000000    0.97551800000000
C         3.82237700000000    3.06616200000000    0.16417700000000
N         3.65775100000000    1.74881900000000    0.01682700000000
C         4.78549800000000    3.96647300000000   -0.27728800000000
C         6.16951300000000    3.75624400000000   -0.33754600000000
C         7.33642600000000    4.60201200000000   -0.55344700000000
C         8.41622600000000    3.87658600000000   -0.50908100000000
C         8.01016700000000    2.51976100000000   -0.26056600000000
N         6.67662000000000    2.53999400000000   -0.17350700000000
C         8.73022800000000    1.32965900000000   -0.10669700000000
C         8.18635600000000    0.03068400000000    0.10666900000000
C         8.65257500000000   -1.10785100000000   -0.56630100000000
C         7.91319800000000   -2.18072200000000   -0.16733900000000
C         6.99054700000000   -1.68008500000000    0.75733500000000
N         7.18322100000000   -0.35882800000000    0.89889300000000
C         6.03463000000000   -2.52178300000000    1.37057200000000
C         4.63627300000000   -2.34074900000000    1.40276900000000
N         4.10326700000000   -1.17692700000000    1.04590100000000
H         3.63494900000000   -4.22985700000000    2.11347500000000
H         1.40223000000000   -2.83770700000000    1.80636100000000
H         1.06561000000000    2.41324800000000    1.89123200000000
H         2.53194900000000    4.53685100000000    1.31425700000000
H         4.35650400000000    1.09314700000000   -0.61847200000000
H         4.50819200000000    4.98152700000000   -0.61061000000000
H         7.30922900000000    5.69261600000000   -0.72657300000000
H         9.46598500000000    4.17992200000000   -0.62853600000000
H         9.82602900000000    1.35569500000000   -0.17577700000000
H         9.49121400000000   -1.12266500000000   -1.30309900000000
H         8.01870200000000   -3.21587400000000   -0.48756800000000
H         6.58900800000000    0.30885300000000    1.61128900000000
H         6.36747100000000   -3.47107800000000    1.87342900000000
C         0.65405300000000   -0.28692700000000    0.64810400000000
C        -0.55380300000000   -0.48709100000000    0.49991200000000
C        -8.22086700000000    2.88077500000000   -0.41987600000000
C        -9.15849500000000    1.93097500000000   -0.49803000000000
C        -8.50775300000000    0.63706400000000   -0.52498900000000
C        -8.87007400000000   -0.70621900000000   -0.59934200000000
C        -7.98388000000000   -1.82460000000000   -0.72645100000000
C        -8.15681000000000   -2.83094800000000   -1.70033000000000
C        -7.14082000000000   -3.70829800000000   -1.57741200000000
C        -6.33558700000000   -3.26192500000000   -0.53808100000000
N        -6.87457400000000   -2.12606800000000   -0.04670500000000
C        -5.17960400000000   -3.94871000000000   -0.19167300000000
C        -3.88186200000000   -3.54970400000000    0.20273300000000
C        -2.76299100000000   -4.17739200000000    0.77504800000000
C        -1.83160600000000   -3.26216400000000    0.93131800000000
C        -2.37143900000000   -2.03072400000000    0.44827900000000
N        -3.54879900000000   -2.26046900000000    0.04401500000000
C        -1.99794800000000   -0.67852500000000    0.30511200000000
C        -2.83705000000000    0.40438900000000   -0.00613200000000
C        -2.35266100000000    1.36217700000000   -0.93604700000000
C        -3.33753000000000    2.26150800000000   -1.08281800000000
C        -4.44974400000000    1.92296400000000   -0.27951200000000
N        -4.07455300000000    0.77621600000000    0.35567600000000
C        -5.57071000000000    2.69640900000000   -0.31732800000000
C        -6.91389700000000    2.24792500000000   -0.39324800000000
N        -7.22661700000000    0.97710200000000   -0.45891000000000
H        -8.38971600000000    3.96211100000000   -0.37974400000000
H       -10.24301900000000    2.03794000000000   -0.53678700000000
H        -9.90989600000000   -0.97692100000000   -0.59548400000000
H        -8.99789600000000   -2.87171300000000   -2.42949700000000
H        -6.98113100000000   -4.60208500000000   -2.17648600000000
H        -6.43959500000000   -1.53339200000000    0.83464300000000
H        -5.12660100000000   -4.96788200000000   -0.21064500000000
H        -2.79925600000000   -5.21728700000000    0.99546400000000
H        -0.84041000000000   -3.37219900000000    1.34179500000000
H        -1.37376800000000    1.39006900000000   -1.44427900000000
H        -3.19398200000000    3.12173800000000   -1.76262800000000
H        -4.69307100000000    0.21721700000000    1.09896300000000
H        -5.51241000000000    3.77570800000000   -0.30789200000000
76
 energy: -126.323197236772 gnorm: 0.189937000028 xtb: 6.4.1 (bd6e46d)
C         3.54804409756335   -3.20555164925192    1.78396463607364
C         2.41891623713862   -2.50083909471768    1.60694370919375
C         2.78969210114907   -1.18319612239604    1.12166745689573
C         2.03279896357132   -0.03099267168632    0.79580620277710
C         2.56834437661710    1.28390837794184    0.65716247534511
C         1.97092907994032    2.42128286203764    1.26585048493884
C         2.73079489217444    3.51229046038309    0.96131466440467
C         3.82175771687081    3.07444138217407    0.16037375649852
N         3.67731532660669    1.73271916403260    0.02175299605391
C         4.80472688657838    3.97043583445687   -0.28986631307638
C         6.17757856534610    3.73189322686890   -0.35375566644352
C         7.32647976102958    4.61901720690489   -0.56389195065824
C         8.43096404040721    3.87249901695959   -0.50695260338517
C         8.00106594988311    2.50798812085430   -0.23877514128826
N         6.65850081300745    2.49782907253603   -0.15911028513222
C         8.73070292379212    1.33734627606270   -0.09882864338143
C         8.19164579283699    0.03984846200050    0.10399488811811
C         8.67220805422933   -1.10677658240884   -0.56050440093611
C         7.92587455818383   -2.18301651609351   -0.15022214165639
C         6.98117684604961   -1.69115119782663    0.77180707460268
N         7.16030690957487   -0.35176040893712    0.89156966318307
C         6.01665914179857   -2.52933879170223    1.38897067430563
C         4.64263825907063   -2.31770024526232    1.41866571253574
N         4.12587763867848   -1.13932321077118    1.03218773592926
H         3.63879652668849   -4.22708857603091    2.11545279942862
H         1.40448138888427   -2.83331262479355    1.80182927168940
H         1.07643241496937    2.40594275516373    1.88389778935586
H         2.54176692687419    4.52514876354821    1.30654748355381
H         4.33254106620294    1.12097438619477   -0.57120432233511
H         4.50769274605806    4.98181033257825   -0.57848608453797
H         7.29683605649074    5.69195013444455   -0.72744592383085
H         9.46308836794224    4.17795742240573   -0.62618669811098
H         9.81577753658426    1.36476762139157   -0.19843746876245
H         9.47865723898088   -1.11780322317086   -1.29360654228502
H         8.01512625854994   -3.20591371405988   -0.48252901525815
H         6.60852483532935    0.27716657592648    1.55921589126890
H         6.36131946282833   -3.47479236864989    1.83742381522733
C         0.64112583337786   -0.26369310847999    0.66965531614658
C        -0.54987197428723   -0.46822501932003    0.48901964151874
C        -8.22687835919726    2.88828970127589   -0.41859613422544
C        -9.16858062306985    1.92896286759329   -0.49367737062911
C        -8.47920559830377    0.63431476795577   -0.50916534438239
C        -8.86910233313088   -0.69357254055488   -0.59120458163178
C        -7.99019202175459   -1.81146044221300   -0.72658491384401
C        -8.18067028221060   -2.82976613659278   -1.69235027268799
C        -7.15327608840209   -3.71983550890320   -1.57096691148944
C        -6.32161252677643   -3.26392970736858   -0.53514089973188
N        -6.85481120344204   -2.10702824439146   -0.05233903199327
C        -5.16798078820919   -3.96021734579285   -0.17445348453241
C        -3.90784093712042   -3.52455126308090    0.20896773138163
C        -2.76723915506121   -4.18901551400773    0.77028662796442
C        -1.81442006247534   -3.25908580263045    0.93508318795113
C        -2.38143124036281   -2.01407974053917    0.46046594483966
N        -3.60544333428240   -2.22314175592990    0.05180742795329
C        -1.95639583630875   -0.67564992455792    0.33153507280255
C        -2.80752083372107    0.40313511365680   -0.00649686425656
C        -2.33437116366023    1.37387328922572   -0.92615604283645
C        -3.32322802357936    2.28985507375286   -1.07896747946312
C        -4.44187033973946    1.92285774967208   -0.28600758380621
N        -4.07487346064471    0.75808726392433    0.34184724645117
C        -5.60135534197770    2.69400225764661   -0.30425242153936
C        -6.92107003395344    2.21986469273308   -0.37260733515498
N        -7.16921558799805    0.91865552605657   -0.44191708445602
H        -8.39233082294380    3.95872989770831   -0.38186256473640
H       -10.24253195244540    2.04346269188001   -0.53724612611087
H        -9.91683046948409   -0.95792422183192   -0.61905391003920
H        -8.99074036960460   -2.86314270922189   -2.41793646561047
H        -6.98166747232846   -4.59773796002391   -2.17316813874908
H        -6.45602152939581   -1.55570647067926    0.77554336564021
H        -5.14372748180609   -5.01714268032034   -0.22707127996765
H        -2.78931573082055   -5.23248212851748    1.00102650063597
H        -0.82974423151727   -3.37469478381454    1.34576410234448
H        -1.37961261409044    1.38080476125200   -1.43483394032693
H        -3.21563886421421    3.12831030079303   -1.75698916117700
H        -4.66647275383201    0.23598739852826    1.04884994071101
H        -5.51407514970735    3.77423019801010   -0.33204674326426
76
 energy: -126.370695571187 gnorm: 0.064481512721 xtb: 6.4.1 (bd6e46d)
C         3.55524073151692   -3.18999291863809    1.79589079376692
C         2.41437213360697   -2.49312179200912    1.59111988498455
C         2.81680360887402   -1.17594921956444    1.09892847564697
C         2.01958034894744   -0.04643750262561    0.78986603563316
C         2.55498944834360    1.28184593865498    0.65657354292518
C         1.94972495887159    2.41807667888823    1.24746523935636
C         2.71314863722459    3.51653229675273    0.94137669225543
C         3.81578706648516    3.08161231341766    0.15929319151062
N         3.69664196996756    1.71824421467132    0.03543540038702
C         4.81922299223635    3.96834345821394   -0.29531764859284
C         6.18122197807256    3.70070595778559   -0.36507628830262
C         7.31283401149409    4.61570325442500   -0.57708864212109
C         8.43093961384686    3.86187402615982   -0.49771256001241
C         7.98695316867676    2.49567761167001   -0.21392916065951
N         6.64095004905319    2.45909450528439   -0.14240273205243
C         8.73057409868483    1.34024932402436   -0.09159973637449
C         8.19808181653289    0.04345072499363    0.10223971067650
C         8.69316372768600   -1.10985969889277   -0.54561614942021
C         7.94320004432384   -2.18463583640166   -0.12659704700850
C         6.97712724013282   -1.70212036547774    0.78328928549492
N         7.13642979946015   -0.34706005297489    0.87539746218596
C         6.00296764284040   -2.53591837286516    1.40053559036776
C         4.65046603090436   -2.28874320983604    1.43360370362509
N         4.14625035647455   -1.10127244973347    1.02149812345785
H         3.64805777010313   -4.21015691177556    2.12087805985879
H         1.41109332143661   -2.82017517250969    1.78513950328310
H         1.07884024303758    2.39836740014044    1.87003942521925
H         2.54793489784959    4.51650520457860    1.29115429097348
H         4.31027173622535    1.15026192596433   -0.50625348505259
H         4.50544914391356    4.98133581659574   -0.53018740090968
H         7.27503543037688    5.67660913367644   -0.73460020181461
H         9.45145836196369    4.17193367854292   -0.61740346575156
H         9.80547242968465    1.37376234192672   -0.23304027030361
H         9.47325659972684   -1.11608365439569   -1.27927322571023
H         8.01669454532170   -3.19846909893430   -0.47075044462766
H         6.62184271548008    0.24488748514452    1.48964756716078
H         6.35497059997327   -3.48746119031875    1.78627183864374
C         0.63748776482533   -0.23896620083418    0.68510966188697
C        -0.55370193031404   -0.44320989267397    0.49655000536030
C        -8.21980581420662    2.87880475169203   -0.40967466953608
C        -9.16193512369028    1.91406464121636   -0.48423045168194
C        -8.44554774856884    0.62683468313268   -0.48105602467398
C        -8.86705695369672   -0.68643087429016   -0.58364825294565
C        -7.99698923712933   -1.80535048825708   -0.72663357641385
C        -8.20412215616881   -2.83430130639951   -1.67755918228325
C        -7.17172304668547   -3.73164280971912   -1.56075053346200
C        -6.31318292860584   -3.27178046311896   -0.53713414069786
N        -6.83300506646158   -2.09102564687355   -0.06791286642634
C        -5.16167001205585   -3.97824752248976   -0.15645496126058
C        -3.93526909696068   -3.49157414486995    0.22858918298012
C        -2.77543993038810   -4.18669208572548    0.76408757736225
C        -1.81483731165832   -3.24833850818142    0.93315312208348
C        -2.40481113983658   -1.99357444639408    0.48140860367938
N        -3.66153637275602   -2.18039578221340    0.08782584088730
C        -1.92067283510678   -0.67282084816485    0.35879802011021
C        -2.77858351314150    0.40891131457894   -0.01385133497891
C        -2.31671348790650    1.39297694976119   -0.91326936862587
C        -3.30929784048134    2.31946780977968   -1.07470655896859
C        -4.42823667282031    1.92615848656517   -0.29663313201949
N        -4.07135059798444    0.74432458828710    0.31846452919624
C        -5.62341505590801    2.68554622981454   -0.29193980067334
C        -6.92048372939717    2.18754742584877   -0.34567054801484
N        -7.11948646280203    0.86610581678049   -0.40437210359330
H        -8.37906241768021    3.94231833671666   -0.38481896738386
H       -10.22868293569177    2.03483293413881   -0.53962213863440
H        -9.92188282766663   -0.93354137792729   -0.66063507881924
H        -8.99124099233350   -2.85895526290137   -2.40213765365534
H        -6.98868383986732   -4.59634979609961   -2.16728984027159
H        -6.46598998903549   -1.57406945055024    0.69663598367452
H        -5.17292293598730   -5.05549438343570   -0.25196512367931
H        -2.77464006368780   -5.23427578340282    0.99902138876275
H        -0.83010969126985   -3.36988901591341    1.33763896872483
H        -1.37590524850597    1.37812057520121   -1.42106186612006
H        -3.24109218366974    3.14687752792477   -1.74804343516635
H        -4.63853049183044    0.25225654499836    0.98262698236057
H        -5.50692035221875    3.76416262944080   -0.36227761578226
76
 energy: -126.393621502936 gnorm: 0.043693139853 xtb: 6.4.1 (bd6e46d)
C         3.56527098482623   -3.15883299849177    1.80329805152320
C         2.42354873181181   -2.47222189984739    1.57131435565802
C         2.83448886541122   -1.15715159713099    1.07986615909353
C         2.01462691467137   -0.04152510593868    0.78384281303570
C         2.53964651990283    1.29011964876540    0.65838202420766
C         1.91980958109936    2.42465694411581    1.22441745601614
C         2.68516850549874    3.52397718291331    0.92036010475293
C         3.80205289062349    3.08714129848028    0.16805370827198
N         3.69597714746861    1.72030241436915    0.06087505662611
C         4.81671919421785    3.96000423539791   -0.28264914644836
C         6.17085849397158    3.66936816458387   -0.36317627367792
C         7.29265695052551    4.59022898170279   -0.58452674596077
C         8.41429021230083    3.84268386466585   -0.48533517793748
C         7.97130022068513    2.47846844621330   -0.19378472753266
N         6.62596164528848    2.42905744819673   -0.12453784682589
C         8.73006102752142    1.33170180402019   -0.09262366319899
C         8.20961506110316    0.03309960906561    0.09632224676999
C         8.72194228035085   -1.12470848502867   -0.52599937878057
C         7.97165230541855   -2.19704373093893   -0.10385488747194
C         6.98562184145315   -1.71311133796943    0.78092630058484
N         7.12949062394053   -0.35488053029629    0.84659608268628
C         6.00337837327112   -2.53571503296433    1.39518240745398
C         4.65940566430142   -2.25730459488923    1.44251556189723
N         4.16107208795227   -1.06778673296516    1.01989949143914
H         3.66338342218700   -4.17706105819913    2.13334245514672
H         1.41780190319254   -2.79817998356220    1.75270189024678
H         1.05224007730580    2.39750802125744    1.84970888744569
H         2.53307985894413    4.52484882557403    1.26849352902814
H         4.34042046009667    1.13946024202451   -0.44871422069894
H         4.50908014811103    4.98771789796712   -0.46258652620604
H         7.23966097713793    5.64984059956903   -0.75138331559769
H         9.43438631457292    4.15755443161657   -0.60166248170032
H         9.79805628168821    1.38021472628393   -0.28375293184248
H         9.49598371739287   -1.12582981936593   -1.26408639527684
H         8.03872385117529   -3.20926602977671   -0.44793824823717
H         6.58601487235560    0.25373945401560    1.43275504637971
H         6.34267664327408   -3.52097077198995    1.71312885490755
C         0.63559903435955   -0.21684660838948    0.71185944584475
C        -0.55209355583886   -0.42717620377626    0.50643602440709
C        -8.19538258938925    2.85037586879137   -0.38697672271179
C        -9.13573457937633    1.88615649996022   -0.46128081220246
C        -8.41350467594057    0.60565038746249   -0.44118773950726
C        -8.86245650344089   -0.69375697235219   -0.58447303243792
C        -8.00639764844572   -1.81620019696920   -0.73641131893901
C        -8.23112855192938   -2.85547564082015   -1.66729433347947
C        -7.19920204929028   -3.75444924405461   -1.55558820691858
C        -6.32179305992772   -3.28920395485282   -0.55052767377865
N        -6.82506688349303   -2.09280078590144   -0.10257259891104
C        -5.17261077030608   -3.99358717902493   -0.15165064399546
C        -3.96509251395731   -3.46646522500325    0.25940302569536
C        -2.79002020462002   -4.16782605643285    0.76746972740675
C        -1.83332516301496   -3.22555152521997    0.93772214672866
C        -2.43854047768416   -1.96565024599002    0.51702001913040
N        -3.71117856538134   -2.14462769435619    0.15083249078543
C        -1.91310826013570   -0.65899291027303    0.38012475645934
C        -2.75320023105944    0.43047537695367   -0.02373173746580
C        -2.28851360700957    1.42596517818877   -0.90306717438577
C        -3.28664340836834    2.35212623255410   -1.06964645469244
C        -4.40612623332184    1.93743898415705   -0.31118584095751
N        -4.05398047178809    0.74925233190258    0.28585264905136
C        -5.61672852364282    2.67715373014025   -0.29031467251666
C        -6.90101802189906    2.15551457793824   -0.30743607035937
N        -7.08632659523046    0.82800300013772   -0.33920783709509
H        -8.35032296632515    3.91522605792654   -0.38866430172153
H       -10.20161938862218    2.00992831700193   -0.54211872661445
H        -9.92318580364059   -0.90725519671862   -0.72481987815437
H        -9.01861227957855   -2.87020428358455   -2.39008797232650
H        -7.01394272902782   -4.61643753964742   -2.16276949793746
H        -6.43716466986591   -1.54828656722728    0.64579938429594
H        -5.19258783319847   -5.07367178956837   -0.27367692989628
H        -2.76261592345767   -5.22190523952146    0.98261579652776
H        -0.83666303638269   -3.35272047033336    1.31652180794042
H        -1.34579310573072    1.39884243650778   -1.40664457933544
H        -3.25020845901207    3.18624528480900   -1.73912346518616
H        -4.63732910803274    0.23776696518802    0.92245040258288
H        -5.50250623804410    3.75286676895416   -0.40366397110682
76
 energy: -126.414426262518 gnorm: 0.034492287039 xtb: 6.4.1 (bd6e46d)
C         3.57699486309541   -3.12285344946865    1.80514751741865
C         2.43658306875137   -2.44593067992470    1.55074054060365
C         2.85208904044123   -1.13186528007131    1.06648901049547
C         2.01084656069544   -0.03213826866434    0.78214679747902
C         2.52249153536408    1.30092861884419    0.66295764429959
C         1.88089121591512    2.43604008014291    1.19698855559430
C         2.64888075868595    3.53406490407342    0.90003170053870
C         3.78583430507853    3.09361704809512    0.18541399312622
N         3.69211015898794    1.72627181007210    0.09597737631914
C         4.80998650554856    3.95169440476506   -0.25388198576692
C         6.15541837336007    3.63651488020977   -0.35221218142538
C         7.26893261323806    4.55811038490016   -0.58655792766111
C         8.39216650336872    3.81827359674415   -0.47294256223506
C         7.95193830305859    2.45730508461950   -0.17595996611150
N         6.60894540498724    2.39882152676289   -0.10338743121744
C         8.72643177388743    1.31625990927990   -0.10438089300636
C         8.22125805716033    0.01836642140995    0.08374572861268
C         8.75914669259439   -1.14668382077038   -0.50425273062024
C         8.01107006898768   -2.21558278845348   -0.08053655632629
C         6.99616477963066   -1.72653092805863    0.76920502671259
N         7.12466754564142   -0.36765261424048    0.80807123866416
C         6.00595016288246   -2.53719115942636    1.37000751620482
C         4.66930478464363   -2.22273887507649    1.44678009947096
N         4.17675930455310   -1.03020402630283    1.02601243739425
H         3.68389045189587   -4.13680624158964    2.14694710884128
H         1.42564007512713   -2.77041359726847    1.71251037194203
H         1.00577476203008    2.40228131380510    1.81310383824887
H         2.50172382282244    4.54026364545706    1.23572540126033
H         4.36921616996316    1.13366230976531   -0.37248228637004
H         4.51682653248393    4.98675689418672   -0.39357904371611
H         7.19620799625934    5.61566244401673   -0.77078318455347
H         9.41334899135630    4.13632604362456   -0.58407443484899
H         9.78396049990180    1.38583997858437   -0.33471239287498
H         9.53922366633162   -1.14463819155045   -1.23731737926444
H         8.08024516973740   -3.23018088469456   -0.41458074884164
H         6.54623740596647    0.25784409532032    1.35697048623268
H         6.32218334933835   -3.54046796241334    1.63932972638544
C         0.63684868985417   -0.20915183444665    0.71479082867673
C        -0.55405527276814   -0.41258261599397    0.53522703717362
C        -8.16252861956508    2.81631577704236   -0.36256589788309
C        -9.10143667188105    1.85144540619218   -0.43626918998011
C        -8.37672531542809    0.57865661835008   -0.39013822057092
C        -8.85283356894854   -0.70604493687487   -0.59533854068653
C        -8.01644951785756   -1.83126802391595   -0.75065494161646
C        -8.26251535285122   -2.88760798290948   -1.65603037437659
C        -7.23170836617414   -3.78409314433587   -1.54944455718837
C        -6.33109723759727   -3.30540343282515   -0.56941320056741
N        -6.81963424754186   -2.09753226435587   -0.14458153239521
C        -5.18399329407805   -4.00020123192871   -0.15002033737332
C        -4.00135692228182   -3.43647534733376    0.29955175743204
C        -2.80940660651909   -4.14034830891309    0.77098314504653
C        -1.85802698545391   -3.19426170377895    0.94047734337679
C        -2.48162811142221   -1.93041124765222    0.56041963706549
N        -3.76650482832668   -2.10773347507147    0.22631439905433
C        -1.91669601537376   -0.64265227097177    0.40258789007223
C        -2.72832289191182    0.45698224377149   -0.03656224409633
C        -2.25343996151337    1.46654876665045   -0.89216003748500
C        -3.25628869800834    2.38863719029735   -1.06411542031837
C        -4.37998357220630    1.95153093352883   -0.33015885679058
N        -4.03344630748385    0.75830945619926    0.24774693110566
C        -5.60125005308003    2.66731691161386   -0.29450339547204
C        -6.87377593900736    2.12204582096124   -0.25875142338250
N        -7.05379687297523    0.79095451226944   -0.25279112767420
H        -8.31110662668434    3.88254654388018   -0.38828763705598
H       -10.16640357307542    1.97426342248647   -0.54039810310051
H        -9.91227986561505   -0.87599714096609   -0.79379467639397
H        -9.05993592816749   -2.89829118579510   -2.37039863402617
H        -7.05006111136530   -4.65050602293582   -2.15150765459702
H        -6.40458034218946   -1.51974345609208    0.57462576749208
H        -5.20546891037494   -5.07724018692449   -0.29845537881041
H        -2.75218613150597   -5.19992287427697    0.96058496488765
H        -0.84844223581500   -3.32513632246406    1.28932655043535
H        -1.30165558974648    1.43490445372270   -1.38144552346944
H        -3.24760536762999    3.23608930711821   -1.72003949781669
H        -4.63958071699176    0.21601639970587    0.84914792655500
H        -5.49998333421101    3.73701562026753   -0.45126218625084
76
 energy: -126.431207516940 gnorm: 0.031800852712 xtb: 6.4.1 (bd6e46d)
C         3.58818160355039   -3.09173314218047    1.80133927941496
C         2.44922384079607   -2.42127157114750    1.53439069736684
C         2.86453710173336   -1.10644455319190    1.06043730107616
C         2.00754162005338   -0.01975814699571    0.78748875144851
C         2.50653149401115    1.31292179393585    0.67105385161272
C         1.83981818711684    2.45077489168493    1.17165883527922
C         2.61008157765575    3.54677130193238    0.88385596394240
C         3.77044628383085    3.10069992423932    0.20893994025108
N         3.68772682963302    1.73418214489579    0.13503768382580
C         4.80113787048424    3.94708932840660   -0.21693236512350
C         6.13885489551201    3.60993365780174   -0.33435891702674
C         7.24707539317483    4.52865505253839   -0.58323833174393
C         8.37076998667916    3.79429555557527   -0.46546824821172
C         7.93390088983489    2.43604345856924   -0.16565015672818
N         6.59327714917969    2.37335480934864   -0.08312641646534
C         8.72174507463791    1.29887834839170   -0.12409860679291
C         8.23090798947664    0.00299120138910    0.06548991330999
C         8.79874631546949   -1.17132631325045   -0.48458519458227
C         8.05240340870778   -2.23631469121899   -0.06045488693989
C         7.00513271222067   -1.73840198021264    0.75123440820488
N         7.11856668886676   -0.37950380130476    0.76372536419346
C         6.00916409088123   -2.53745926608485    1.33863055111396
C         4.67872842332081   -2.19194082851366    1.44771289754888
N         4.18974442736932   -0.99756580776307    1.03316876591488
H         3.70433125646379   -4.09976341449585    2.15737558334375
H         1.43406170059454   -2.74363433189996    1.67595321276363
H         0.94615595986815    2.41396007268900    1.76259700613220
H         2.45497063528778    4.56020805866477    1.19572967270973
H         4.38644156801335    1.13618253321366   -0.29613269630136
H         4.52665029164745    4.98750318335102   -0.33028326904203
H         7.15678736203856    5.58205068698741   -0.78589525718206
H         9.39268056964471    4.11252654005604   -0.57179079472194
H         9.76908503953174    1.38845820137118   -0.38248472303969
H         9.59839065810672   -1.17120236601047   -1.19799443088812
H         8.13610376621736   -3.25789036947169   -0.37076787449606
H         6.51429318757922    0.25445748964493    1.27636851324895
H         6.29822028312283   -3.55918714322247    1.56453408023835
C         0.62868802521211   -0.20014375522209    0.74959405996174
C        -0.55617251280538   -0.41939134330431    0.53474109383190
C        -8.12910652350538    2.78515475018380   -0.33878681381829
C        -9.06715078024270    1.81914415841195   -0.41274945195651
C        -8.34332201031325    0.55257726049021   -0.33991680380389
C        -8.83883696172948   -0.71780331235331   -0.61084808436642
C        -8.02328103992862   -1.84553805125466   -0.76813737563041
C        -8.29258301683183   -2.92423641254343   -1.64639258895850
C        -7.26328539643832   -3.81682590484362   -1.54264955381633
C        -6.33902902812700   -3.31748672779241   -0.58931231215226
N        -6.81380805891434   -2.10018435735484   -0.18699420829322
C        -5.19322298387666   -3.99729377900869   -0.15230784589892
C        -4.03441386393676   -3.40956440235111    0.33498163569823
C        -2.82939313330563   -4.11111047909063    0.77392436526623
C        -1.88328348179013   -3.16134070694206    0.94208526156028
C        -2.52263055965853   -1.89631201835020    0.59832923154331
N        -3.81565633865334   -2.07755841258116    0.29452466710837
C        -1.92788171238326   -0.62874274609642    0.41538159880182
C        -2.70807496884417    0.48079862263693   -0.04924247661578
C        -2.21812759970637    1.50674708152358   -0.88020769784032
C        -3.22409847842006    2.42301356491811   -1.05724560446013
C        -4.35714789581485    1.96405482713771   -0.34941034766486
N        -4.01577566686555    0.76617490220693    0.21243914223433
C        -5.58333412455306    2.65738233841205   -0.30324898168011