      -----------------------------------------------------------      
     |                   =====================                   |     
     |                           x T B                           |     
     |                   =====================                   |     
     |                         S. Grimme                         |     
     |          Mulliken Center for Theoretical Chemistry        |     
     |                    University of Bonn                     |     
      -----------------------------------------------------------      

   * xtb version 6.4.1 (bd6e46d) compiled by 'conda@4901f00b25ba' on 2021-06-10

   xtb is free software: you can redistribute it and/or modify it under
   the terms of the GNU Lesser General Public License as published by
   the Free Software Foundation, either version 3 of the License, or
   (at your option) any later version.
   
   xtb is distributed in the hope that it will be useful,
   but WITHOUT ANY WARRANTY; without even the implied warranty of
   MERCHANTABILITY or FITNESS FOR A PARTICULAR PURPOSE.  See the
   GNU Lesser General Public License for more details.
   
   Cite this work as:
   * C. Bannwarth, E. Caldeweyher, S. Ehlert, A. Hansen, P. Pracht,
     J. Seibert, S. Spicher, S. Grimme, WIREs Comput. Mol. Sci., 2020, 11,
     e01493. DOI: 10.1002/wcms.1493
   
   for GFN2-xTB:
   * C. Bannwarth, S. Ehlert and S. Grimme., J. Chem. Theory Comput., 2019,
     15, 1652-1671. DOI: 10.1021/acs.jctc.8b01176
   for GFN1-xTB:
   * S. Grimme, C. Bannwarth, P. Shushkov, J. Chem. Theory Comput., 2017,
     13, 1989-2009. DOI: 10.1021/acs.jctc.7b00118
   for GFN0-xTB:
   * P. Pracht, E. Caldeweyher, S. Ehlert, S. Grimme, ChemRxiv, 2019, preprint.
     DOI: 10.26434/chemrxiv.8326202.v1
   for GFN-FF:
   * S. Spicher and S. Grimme, Angew. Chem. Int. Ed., 2020, 59, 15665-15673.
     DOI: 10.1002/anie.202004239
   
   for DFT-D4:
   * E. Caldeweyher, C. Bannwarth and S. Grimme, J. Chem. Phys., 2017,
     147, 034112. DOI: 10.1063/1.4993215
   * E. Caldeweyher, S. Ehlert, A. Hansen, H. Neugebauer, S. Spicher,
     C. Bannwarth and S. Grimme, J. Chem. Phys., 2019, 150, 154122.
     DOI: 10.1063/1.5090222
   * E. Caldeweyher, J.-M. Mewes, S. Ehlert and S. Grimme, Phys. Chem. Chem. Phys.
     2020, 22, 8499-8512. DOI: 10.1039/D0CP00502A
   
   for sTDA-xTB:
   * S. Grimme and C. Bannwarth, J. Chem. Phys., 2016, 145, 054103.
     DOI: 10.1063/1.4959605
   
   in the mass-spec context:
   * V. Asgeirsson, C. Bauer and S. Grimme, Chem. Sci., 2017, 8, 4879.
     DOI: 10.1039/c7sc00601b
   * J. Koopman and S. Grimme, ACS Omega 2019, 4, 12, 15120-15133.
     DOI: 10.1021/acsomega.9b02011
   
   for metadynamics refer to:
   * S. Grimme, J. Chem. Theory Comput., 2019, 155, 2847-2862
     DOI: 10.1021/acs.jctc.9b00143
   
   for SPH calculations refer to:
   * S. Spicher and S. Grimme, J. Chem. Theory Comput., 2021, 17, 1701-1714
     DOI: 10.1021/acs.jctc.0c01306
   
   with help from (in alphabetical order)
   P. Atkinson, C. Bannwarth, F. Bohle, G. Brandenburg, E. Caldeweyher
   M. Checinski, S. Dohm, S. Ehlert, S. Ehrlich, I. Gerasimov, J. Koopman
   C. Lavigne, S. Lehtola, F. März, M. Müller, F. Musil, H. Neugebauer
   J. Pisarek, C. Plett, P. Pracht, J. Seibert, P. Shushkov, S. Spicher
   M. Stahn, M. Steiner, T. Strunk, J. Stückrath, T. Rose, and J. Unsleber
   
 * started run on 2021/11/21 at 01:43:48.082     

           -------------------------------------------------
          |                Calculation Setup                |
           -------------------------------------------------

          program call               : /home/jeff/miniconda3/bin/xtb /home/jeff/chem/final-year-proejct/Zn+2_2_6_outenergy/input_structure.xyz --gfn 2 --parallel 1 --etemp 300 --chrg 0 --uhf 0 -I det_control.in
          coordinate file            : /home/jeff/chem/final-year-proejct/Zn+2_2_6_outenergy/input_structure.xyz
          omp threads                :                     1
          number of atoms            :                   222
          number of electrons        :                   714
          charge                     :                     0
          spin                       :                   0.0
          first test random number   :      0.08266529100466

   ID    Z sym.   atoms
    1   30 Zn     1, 37, 83, 118, 153, 188
    2    6 C      2-9, 11-15, 17-21, 23, 24, 38-45, 47-51, 53-57, 59, 60,
                  73-82, 84-91, 93-97, 99-103, 105, 106, 119-126, 128-132,
                  134-138, 140, 141, 154-161, 163-167, 169-173, 175, 176,
                  189-196, 198-202, 204-208, 210, 211
    3    7 N      10, 16, 22, 25, 46, 52, 58, 61, 92, 98, 104, 107, 127, 133,
                  139, 142, 162, 168, 174, 177, 197, 203, 209, 212
    4    1 H      26-36, 62-72, 108-117, 143-152, 178-187, 213-222

           -------------------------------------------------
          |                 G F N 2 - x T B                 |
           -------------------------------------------------

        Reference                      10.1021/acs.jctc.8b01176
      * Hamiltonian:
        H0-scaling (s, p, d)           1.850000    2.230000    2.230000
        zeta-weighting                 0.500000
      * Dispersion:
        s8                             2.700000
        a1                             0.520000
        a2                             5.000000
        s9                             5.000000
      * Repulsion:
        kExp                           1.500000    1.000000
        rExp                           1.000000
      * Coulomb:
        alpha                          2.000000
        third order                    shell-resolved
        anisotropic                    true
        a3                             3.000000
        a5                             4.000000
        cn-shift                       1.200000
        cn-exp                         4.000000
        max-rad                        5.000000


          ...................................................
          :                      SETUP                      :
          :.................................................:
          :  # basis functions                 702          :
          :  # atomic orbitals                 702          :
          :  # shells                          382          :
          :  # electrons                       714          :
          :  max. iterations                   250          :
          :  Hamiltonian                  GFN2-xTB          :
          :  restarted?                      false          :
          :  GBSA solvation                  false          :
          :  PC potential                    false          :
          :  electronic temp.          300.0000000     K    :
          :  accuracy                    1.0000000          :
          :  -> integral cutoff          0.2500000E+02      :
          :  -> integral neglect         0.1000000E-07      :
          :  -> SCF convergence          0.1000000E-05 Eh   :
          :  -> wf. convergence          0.1000000E-03 e    :
          :  Broyden damping             0.4000000          :
          ...................................................

 iter      E             dE          RMSdq      gap      omega  full diag
   1   -389.2164385 -0.389216E+03  0.622E+00    0.91       0.0  T
   2   -390.0353866 -0.818948E+00  0.320E+00    0.83       1.0  T
   3   -390.0252009  0.101856E-01  0.232E+00    0.95       1.0  T
   4   -390.6928629 -0.667662E+00  0.374E-01    0.86       1.0  T
   5   -390.6979605 -0.509757E-02  0.238E-01    0.89       1.0  T
   6   -390.7020090 -0.404848E-02  0.137E-01    0.89       1.0  T
   7   -390.7052041 -0.319511E-02  0.685E-02    0.88       1.0  T
   8   -390.7063549 -0.115081E-02  0.275E-02    0.88       1.0  T
   9   -390.7065406 -0.185683E-03  0.133E-02    0.88       1.0  T
  10   -390.7065786 -0.379917E-04  0.545E-03    0.88       1.2  T
  11   -390.7065855 -0.687966E-05  0.212E-03    0.88       3.2  T
  12   -390.7065862 -0.775325E-06  0.101E-03    0.88       6.7  T
  13   -390.7065863 -0.342355E-07  0.550E-04    0.88      12.2  T
  14   -390.7065863 -0.557869E-07  0.186E-04    0.88      36.2  T

   *** convergence criteria satisfied after 14 iterations ***

         #    Occupation            Energy/Eh            Energy/eV
      -------------------------------------------------------------
         1        2.0000           -0.6677760             -18.1711
       ...           ...                  ...                  ...
       351        2.0000           -0.3696900             -10.0598
       352        2.0000           -0.3688052             -10.0357
       353        2.0000           -0.3687737             -10.0348
       354        2.0000           -0.3643456              -9.9143
       355        2.0000           -0.3584706              -9.7545
       356        2.0000           -0.3528580              -9.6018
       357        2.0000           -0.3484635              -9.4822 (HOMO)
       358                         -0.3160867              -8.6012 (LUMO)
       359                         -0.3109917              -8.4625
       360                         -0.3049177              -8.2972
       361                         -0.2993259              -8.1451
       362                         -0.2993230              -8.1450
       ...                                ...                  ...
       702                          1.4082112              38.3194
      -------------------------------------------------------------
                  HL-Gap            0.0323767 Eh            0.8810 eV
             Fermi-level           -0.3322727 Eh           -9.0416 eV

 SCC (total)                   0 d,  0 h,  0 min,  2.399 sec
 SCC setup                      ...        0 min,  0.009 sec (  0.385%)
 Dispersion                     ...        0 min,  0.019 sec (  0.804%)
 classical contributions        ...        0 min,  0.002 sec (  0.091%)
 integral evaluation            ...        0 min,  0.145 sec (  6.043%)
 iterations                     ...        0 min,  1.807 sec ( 75.331%)
 molecular gradient             ...        0 min,  0.400 sec ( 16.671%)
 printout                       ...        0 min,  0.016 sec (  0.674%)

         :::::::::::::::::::::::::::::::::::::::::::::::::::::
         ::                     SUMMARY                     ::
         :::::::::::::::::::::::::::::::::::::::::::::::::::::
         :: total energy            -383.823047119423 Eh    ::
         :: gradient norm              0.000313488577 Eh/a0 ::
         :: HOMO-LUMO gap              0.881015699500 eV    ::
         ::.................................................::
         :: SCC energy              -390.706586324644 Eh    ::
         :: -> isotropic ES            0.390548076275 Eh    ::
         :: -> anisotropic ES          0.055890603283 Eh    ::
         :: -> anisotropic XC          0.198125992997 Eh    ::
         :: -> dispersion             -0.377457379839 Eh    ::
         :: repulsion energy           6.890383276635 Eh    ::
         :: add. restraining           0.000000000000 Eh    ::
         :: total charge               0.000000000408 e     ::
         :::::::::::::::::::::::::::::::::::::::::::::::::::::

           -------------------------------------------------
          |                Property Printout                |
           -------------------------------------------------

    * Orbital Energies and Occupations

         #    Occupation            Energy/Eh            Energy/eV
      -------------------------------------------------------------
         1        2.0000           -0.6677760             -18.1711
       ...           ...                  ...                  ...
       345        2.0000           -0.3858228             -10.4988
       346        2.0000           -0.3740645             -10.1788
       347        2.0000           -0.3700437             -10.0694
       348        2.0000           -0.3700386             -10.0693
       349        2.0000           -0.3698766             -10.0649
       350        2.0000           -0.3698597             -10.0644
       351        2.0000           -0.3696900             -10.0598
       352        2.0000           -0.3688052             -10.0357
       353        2.0000           -0.3687737             -10.0348
       354        2.0000           -0.3643456              -9.9143
       355        2.0000           -0.3584706              -9.7545
       356        2.0000           -0.3528580              -9.6018
       357        2.0000           -0.3484635              -9.4822 (HOMO)
       358                         -0.3160867              -8.6012 (LUMO)
       359                         -0.3109917              -8.4625
       360                         -0.3049177              -8.2972
       361                         -0.2993259              -8.1451
       362                         -0.2993230              -8.1450
       363                         -0.2991267              -8.1397
       364                         -0.2991209              -8.1395
       365                         -0.2985508              -8.1240
       366                         -0.2981361              -8.1127
       367                         -0.2980910              -8.1115
       368                         -0.2926489              -7.9634
       ...                                ...                  ...
       702                          1.4082112              38.3194
      -------------------------------------------------------------
                  HL-Gap            0.0323767 Eh            0.8810 eV
             Fermi-level           -0.3322727 Eh           -9.0416 eV

     #   Z          covCN         q      C6AA      α(0)
     1  30 Zn       3.042     0.244   122.302    21.603
     2   6 C        3.020    -0.052    29.268     8.874
     3   6 C        3.018    -0.050    29.230     8.869
     4   6 C        3.164     0.077    25.966     8.328
     5   6 C        2.953     0.018    27.603     8.617
     6   6 C        3.164     0.077    25.965     8.328
     7   6 C        3.018    -0.050    29.230     8.868
     8   6 C        3.020    -0.052    29.268     8.874
     9   6 C        3.148     0.076    26.053     8.349
    10   7 N        2.632    -0.176    24.828     7.400
    11   6 C        2.901    -0.050    29.243     8.867
    12   6 C        3.145     0.077    26.040     8.349
    13   6 C        3.017    -0.051    29.245     8.871
    14   6 C        3.018    -0.051    29.249     8.871
    15   6 C        3.145     0.077    26.030     8.347
    16   7 N        2.635    -0.175    24.789     7.395
    17   6 C        2.901    -0.052    29.284     8.873
    18   6 C        3.145     0.077    26.030     8.347
    19   6 C        3.018    -0.051    29.249     8.871
    20   6 C        3.017    -0.051    29.245     8.871
    21   6 C        3.145     0.077    26.040     8.349
    22   7 N        2.634    -0.175    24.791     7.395
    23   6 C        2.901    -0.050    29.243     8.867
    24   6 C        3.148     0.076    26.053     8.349
    25   7 N        2.632    -0.176    24.827     7.400
    26   1 H        0.926     0.034     2.533     2.489
    27   1 H        0.926     0.035     2.517     2.481
    28   1 H        0.926     0.035     2.517     2.481
    29   1 H        0.926     0.034     2.533     2.489
    30   1 H        0.926     0.049     2.331     2.387
    31   1 H        0.926     0.034     2.527     2.486
    32   1 H        0.926     0.034     2.528     2.486
    33   1 H        0.926     0.048     2.339     2.392
    34   1 H        0.926     0.034     2.528     2.487
    35   1 H        0.926     0.034     2.527     2.486
    36   1 H        0.926     0.049     2.331     2.387
    37  30 Zn       3.042     0.244   122.302    21.603
    38   6 C        3.020    -0.052    29.270     8.874
    39   6 C        3.018    -0.051    29.232     8.869
    40   6 C        3.163     0.077    25.968     8.329
    41   6 C        2.953     0.018    27.602     8.617
    42   6 C        3.163     0.077    25.968     8.329
    43   6 C        3.018    -0.051    29.232     8.869
    44   6 C        3.020    -0.052    29.269     8.874
    45   6 C        3.148     0.076    26.054     8.350
    46   7 N        2.632    -0.176    24.827     7.400
    47   6 C        2.901    -0.050    29.241     8.866
    48   6 C        3.145     0.077    26.040     8.349
    49   6 C        3.017    -0.051    29.245     8.871
    50   6 C        3.018    -0.051    29.248     8.871
    51   6 C        3.145     0.077    26.029     8.347
    52   7 N        2.634    -0.175    24.790     7.395
    53   6 C        2.901    -0.052    29.283     8.873
    54   6 C        3.145     0.077    26.029     8.347
    55   6 C        3.018    -0.051    29.248     8.871
    56   6 C        3.017    -0.051    29.245     8.871
    57   6 C        3.145     0.077    26.040     8.349
    58   7 N        2.634    -0.175    24.790     7.395
    59   6 C        2.901    -0.050    29.241     8.866
    60   6 C        3.148     0.076    26.054     8.350
    61   7 N        2.632    -0.176    24.826     7.400
    62   1 H        0.926     0.034     2.533     2.489
    63   1 H        0.926     0.035     2.517     2.481
    64   1 H        0.926     0.035     2.517     2.481
    65   1 H        0.926     0.034     2.533     2.489
    66   1 H        0.926     0.049     2.330     2.387
    67   1 H        0.926     0.034     2.527     2.486
    68   1 H        0.926     0.034     2.528     2.486
    69   1 H        0.926     0.048     2.339     2.392
    70   1 H        0.926     0.034     2.528     2.486
    71   1 H        0.926     0.034     2.527     2.486
    72   1 H        0.926     0.049     2.330     2.387
    73   6 C        1.994    -0.028    31.800     9.107
    74   6 C        1.994    -0.029    31.820     9.110
    75   6 C        1.993    -0.029    31.807     9.108
    76   6 C        1.993    -0.029    31.814     9.109
    77   6 C        1.993    -0.029    31.810     9.108
    78   6 C        1.993    -0.029    31.810     9.108
    79   6 C        1.993    -0.029    31.814     9.109
    80   6 C        1.993    -0.029    31.808     9.108
    81   6 C        1.993    -0.029    31.823     9.110
    82   6 C        1.994    -0.028    31.802     9.107
    83  30 Zn       3.039     0.246   122.282    21.601
    84   6 C        3.020    -0.052    29.264     8.874
    85   6 C        3.019    -0.050    29.229     8.868
    86   6 C        3.165     0.077    25.955     8.326
    87   6 C        2.953     0.019    27.593     8.616
    88   6 C        3.165     0.077    25.956     8.326
    89   6 C        3.019    -0.050    29.228     8.868
    90   6 C        3.020    -0.052    29.264     8.874
    91   6 C        3.150     0.075    26.056     8.349
    92   7 N        2.632    -0.176    24.826     7.400
    93   6 C        2.901    -0.048    29.194     8.859
    94   6 C        3.150     0.075    26.059     8.350
    95   6 C        3.020    -0.052    29.265     8.874
    96   6 C        3.019    -0.051    29.234     8.869
    97   6 C        3.164     0.077    25.958     8.327
    98   7 N        2.633    -0.176    24.826     7.400
    99   6 C        2.953     0.018    27.602     8.617
   100   6 C        3.164     0.077    25.959     8.327
   101   6 C        3.020    -0.051    29.233     8.869
   102   6 C        3.020    -0.052    29.266     8.874
   103   6 C        3.150     0.075    26.059     8.350
   104   7 N        2.633    -0.176    24.826     7.400
   105   6 C        2.901    -0.048    29.195     8.859
   106   6 C        3.150     0.075    26.055     8.349
   107   7 N        2.632    -0.176    24.826     7.400
   108   1 H        0.926     0.034     2.530     2.487
   109   1 H        0.926     0.035     2.513     2.479
   110   1 H        0.926     0.035     2.513     2.479
   111   1 H        0.926     0.034     2.530     2.487
   112   1 H        0.925     0.050     2.321     2.383
   113   1 H        0.926     0.034     2.531     2.488
   114   1 H        0.926     0.035     2.516     2.481
   115   1 H        0.926     0.035     2.517     2.481
   116   1 H        0.926     0.034     2.531     2.488
   117   1 H        0.925     0.050     2.321     2.383
   118  30 Zn       3.040     0.246   122.279    21.601
   119   6 C        3.020    -0.052    29.266     8.874
   120   6 C        3.020    -0.051    29.232     8.869
   121   6 C        3.164     0.077    25.958     8.327
   122   6 C        2.953     0.018    27.595     8.616
   123   6 C        3.164     0.077    25.958     8.327
   124   6 C        3.020    -0.051    29.232     8.869
   125   6 C        3.020    -0.052    29.265     8.874
   126   6 C        3.150     0.075    26.059     8.350
   127   7 N        2.633    -0.176    24.826     7.400
   128   6 C        2.901    -0.048    29.189     8.858
   129   6 C        3.150     0.075    26.060     8.350
   130   6 C        3.020    -0.052    29.266     8.874
   131   6 C        3.020    -0.051    29.233     8.869
   132   6 C        3.164     0.077    25.960     8.327
   133   7 N        2.633    -0.176    24.826     7.400
   134   6 C        2.953     0.018    27.598     8.616
   135   6 C        3.164     0.077    25.959     8.327
   136   6 C        3.020    -0.051    29.234     8.869
   137   6 C        3.020    -0.052    29.266     8.874
   138   6 C        3.150     0.075    26.059     8.350
   139   7 N        2.633    -0.176    24.826     7.400
   140   6 C        2.901    -0.048    29.189     8.858
   141   6 C        3.150     0.075    26.058     8.349
   142   7 N        2.633    -0.176    24.825     7.400
   143   1 H        0.926     0.034     2.530     2.487
   144   1 H        0.926     0.035     2.516     2.480
   145   1 H        0.926     0.035     2.516     2.480
   146   1 H        0.926     0.034     2.530     2.488
   147   1 H        0.925     0.050     2.320     2.382
   148   1 H        0.926     0.034     2.531     2.488
   149   1 H        0.926     0.035     2.517     2.481
   150   1 H        0.926     0.035     2.516     2.481
   151   1 H        0.926     0.034     2.530     2.488
   152   1 H        0.925     0.050     2.320     2.382
   153  30 Zn       3.040     0.246   122.279    21.601
   154   6 C        3.020    -0.052    29.266     8.874
   155   6 C        3.020    -0.051    29.233     8.869
   156   6 C        3.164     0.077    25.960     8.327
   157   6 C        2.953     0.018    27.597     8.616
   158   6 C        3.164     0.077    25.959     8.327
   159   6 C        3.020    -0.051    29.233     8.869
   160   6 C        3.020    -0.052    29.266     8.874
   161   6 C        3.150     0.075    26.059     8.350
   162   7 N        2.633    -0.176    24.824     7.400
   163   6 C        2.901    -0.048    29.188     8.858
   164   6 C        3.150     0.075    26.059     8.350
   165   6 C        3.020    -0.052    29.266     8.874
   166   6 C        3.020    -0.051    29.232     8.869
   167   6 C        3.164     0.077    25.959     8.327
   168   7 N        2.633    -0.176    24.826     7.400
   169   6 C        2.953     0.018    27.596     8.616
   170   6 C        3.164     0.077    25.958     8.327
   171   6 C        3.020    -0.051    29.232     8.869
   172   6 C        3.020    -0.052    29.266     8.874
   173   6 C        3.150     0.075    26.059     8.350
   174   7 N        2.633    -0.176    24.825     7.400
   175   6 C        2.901    -0.048    29.189     8.858
   176   6 C        3.150     0.075    26.059     8.350
   177   7 N        2.633    -0.176    24.827     7.400
   178   1 H        0.926     0.034     2.531     2.488
   179   1 H        0.926     0.035     2.517     2.481
   180   1 H        0.926     0.035     2.516     2.481
   181   1 H        0.926     0.034     2.530     2.487
   182   1 H        0.925     0.050     2.320     2.382
   183   1 H        0.926     0.034     2.530     2.488
   184   1 H        0.926     0.035     2.516     2.481
   185   1 H        0.926     0.035     2.515     2.480
   186   1 H        0.926     0.034     2.530     2.488
   187   1 H        0.925     0.050     2.320     2.382
   188  30 Zn       3.040     0.246   122.281    21.601
   189   6 C        3.020    -0.052    29.266     8.874
   190   6 C        3.020    -0.051    29.234     8.869
   191   6 C        3.164     0.077    25.959     8.327
   192   6 C        2.953     0.018    27.601     8.617
   193   6 C        3.164     0.077    25.959     8.327
   194   6 C        3.020    -0.051    29.233     8.869
   195   6 C        3.020    -0.052    29.266     8.874
   196   6 C        3.150     0.075    26.059     8.350
   197   7 N        2.633    -0.176    24.826     7.400
   198   6 C        2.901    -0.048    29.192     8.859
   199   6 C        3.150     0.075    26.057     8.349
   200   6 C        3.020    -0.052    29.266     8.874
   201   6 C        3.019    -0.051    29.230     8.869
   202   6 C        3.165     0.077    25.958     8.327
   203   7 N        2.633    -0.176    24.826     7.400
   204   6 C        2.953     0.019    27.593     8.616
   205   6 C        3.165     0.077    25.958     8.327
   206   6 C        3.019    -0.050    29.230     8.868
   207   6 C        3.020    -0.052    29.265     8.874
   208   6 C        3.150     0.075    26.057     8.349
   209   7 N        2.633    -0.176    24.826     7.400
   210   6 C        2.901    -0.048    29.193     8.859
   211   6 C        3.150     0.075    26.060     8.350
   212   7 N        2.633    -0.176    24.826     7.400
   213   1 H        0.926     0.034     2.531     2.488
   214   1 H        0.926     0.035     2.516     2.480
   215   1 H        0.926     0.035     2.517     2.481
   216   1 H        0.926     0.034     2.531     2.488
   217   1 H        0.925     0.050     2.321     2.382
   218   1 H        0.926     0.034     2.531     2.488
   219   1 H        0.926     0.035     2.514     2.479
   220   1 H        0.926     0.035     2.514     2.480
   221   1 H        0.926     0.034     2.531     2.488
   222   1 H        0.925     0.050     2.321     2.382

 Mol. C6AA /au·bohr⁶  :     942391.468636
 Mol. C8AA /au·bohr⁸  :   26830321.275352
 Mol. α(0) /au        :       1587.305375


Wiberg/Mayer (AO) data.
largest (>0.10) Wiberg bond orders for each atom

 ---------------------------------------------------------------------------
     #   Z sym  total        # sym  WBO       # sym  WBO       # sym  WBO
 ---------------------------------------------------------------------------
     1  30 Zn   2.081 --    16 N    0.492    22 N    0.492    25 N    0.489
                            10 N    0.489
     2   6 C    3.954 --     3 C    1.652    24 C    1.170    26 H    0.972
     3   6 C    3.958 --     2 C    1.652     4 C    1.178    27 H    0.969
     4   6 C    3.918 --    25 N    1.284     5 C    1.260     3 C    1.178
     5   6 C    3.941 --     4 C    1.260     6 C    1.260    73 C    1.165
     6   6 C    3.918 --    10 N    1.284     5 C    1.260     7 C    1.178
     7   6 C    3.958 --     8 C    1.652     6 C    1.178    28 H    0.969
     8   6 C    3.954 --     7 C    1.652     9 C    1.170    29 H    0.972
     9   6 C    3.925 --    11 C    1.357    10 N    1.249     8 C    1.170
    10   7 N    3.467 --     6 C    1.284     9 C    1.249     1 Zn   0.489
    11   6 C    3.932 --     9 C    1.357    12 C    1.355    30 H    0.964
    12   6 C    3.930 --    11 C    1.355    16 N    1.261    13 C    1.163
    13   6 C    3.957 --    14 C    1.666    12 C    1.163    31 H    0.972
    14   6 C    3.955 --    13 C    1.666    15 C    1.162    32 H    0.972
    15   6 C    3.932 --    17 C    1.354    16 N    1.263    14 C    1.162
    16   7 N    3.465 --    15 C    1.263    12 C    1.261     1 Zn   0.492
    17   6 C    3.928 --    18 C    1.354    15 C    1.354    33 H    0.964
    18   6 C    3.932 --    17 C    1.354    22 N    1.263    19 C    1.162
    19   6 C    3.955 --    20 C    1.666    18 C    1.162    34 H    0.972
    20   6 C    3.957 --    19 C    1.666    21 C    1.163    35 H    0.972
    21   6 C    3.930 --    23 C    1.355    22 N    1.261    20 C    1.163
    22   7 N    3.465 --    18 C    1.263    21 C    1.261     1 Zn   0.492
    23   6 C    3.932 --    24 C    1.357    21 C    1.355    36 H    0.964
    24   6 C    3.925 --    23 C    1.357    25 N    1.249     2 C    1.170
    25   7 N    3.467 --     4 C    1.284    24 C    1.249     1 Zn   0.489
    26   1 H    0.998 --     2 C    0.972
    27   1 H    0.998 --     3 C    0.969
    28   1 H    0.998 --     7 C    0.969
    29   1 H    0.998 --     8 C    0.972
    30   1 H    0.996 --    11 C    0.964
    31   1 H    0.998 --    13 C    0.972
    32   1 H    0.998 --    14 C    0.972
    33   1 H    0.996 --    17 C    0.964
    34   1 H    0.998 --    19 C    0.972
    35   1 H    0.998 --    20 C    0.972
    36   1 H    0.996 --    23 C    0.964
    37  30 Zn   2.081 --    52 N    0.492    58 N    0.492    61 N    0.489
                            46 N    0.489
    38   6 C    3.954 --    39 C    1.651    60 C    1.171    62 H    0.972
    39   6 C    3.958 --    38 C    1.651    40 C    1.178    63 H    0.968
    40   6 C    3.917 --    61 N    1.284    41 C    1.258    39 C    1.178
    41   6 C    3.941 --    42 C    1.258    40 C    1.258    82 C    1.169
    42   6 C    3.917 --    46 N    1.284    41 C    1.258    43 C    1.178
    43   6 C    3.958 --    44 C    1.651    42 C    1.178    64 H    0.968
    44   6 C    3.954 --    43 C    1.651    45 C    1.171    65 H    0.972
    45   6 C    3.925 --    47 C    1.357    46 N    1.248    44 C    1.171
    46   7 N    3.467 --    42 C    1.284    45 C    1.248    37 Zn   0.489
    47   6 C    3.932 --    45 C    1.357    48 C    1.355    66 H    0.964
    48   6 C    3.930 --    47 C    1.355    52 N    1.261    49 C    1.163
    49   6 C    3.957 --    50 C    1.666    48 C    1.163    67 H    0.972
    50   6 C    3.955 --    49 C    1.666    51 C    1.162    68 H    0.972
    51   6 C    3.932 --    53 C    1.354    52 N    1.263    50 C    1.162
    52   7 N    3.465 --    51 C    1.263    48 C    1.261    37 Zn   0.492
    53   6 C    3.927 --    51 C    1.354    54 C    1.354    69 H    0.964
    54   6 C    3.932 --    53 C    1.354    58 N    1.263    55 C    1.162
    55   6 C    3.955 --    56 C    1.666    54 C    1.162    70 H    0.972
    56   6 C    3.957 --    55 C    1.666    57 C    1.163    71 H    0.972
    57   6 C    3.930 --    59 C    1.355    58 N    1.261    56 C    1.163
    58   7 N    3.465 --    54 C    1.263    57 C    1.261    37 Zn   0.492
    59   6 C    3.932 --    60 C    1.357    57 C    1.355    72 H    0.964
    60   6 C    3.925 --    59 C    1.357    61 N    1.248    38 C    1.171
    61   7 N    3.467 --    40 C    1.284    60 C    1.248    37 Zn   0.489
    62   1 H    0.998 --    38 C    0.972
    63   1 H    0.998 --    39 C    0.968
    64   1 H    0.998 --    43 C    0.968
    65   1 H    0.998 --    44 C    0.972
    66   1 H    0.996 --    47 C    0.964
    67   1 H    0.998 --    49 C    0.972
    68   1 H    0.998 --    50 C    0.972
    69   1 H    0.996 --    53 C    0.964
    70   1 H    0.998 --    55 C    0.972
    71   1 H    0.998 --    56 C    0.972
    72   1 H    0.996 --    59 C    0.964
    73   6 C    3.923 --    74 C    2.580     5 C    1.165
    74   6 C    3.926 --    73 C    2.580    87 C    1.167
    75   6 C    3.924 --    76 C    2.574    99 C    1.173
    76   6 C    3.924 --    75 C    2.574   122 C    1.173
    77   6 C    3.924 --    78 C    2.572   134 C    1.175
    78   6 C    3.924 --    77 C    2.572   157 C    1.175
    79   6 C    3.924 --    80 C    2.573   169 C    1.174
    80   6 C    3.924 --    79 C    2.573   192 C    1.174
    81   6 C    3.926 --    82 C    2.578   204 C    1.170
    82   6 C    3.923 --    81 C    2.578    41 C    1.169
    83  30 Zn   2.077 --   104 N    0.489    98 N    0.489    92 N    0.489
                           107 N    0.489
    84   6 C    3.955 --    85 C    1.650   106 C    1.172   108 H    0.972
    85   6 C    3.956 --    84 C    1.650    86 C    1.179   109 H    0.969
    86   6 C    3.919 --   107 N    1.285    87 C    1.258    85 C    1.179
    87   6 C    3.930 --    88 C    1.258    86 C    1.258    74 C    1.167
    88   6 C    3.919 --    92 N    1.285    87 C    1.258    89 C    1.179
    89   6 C    3.956 --    90 C    1.650    88 C    1.179   110 H    0.969
    90   6 C    3.955 --    89 C    1.650    91 C    1.172   111 H    0.972
    91   6 C    3.924 --    93 C    1.355    92 N    1.247    90 C    1.172
    92   7 N    3.461 --    88 C    1.285    91 C    1.247    83 Zn   0.489
    93   6 C    3.926 --    94 C    1.357    91 C    1.355   112 H    0.964
    94   6 C    3.924 --    93 C    1.357    98 N    1.246    95 C    1.172
    95   6 C    3.954 --    96 C    1.649    94 C    1.172   113 H    0.972
    96   6 C    3.956 --    95 C    1.649    97 C    1.180   114 H    0.968
    97   6 C    3.917 --    98 N    1.286    99 C    1.255    96 C    1.180
    98   7 N    3.461 --    97 C    1.286    94 C    1.246    83 Zn   0.489
    99   6 C    3.931 --   100 C    1.255    97 C    1.255    75 C    1.173
   100   6 C    3.917 --   104 N    1.286    99 C    1.255   101 C    1.180
   101   6 C    3.956 --   102 C    1.649   100 C    1.180   115 H    0.968
   102   6 C    3.954 --   101 C    1.649   103 C    1.172   116 H    0.972
   103   6 C    3.924 --   105 C    1.357   104 N    1.246   102 C    1.172
   104   7 N    3.461 --   100 C    1.286   103 C    1.246    83 Zn   0.489
   105   6 C    3.926 --   103 C    1.357   106 C    1.355   117 H    0.964
   106   6 C    3.924 --   105 C    1.355   107 N    1.247    84 C    1.172
   107   7 N    3.461 --    86 C    1.285   106 C    1.247    83 Zn   0.489
   108   1 H    0.998 --    84 C    0.972
   109   1 H    0.998 --    85 C    0.969
   110   1 H    0.998 --    89 C    0.969
   111   1 H    0.998 --    90 C    0.972
   112   1 H    0.996 --    93 C    0.964
   113   1 H    0.998 --    95 C    0.972
   114   1 H    0.998 --    96 C    0.968
   115   1 H    0.998 --   101 C    0.968
   116   1 H    0.998 --   102 C    0.972
   117   1 H    0.996 --   105 C    0.964
   118  30 Zn   2.077 --   133 N    0.489   142 N    0.489   127 N    0.489
                           139 N    0.489
   119   6 C    3.954 --   120 C    1.649   141 C    1.173   143 H    0.972
   120   6 C    3.956 --   119 C    1.649   121 C    1.180   144 H    0.968
   121   6 C    3.917 --   142 N    1.286   122 C    1.254   120 C    1.180
   122   6 C    3.930 --   123 C    1.255   121 C    1.254    76 C    1.173
   123   6 C    3.917 --   127 N    1.286   122 C    1.255   124 C    1.180
   124   6 C    3.956 --   125 C    1.649   123 C    1.180   145 H    0.968
   125   6 C    3.954 --   124 C    1.649   126 C    1.173   146 H    0.972
   126   6 C    3.923 --   128 C    1.356   127 N    1.246   125 C    1.173
   127   7 N    3.460 --   123 C    1.286   126 C    1.246   118 Zn   0.489
   128   6 C    3.925 --   129 C    1.356   126 C    1.356   147 H    0.964
   129   6 C    3.924 --   128 C    1.356   133 N    1.246   130 C    1.173
   130   6 C    3.954 --   131 C    1.648   129 C    1.173   148 H    0.972
   131   6 C    3.956 --   130 C    1.648   132 C    1.180   149 H    0.967
   132   6 C    3.917 --   133 N    1.286   134 C    1.254   131 C    1.180
   133   7 N    3.460 --   132 C    1.286   129 C    1.246   118 Zn   0.489
   134   6 C    3.930 --   132 C    1.254   135 C    1.254    77 C    1.175
   135   6 C    3.917 --   139 N    1.287   134 C    1.254   136 C    1.180
   136   6 C    3.956 --   137 C    1.648   135 C    1.180   150 H    0.967
   137   6 C    3.954 --   136 C    1.648   138 C    1.173   151 H    0.972
   138   6 C    3.923 --   140 C    1.356   139 N    1.245   137 C    1.173
   139   7 N    3.460 --   135 C    1.287   138 C    1.245   118 Zn   0.489
   140   6 C    3.925 --   138 C    1.356   141 C    1.356   152 H    0.964
   141   6 C    3.923 --   140 C    1.356   142 N    1.246   119 C    1.173
   142   7 N    3.460 --   121 C    1.286   141 C    1.246   118 Zn   0.489
   143   1 H    0.998 --   119 C    0.972
   144   1 H    0.998 --   120 C    0.968
   145   1 H    0.998 --   124 C    0.968
   146   1 H    0.998 --   125 C    0.972
   147   1 H    0.996 --   128 C    0.964
   148   1 H    0.998 --   130 C    0.972
   149   1 H    0.998 --   131 C    0.967
   150   1 H    0.998 --   136 C    0.967
   151   1 H    0.998 --   137 C    0.972
   152   1 H    0.996 --   140 C    0.964
   153  30 Zn   2.077 --   162 N    0.489   174 N    0.489   177 N    0.489
                           168 N    0.489
   154   6 C    3.954 --   155 C    1.648   176 C    1.173   178 H    0.972
   155   6 C    3.956 --   154 C    1.648   156 C    1.180   179 H    0.967
   156   6 C    3.917 --   177 N    1.286   157 C    1.254   155 C    1.180
   157   6 C    3.930 --   156 C    1.254   158 C    1.254    78 C    1.175
   158   6 C    3.917 --   162 N    1.286   157 C    1.254   159 C    1.180
   159   6 C    3.956 --   160 C    1.648   158 C    1.180   180 H    0.967
   160   6 C    3.954 --   159 C    1.648   161 C    1.173   181 H    0.972
   161   6 C    3.923 --   163 C    1.356   162 N    1.245   160 C    1.173
   162   7 N    3.461 --   158 C    1.286   161 C    1.245   153 Zn   0.489
   163   6 C    3.925 --   161 C    1.356   164 C    1.356   182 H    0.964
   164   6 C    3.923 --   163 C    1.356   168 N    1.246   165 C    1.173
   165   6 C    3.954 --   166 C    1.649   164 C    1.173   183 H    0.972
   166   6 C    3.956 --   165 C    1.649   167 C    1.180   184 H    0.968
   167   6 C    3.917 --   168 N    1.286   169 C    1.254   166 C    1.180
   168   7 N    3.460 --   167 C    1.286   164 C    1.246   153 Zn   0.489
   169   6 C    3.930 --   170 C    1.254   167 C    1.254    79 C    1.174
   170   6 C    3.917 --   174 N    1.286   169 C    1.254   171 C    1.180
   171   6 C    3.956 --   172 C    1.648   170 C    1.180   185 H    0.968
   172   6 C    3.954 --   171 C    1.648   173 C    1.173   186 H    0.972
   173   6 C    3.923 --   175 C    1.356   174 N    1.246   172 C    1.173
   174   7 N    3.460 --   170 C    1.286   173 C    1.246   153 Zn   0.489
   175   6 C    3.925 --   176 C    1.356   173 C    1.356   187 H    0.964
   176   6 C    3.923 --   175 C    1.356   177 N    1.246   154 C    1.173
   177   7 N    3.460 --   156 C    1.286   176 C    1.246   153 Zn   0.489
   178   1 H    0.998 --   154 C    0.972
   179   1 H    0.998 --   155 C    0.967
   180   1 H    0.998 --   159 C    0.967
   181   1 H    0.998 --   160 C    0.972
   182   1 H    0.996 --   163 C    0.964
   183   1 H    0.998 --   165 C    0.972
   184   1 H    0.998 --   166 C    0.968
   185   1 H    0.998 --   171 C    0.968
   186   1 H    0.998 --   172 C    0.972
   187   1 H    0.996 --   175 C    0.964
   188  30 Zn   2.077 --   212 N    0.489   197 N    0.489   203 N    0.489
                           209 N    0.489
   189   6 C    3.954 --   190 C    1.649   211 C    1.173   213 H    0.972
   190   6 C    3.956 --   189 C    1.649   191 C    1.180   214 H    0.968
   191   6 C    3.917 --   212 N    1.286   192 C    1.255   190 C    1.180
   192   6 C    3.931 --   193 C    1.255   191 C    1.255    80 C    1.174
   193   6 C    3.917 --   197 N    1.286   192 C    1.255   194 C    1.180
   194   6 C    3.956 --   195 C    1.649   193 C    1.180   215 H    0.968
   195   6 C    3.954 --   194 C    1.649   196 C    1.173   216 H    0.972
   196   6 C    3.924 --   198 C    1.356   197 N    1.246   195 C    1.173
   197   7 N    3.461 --   193 C    1.286   196 C    1.246   188 Zn   0.489
   198   6 C    3.926 --   196 C    1.356   199 C    1.356   217 H    0.964
   199   6 C    3.924 --   198 C    1.356   203 N    1.246   200 C    1.173
   200   6 C    3.954 --   201 C    1.649   199 C    1.173   218 H    0.972
   201   6 C    3.956 --   200 C    1.649   202 C    1.180   219 H    0.968
   202   6 C    3.918 --   203 N    1.285   204 C    1.256   201 C    1.180
   203   7 N    3.461 --   202 C    1.285   199 C    1.246   188 Zn   0.489
   204   6 C    3.930 --   205 C    1.256   202 C    1.256    81 C    1.170
   205   6 C    3.918 --   209 N    1.285   204 C    1.256   206 C    1.180
   206   6 C    3.956 --   207 C    1.649   205 C    1.180   220 H    0.968
   207   6 C    3.954 --   206 C    1.649   208 C    1.173   221 H    0.972
   208   6 C    3.924 --   210 C    1.356   209 N    1.246   207 C    1.173
   209   7 N    3.461 --   205 C    1.285   208 C    1.246   188 Zn   0.489
   210   6 C    3.926 --   211 C    1.356   208 C    1.356   222 H    0.964
   211   6 C    3.924 --   210 C    1.356   212 N    1.246   189 C    1.173
   212   7 N    3.461 --   191 C    1.286   211 C    1.246   188 Zn   0.489
   213   1 H    0.998 --   189 C    0.972
   214   1 H    0.998 --   190 C    0.968
   215   1 H    0.998 --   194 C    0.968
   216   1 H    0.998 --   195 C    0.972
   217   1 H    0.996 --   198 C    0.964
   218   1 H    0.998 --   200 C    0.972
   219   1 H    0.998 --   201 C    0.968
   220   1 H    0.998 --   206 C    0.968
   221   1 H    0.998 --   207 C    0.972
   222   1 H    0.996 --   210 C    0.964
 ---------------------------------------------------------------------------

Topologies differ in total number of bonds
Writing topology from bond orders to xtbtopo.mol

molecular dipole:
                 x           y           z       tot (Debye)
 q only:       -0.003      -0.000       0.001
   full:       -0.003      -0.001       0.001       0.007
molecular quadrupole (traceless):
                xx          xy          yy          xz          yz          zz
 q only:       60.071      -0.180      -8.800       0.138      -3.177     -51.271
  q+dip:      115.423      -0.287      -3.413       0.198      -7.846    -112.010
   full:       76.471      -0.257      -9.345       0.191      -4.203     -67.127


           -------------------------------------------------
          | TOTAL ENERGY             -383.823047119423 Eh   |
          | GRADIENT NORM               0.000313488577 Eh/α |
          | HOMO-LUMO GAP               0.881015699500 eV   |
           -------------------------------------------------

------------------------------------------------------------------------
 * finished run on 2021/11/21 at 01:43:50.600     
------------------------------------------------------------------------
 total:
 * wall-time:     0 d,  0 h,  0 min,  2.518 sec
 *  cpu-time:     0 d,  0 h,  0 min,  2.518 sec
 * ratio c/w:     1.000 speedup
 SCF:
 * wall-time:     0 d,  0 h,  0 min,  2.402 sec
 *  cpu-time:     0 d,  0 h,  0 min,  2.402 sec
 * ratio c/w:     1.000 speedup

