      -----------------------------------------------------------      
     |                   =====================                   |     
     |                           x T B                           |     
     |                   =====================                   |     
     |                         S. Grimme                         |     
     |          Mulliken Center for Theoretical Chemistry        |     
     |                    University of Bonn                     |     
      -----------------------------------------------------------      

   * xtb version 6.4.1 (bd6e46d) compiled by 'conda@4901f00b25ba' on 2021-06-10

   xtb is free software: you can redistribute it and/or modify it under
   the terms of the GNU Lesser General Public License as published by
   the Free Software Foundation, either version 3 of the License, or
   (at your option) any later version.
   
   xtb is distributed in the hope that it will be useful,
   but WITHOUT ANY WARRANTY; without even the implied warranty of
   MERCHANTABILITY or FITNESS FOR A PARTICULAR PURPOSE.  See the
   GNU Lesser General Public License for more details.
   
   Cite this work as:
   * C. Bannwarth, E. Caldeweyher, S. Ehlert, A. Hansen, P. Pracht,
     J. Seibert, S. Spicher, S. Grimme, WIREs Comput. Mol. Sci., 2020, 11,
     e01493. DOI: 10.1002/wcms.1493
   
   for GFN2-xTB:
   * C. Bannwarth, S. Ehlert and S. Grimme., J. Chem. Theory Comput., 2019,
     15, 1652-1671. DOI: 10.1021/acs.jctc.8b01176
   for GFN1-xTB:
   * S. Grimme, C. Bannwarth, P. Shushkov, J. Chem. Theory Comput., 2017,
     13, 1989-2009. DOI: 10.1021/acs.jctc.7b00118
   for GFN0-xTB:
   * P. Pracht, E. Caldeweyher, S. Ehlert, S. Grimme, ChemRxiv, 2019, preprint.
     DOI: 10.26434/chemrxiv.8326202.v1
   for GFN-FF:
   * S. Spicher and S. Grimme, Angew. Chem. Int. Ed., 2020, 59, 15665-15673.
     DOI: 10.1002/anie.202004239
   
   for DFT-D4:
   * E. Caldeweyher, C. Bannwarth and S. Grimme, J. Chem. Phys., 2017,
     147, 034112. DOI: 10.1063/1.4993215
   * E. Caldeweyher, S. Ehlert, A. Hansen, H. Neugebauer, S. Spicher,
     C. Bannwarth and S. Grimme, J. Chem. Phys., 2019, 150, 154122.
     DOI: 10.1063/1.5090222
   * E. Caldeweyher, J.-M. Mewes, S. Ehlert and S. Grimme, Phys. Chem. Chem. Phys.
     2020, 22, 8499-8512. DOI: 10.1039/D0CP00502A
   
   for sTDA-xTB:
   * S. Grimme and C. Bannwarth, J. Chem. Phys., 2016, 145, 054103.
     DOI: 10.1063/1.4959605
   
   in the mass-spec context:
   * V. Asgeirsson, C. Bauer and S. Grimme, Chem. Sci., 2017, 8, 4879.
     DOI: 10.1039/c7sc00601b
   * J. Koopman and S. Grimme, ACS Omega 2019, 4, 12, 15120-15133.
     DOI: 10.1021/acsomega.9b02011
   
   for metadynamics refer to:
   * S. Grimme, J. Chem. Theory Comput., 2019, 155, 2847-2862
     DOI: 10.1021/acs.jctc.9b00143
   
   for SPH calculations refer to:
   * S. Spicher and S. Grimme, J. Chem. Theory Comput., 2021, 17, 1701-1714
     DOI: 10.1021/acs.jctc.0c01306
   
   with help from (in alphabetical order)
   P. Atkinson, C. Bannwarth, F. Bohle, G. Brandenburg, E. Caldeweyher
   M. Checinski, S. Dohm, S. Ehlert, S. Ehrlich, I. Gerasimov, J. Koopman
   C. Lavigne, S. Lehtola, F. März, M. Müller, F. Musil, H. Neugebauer
   J. Pisarek, C. Plett, P. Pracht, J. Seibert, P. Shushkov, S. Spicher
   M. Stahn, M. Steiner, T. Strunk, J. Stückrath, T. Rose, and J. Unsleber
   
 * started run on 2021/11/21 at 19:19:14.751     

           -------------------------------------------------
          |                Calculation Setup                |
           -------------------------------------------------

          program call               : /home/jeff/miniconda3/bin/xtb /home/jeff/chem/final-year-proejct/Cu+2_2_7_outenergy/input_structure.xyz --gfn 2 --parallel 1 --etemp 300 --chrg 0 --uhf 0 -I det_control.in
          coordinate file            : /home/jeff/chem/final-year-proejct/Cu+2_2_7_outenergy/input_structure.xyz
          omp threads                :                     1
          number of atoms            :                   259
          number of electrons        :                   897
          charge                     :                     0
          spin                       :                   0.5
          first test random number   :      0.96039306013007

   ID    Z sym.   atoms
    1   29 Cu     1, 37, 85, 120, 155, 190, 225
    2    6 C      2-9, 11-15, 17-21, 23, 24, 38-45, 47-51, 53-57, 59, 60,
                  73-84, 86-93, 95-99, 101-105, 107, 108, 121-128, 130-134,
                  136-140, 142, 143, 156-163, 165-169, 171-175, 177, 178,
                  191-198, 200-204, 206-210, 212, 213, 226-233, 235-239,
                  241-245, 247, 248
    3    7 N      10, 16, 22, 25, 46, 52, 58, 61, 94, 100, 106, 109, 129,
                  135, 141, 144, 164, 170, 176, 179, 199, 205, 211, 214, 234,
                  240, 246, 249
    4    1 H      26-36, 62-72, 110-119, 145-154, 180-189, 215-224, 250-259

           -------------------------------------------------
          |                 G F N 2 - x T B                 |
           -------------------------------------------------

        Reference                      10.1021/acs.jctc.8b01176
      * Hamiltonian:
        H0-scaling (s, p, d)           1.850000    2.230000    2.230000
        zeta-weighting                 0.500000
      * Dispersion:
        s8                             2.700000
        a1                             0.520000
        a2                             5.000000
        s9                             5.000000
      * Repulsion:
        kExp                           1.500000    1.000000
        rExp                           1.000000
      * Coulomb:
        alpha                          2.000000
        third order                    shell-resolved
        anisotropic                    true
        a3                             3.000000
        a5                             4.000000
        cn-shift                       1.200000
        cn-exp                         4.000000
        max-rad                        5.000000


          ...................................................
          :                      SETUP                      :
          :.................................................:
          :  # basis functions                 862          :
          :  # atomic orbitals                 855          :
          :  # shells                          453          :
          :  # electrons                       897          :
          :  max. iterations                   250          :
          :  Hamiltonian                  GFN2-xTB          :
          :  restarted?                      false          :
          :  GBSA solvation                  false          :
          :  PC potential                    false          :
          :  electronic temp.          300.0000000     K    :
          :  accuracy                    1.0000000          :
          :  -> integral cutoff          0.2500000E+02      :
          :  -> integral neglect         0.1000000E-07      :
          :  -> SCF convergence          0.1000000E-05 Eh   :
          :  -> wf. convergence          0.1000000E-03 e    :
          :  Broyden damping             0.4000000          :
          ...................................................

 iter      E             dE          RMSdq      gap      omega  full diag
   1   -479.4918921 -0.479492E+03  0.500E+00    0.00       0.0  T
   2   -478.9708115  0.521081E+00  0.321E+00    0.00       1.0  T
   3   -358.5865971  0.120384E+03  0.114E+01    0.01       1.0  T
   4   -477.8641859 -0.119278E+03  0.182E+00    0.12       1.0  T
   5   -478.5997513 -0.735565E+00  0.117E+00    0.01       1.0  T
   6   -458.3701976  0.202296E+02  0.539E+00    0.00       1.0  T
   7   -478.3873815 -0.200172E+02  0.107E+00    0.20       1.0  T
   8   -478.5591132 -0.171732E+00  0.970E-01    0.03       1.0  T
   9   -477.1479627  0.141115E+01  0.192E+00    0.01       1.0  T
  10   -478.8971281 -0.174917E+01  0.822E-01    0.07       1.0  T
  11   -478.9836661 -0.865381E-01  0.798E-01    0.02       1.0  T
  12   -478.7966086  0.187058E+00  0.881E-01    0.04       1.0  T
  13   -478.8940544 -0.974458E-01  0.770E-01    0.04       1.0  T
  14   -478.7584016  0.135653E+00  0.901E-01    0.01       1.0  T
  15   -479.1442658 -0.385864E+00  0.755E-01    0.01       1.0  T
  16   -479.1576318 -0.133660E-01  0.651E-01    0.00       1.0  T
  17   -479.3539759 -0.196344E+00  0.521E-01    0.01       1.0  T
  18   -479.1361221  0.217854E+00  0.650E-01    0.04       1.0  T
  19   -479.3782025 -0.242080E+00  0.525E-01    0.01       1.0  T
  20   -479.4885187 -0.110316E+00  0.385E-01    0.02       1.0  T
  21   -479.5172916 -0.287729E-01  0.380E-01    0.00       1.0  T
  22   -479.6365535 -0.119262E+00  0.197E-01    0.00       1.0  T
  23   -479.5984864  0.380671E-01  0.266E-01    0.00       1.0  T
  24   -479.5928929  0.559359E-02  0.248E-01    0.00       1.0  T
  25   -479.6142722 -0.213793E-01  0.226E-01    0.00       1.0  T
  26   -479.6608794 -0.466072E-01  0.115E-01    0.00       1.0  T
  27   -479.6584387  0.244072E-02  0.134E-01    0.00       1.0  T
  28   -479.6668830 -0.844436E-02  0.903E-02    0.00       1.0  T
  29   -479.6729271 -0.604408E-02  0.612E-02    0.00       1.0  T
  30   -479.6749487 -0.202154E-02  0.449E-02    0.00       1.0  T
  31   -479.6748135  0.135107E-03  0.470E-02    0.00       1.0  T
  32   -479.6746843  0.129246E-03  0.479E-02    0.00       1.0  T
  33   -479.6737360  0.948333E-03  0.516E-02    0.00       1.0  T
  34   -479.6749895 -0.125349E-02  0.404E-02    0.00       1.0  T
  35   -479.6750415 -0.520139E-04  0.363E-02    0.00       1.0  T
  36   -479.6752973 -0.255823E-03  0.282E-02    0.00       1.0  T
  37   -479.6752218  0.754826E-04  0.243E-02    0.00       1.0  T
  38   -479.6754297 -0.207893E-03  0.161E-02    0.00       1.0  T
  39   -479.6752474  0.182328E-03  0.163E-02    0.00       1.0  T
  40   -479.6754145 -0.167087E-03  0.100E-02    0.00       1.0  T
  41   -479.6754916 -0.771057E-04  0.548E-03    0.00       1.1  T
  42   -479.6754896  0.196573E-05  0.554E-03    0.00       1.1  T
  43   -479.6755002 -0.106145E-04  0.442E-03    0.00       1.4  T
  44   -479.6755068 -0.662278E-05  0.387E-03    0.00       1.6  T
  45   -479.6755077 -0.846806E-06  0.372E-03    0.00       1.7  T
  46   -479.6755078 -0.111601E-06  0.368E-03    0.00       1.7  T
  47   -479.6755016  0.620020E-05  0.414E-03    0.00       1.5  T
  48   -479.6755055 -0.384742E-05  0.369E-03    0.00       1.7  T
  49   -479.6755076 -0.211537E-05  0.318E-03    0.00       2.0  T
  50   -479.6755085 -0.923291E-06  0.279E-03    0.00       2.2  T
  51   -479.6755128 -0.434141E-05  0.163E-03    0.00       3.8  T
  52   -479.6755141 -0.122788E-05  0.951E-04    0.00       6.5  T
  53   -479.6755147 -0.689516E-06  0.418E-04    0.00      14.9  T
  54   -479.6755148 -0.280606E-07  0.261E-04    0.00      23.8  T

   *** convergence criteria satisfied after 54 iterations ***

         #    Occupation            Energy/Eh            Energy/eV
      -------------------------------------------------------------
         1        2.0000           -0.6796585             -18.4944
       ...           ...                  ...                  ...
       443        2.0000           -0.3572047              -9.7200
       444        2.0000           -0.3523293              -9.5874
       445        2.0000           -0.3485536              -9.4846
       446        1.0373           -0.3222207              -8.7681
       447        1.0268           -0.3222003              -8.7675
       448        1.0116           -0.3221708              -8.7667
       449        0.9937           -0.3221361              -8.7658 (HOMO)
       450        0.9807           -0.3221109              -8.7651 (LUMO)
       451        0.9752           -0.3221002              -8.7648
       452        0.9513           -0.3220539              -8.7635
       453        0.0230           -0.3178810              -8.6500
       454        0.0004           -0.3139626              -8.5434
       ...           ...                  ...                  ...
       855                          1.4075117              38.3003
      -------------------------------------------------------------
                  HL-Gap            0.0000252 Eh            0.0007 eV
             Fermi-level           -0.3221483 Eh           -8.7661 eV

 SCC (total)                   0 d,  0 h,  0 min, 13.367 sec
 SCC setup                      ...        0 min,  0.013 sec (  0.099%)
 Dispersion                     ...        0 min,  0.025 sec (  0.184%)
 classical contributions        ...        0 min,  0.002 sec (  0.019%)
 integral evaluation            ...        0 min,  0.197 sec (  1.472%)
 iterations                     ...        0 min, 12.538 sec ( 93.798%)
 molecular gradient             ...        0 min,  0.561 sec (  4.197%)
 printout                       ...        0 min,  0.031 sec (  0.231%)

         :::::::::::::::::::::::::::::::::::::::::::::::::::::
         ::                     SUMMARY                     ::
         :::::::::::::::::::::::::::::::::::::::::::::::::::::
         :: total energy            -471.577858818953 Eh    ::
         :: gradient norm              0.000474472239 Eh/a0 ::
         :: HOMO-LUMO gap              0.000686524431 eV    ::
         ::.................................................::
         :: SCC energy              -479.675514777698 Eh    ::
         :: -> isotropic ES            0.194891108670 Eh    ::
         :: -> anisotropic ES          0.066447676303 Eh    ::
         :: -> anisotropic XC          0.182594121070 Eh    ::
         :: -> dispersion             -0.446143968520 Eh    ::
         :: repulsion energy           8.106108128502 Eh    ::
         :: add. restraining           0.000000000000 Eh    ::
         :: total charge               0.000000000000 e     ::
         :::::::::::::::::::::::::::::::::::::::::::::::::::::

           -------------------------------------------------
          |                Property Printout                |
           -------------------------------------------------

    * Orbital Energies and Occupations

         #    Occupation            Energy/Eh            Energy/eV
      -------------------------------------------------------------
         1        2.0000           -0.6796585             -18.4944
       ...           ...                  ...                  ...
       437        2.0000           -0.3700961             -10.0708
       438        2.0000           -0.3700924             -10.0707
       439        2.0000           -0.3698504             -10.0641
       440        2.0000           -0.3698313             -10.0636
       441        2.0000           -0.3676141             -10.0033
       442        2.0000           -0.3624855              -9.8637
       443        2.0000           -0.3572047              -9.7200
       444        2.0000           -0.3523293              -9.5874
       445        2.0000           -0.3485536              -9.4846
       446        1.0373           -0.3222207              -8.7681
       447        1.0268           -0.3222003              -8.7675
       448        1.0116           -0.3221708              -8.7667
       449        0.9937           -0.3221361              -8.7658 (HOMO)
       450        0.9807           -0.3221109              -8.7651 (LUMO)
       451        0.9752           -0.3221002              -8.7648
       452        0.9513           -0.3220539              -8.7635
       453        0.0230           -0.3178810              -8.6500
       454        0.0004           -0.3139626              -8.5434
       455        0.0000           -0.3089077              -8.4058
       456                         -0.3033046              -8.2533
       457                         -0.3001913              -8.1686
       458                         -0.3001748              -8.1682
       459                         -0.3000064              -8.1636
       460                         -0.3000058              -8.1636
       ...                                ...                  ...
       855                          1.4075117              38.3003
      -------------------------------------------------------------
                  HL-Gap            0.0000252 Eh            0.0007 eV
             Fermi-level           -0.3221483 Eh           -8.7661 eV

     #   Z          covCN         q      C6AA      α(0)
     1  29 Cu       2.957     0.197   146.190    27.532
     2   6 C        3.022    -0.051    29.232     8.869
     3   6 C        3.021    -0.049    29.190     8.862
     4   6 C        3.162     0.078    25.941     8.325
     5   6 C        2.953     0.018    27.598     8.616
     6   6 C        3.162     0.078    25.941     8.325
     7   6 C        3.021    -0.049    29.189     8.862
     8   6 C        3.022    -0.051    29.232     8.869
     9   6 C        3.147     0.077    26.025     8.345
    10   7 N        2.620    -0.171    24.709     7.383
    11   6 C        2.901    -0.050    29.233     8.865
    12   6 C        3.144     0.078    26.010     8.345
    13   6 C        3.019    -0.050    29.207     8.865
    14   6 C        3.020    -0.050    29.212     8.866
    15   6 C        3.144     0.079    25.994     8.342
    16   7 N        2.623    -0.170    24.678     7.378
    17   6 C        2.901    -0.051    29.277     8.872
    18   6 C        3.144     0.079    25.994     8.342
    19   6 C        3.020    -0.050    29.212     8.866
    20   6 C        3.019    -0.050    29.207     8.865
    21   6 C        3.144     0.078    26.011     8.345
    22   7 N        2.623    -0.170    24.678     7.378
    23   6 C        2.901    -0.050    29.233     8.865
    24   6 C        3.147     0.077    26.025     8.345
    25   7 N        2.620    -0.171    24.709     7.382
    26   1 H        0.926     0.035     2.521     2.483
    27   1 H        0.926     0.036     2.509     2.477
    28   1 H        0.926     0.036     2.509     2.477
    29   1 H        0.926     0.035     2.521     2.483
    30   1 H        0.926     0.050     2.320     2.382
    31   1 H        0.926     0.035     2.514     2.479
    32   1 H        0.926     0.035     2.515     2.480
    33   1 H        0.926     0.049     2.329     2.386
    34   1 H        0.926     0.035     2.515     2.480
    35   1 H        0.926     0.035     2.514     2.479
    36   1 H        0.926     0.050     2.320     2.382
    37  29 Cu       2.957     0.197   146.190    27.531
    38   6 C        3.022    -0.051    29.232     8.869
    39   6 C        3.021    -0.049    29.189     8.862
    40   6 C        3.162     0.078    25.941     8.325
    41   6 C        2.953     0.018    27.597     8.616
    42   6 C        3.162     0.078    25.941     8.325
    43   6 C        3.021    -0.049    29.190     8.862
    44   6 C        3.022    -0.051    29.232     8.869
    45   6 C        3.148     0.077    26.024     8.345
    46   7 N        2.621    -0.171    24.708     7.382
    47   6 C        2.901    -0.050    29.233     8.865
    48   6 C        3.144     0.078    26.010     8.344
    49   6 C        3.019    -0.050    29.207     8.865
    50   6 C        3.020    -0.050    29.212     8.866
    51   6 C        3.144     0.079    25.993     8.342
    52   7 N        2.623    -0.170    24.678     7.378
    53   6 C        2.901    -0.051    29.277     8.872
    54   6 C        3.144     0.079    25.994     8.342
    55   6 C        3.020    -0.050    29.212     8.866
    56   6 C        3.019    -0.050    29.207     8.865
    57   6 C        3.144     0.078    26.010     8.344
    58   7 N        2.623    -0.170    24.678     7.378
    59   6 C        2.901    -0.050    29.233     8.865
    60   6 C        3.148     0.077    26.024     8.345
    61   7 N        2.620    -0.171    24.709     7.382
    62   1 H        0.926     0.035     2.521     2.483
    63   1 H        0.926     0.036     2.509     2.477
    64   1 H        0.926     0.036     2.509     2.477
    65   1 H        0.926     0.035     2.521     2.483
    66   1 H        0.926     0.050     2.320     2.382
    67   1 H        0.926     0.035     2.514     2.479
    68   1 H        0.926     0.035     2.514     2.480
    69   1 H        0.926     0.049     2.329     2.386
    70   1 H        0.926     0.035     2.514     2.480
    71   1 H        0.926     0.035     2.514     2.479
    72   1 H        0.926     0.050     2.320     2.382
    73   6 C        1.992    -0.028    31.797     9.106
    74   6 C        1.992    -0.028    31.793     9.106
    75   6 C        1.992    -0.028    31.794     9.106
    76   6 C        1.992    -0.028    31.794     9.106
    77   6 C        1.991    -0.028    31.794     9.106
    78   6 C        1.991    -0.028    31.794     9.106
    79   6 C        1.991    -0.028    31.794     9.106
    80   6 C        1.991    -0.028    31.794     9.106
    81   6 C        1.991    -0.028    31.794     9.106
    82   6 C        1.992    -0.028    31.793     9.106
    83   6 C        1.992    -0.028    31.793     9.106
    84   6 C        1.992    -0.028    31.797     9.107
    85  29 Cu       2.950     0.199   146.164    27.529
    86   6 C        3.022    -0.051    29.231     8.869
    87   6 C        3.021    -0.049    29.197     8.863
    88   6 C        3.163     0.079    25.929     8.323
    89   6 C        2.953     0.018    27.600     8.617
    90   6 C        3.163     0.079    25.928     8.322
    91   6 C        3.021    -0.049    29.196     8.863
    92   6 C        3.022    -0.051    29.231     8.869
    93   6 C        3.148     0.077    26.034     8.346
    94   7 N        2.620    -0.172    24.736     7.387
    95   6 C        2.901    -0.048    29.181     8.857
    96   6 C        3.148     0.076    26.036     8.347
    97   6 C        3.022    -0.051    29.233     8.869
    98   6 C        3.022    -0.049    29.198     8.864
    99   6 C        3.163     0.079    25.932     8.323
   100   7 N        2.621    -0.172    24.732     7.386
   101   6 C        2.953     0.018    27.597     8.616
   102   6 C        3.162     0.079    25.932     8.324
   103   6 C        3.021    -0.049    29.195     8.863
   104   6 C        3.022    -0.051    29.233     8.869
   105   6 C        3.148     0.077    26.036     8.347
   106   7 N        2.620    -0.172    24.733     7.386
   107   6 C        2.901    -0.048    29.181     8.857
   108   6 C        3.148     0.077    26.034     8.347
   109   7 N        2.620    -0.172    24.737     7.387
   110   1 H        0.926     0.034     2.527     2.486
   111   1 H        0.926     0.035     2.519     2.482
   112   1 H        0.926     0.035     2.519     2.482
   113   1 H        0.926     0.034     2.527     2.486
   114   1 H        0.926     0.050     2.316     2.380
   115   1 H        0.926     0.034     2.527     2.486
   116   1 H        0.926     0.035     2.517     2.481
   117   1 H        0.926     0.035     2.518     2.482
   118   1 H        0.926     0.034     2.527     2.486
   119   1 H        0.926     0.050     2.316     2.380
   120  29 Cu       2.953     0.200   146.154    27.528
   121   6 C        3.022    -0.051    29.232     8.869
   122   6 C        3.022    -0.049    29.196     8.863
   123   6 C        3.162     0.079    25.931     8.323
   124   6 C        2.953     0.018    27.598     8.617
   125   6 C        3.162     0.079    25.931     8.323
   126   6 C        3.022    -0.049    29.197     8.863
   127   6 C        3.022    -0.051    29.232     8.869
   128   6 C        3.148     0.076    26.038     8.347
   129   7 N        2.621    -0.172    24.733     7.386
   130   6 C        2.901    -0.047    29.177     8.857
   131   6 C        3.148     0.076    26.038     8.347
   132   6 C        3.022    -0.051    29.233     8.869
   133   6 C        3.022    -0.049    29.196     8.863
   134   6 C        3.162     0.079    25.931     8.324
   135   7 N        2.621    -0.172    24.732     7.386
   136   6 C        2.953     0.018    27.598     8.616
   137   6 C        3.162     0.079    25.932     8.324
   138   6 C        3.022    -0.049    29.198     8.863
   139   6 C        3.022    -0.051    29.233     8.869
   140   6 C        3.148     0.076    26.038     8.347
   141   7 N        2.621    -0.172    24.732     7.386
   142   6 C        2.901    -0.047    29.177     8.857
   143   6 C        3.148     0.076    26.038     8.347
   144   7 N        2.621    -0.172    24.732     7.386
   145   1 H        0.926     0.034     2.527     2.486
   146   1 H        0.926     0.035     2.519     2.482
   147   1 H        0.926     0.035     2.518     2.481
   148   1 H        0.926     0.034     2.527     2.486
   149   1 H        0.926     0.050     2.314     2.379
   150   1 H        0.926     0.034     2.527     2.486
   151   1 H        0.926     0.035     2.519     2.482
   152   1 H        0.926     0.035     2.518     2.481
   153   1 H        0.926     0.034     2.527     2.486
   154   1 H        0.926     0.050     2.314     2.379
   155  29 Cu       2.953     0.200   146.152    27.528
   156   6 C        3.022    -0.051    29.232     8.869
   157   6 C        3.022    -0.049    29.198     8.863
   158   6 C        3.162     0.079    25.931     8.323
   159   6 C        2.953     0.018    27.598     8.617
   160   6 C        3.162     0.079    25.932     8.324
   161   6 C        3.022    -0.049    29.197     8.863
   162   6 C        3.022    -0.051    29.232     8.869
   163   6 C        3.148     0.076    26.038     8.347
   164   7 N        2.621    -0.172    24.732     7.386
   165   6 C        2.901    -0.047    29.175     8.856
   166   6 C        3.148     0.076    26.039     8.347
   167   6 C        3.022    -0.051    29.233     8.869
   168   6 C        3.022    -0.049    29.196     8.863
   169   6 C        3.162     0.079    25.932     8.324
   170   7 N        2.621    -0.172    24.732     7.386
   171   6 C        2.953     0.018    27.598     8.616
   172   6 C        3.162     0.079    25.932     8.324
   173   6 C        3.022    -0.049    29.198     8.863
   174   6 C        3.022    -0.051    29.233     8.869
   175   6 C        3.149     0.076    26.038     8.347
   176   7 N        2.621    -0.172    24.731     7.386
   177   6 C        2.901    -0.047    29.175     8.856
   178   6 C        3.148     0.076    26.038     8.347
   179   7 N        2.621    -0.172    24.732     7.386
   180   1 H        0.926     0.034     2.527     2.486
   181   1 H        0.926     0.035     2.518     2.481
   182   1 H        0.926     0.035     2.519     2.482
   183   1 H        0.926     0.034     2.527     2.486
   184   1 H        0.926     0.050     2.314     2.379
   185   1 H        0.926     0.034     2.527     2.486
   186   1 H        0.926     0.035     2.519     2.482
   187   1 H        0.926     0.035     2.518     2.482
   188   1 H        0.926     0.034     2.527     2.486
   189   1 H        0.926     0.050     2.314     2.379
   190  29 Cu       2.953     0.200   146.154    27.528
   191   6 C        3.022    -0.051    29.233     8.869
   192   6 C        3.022    -0.049    29.197     8.863
   193   6 C        3.162     0.079    25.932     8.324
   194   6 C        2.953     0.018    27.597     8.616
   195   6 C        3.162     0.079    25.932     8.324
   196   6 C        3.022    -0.049    29.197     8.863
   197   6 C        3.022    -0.051    29.233     8.869
   198   6 C        3.148     0.076    26.038     8.347
   199   7 N        2.621    -0.172    24.731     7.386
   200   6 C        2.901    -0.047    29.176     8.857
   201   6 C        3.148     0.076    26.038     8.347
   202   6 C        3.022    -0.051    29.232     8.869
   203   6 C        3.022    -0.049    29.197     8.863
   204   6 C        3.162     0.079    25.931     8.323
   205   7 N        2.621    -0.172    24.732     7.386
   206   6 C        2.953     0.018    27.598     8.616
   207   6 C        3.162     0.079    25.931     8.323
   208   6 C        3.022    -0.049    29.196     8.863
   209   6 C        3.022    -0.051    29.232     8.869
   210   6 C        3.148     0.076    26.038     8.347
   211   7 N        2.621    -0.172    24.733     7.386
   212   6 C        2.901    -0.047    29.176     8.857
   213   6 C        3.148     0.076    26.038     8.347
   214   7 N        2.621    -0.172    24.732     7.386
   215   1 H        0.926     0.034     2.527     2.486
   216   1 H        0.926     0.035     2.519     2.482
   217   1 H        0.926     0.035     2.519     2.482
   218   1 H        0.926     0.034     2.527     2.486
   219   1 H        0.926     0.050     2.314     2.379
   220   1 H        0.926     0.034     2.527     2.486
   221   1 H        0.926     0.035     2.519     2.482
   222   1 H        0.926     0.035     2.519     2.482
   223   1 H        0.926     0.034     2.527     2.486
   224   1 H        0.926     0.050     2.314     2.379
   225  29 Cu       2.950     0.199   146.164    27.529
   226   6 C        3.022    -0.051    29.233     8.869
   227   6 C        3.022    -0.049    29.197     8.863
   228   6 C        3.162     0.079    25.932     8.323
   229   6 C        2.953     0.018    27.597     8.616
   230   6 C        3.162     0.079    25.932     8.324
   231   6 C        3.022    -0.049    29.197     8.863
   232   6 C        3.022    -0.051    29.233     8.869
   233   6 C        3.148     0.076    26.036     8.347
   234   7 N        2.620    -0.172    24.732     7.386
   235   6 C        2.901    -0.048    29.181     8.857
   236   6 C        3.148     0.077    26.034     8.346
   237   6 C        3.022    -0.051    29.231     8.869
   238   6 C        3.021    -0.049    29.197     8.863
   239   6 C        3.163     0.079    25.929     8.323
   240   7 N        2.620    -0.172    24.736     7.387
   241   6 C        2.953     0.018    27.600     8.617
   242   6 C        3.163     0.079    25.929     8.323
   243   6 C        3.021    -0.049    29.197     8.863
   244   6 C        3.022    -0.051    29.231     8.869
   245   6 C        3.148     0.077    26.033     8.346
   246   7 N        2.620    -0.172    24.736     7.387
   247   6 C        2.901    -0.048    29.181     8.857
   248   6 C        3.148     0.076    26.035     8.347
   249   7 N        2.620    -0.172    24.732     7.386
   250   1 H        0.926     0.034     2.527     2.486
   251   1 H        0.926     0.035     2.518     2.481
   252   1 H        0.926     0.035     2.518     2.481
   253   1 H        0.926     0.034     2.527     2.486
   254   1 H        0.926     0.050     2.316     2.380
   255   1 H        0.926     0.034     2.527     2.486
   256   1 H        0.926     0.035     2.519     2.482
   257   1 H        0.926     0.035     2.519     2.482
   258   1 H        0.926     0.034     2.527     2.486
   259   1 H        0.926     0.050     2.316     2.380

 Mol. C6AA /au·bohr⁶  :    1295822.308969
 Mol. C8AA /au·bohr⁸  :   37365257.852786
 Mol. α(0) /au        :       1894.349566


Wiberg/Mayer (AO) data.
largest (>0.10) Wiberg bond orders for each atom

 ---------------------------------------------------------------------------
     #   Z sym  total        # sym  WBO       # sym  WBO       # sym  WBO
 ---------------------------------------------------------------------------
     1  29 Cu   2.333 --    22 N    0.535    16 N    0.535    10 N    0.534
                            25 N    0.534
     2   6 C    3.946 --     3 C    1.651    24 C    1.167    26 H    0.972
     3   6 C    3.950 --     2 C    1.651     4 C    1.174    27 H    0.968
     4   6 C    3.914 --    25 N    1.287     5 C    1.256     3 C    1.174
     5   6 C    3.942 --     6 C    1.256     4 C    1.256    73 C    1.170
     6   6 C    3.914 --    10 N    1.286     5 C    1.256     7 C    1.174
     7   6 C    3.950 --     8 C    1.651     6 C    1.174    28 H    0.968
     8   6 C    3.946 --     7 C    1.651     9 C    1.167    29 H    0.972
     9   6 C    3.922 --    11 C    1.354    10 N    1.250     8 C    1.167
    10   7 N    3.382 --     6 C    1.286     9 C    1.250     1 Cu   0.534
    11   6 C    3.932 --     9 C    1.354    12 C    1.352    30 H    0.964
    12   6 C    3.927 --    11 C    1.352    16 N    1.263    13 C    1.158
    13   6 C    3.950 --    14 C    1.666    12 C    1.158    31 H    0.972
    14   6 C    3.947 --    13 C    1.666    15 C    1.158    32 H    0.972
    15   6 C    3.929 --    17 C    1.352    16 N    1.265    14 C    1.158
    16   7 N    3.378 --    15 C    1.265    12 C    1.263     1 Cu   0.535
    17   6 C    3.927 --    18 C    1.352    15 C    1.352    33 H    0.964
    18   6 C    3.929 --    17 C    1.352    22 N    1.265    19 C    1.158
    19   6 C    3.947 --    20 C    1.666    18 C    1.158    34 H    0.972
    20   6 C    3.950 --    19 C    1.666    21 C    1.158    35 H    0.972
    21   6 C    3.927 --    23 C    1.352    22 N    1.263    20 C    1.158
    22   7 N    3.378 --    18 C    1.265    21 C    1.263     1 Cu   0.535
    23   6 C    3.932 --    24 C    1.354    21 C    1.352    36 H    0.964
    24   6 C    3.922 --    23 C    1.354    25 N    1.250     2 C    1.167
    25   7 N    3.383 --     4 C    1.287    24 C    1.250     1 Cu   0.534
    26   1 H    0.998 --     2 C    0.972
    27   1 H    0.998 --     3 C    0.968
    28   1 H    0.998 --     7 C    0.968
    29   1 H    0.998 --     8 C    0.972
    30   1 H    0.996 --    11 C    0.964
    31   1 H    0.998 --    13 C    0.972
    32   1 H    0.998 --    14 C    0.972
    33   1 H    0.997 --    17 C    0.964
    34   1 H    0.998 --    19 C    0.972
    35   1 H    0.998 --    20 C    0.972
    36   1 H    0.996 --    23 C    0.964
    37  29 Cu   2.333 --    58 N    0.535    52 N    0.535    46 N    0.534
                            61 N    0.534
    38   6 C    3.946 --    39 C    1.651    60 C    1.167    62 H    0.972
    39   6 C    3.950 --    38 C    1.651    40 C    1.174    63 H    0.968
    40   6 C    3.914 --    61 N    1.286    41 C    1.256    39 C    1.174
    41   6 C    3.942 --    40 C    1.256    42 C    1.256    84 C    1.170
    42   6 C    3.914 --    46 N    1.286    41 C    1.256    43 C    1.174
    43   6 C    3.950 --    44 C    1.651    42 C    1.174    64 H    0.968
    44   6 C    3.946 --    43 C    1.651    45 C    1.167    65 H    0.972
    45   6 C    3.922 --    47 C    1.354    46 N    1.250    44 C    1.167
    46   7 N    3.383 --    42 C    1.286    45 C    1.250    37 Cu   0.534
    47   6 C    3.932 --    45 C    1.354    48 C    1.353    66 H    0.964
    48   6 C    3.927 --    47 C    1.353    52 N    1.263    49 C    1.158
    49   6 C    3.950 --    50 C    1.666    48 C    1.158    67 H    0.972
    50   6 C    3.947 --    49 C    1.666    51 C    1.158    68 H    0.972
    51   6 C    3.929 --    53 C    1.352    52 N    1.265    50 C    1.158
    52   7 N    3.378 --    51 C    1.265    48 C    1.263    37 Cu   0.535
    53   6 C    3.927 --    54 C    1.352    51 C    1.352    69 H    0.964
    54   6 C    3.929 --    53 C    1.352    58 N    1.265    55 C    1.158
    55   6 C    3.947 --    56 C    1.666    54 C    1.158    70 H    0.972
    56   6 C    3.950 --    55 C    1.666    57 C    1.158    71 H    0.972
    57   6 C    3.927 --    59 C    1.353    58 N    1.263    56 C    1.158
    58   7 N    3.378 --    54 C    1.265    57 C    1.263    37 Cu   0.535
    59   6 C    3.932 --    60 C    1.354    57 C    1.353    72 H    0.964
    60   6 C    3.922 --    59 C    1.354    61 N    1.250    38 C    1.167
    61   7 N    3.383 --    40 C    1.286    60 C    1.250    37 Cu   0.534
    62   1 H    0.998 --    38 C    0.972
    63   1 H    0.998 --    39 C    0.968
    64   1 H    0.998 --    43 C    0.968
    65   1 H    0.998 --    44 C    0.972
    66   1 H    0.996 --    47 C    0.964
    67   1 H    0.998 --    49 C    0.972
    68   1 H    0.998 --    50 C    0.972
    69   1 H    0.997 --    53 C    0.964
    70   1 H    0.998 --    55 C    0.972
    71   1 H    0.998 --    56 C    0.972
    72   1 H    0.996 --    59 C    0.964
    73   6 C    3.923 --    74 C    2.576     5 C    1.170
    74   6 C    3.926 --    73 C    2.576    89 C    1.171
    75   6 C    3.923 --    76 C    2.570   101 C    1.176
    76   6 C    3.923 --    75 C    2.570   124 C    1.177
    77   6 C    3.923 --    78 C    2.568   136 C    1.178
    78   6 C    3.923 --    77 C    2.568   159 C    1.178
    79   6 C    3.923 --    80 C    2.568   171 C    1.178
    80   6 C    3.923 --    79 C    2.568   194 C    1.178
    81   6 C    3.923 --    82 C    2.570   206 C    1.177
    82   6 C    3.923 --    81 C    2.570   229 C    1.177
    83   6 C    3.926 --    84 C    2.576   241 C    1.172
    84   6 C    3.923 --    83 C    2.576    41 C    1.170
    85  29 Cu   2.309 --   100 N    0.530   109 N    0.529   106 N    0.529
                            94 N    0.529
    86   6 C    3.948 --    87 C    1.650   108 C    1.167   110 H    0.972
    87   6 C    3.949 --    86 C    1.650    88 C    1.175   111 H    0.969
    88   6 C    3.915 --   109 N    1.289    89 C    1.253    87 C    1.175
    89   6 C    3.930 --    88 C    1.253    90 C    1.253    74 C    1.171
    90   6 C    3.915 --    94 N    1.289    89 C    1.253    91 C    1.174
    91   6 C    3.949 --    92 C    1.650    90 C    1.174   112 H    0.969
    92   6 C    3.948 --    91 C    1.650    93 C    1.167   113 H    0.972
    93   6 C    3.921 --    95 C    1.354    94 N    1.249    92 C    1.167
    94   7 N    3.373 --    90 C    1.289    93 C    1.249    85 Cu   0.529
    95   6 C    3.926 --    96 C    1.354    93 C    1.354   114 H    0.963
    96   6 C    3.921 --    95 C    1.354   100 N    1.248    97 C    1.168
    97   6 C    3.947 --    98 C    1.649    96 C    1.168   115 H    0.972
    98   6 C    3.948 --    97 C    1.649    99 C    1.175   116 H    0.968
    99   6 C    3.914 --   100 N    1.290   101 C    1.251    98 C    1.175
   100   7 N    3.373 --    99 C    1.290    96 C    1.248    85 Cu   0.530
   101   6 C    3.930 --   102 C    1.251    99 C    1.251    75 C    1.176
   102   6 C    3.914 --   106 N    1.290   101 C    1.251   103 C    1.175
   103   6 C    3.949 --   104 C    1.649   102 C    1.175   117 H    0.968
   104   6 C    3.947 --   103 C    1.649   105 C    1.168   118 H    0.972
   105   6 C    3.921 --   107 C    1.354   106 N    1.249   104 C    1.168
   106   7 N    3.373 --   102 C    1.290   105 C    1.249    85 Cu   0.529
   107   6 C    3.926 --   108 C    1.354   105 C    1.354   119 H    0.963
   108   6 C    3.921 --   107 C    1.354   109 N    1.249    86 C    1.167
   109   7 N    3.373 --    88 C    1.289   108 C    1.249    85 Cu   0.529
   110   1 H    0.998 --    86 C    0.972
   111   1 H    0.998 --    87 C    0.969
   112   1 H    0.998 --    91 C    0.969
   113   1 H    0.998 --    92 C    0.972
   114   1 H    0.996 --    95 C    0.963
   115   1 H    0.998 --    97 C    0.972
   116   1 H    0.998 --    98 C    0.968
   117   1 H    0.998 --   103 C    0.968
   118   1 H    0.998 --   104 C    0.972
   119   1 H    0.996 --   107 C    0.963
   120  29 Cu   2.312 --   141 N    0.530   129 N    0.530   144 N    0.530
                           135 N    0.530
   121   6 C    3.947 --   122 C    1.649   143 C    1.168   145 H    0.972
   122   6 C    3.948 --   121 C    1.649   123 C    1.176   146 H    0.968
   123   6 C    3.914 --   144 N    1.290   124 C    1.251   122 C    1.176
   124   6 C    3.929 --   123 C    1.251   125 C    1.251    76 C    1.177
   125   6 C    3.914 --   129 N    1.290   124 C    1.251   126 C    1.176
   126   6 C    3.948 --   127 C    1.649   125 C    1.176   147 H    0.968
   127   6 C    3.947 --   126 C    1.649   128 C    1.168   148 H    0.972
   128   6 C    3.921 --   130 C    1.354   129 N    1.248   127 C    1.168
   129   7 N    3.373 --   125 C    1.290   128 C    1.248   120 Cu   0.530
   130   6 C    3.925 --   131 C    1.354   128 C    1.354   149 H    0.963
   131   6 C    3.921 --   130 C    1.354   135 N    1.248   132 C    1.168
   132   6 C    3.947 --   133 C    1.648   131 C    1.168   150 H    0.972
   133   6 C    3.948 --   132 C    1.648   134 C    1.176   151 H    0.967
   134   6 C    3.914 --   135 N    1.290   136 C    1.250   133 C    1.176
   135   7 N    3.373 --   134 C    1.290   131 C    1.248   120 Cu   0.530
   136   6 C    3.929 --   134 C    1.250   137 C    1.250    77 C    1.178
   137   6 C    3.914 --   141 N    1.290   136 C    1.250   138 C    1.176
   138   6 C    3.948 --   139 C    1.648   137 C    1.176   152 H    0.967
   139   6 C    3.947 --   138 C    1.648   140 C    1.168   153 H    0.972
   140   6 C    3.921 --   142 C    1.354   141 N    1.248   139 C    1.168
   141   7 N    3.373 --   137 C    1.290   140 C    1.248   120 Cu   0.530
   142   6 C    3.925 --   140 C    1.354   143 C    1.354   154 H    0.963
   143   6 C    3.921 --   142 C    1.354   144 N    1.248   121 C    1.168
   144   7 N    3.373 --   123 C    1.290   143 C    1.248   120 Cu   0.530
   145   1 H    0.998 --   121 C    0.972
   146   1 H    0.998 --   122 C    0.968
   147   1 H    0.998 --   126 C    0.968
   148   1 H    0.998 --   127 C    0.972
   149   1 H    0.996 --   130 C    0.963
   150   1 H    0.998 --   132 C    0.972
   151   1 H    0.998 --   133 C    0.967
   152   1 H    0.998 --   138 C    0.967
   153   1 H    0.998 --   139 C    0.972
   154   1 H    0.996 --   142 C    0.963
   155  29 Cu   2.314 --   170 N    0.530   179 N    0.530   164 N    0.530
                           176 N    0.530
   156   6 C    3.947 --   157 C    1.648   178 C    1.168   180 H    0.972
   157   6 C    3.948 --   156 C    1.648   158 C    1.176   181 H    0.967
   158   6 C    3.914 --   179 N    1.290   159 C    1.250   157 C    1.176
   159   6 C    3.929 --   160 C    1.250   158 C    1.250    78 C    1.178
   160   6 C    3.914 --   164 N    1.290   159 C    1.250   161 C    1.176
   161   6 C    3.948 --   162 C    1.648   160 C    1.176   182 H    0.967
   162   6 C    3.947 --   161 C    1.648   163 C    1.168   183 H    0.972
   163   6 C    3.921 --   165 C    1.354   164 N    1.248   162 C    1.168
   164   7 N    3.373 --   160 C    1.290   163 C    1.248   155 Cu   0.530
   165   6 C    3.925 --   163 C    1.354   166 C    1.354   184 H    0.963
   166   6 C    3.921 --   165 C    1.354   170 N    1.248   167 C    1.168
   167   6 C    3.947 --   168 C    1.648   166 C    1.168   185 H    0.972
   168   6 C    3.948 --   167 C    1.648   169 C    1.176   186 H    0.967
   169   6 C    3.914 --   170 N    1.290   171 C    1.250   168 C    1.176
   170   7 N    3.373 --   169 C    1.290   166 C    1.248   155 Cu   0.530
   171   6 C    3.929 --   169 C    1.250   172 C    1.250    79 C    1.178
   172   6 C    3.914 --   176 N    1.290   171 C    1.250   173 C    1.176
   173   6 C    3.948 --   174 C    1.648   172 C    1.176   187 H    0.967
   174   6 C    3.947 --   173 C    1.648   175 C    1.168   188 H    0.972
   175   6 C    3.921 --   177 C    1.354   176 N    1.248   174 C    1.168
   176   7 N    3.373 --   172 C    1.290   175 C    1.248   155 Cu   0.530
   177   6 C    3.925 --   175 C    1.354   178 C    1.354   189 H    0.963
   178   6 C    3.921 --   177 C    1.354   179 N    1.248   156 C    1.168
   179   7 N    3.373 --   158 C    1.290   178 C    1.248   155 Cu   0.530
   180   1 H    0.998 --   156 C    0.972
   181   1 H    0.998 --   157 C    0.967
   182   1 H    0.998 --   161 C    0.967
   183   1 H    0.998 --   162 C    0.972
   184   1 H    0.996 --   165 C    0.963
   185   1 H    0.998 --   167 C    0.972
   186   1 H    0.998 --   168 C    0.967
   187   1 H    0.998 --   173 C    0.967
   188   1 H    0.998 --   174 C    0.972
   189   1 H    0.996 --   177 C    0.963
   190  29 Cu   2.312 --   199 N    0.530   205 N    0.530   211 N    0.530
                           214 N    0.530
   191   6 C    3.947 --   192 C    1.648   213 C    1.168   215 H    0.972
   192   6 C    3.948 --   191 C    1.648   193 C    1.176   216 H    0.967
   193   6 C    3.914 --   214 N    1.290   194 C    1.250   192 C    1.176
   194   6 C    3.929 --   193 C    1.250   195 C    1.250    80 C    1.178
   195   6 C    3.914 --   199 N    1.290   194 C    1.250   196 C    1.176
   196   6 C    3.948 --   197 C    1.648   195 C    1.176   217 H    0.967
   197   6 C    3.947 --   196 C    1.648   198 C    1.168   218 H    0.972
   198   6 C    3.921 --   200 C    1.354   199 N    1.248   197 C    1.168
   199   7 N    3.373 --   195 C    1.290   198 C    1.248   190 Cu   0.530
   200   6 C    3.925 --   198 C    1.354   201 C    1.354   219 H    0.963
   201   6 C    3.921 --   200 C    1.354   205 N    1.248   202 C    1.168
   202   6 C    3.947 --   203 C    1.649   201 C    1.168   220 H    0.972
   203   6 C    3.948 --   202 C    1.649   204 C    1.176   221 H    0.967
   204   6 C    3.914 --   205 N    1.290   206 C    1.251   203 C    1.176
   205   7 N    3.373 --   204 C    1.290   201 C    1.248   190 Cu   0.530
   206   6 C    3.929 --   207 C    1.251   204 C    1.251    81 C    1.177
   207   6 C    3.914 --   211 N    1.290   206 C    1.251   208 C    1.176
   208   6 C    3.948 --   209 C    1.649   207 C    1.176   222 H    0.967
   209   6 C    3.947 --   208 C    1.649   210 C    1.168   223 H    0.972
   210   6 C    3.921 --   212 C    1.354   211 N    1.248   209 C    1.168
   211   7 N    3.373 --   207 C    1.290   210 C    1.248   190 Cu   0.530
   212   6 C    3.925 --   210 C    1.354   213 C    1.354   224 H    0.963
   213   6 C    3.921 --   212 C    1.354   214 N    1.248   191 C    1.168
   214   7 N    3.373 --   193 C    1.290   213 C    1.248   190 Cu   0.530
   215   1 H    0.998 --   191 C    0.972
   216   1 H    0.998 --   192 C    0.967
   217   1 H    0.998 --   196 C    0.967
   218   1 H    0.998 --   197 C    0.972
   219   1 H    0.996 --   200 C    0.963
   220   1 H    0.998 --   202 C    0.972
   221   1 H    0.998 --   203 C    0.967
   222   1 H    0.998 --   208 C    0.967
   223   1 H    0.998 --   209 C    0.972
   224   1 H    0.996 --   212 C    0.963
   225  29 Cu   2.309 --   234 N    0.530   249 N    0.529   246 N    0.529
                           240 N    0.529
   226   6 C    3.947 --   227 C    1.649   248 C    1.168   250 H    0.972
   227   6 C    3.948 --   226 C    1.649   228 C    1.175   251 H    0.967
   228   6 C    3.914 --   249 N    1.290   229 C    1.251   227 C    1.175
   229   6 C    3.930 --   230 C    1.251   228 C    1.251    82 C    1.177
   230   6 C    3.914 --   234 N    1.290   229 C    1.251   231 C    1.175
   231   6 C    3.948 --   232 C    1.649   230 C    1.175   252 H    0.967
   232   6 C    3.947 --   231 C    1.649   233 C    1.168   253 H    0.972
   233   6 C    3.921 --   235 C    1.354   234 N    1.249   232 C    1.168
   234   7 N    3.373 --   230 C    1.290   233 C    1.249   225 Cu   0.530
   235   6 C    3.926 --   236 C    1.354   233 C    1.354   254 H    0.963
   236   6 C    3.921 --   235 C    1.354   240 N    1.249   237 C    1.167
   237   6 C    3.947 --   238 C    1.650   236 C    1.167   255 H    0.972
   238   6 C    3.949 --   237 C    1.650   239 C    1.175   256 H    0.968
   239   6 C    3.915 --   240 N    1.289   241 C    1.253   238 C    1.175
   240   7 N    3.373 --   239 C    1.289   236 C    1.249   225 Cu   0.529
   241   6 C    3.930 --   242 C    1.253   239 C    1.253    83 C    1.172
   242   6 C    3.915 --   246 N    1.289   241 C    1.253   243 C    1.175
   243   6 C    3.949 --   244 C    1.650   242 C    1.175   257 H    0.968
   244   6 C    3.947 --   243 C    1.650   245 C    1.167   258 H    0.972
   245   6 C    3.921 --   247 C    1.354   246 N    1.249   244 C    1.167
   246   7 N    3.373 --   242 C    1.289   245 C    1.249   225 Cu   0.529
   247   6 C    3.926 --   248 C    1.354   245 C    1.354   259 H    0.963
   248   6 C    3.921 --   247 C    1.354   249 N    1.249   226 C    1.168
   249   7 N    3.373 --   228 C    1.290   248 C    1.249   225 Cu   0.529
   250   1 H    0.998 --   226 C    0.972
   251   1 H    0.998 --   227 C    0.967
   252   1 H    0.998 --   231 C    0.967
   253   1 H    0.998 --   232 C    0.972
   254   1 H    0.996 --   235 C    0.963
   255   1 H    0.998 --   237 C    0.972
   256   1 H    0.998 --   238 C    0.968
   257   1 H    0.998 --   243 C    0.968
   258   1 H    0.998 --   244 C    0.972
   259   1 H    0.996 --   247 C    0.963
 ---------------------------------------------------------------------------

Topologies differ in total number of bonds
Writing topology from bond orders to xtbtopo.mol

molecular dipole:
                 x           y           z       tot (Debye)
 q only:        0.000      -0.002       0.001
   full:        0.000      -0.003       0.002       0.009
molecular quadrupole (traceless):
                xx          xy          yy          xz          yz          zz
 q only:      135.377      -0.221     -50.462       0.440      -1.794     -84.916
  q+dip:      202.055      -0.306     -59.094       0.693      -4.367    -142.960
   full:      157.039      -0.343     -54.547       0.666      -2.496    -102.492


           -------------------------------------------------
          | TOTAL ENERGY             -471.577858818953 Eh   |
          | GRADIENT NORM               0.000474472239 Eh/α |
          | HOMO-LUMO GAP               0.000686524431 eV   |
           -------------------------------------------------

------------------------------------------------------------------------
 * finished run on 2021/11/21 at 19:19:28.284     
------------------------------------------------------------------------
 total:
 * wall-time:     0 d,  0 h,  0 min, 13.533 sec
 *  cpu-time:     0 d,  0 h,  0 min, 13.533 sec
 * ratio c/w:     1.000 speedup
 SCF:
 * wall-time:     0 d,  0 h,  0 min, 13.371 sec
 *  cpu-time:     0 d,  0 h,  0 min, 13.371 sec
 * ratio c/w:     1.000 speedup

