      -----------------------------------------------------------      
     |                   =====================                   |     
     |                           x T B                           |     
     |                   =====================                   |     
     |                         S. Grimme                         |     
     |          Mulliken Center for Theoretical Chemistry        |     
     |                    University of Bonn                     |     
      -----------------------------------------------------------      

   * xtb version 6.4.1 (bd6e46d) compiled by 'conda@4901f00b25ba' on 2021-06-10

   xtb is free software: you can redistribute it and/or modify it under
   the terms of the GNU Lesser General Public License as published by
   the Free Software Foundation, either version 3 of the License, or
   (at your option) any later version.
   
   xtb is distributed in the hope that it will be useful,
   but WITHOUT ANY WARRANTY; without even the implied warranty of
   MERCHANTABILITY or FITNESS FOR A PARTICULAR PURPOSE.  See the
   GNU Lesser General Public License for more details.
   
   Cite this work as:
   * C. Bannwarth, E. Caldeweyher, S. Ehlert, A. Hansen, P. Pracht,
     J. Seibert, S. Spicher, S. Grimme, WIREs Comput. Mol. Sci., 2020, 11,
     e01493. DOI: 10.1002/wcms.1493
   
   for GFN2-xTB:
   * C. Bannwarth, S. Ehlert and S. Grimme., J. Chem. Theory Comput., 2019,
     15, 1652-1671. DOI: 10.1021/acs.jctc.8b01176
   for GFN1-xTB:
   * S. Grimme, C. Bannwarth, P. Shushkov, J. Chem. Theory Comput., 2017,
     13, 1989-2009. DOI: 10.1021/acs.jctc.7b00118
   for GFN0-xTB:
   * P. Pracht, E. Caldeweyher, S. Ehlert, S. Grimme, ChemRxiv, 2019, preprint.
     DOI: 10.26434/chemrxiv.8326202.v1
   for GFN-FF:
   * S. Spicher and S. Grimme, Angew. Chem. Int. Ed., 2020, 59, 15665-15673.
     DOI: 10.1002/anie.202004239
   
   for DFT-D4:
   * E. Caldeweyher, C. Bannwarth and S. Grimme, J. Chem. Phys., 2017,
     147, 034112. DOI: 10.1063/1.4993215
   * E. Caldeweyher, S. Ehlert, A. Hansen, H. Neugebauer, S. Spicher,
     C. Bannwarth and S. Grimme, J. Chem. Phys., 2019, 150, 154122.
     DOI: 10.1063/1.5090222
   * E. Caldeweyher, J.-M. Mewes, S. Ehlert and S. Grimme, Phys. Chem. Chem. Phys.
     2020, 22, 8499-8512. DOI: 10.1039/D0CP00502A
   
   for sTDA-xTB:
   * S. Grimme and C. Bannwarth, J. Chem. Phys., 2016, 145, 054103.
     DOI: 10.1063/1.4959605
   
   in the mass-spec context:
   * V. Asgeirsson, C. Bauer and S. Grimme, Chem. Sci., 2017, 8, 4879.
     DOI: 10.1039/c7sc00601b
   * J. Koopman and S. Grimme, ACS Omega 2019, 4, 12, 15120-15133.
     DOI: 10.1021/acsomega.9b02011
   
   for metadynamics refer to:
   * S. Grimme, J. Chem. Theory Comput., 2019, 155, 2847-2862
     DOI: 10.1021/acs.jctc.9b00143
   
   for SPH calculations refer to:
   * S. Spicher and S. Grimme, J. Chem. Theory Comput., 2021, 17, 1701-1714
     DOI: 10.1021/acs.jctc.0c01306
   
   with help from (in alphabetical order)
   P. Atkinson, C. Bannwarth, F. Bohle, G. Brandenburg, E. Caldeweyher
   M. Checinski, S. Dohm, S. Ehlert, S. Ehrlich, I. Gerasimov, J. Koopman
   C. Lavigne, S. Lehtola, F. März, M. Müller, F. Musil, H. Neugebauer
   J. Pisarek, C. Plett, P. Pracht, J. Seibert, P. Shushkov, S. Spicher
   M. Stahn, M. Steiner, T. Strunk, J. Stückrath, T. Rose, and J. Unsleber
   
 * started run on 2021/11/20 at 01:55:40.163     

           -------------------------------------------------
          |                Calculation Setup                |
           -------------------------------------------------

          program call               : /home/jeff/miniconda3/bin/xtb input_structure_1.xyz --gfn 2 --ohess normal --parallel 1 --etemp 300 --chrg 0 --uhf 0 -I det_control.in
          hostname                   : jelfscompute1
          coordinate file            : input_structure_1.xyz
          omp threads                :                     1
          number of atoms            :                   232
          number of electrons        :                   796
          charge                     :                     0
          spin                       :                   0.0
          first test random number   :      0.93608435401890

   ID    Z sym.   atoms
    1   27 Co     1, 37, 93, 128, 163, 198
    2    6 C      2-9, 11-15, 17-21, 23, 24, 38-45, 47-51, 53-57, 59, 60,
                  73-92, 94-101, 103-107, 109-113, 115, 116, 129-136,
                  138-142, 144-148, 150, 151, 164-171, 173-177, 179-183, 185,
                  186, 199-206, 208-212, 214-218, 220, 221
    3    7 N      10, 16, 22, 25, 46, 52, 58, 61, 102, 108, 114, 117, 137,
                  143, 149, 152, 172, 178, 184, 187, 207, 213, 219, 222
    4    1 H      26-36, 62-72, 118-127, 153-162, 188-197, 223-232

molecular fragmentation (1/2 indicates fragments):
111111111111111111111111111111111111222222222222222222222222222222222222
222222222222222222222222222222222222222222222222222222222222222222222222
222222222222222222222222222222222222222222222222222222222222222222222222
2222222222222222
# atoms in fragment 1/2:    36   196
 fragment masses (1/2) :      366.26     2067.49
CMA distance (Bohr)    :  77.815
constraining FC (au)   :  0.0500

           -------------------------------------------------
          |                 G F N 2 - x T B                 |
           -------------------------------------------------

        Reference                      10.1021/acs.jctc.8b01176
      * Hamiltonian:
        H0-scaling (s, p, d)           1.850000    2.230000    2.230000
        zeta-weighting                 0.500000
      * Dispersion:
        s8                             2.700000
        a1                             0.520000
        a2                             5.000000
        s9                             5.000000
      * Repulsion:
        kExp                           1.500000    1.000000
        rExp                           1.000000
      * Coulomb:
        alpha                          2.000000
        third order                    shell-resolved
        anisotropic                    true
        a3                             3.000000
        a5                             4.000000
        cn-shift                       1.200000
        cn-exp                         4.000000
        max-rad                        5.000000


          ...................................................
          :                      SETUP                      :
          :.................................................:
          :  # basis functions                 778          :
          :  # atomic orbitals                 772          :
          :  # shells                          408          :
          :  # electrons                       796          :
          :  max. iterations                   250          :
          :  Hamiltonian                  GFN2-xTB          :
          :  restarted?                      false          :
          :  GBSA solvation                  false          :
          :  PC potential                    false          :
          :  electronic temp.          300.0000000     K    :
          :  accuracy                    1.0000000          :
          :  -> integral cutoff          0.2500000E+02      :
          :  -> integral neglect         0.1000000E-07      :
          :  -> SCF convergence          0.1000000E-05 Eh   :
          :  -> wf. convergence          0.1000000E-03 e    :
          :  Broyden damping             0.4000000          :
          ...................................................

 iter      E             dE          RMSdq      gap      omega  full diag
   1   -426.0761188 -0.426076E+03  0.890E+00    0.00       0.0  T
   2   -376.0844228  0.499917E+02  0.131E+01    0.05       1.0  T
   3   -406.5611948 -0.304768E+02  0.795E+00    0.16       1.0  T
   4   -381.1516115  0.254096E+02  0.826E+00    0.15       1.0  T
   5   -155.4950348  0.225657E+03  0.115E+01    0.20       1.0  T
   6   -337.1484916 -0.181653E+03  0.785E+00    0.06       1.0  T
   7   -382.4721352 -0.453236E+02  0.686E+00    0.03       1.0  T
   8   -367.3546676  0.151175E+02  0.821E+00    0.03       1.0  T
   9   -410.4508160 -0.430961E+02  0.521E+00    0.09       1.0  T
  10   -407.6861972  0.276462E+01  0.590E+00    0.05       1.0  T
  11   -425.5127716 -0.178266E+02  0.425E+00    0.20       1.0  T
  12   -426.7002175 -0.118745E+01  0.368E+00    0.03       1.0  T
  13   -426.8841390 -0.183922E+00  0.357E+00    0.11       1.0  T
  14   -427.2446177 -0.360479E+00  0.347E+00    0.14       1.0  T
  15   -427.2736953 -0.290776E-01  0.347E+00    0.14       1.0  T
  16   -427.2656767  0.801861E-02  0.346E+00    0.14       1.0  T
  17   -427.3266244 -0.609477E-01  0.342E+00    0.15       1.0  T
  18   -427.3831010 -0.564766E-01  0.335E+00    0.11       1.0  T
  19   -427.7112112 -0.328110E+00  0.316E+00    0.04       1.0  T
  20   -428.0363636 -0.325152E+00  0.289E+00    0.06       1.0  T
  21   -427.3170570  0.719307E+00  0.270E+00    0.01       1.0  T
  22   -426.7270202  0.590037E+00  0.279E+00    0.01       1.0  T
  23   -426.0682009  0.658819E+00  0.291E+00    0.04       1.0  T
  24   -425.3045663  0.763635E+00  0.304E+00    0.05       1.0  T
  25   -424.2619639  0.104260E+01  0.320E+00    0.01       1.0  T
  26   -424.2974314 -0.354675E-01  0.316E+00    0.01       1.0  T
  27   -422.9320980  0.136533E+01  0.345E+00    0.03       1.0  T
  28   -424.8658816 -0.193378E+01  0.306E+00    0.02       1.0  T
  29   -423.6626288  0.120325E+01  0.329E+00    0.00       1.0  T
  30   -422.7684827  0.894146E+00  0.326E+00    0.02       1.0  T
  31   -426.4770112 -0.370853E+01  0.288E+00    0.01       1.0  T
  32   -413.6484179  0.128286E+02  0.560E+00    0.01       1.0  T
  33   -412.4100940  0.123832E+01  0.567E+00    0.08       1.0  T
  34   -412.4842287 -0.741347E-01  0.567E+00    0.08       1.0  T
  35   -412.5991018 -0.114873E+00  0.566E+00    0.07       1.0  T
  36   -414.5735322 -0.197443E+01  0.563E+00    0.01       1.0  T
  37   -414.7129500 -0.139418E+00  0.557E+00    0.01       1.0  T
  38   -414.0858451  0.627105E+00  0.561E+00    0.02       1.0  T
  39   -414.2715052 -0.185660E+00  0.567E+00    0.03       1.0  T
  40   -413.9433067  0.328198E+00  0.580E+00    0.05       1.0  T
  41   -414.3511792 -0.407873E+00  0.577E+00    0.05       1.0  T
  42   -414.1155168  0.235662E+00  0.546E+00    0.00       1.0  T
  43   -411.7034701  0.241205E+01  0.594E+00    0.02       1.0  T
  44   -412.3054218 -0.601952E+00  0.575E+00    0.05       1.0  T
  45   -411.3959323  0.909490E+00  0.606E+00    0.05       1.0  T
  46   -416.7937703 -0.539784E+01  0.517E+00    0.03       1.0  T
  47   -415.7824774  0.101129E+01  0.501E+00    0.01       1.0  T
  48   -417.2098209 -0.142734E+01  0.480E+00    0.01       1.0  T
  49   -416.6576880  0.552133E+00  0.487E+00    0.00       1.0  T
  50   -418.5344444 -0.187676E+01  0.446E+00    0.02       1.0  T
  51   -415.8607533  0.267369E+01  0.500E+00    0.00       1.0  T
  52   -413.7117058  0.214905E+01  0.567E+00    0.01       1.0  T
  53   -412.4302861  0.128142E+01  0.584E+00    0.01       1.0  T
  54   -413.0932941 -0.663008E+00  0.575E+00    0.03       1.0  T
  55   -412.6445521  0.448742E+00  0.576E+00    0.03       1.0  T
  56   -412.4071629  0.237389E+00  0.581E+00    0.04       1.0  T
  57   -417.4143776 -0.500721E+01  0.433E+00    0.01       1.0  T
  58   -411.7217429  0.569263E+01  0.598E+00    0.04       1.0  T
  59   -410.6631551  0.105859E+01  0.618E+00    0.04       1.0  T
  60   -413.8721353 -0.320898E+01  0.563E+00    0.02       1.0  T
  61   -415.9991077 -0.212697E+01  0.501E+00    0.00       1.0  T
  62   -423.9985819 -0.799947E+01  0.338E+00    0.01       1.0  T
  63   -426.1222320 -0.212365E+01  0.262E+00    0.01       1.0  T
  64   -424.5625989  0.155963E+01  0.298E+00    0.01       1.0  T
  65   -423.6782617  0.884337E+00  0.365E+00    0.02       1.0  T
  66   -426.5588687 -0.288061E+01  0.324E+00    0.03       1.0  T
  67   -422.0402104  0.451866E+01  0.479E+00    0.08       1.0  T
  68   -422.9894571 -0.949247E+00  0.448E+00    0.04       1.0  T
  69   -422.1052351  0.884222E+00  0.475E+00    0.07       1.0  T
  70   -424.8364248 -0.273119E+01  0.385E+00    0.02       1.0  T
  71   -427.6312595 -0.279483E+01  0.260E+00    0.00       1.0  T
  72   -426.7136856  0.917574E+00  0.291E+00    0.02       1.0  T
  73   -427.5311422 -0.817457E+00  0.262E+00    0.01       1.0  T
  74   -427.5743574 -0.432153E-01  0.236E+00    0.02       1.0  T
  75   -427.4122485  0.162109E+00  0.272E+00    0.01       1.0  T
  76   -428.3112997 -0.899051E+00  0.239E+00    0.01       1.0  T
  77   -426.9765634  0.133474E+01  0.309E+00    0.03       1.0  T
  78   -426.4151466  0.561417E+00  0.326E+00    0.01       1.0  T
  79   -427.6661364 -0.125099E+01  0.286E+00    0.01       1.0  T
  80   -427.4967606  0.169376E+00  0.296E+00    0.01       1.0  T
  81   -427.3147038  0.182057E+00  0.302E+00    0.03       1.0  T
  82   -427.2426692  0.720346E-01  0.304E+00    0.04       1.0  T
  83   -426.6062460  0.636423E+00  0.331E+00    0.00       1.0  T
  84   -426.5977334  0.851259E-02  0.331E+00    0.00       1.0  T
  85   -426.5952299  0.250356E-02  0.330E+00    0.01       1.0  T
  86   -427.0242669 -0.429037E+00  0.302E+00    0.01       1.0  T
  87   -426.4277721  0.596495E+00  0.291E+00    0.00       1.0  T
  88   -424.9700046  0.145777E+01  0.375E+00    0.03       1.0  T
  89   -427.7388221 -0.276882E+01  0.268E+00    0.02       1.0  T
  90   -427.9598874 -0.221065E+00  0.250E+00    0.01       1.0  T
  91   -428.1127699 -0.152883E+00  0.235E+00    0.02       1.0  T
  92   -428.1137508 -0.980814E-03  0.235E+00    0.02       1.0  T
  93   -428.1467317 -0.329809E-01  0.230E+00    0.02       1.0  T
  94   -428.2680745 -0.121343E+00  0.221E+00    0.00       1.0  T
  95   -427.4654814  0.802593E+00  0.252E+00    0.02       1.0  T
  96   -427.3923719  0.731095E-01  0.257E+00    0.02       1.0  T
  97   -425.2107520  0.218162E+01  0.337E+00    0.03       1.0  T
  98   -426.8228376 -0.161209E+01  0.271E+00    0.00       1.0  T
  99   -427.1713144 -0.348477E+00  0.259E+00    0.02       1.0  T
 100   -426.3084826  0.862832E+00  0.295E+00    0.00       1.0  T
 101   -426.3738179 -0.653353E-01  0.294E+00    0.02       1.0  T
 102   -425.7708190  0.602999E+00  0.314E+00    0.02       1.0  T
 103   -428.0784221 -0.230760E+01  0.222E+00    0.00       1.0  T
 104   -428.3953354 -0.316913E+00  0.197E+00    0.00       1.0  T
 105   -428.0176995  0.377636E+00  0.211E+00    0.01       1.0  T
 106   -428.5502899 -0.532590E+00  0.189E+00    0.01       1.0  T
 107   -428.6404981 -0.902082E-01  0.175E+00    0.00       1.0  T
 108   -428.7517476 -0.111249E+00  0.167E+00    0.00       1.0  T
 109   -427.8688287  0.882919E+00  0.224E+00    0.00       1.0  T
 110   -428.7137086 -0.844880E+00  0.170E+00    0.01       1.0  T
 111   -428.3180539  0.395655E+00  0.206E+00    0.00       1.0  T
 112   -427.8086460  0.509408E+00  0.244E+00    0.02       1.0  T
 113   -426.3337878  0.147486E+01  0.327E+00    0.01       1.0  T
 114   -425.8487219  0.485066E+00  0.348E+00    0.02       1.0  T
 115   -425.5894096  0.259312E+00  0.357E+00    0.03       1.0  T
 116   -426.0864272 -0.497018E+00  0.331E+00    0.02       1.0  T
 117   -426.4756761 -0.389249E+00  0.311E+00    0.02       1.0  T
 118   -427.3857399 -0.910064E+00  0.270E+00    0.01       1.0  T
 119   -426.4239199  0.961820E+00  0.297E+00    0.01       1.0  T
 120   -426.4103531  0.135668E-01  0.296E+00    0.04       1.0  T
 121   -427.9610342 -0.155068E+01  0.226E+00    0.01       1.0  T
 122   -428.7384178 -0.777384E+00  0.185E+00    0.01       1.0  T
 123   -426.1540189  0.258440E+01  0.337E+00    0.03       1.0  T
 124   -428.1976762 -0.204366E+01  0.231E+00    0.01       1.0  T
 125   -427.8659244  0.331752E+00  0.248E+00    0.02       1.0  T
 126   -427.8898246 -0.239002E-01  0.251E+00    0.01       1.0  T
 127   -427.8064744  0.833502E-01  0.258E+00    0.00       1.0  T
 128   -427.5987963  0.207678E+00  0.268E+00    0.00       1.0  T
 129   -427.5172286  0.815677E-01  0.272E+00    0.00       1.0  T
 130   -427.5470545 -0.298259E-01  0.271E+00    0.00       1.0  T
 131   -427.5685411 -0.214866E-01  0.270E+00    0.00       1.0  T
 132   -427.6464715 -0.779304E-01  0.266E+00    0.01       1.0  T
 133   -427.6480020 -0.153054E-02  0.265E+00    0.01       1.0  T
 134   -427.6055582  0.424438E-01  0.262E+00    0.01       1.0  T
 135   -426.8022552  0.803303E+00  0.299E+00    0.01       1.0  T
 136   -426.4159024  0.386353E+00  0.309E+00    0.01       1.0  T
 137   -425.1516378  0.126426E+01  0.357E+00    0.03       1.0  T
 138   -426.3356746 -0.118404E+01  0.309E+00    0.01       1.0  T
 139   -426.1760563  0.159618E+00  0.314E+00    0.01       1.0  T
 140   -427.1292127 -0.953156E+00  0.268E+00    0.01       1.0  T
 141   -427.8018397 -0.672627E+00  0.230E+00    0.01       1.0  T
 142   -428.0124603 -0.210621E+00  0.215E+00    0.01       1.0  T
 143   -427.7873843  0.225076E+00  0.231E+00    0.01       1.0  T
 144   -428.0631135 -0.275729E+00  0.210E+00    0.00       1.0  T
 145   -427.8847461  0.178367E+00  0.221E+00    0.02       1.0  T
 146   -427.7662074  0.118539E+00  0.229E+00    0.02       1.0  T
 147   -428.2241766 -0.457969E+00  0.202E+00    0.02       1.0  T
 148   -428.1342873  0.898894E-01  0.207E+00    0.02       1.0  T
 149   -428.3340682 -0.199781E+00  0.196E+00    0.01       1.0  T
 150   -428.3463577 -0.122895E-01  0.192E+00    0.01       1.0  T
 151   -428.9836668 -0.637309E+00  0.147E+00    0.00       1.0  T
 152   -428.4084687  0.575198E+00  0.185E+00    0.01       1.0  T
 153   -429.0615120 -0.653043E+00  0.146E+00    0.00       1.0  T
 154   -428.5315373  0.529975E+00  0.180E+00    0.01       1.0  T
 155   -428.9810530 -0.449516E+00  0.154E+00    0.00       1.0  T
 156   -428.8809819  0.100071E+00  0.161E+00    0.02       1.0  T
 157   -429.0187480 -0.137766E+00  0.150E+00    0.01       1.0  T
 158   -429.0982097 -0.794617E-01  0.143E+00    0.02       1.0  T
 159   -429.1457179 -0.475082E-01  0.135E+00    0.02       1.0  T
 160   -429.0655517  0.801663E-01  0.145E+00    0.01       1.0  T
 161   -429.0947634 -0.292117E-01  0.140E+00    0.00       1.0  T
 162   -429.0894606  0.530277E-02  0.142E+00    0.01       1.0  T
 163   -429.1286056 -0.391450E-01  0.139E+00    0.00       1.0  T
 164   -429.1343193 -0.571374E-02  0.138E+00    0.00       1.0  T
 165   -429.1429650 -0.864573E-02  0.137E+00    0.01       1.0  T
 166   -429.1476133 -0.464829E-02  0.135E+00    0.01       1.0  T
 167   -429.1549383 -0.732497E-02  0.134E+00    0.01       1.0  T
 168   -429.1565577 -0.161946E-02  0.134E+00    0.01       1.0  T
 169   -429.1724971 -0.159394E-01  0.132E+00    0.01       1.0  T
 170   -429.1880168 -0.155197E-01  0.131E+00    0.01       1.0  T
 171   -429.1885942 -0.577387E-03  0.131E+00    0.01       1.0  T
 172   -429.1963911 -0.779690E-02  0.129E+00    0.00       1.0  T
 173   -429.1869023  0.948884E-02  0.128E+00    0.01       1.0  T
 174   -429.2085442 -0.216419E-01  0.125E+00    0.00       1.0  T
 175   -429.2746544 -0.661103E-01  0.118E+00    0.00       1.0  T
 176   -429.3068869 -0.322325E-01  0.111E+00    0.00       1.0  T
 177   -429.3761391 -0.692522E-01  0.103E+00    0.00       1.0  T
 178   -429.3901261 -0.139870E-01  0.992E-01    0.01       1.0  T
 179   -429.4368226 -0.466964E-01  0.924E-01    0.02       1.0  T
 180   -429.4502192 -0.133966E-01  0.905E-01    0.02       1.0  T
 181   -429.4237644  0.264548E-01  0.941E-01    0.01       1.0  T
 182   -429.4235589  0.205503E-03  0.919E-01    0.01       1.0  T
 183   -429.4810969 -0.575380E-01  0.826E-01    0.01       1.0  T
 184   -429.5053984 -0.243015E-01  0.762E-01    0.01       1.0  T
 185   -429.5461404 -0.407420E-01  0.670E-01    0.01       1.0  T
 186   -429.5811939 -0.350535E-01  0.584E-01    0.01       1.0  T
 187   -429.5720910  0.910293E-02  0.574E-01    0.01       1.0  T
 188   -429.5934512 -0.213602E-01  0.508E-01    0.01       1.0  T
 189   -429.5903614  0.308973E-02  0.496E-01    0.01       1.0  T
 190   -429.5830672  0.729425E-02  0.497E-01    0.00       1.0  T
 191   -429.5741103  0.895687E-02  0.501E-01    0.00       1.0  T
 192   -429.5794281 -0.531772E-02  0.476E-01    0.00       1.0  T
 193   -429.5738205  0.560755E-02  0.485E-01    0.00       1.0  T
 194   -429.5581471  0.156734E-01  0.517E-01    0.00       1.0  T
 195   -429.5537021  0.444500E-02  0.519E-01    0.00       1.0  T
 196   -429.5696738 -0.159717E-01  0.470E-01    0.00       1.0  T
 197   -429.5848602 -0.151864E-01  0.422E-01    0.01       1.0  T
 198   -429.5972520 -0.123918E-01  0.376E-01    0.01       1.0  T
 199   -429.6062772 -0.902523E-02  0.336E-01    0.01       1.0  T
 200   -429.6214675 -0.151903E-01  0.262E-01    0.00       1.0  T
 201   -429.6283198 -0.685223E-02  0.218E-01    0.00       1.0  T
 202   -429.6334783 -0.515848E-02  0.178E-01    0.00       1.0  T
 203   -429.6353754 -0.189713E-02  0.158E-01    0.00       1.0  T
 204   -429.6364290 -0.105359E-02  0.143E-01    0.00       1.0  T
 205   -429.6387028 -0.227384E-02  0.110E-01    0.00       1.0  T
 206   -429.6403885 -0.168568E-02  0.745E-02    0.00       1.0  T
 207   -429.6406820 -0.293511E-03  0.619E-02    0.00       1.0  T
 208   -429.6407984 -0.116396E-03  0.569E-02    0.00       1.0  T
 209   -429.6406715  0.126910E-03  0.573E-02    0.00       1.0  T
 210   -429.6410839 -0.412372E-03  0.459E-02    0.00       1.0  T
 211   -429.6412089 -0.125046E-03  0.400E-02    0.00       1.0  T
 212   -429.6412380 -0.291271E-04  0.371E-02    0.00       1.0  T
 213   -429.6412943 -0.562231E-04  0.320E-02    0.00       1.0  T
 214   -429.6414164 -0.122112E-03  0.277E-02    0.00       1.0  T
 215   -429.6414610 -0.446665E-04  0.254E-02    0.00       1.0  T
 216   -429.6415968 -0.135728E-03  0.184E-02    0.00       1.0  T
 217   -429.6416139 -0.171029E-04  0.158E-02    0.00       1.0  T
 218   -429.6416596 -0.456917E-04  0.118E-02    0.00       1.0  T
 219   -429.6416565  0.310372E-05  0.108E-02    0.00       1.0  T
 220   -429.6416638 -0.730460E-05  0.905E-03    0.00       1.0  T
 221   -429.6416551  0.870322E-05  0.958E-03    0.00       1.0  T
 222   -429.6416590 -0.390936E-05  0.836E-03    0.00       1.0  T
 223   -429.6416551  0.387498E-05  0.851E-03    0.00       1.0  T
 224   -429.6416611 -0.596582E-05  0.717E-03    0.00       1.0  T
 225   -429.6416646 -0.351744E-05  0.611E-03    0.00       1.1  T
 226   -429.6416705 -0.590520E-05  0.447E-03    0.00       1.5  T
 227   -429.6416735 -0.303781E-05  0.304E-03    0.00       2.2  T
 228   -429.6416745 -0.964678E-06  0.221E-03    0.00       3.0  T
 229   -429.6416749 -0.409274E-06  0.171E-03    0.00       3.8  T
 230   -429.6416749  0.296552E-08  0.156E-03    0.00       4.2  T
 231   -429.6416754 -0.474027E-06  0.111E-03    0.00       5.9  T
 232   -429.6416755 -0.151398E-06  0.962E-04    0.00       6.8  T
 233   -429.6416755 -0.800338E-08  0.907E-04    0.00       7.2  T

   *** convergence criteria satisfied after 233 iterations ***

         #    Occupation            Energy/Eh            Energy/eV
      -------------------------------------------------------------
         1        2.0000           -0.6830482             -18.5867
       ...           ...                  ...                  ...
       392        1.7063           -0.3469283              -9.4404
       393        1.7045           -0.3469214              -9.4402
       394        1.6812           -0.3468361              -9.4379
       395        1.6737           -0.3468099              -9.4372
       396        1.5690           -0.3464841              -9.4283
       397        1.5668           -0.3464780              -9.4281
       398        1.3901           -0.3460391              -9.4162 (HOMO)
       399        1.3818           -0.3460207              -9.4157 (LUMO)
       400        1.3209           -0.3458886              -9.4121
       401        1.2702           -0.3457830              -9.4092
       402        0.0001           -0.3360826              -9.1453
       403        0.0001           -0.3360430              -9.1442
       ...           ...                  ...                  ...
       772                          1.6139288              43.9172
      -------------------------------------------------------------
                  HL-Gap            0.0000184 Eh            0.0005 eV
             Fermi-level           -0.3452565 Eh           -9.3949 eV

 SCC (total)                   0 d,  0 h,  0 min, 39.670 sec
 SCC setup                      ...        0 min,  0.012 sec (  0.031%)
 Dispersion                     ...        0 min,  0.023 sec (  0.058%)
 classical contributions        ...        0 min,  0.002 sec (  0.005%)
 integral evaluation            ...        0 min,  0.163 sec (  0.411%)
 iterations                     ...        0 min, 39.054 sec ( 98.447%)
 molecular gradient             ...        0 min,  0.395 sec (  0.996%)
 printout                       ...        0 min,  0.021 sec (  0.053%)

         :::::::::::::::::::::::::::::::::::::::::::::::::::::
         ::                     SUMMARY                     ::
         :::::::::::::::::::::::::::::::::::::::::::::::::::::
         :: total energy            -421.855382622847 Eh    ::
         :: gradient norm              0.934767034928 Eh/a0 ::
         :: HOMO-LUMO gap              0.000501110808 eV    ::
         ::.................................................::
         :: SCC energy              -429.641675531349 Eh    ::
         :: -> isotropic ES            0.154567724046 Eh    ::
         :: -> anisotropic ES          0.043927094583 Eh    ::
         :: -> anisotropic XC          0.284120828331 Eh    ::
         :: -> dispersion             -0.361600430196 Eh    ::
         :: repulsion energy           7.786503487050 Eh    ::
         :: add. restraining           0.000000000000 Eh    ::
         :: total charge               0.000000000044 e     ::
         :::::::::::::::::::::::::::::::::::::::::::::::::::::

      ----------------------------------------------------------- 
     |                   =====================                   |
     |                        A N C O P T                        |
     |                   =====================                   |
     |               Approximate Normal Coordinate               |
     |                Rational Function Optimizer                |
      ----------------------------------------------------------- 

          ...................................................
          :                      SETUP                      :
          :.................................................:
          :   optimization level            normal          :
          :   max. optcycles                   696          :
          :   ANC micro-cycles                  20          :
          :   degrees of freedom               690          :
          :.................................................:
          :   RF solver                   davidson          :
          :   write xtbopt.log                true          :
          :   linear?                        false          :
          :   energy convergence         0.5000000E-05 Eh   :
          :   grad. convergence          0.1000000E-02 Eh/α :
          :   maximium RF displ.         1.0000000          :
          :   Hlow (freq-cutoff)         0.1000000E-01      :
          :   Hmax (freq-cutoff)         5.0000000          :
          :   S6 in model hess.         20.0000000          :
          ...................................................

generating ANC from model Hessian ...
Using Lindh-Hessian (1995)
 Shifting diagonal of input Hessian by    1.0124436971473865E-002
 Lowest  eigenvalues of input Hessian
    0.010000    0.010039    0.010094    0.010097    0.010097    0.010097
    0.010098    0.010104    0.010108    0.010110    0.010111    0.010114
    0.010116    0.010117    0.010120    0.010120    0.010123    0.000000
 Highest eigenvalues
    2.576440    2.785520    2.844620    2.909723    2.909723    2.909725


........................................................................
.............................. CYCLE    1 ..............................
........................................................................
   1   -429.6416755 -0.429642E+03  0.823E-04    0.00       0.0  T
   2   -429.6398564  0.181917E-02  0.712E-02    0.00       1.0  T
   3   -429.6416501 -0.179374E-02  0.823E-03    0.00       1.0  T
   4   -429.6415893  0.608148E-04  0.143E-02    0.00       1.0  T
   5   -429.6411871  0.402155E-03  0.374E-02    0.00       1.0  T
   6   -429.6416641 -0.476999E-03  0.536E-03    0.00       1.2  T
   7   -429.6414994  0.164746E-03  0.217E-02    0.00       1.0  T
   8   -429.6416737 -0.174353E-03  0.222E-03    0.00       3.0  T
   9   -429.6416529  0.208701E-04  0.775E-03    0.00       1.0  T
  10   -429.6416736 -0.207006E-04  0.238E-03    0.00       2.8  T
  11   -429.6416725  0.108626E-05  0.300E-03    0.00       2.2  T
  12   -429.6416753 -0.283131E-05  0.106E-03    0.00       6.2  T
  13   -429.6416757 -0.360556E-06  0.346E-04    0.00      19.0  T
  14   -429.6416755  0.186008E-06  0.743E-04    0.00       8.8  T
     SCC iter.                  ...        0 min,  2.285 sec
     gradient                   ...        0 min,  0.394 sec
 * total energy  :  -421.8553826 Eh     change        0.5073616E-07 Eh
   gradient norm :     0.9347659 Eh/α   predicted     0.0000000E+00 (-100.00%)
   displ. norm   :     0.6092042 α      lambda       -0.4769695E+00
   maximum displ.:     0.1475674 α      in ANC's #238, #673, #235, ...

........................................................................
.............................. CYCLE    2 ..............................
........................................................................
   1   -429.6279973 -0.429628E+03  0.376E-01    0.00       0.0  T
   2   -427.2489898  0.237901E+01  0.248E+00    0.02       1.0  T
   3   -428.3044147 -0.105542E+01  0.183E+00    0.00       1.0  T
   4   -425.8659032  0.243851E+01  0.303E+00    0.01       1.0  T
   5   -425.7896398  0.762634E-01  0.317E+00    0.03       1.0  T
   6   -425.2503555  0.539284E+00  0.338E+00    0.04       1.0  T
   7   -423.7879828  0.146237E+01  0.386E+00    0.04       1.0  T
   8   -427.5870834 -0.379910E+01  0.219E+00    0.02       1.0  T
   9   -428.8387783 -0.125169E+01  0.149E+00    0.00       1.0  T
  10   -429.1200128 -0.281234E+00  0.114E+00    0.00       1.0  T
  11   -428.9432302  0.176783E+00  0.130E+00    0.00       1.0  T
  12   -428.8469480  0.962823E-01  0.146E+00    0.01       1.0  T
  13   -428.9806917 -0.133744E+00  0.134E+00    0.00       1.0  T
  14   -427.0241871  0.195650E+01  0.251E+00    0.04       1.0  T
  15   -428.5746960 -0.155051E+01  0.160E+00    0.01       1.0  T
  16   -429.5449872 -0.970291E+00  0.518E-01    0.00       1.0  T
  17   -429.6348355 -0.898483E-01  0.232E-01    0.00       1.0  T
  18   -429.6368557 -0.202021E-02  0.217E-01    0.00       1.0  T
  19   -429.6455647 -0.870899E-02  0.157E-01    0.00       1.0  T
  20   -429.5504566  0.951081E-01  0.507E-01    0.00       1.0  T
  21   -429.4020648  0.148392E+00  0.808E-01    0.01       1.0  T
  22   -429.4112966 -0.923179E-02  0.794E-01    0.01       1.0  T
  23   -429.6167568 -0.205460E+00  0.295E-01    0.00       1.0  T
  24   -429.6378930 -0.211362E-01  0.192E-01    0.00       1.0  T
  25   -429.6396411 -0.174807E-02  0.177E-01    0.01       1.0  T
  26   -429.6447681 -0.512706E-02  0.131E-01    0.00       1.0  T
  27   -429.6417650  0.300311E-02  0.162E-01    0.00       1.0  T
  28   -429.6442088 -0.244378E-02  0.137E-01    0.00       1.0  T
  29   -429.6465805 -0.237166E-02  0.108E-01    0.00       1.0  T
  30   -429.6463515  0.229003E-03  0.108E-01    0.00       1.0  T
  31   -429.6481265 -0.177506E-02  0.803E-02    0.00       1.0  T
  32   -429.6474199  0.706670E-03  0.875E-02    0.00       1.0  T
  33   -429.6482429 -0.823027E-03  0.741E-02    0.00       1.0  T
  34   -429.6495157 -0.127276E-02  0.483E-02    0.00       1.0  T
  35   -429.6499995 -0.483844E-03  0.316E-02    0.00       1.0  T
  36   -429.6501946 -0.195106E-03  0.209E-02    0.00       1.0  T
  37   -429.6502345 -0.399055E-04  0.174E-02    0.00       1.0  T
  38   -429.6501668  0.676817E-04  0.216E-02    0.00       1.0  T
  39   -429.6501124  0.544470E-04  0.244E-02    0.00       1.0  T
  40   -429.6501139 -0.149709E-05  0.241E-02    0.00       1.0  T
  41   -429.6501399 -0.260424E-04  0.221E-02    0.00       1.0  T
  42   -429.6501940 -0.540747E-04  0.177E-02    0.00       1.0  T
  43   -429.6502470 -0.530163E-04  0.123E-02    0.00       1.0  T
  44   -429.6502743 -0.272565E-04  0.841E-03    0.00       1.0  T
  45   -429.6502856 -0.113340E-04  0.621E-03    0.00       1.1  T
  46   -429.6502915 -0.591424E-05  0.479E-03    0.00       1.4  T
  47   -429.6502934 -0.184883E-05  0.422E-03    0.00       1.6  T
  48   -429.6502938 -0.439547E-06  0.403E-03    0.00       1.6  T
  49   -429.6502948 -0.976196E-06  0.365E-03    0.00       1.8  T
  50   -429.6502953 -0.509844E-06  0.333E-03    0.00       2.0  T
  51   -429.6502968 -0.148636E-05  0.253E-03    0.00       2.6  T
  52   -429.6502980 -0.119669E-05  0.156E-03    0.00       4.2  T
  53   -429.6502985 -0.530041E-06  0.885E-04    0.00       7.4  T
  54   -429.6502987 -0.167980E-06  0.504E-04    0.00      13.0  T
     SCC iter.                  ...        0 min,  8.800 sec
     gradient                   ...        0 min,  0.394 sec
 * total energy  :  -422.2398538 Eh     change       -0.3844713E+00 Eh
   gradient norm :     0.5426186 Eh/α   predicted    -0.3270436E+00 ( -14.94%)
   displ. norm   :     0.7010809 α      lambda       -0.3185816E+00
   maximum displ.:     0.1996552 α      in ANC's #238, #235, #237, ...

........................................................................
.............................. CYCLE    3 ..............................
........................................................................
   1   -429.6880586 -0.429688E+03  0.414E-01    0.00       0.0  T
   2   -427.0774566  0.261060E+01  0.250E+00    0.03       1.0  T
   3   -429.1188453 -0.204139E+01  0.123E+00    0.01       1.0  T
   4   -420.7681930  0.835065E+01  0.490E+00    0.12       1.0  T
   5   -422.9360656 -0.216787E+01  0.434E+00    0.09       1.0  T
   6   -427.8690428 -0.493298E+01  0.212E+00    0.00       1.0  T
   7   -428.6276134 -0.758571E+00  0.173E+00    0.01       1.0  T
   8   -428.6770086 -0.493953E-01  0.169E+00    0.01       1.0  T
   9   -424.9869092  0.369010E+01  0.345E+00    0.04       1.0  T
  10   -426.2336234 -0.124671E+01  0.295E+00    0.04       1.0  T
  11   -429.3035447 -0.306992E+01  0.109E+00    0.01       1.0  T
  12   -429.0993926  0.204152E+00  0.131E+00    0.00       1.0  T
  13   -429.4814534 -0.382061E+00  0.815E-01    0.00       1.0  T
  14   -428.1075401  0.137391E+01  0.196E+00    0.03       1.0  T
  15   -429.0471402 -0.939600E+00  0.127E+00    0.00       1.0  T
  16   -429.6076934 -0.560553E+00  0.541E-01    0.02       1.0  T
  17   -429.6573157 -0.496223E-01  0.388E-01    0.01       1.0  T
  18   -429.6879575 -0.306418E-01  0.288E-01    0.00       1.0  T
  19   -429.6834093  0.454817E-02  0.304E-01    0.00       1.0  T
  20   -429.6003633  0.830460E-01  0.523E-01    0.00       1.0  T
  21   -429.6917339 -0.913706E-01  0.271E-01    0.00       1.0  T
  22   -429.6619876  0.297463E-01  0.367E-01    0.00       1.0  T
  23   -429.7104794 -0.484918E-01  0.146E-01    0.00       1.0  T
  24   -429.7020422  0.843718E-02  0.197E-01    0.00       1.0  T
  25   -429.6923799  0.966230E-02  0.244E-01    0.00       1.0  T
  26   -429.7029362 -0.105563E-01  0.188E-01    0.00       1.0  T
  27   -429.7130948 -0.101586E-01  0.106E-01    0.00       1.0  T
  28   -429.7142953 -0.120049E-02  0.903E-02    0.00       1.0  T
  29   -429.7134347  0.860580E-03  0.978E-02    0.00       1.0  T
  30   -429.7145919 -0.115719E-02  0.828E-02    0.00       1.0  T
  31   -429.7150358 -0.443916E-03  0.758E-02    0.00       1.0  T
  32   -429.7154660 -0.430120E-03  0.687E-02    0.00       1.0  T
  33   -429.7157433 -0.277388E-03  0.622E-02    0.00       1.0  T
  34   -429.7158843 -0.140945E-03  0.568E-02    0.00       1.0  T
  35   -429.7163874 -0.503098E-03  0.417E-02    0.00       1.0  T
  36   -429.7166688 -0.281441E-03  0.275E-02    0.00       1.0  T
  37   -429.7167039 -0.350437E-04  0.239E-02    0.00       1.0  T
  38   -429.7167521 -0.482551E-04  0.202E-02    0.00       1.0  T
  39   -429.7167898 -0.376300E-04  0.160E-02    0.00       1.0  T
  40   -429.7168279 -0.381494E-04  0.110E-02    0.00       1.0  T
  41   -429.7168431 -0.152461E-04  0.793E-03    0.00       1.0  T
  42   -429.7168458 -0.270097E-05  0.677E-03    0.00       1.0  T
  43   -429.7168423  0.358885E-05  0.681E-03    0.00       1.0  T
  44   -429.7168427 -0.407428E-06  0.673E-03    0.00       1.0  T
  45   -429.7168333  0.936729E-05  0.785E-03    0.00       1.0  T
  46   -429.7168436 -0.103267E-04  0.593E-03    0.00       1.1  T
  47   -429.7168427  0.944479E-06  0.577E-03    0.00       1.1  T
  48   -429.7168473 -0.465004E-05  0.447E-03    0.00       1.5  T
  49   -429.7168495 -0.212789E-05  0.345E-03    0.00       1.9  T
  50   -429.7168508 -0.132115E-05  0.246E-03    0.00       2.7  T
  51   -429.7168511 -0.272522E-06  0.187E-03    0.00       3.5  T
  52   -429.7168517 -0.664723E-06  0.968E-04    0.00       6.8  T
  53   -429.7168519 -0.140742E-06  0.586E-04    0.00      11.2  T
     SCC iter.                  ...        0 min,  8.642 sec
     gradient                   ...        0 min,  0.397 sec
 * total energy  :  -422.4838565 Eh     change       -0.2440026E+00 Eh
   gradient norm :     0.2547557 Eh/α   predicted    -0.2375846E+00 (  -2.63%)
   displ. norm   :     0.7754122 α      lambda       -0.1727027E+00
   maximum displ.:     0.2460583 α      in ANC's #238, #230, #235, ...

........................................................................
.............................. CYCLE    4 ..............................
........................................................................
   1   -429.8176063 -0.429818E+03  0.384E-01    0.00       0.0  T
   2   -426.0381798  0.377943E+01  0.244E+00    0.06       1.0  T
   3   -428.6822299 -0.264405E+01  0.171E+00    0.00       1.0  T
   4   -428.6463162  0.359138E-01  0.174E+00    0.01       1.0  T
   5   -425.6285535  0.301776E+01  0.316E+00    0.03       1.0  T
   6   -427.2568022 -0.162825E+01  0.244E+00    0.00       1.0  T
   7   -428.3183481 -0.106155E+01  0.201E+00    0.02       1.0  T
   8   -428.0255687  0.292779E+00  0.217E+00    0.02       1.0  T
   9   -423.7160258  0.430954E+01  0.388E+00    0.03       1.0  T
  10   -429.1925153 -0.547649E+01  0.129E+00    0.01       1.0  T
  11   -429.1640531  0.284622E-01  0.121E+00    0.01       1.0  T
  12   -426.6364998  0.252755E+01  0.291E+00    0.04       1.0  T
  13   -429.0767441 -0.244024E+01  0.133E+00    0.01       1.0  T
  14   -428.2497589  0.826985E+00  0.196E+00    0.02       1.0  T
  15   -429.6420202 -0.139226E+01  0.699E-01    0.00       1.0  T
  16   -429.4870281  0.154992E+00  0.900E-01    0.00       1.0  T
  17   -429.6231085 -0.136080E+00  0.722E-01    0.00       1.0  T
  18   -429.7176566 -0.945481E-01  0.547E-01    0.01       1.0  T
  19   -429.7682639 -0.506072E-01  0.431E-01    0.00       1.0  T
  20   -429.5069012  0.261363E+00  0.883E-01    0.00       1.0  T
  21   -429.7461245 -0.239223E+00  0.488E-01    0.00       1.0  T
  22   -429.7652860 -0.191615E-01  0.426E-01    0.00       1.0  T
  23   -429.6672218  0.980642E-01  0.681E-01    0.00       1.0  T
  24   -429.6488299  0.183918E-01  0.707E-01    0.00       1.0  T
  25   -429.7903302 -0.141500E+00  0.373E-01    0.00       1.0  T
  26   -429.8184545 -0.281243E-01  0.267E-01    0.00       1.0  T
  27   -429.8360878 -0.176333E-01  0.157E-01    0.00       1.0  T
  28   -429.8399591 -0.387129E-02  0.120E-01    0.00       1.0  T
  29   -429.8276622  0.122969E-01  0.202E-01    0.00       1.0  T
  30   -429.8274739  0.188356E-03  0.203E-01    0.00       1.0  T
  31   -429.8352194 -0.774553E-02  0.154E-01    0.00       1.0  T
  32   -429.8273805  0.783889E-02  0.209E-01    0.00       1.0  T
  33   -429.8355939 -0.821341E-02  0.158E-01    0.00       1.0  T
  34   -429.8383035 -0.270958E-02  0.134E-01    0.00       1.0  T
  35   -429.8379240  0.379500E-03  0.137E-01    0.00       1.0  T
  36   -429.8437926 -0.586861E-02  0.662E-02    0.00       1.0  T
  37   -429.8427966  0.996000E-03  0.848E-02    0.00       1.0  T
  38   -429.8434431 -0.646452E-03  0.724E-02    0.00       1.0  T
  39   -429.8433364  0.106703E-03  0.744E-02    0.00       1.0  T
  40   -429.8429030  0.433331E-03  0.811E-02    0.00       1.0  T
  41   -429.8438417 -0.938703E-03  0.636E-02    0.00       1.0  T
  42   -429.8438743 -0.325348E-04  0.622E-02    0.00       1.0  T
  43   -429.8439140 -0.396715E-04  0.617E-02    0.00       1.0  T
  44   -429.8442930 -0.379052E-03  0.526E-02    0.00       1.0  T
  45   -429.8443893 -0.962619E-04  0.497E-02    0.00       1.0  T
  46   -429.8444304 -0.411617E-04  0.481E-02    0.00       1.0  T
  47   -429.8444816 -0.511691E-04  0.465E-02    0.00       1.0  T
  48   -429.8445386 -0.570395E-04  0.446E-02    0.00       1.0  T
  49   -429.8446010 -0.623567E-04  0.422E-02    0.00       1.0  T
  50   -429.8446833 -0.822685E-04  0.388E-02    0.00       1.0  T
  51   -429.8448168 -0.133501E-03  0.322E-02    0.00       1.0  T
  52   -429.8449756 -0.158867E-03  0.237E-02    0.00       1.0  T
  53   -429.8450176 -0.420093E-04  0.204E-02    0.00       1.0  T
  54   -429.8450945 -0.768336E-04  0.142E-02    0.00       1.0  T
  55   -429.8451348 -0.403361E-04  0.953E-03    0.00       1.0  T
  56   -429.8451516 -0.167755E-04  0.688E-03    0.00       1.0  T
  57   -429.8451601 -0.851888E-05  0.501E-03    0.00       1.3  T
  58   -429.8451654 -0.528708E-05  0.328E-03    0.00       2.0  T
  59   -429.8451677 -0.230444E-05  0.199E-03    0.00       3.3  T
  60   -429.8451684 -0.747148E-06  0.117E-03    0.00       5.6  T
  61   -429.8451688 -0.370830E-06  0.559E-04    0.00      11.7  T
  62   -429.8451689 -0.116758E-06  0.142E-04    0.00      46.3  T
     SCC iter.                  ...        0 min, 10.218 sec
     gradient                   ...        0 min,  0.395 sec
 * total energy  :  -422.6279478 Eh     change       -0.1440913E+00 Eh
   gradient norm :     0.1563883 Eh/α   predicted    -0.1382715E+00 (  -4.04%)
   displ. norm   :     0.8325294 α      lambda       -0.1247348E+00
   maximum displ.:     0.2529415 α      in ANC's #238, #122, #230, ...

........................................................................
.............................. CYCLE    5 ..............................
........................................................................
   1   -429.9476694 -0.429948E+03  0.392E-01    0.00       0.0  T
   2   -425.3354826  0.461219E+01  0.256E+00    0.00       1.0  T
   3   -424.8480937  0.487389E+00  0.353E+00    0.04       1.0  T
   4   -428.5958331 -0.374774E+01  0.182E+00    0.01       1.0  T
   5   -428.2731456  0.322688E+00  0.207E+00    0.00       1.0  T
   6   -425.1637958  0.310935E+01  0.346E+00    0.04       1.0  T
   7   -424.1068609  0.105693E+01  0.397E+00    0.08       1.0  T
   8   -426.8668045 -0.275994E+01  0.279E+00    0.04       1.0  T
   9   -426.5759537  0.290851E+00  0.292E+00    0.04       1.0  T
  10   -429.5640072 -0.298805E+01  0.941E-01    0.01       1.0  T
  11   -428.2282122  0.133580E+01  0.190E+00    0.01       1.0  T
  12   -429.6076784 -0.137947E+01  0.898E-01    0.00       1.0  T
  13   -429.0131722  0.594506E+00  0.151E+00    0.01       1.0  T
  14   -429.5540034 -0.540831E+00  0.933E-01    0.00       1.0  T
  15   -429.8209433 -0.266940E+00  0.656E-01    0.01       1.0  T
  16   -429.5618607  0.259083E+00  0.957E-01    0.00       1.0  T
  17   -429.7341847 -0.172324E+00  0.725E-01    0.01       1.0  T
  18   -429.8149482 -0.807636E-01  0.639E-01    0.00       1.0  T
  19   -429.7910580  0.238902E-01  0.651E-01    0.00       1.0  T
  20   -429.7114060  0.796520E-01  0.820E-01    0.00       1.0  T
  21   -429.6351329  0.762730E-01  0.920E-01    0.01       1.0  T
  22   -429.6068584  0.282745E-01  0.901E-01    0.01       1.0  T
  23   -429.7904666 -0.183608E+00  0.633E-01    0.01       1.0  T
  24   -429.9304555 -0.139989E+00  0.308E-01    0.00       1.0  T
  25   -429.9313403 -0.884802E-03  0.304E-01    0.00       1.0  T
  26   -429.9342341 -0.289373E-02  0.295E-01    0.00       1.0  T
  27   -429.9367908 -0.255675E-02  0.287E-01    0.00       1.0  T
  28   -429.9633016 -0.265108E-01  0.177E-01    0.00       1.0  T
  29   -429.9683215 -0.501989E-02  0.131E-01    0.00       1.0  T
  30   -429.9734532 -0.513169E-02  0.803E-02    0.00       1.0  T
  31   -429.9668407  0.661246E-02  0.148E-01    0.01       1.0  T
  32   -429.9684286 -0.158782E-02  0.130E-01    0.00       1.0  T
  33   -429.9722686 -0.384000E-02  0.926E-02    0.00       1.0  T
  34   -429.9701253  0.214327E-02  0.114E-01    0.00       1.0  T
  35   -429.9742376 -0.411230E-02  0.602E-02    0.00       1.0  T
  36   -429.9742152  0.224186E-04  0.587E-02    0.00       1.0  T
  37   -429.9749393 -0.724151E-03  0.429E-02    0.00       1.0  T
  38   -429.9750998 -0.160481E-03  0.369E-02    0.00       1.0  T
  39   -429.9752526 -0.152834E-03  0.307E-02    0.00       1.0  T
  40   -429.9752677 -0.150417E-04  0.296E-02    0.00       1.0  T
  41   -429.9752573  0.103784E-04  0.294E-02    0.00       1.0  T
  42   -429.9753515 -0.941501E-04  0.239E-02    0.00       1.0  T
  43   -429.9753958 -0.443714E-04  0.205E-02    0.00       1.0  T
  44   -429.9754576 -0.617728E-04  0.157E-02    0.00       1.0  T
  45   -429.9754959 -0.383185E-04  0.114E-02    0.00       1.0  T
  46   -429.9755065 -0.106267E-04  0.962E-03    0.00       1.0  T
  47   -429.9755145 -0.794386E-05  0.793E-03    0.00       1.0  T
  48   -429.9755284 -0.139190E-04  0.422E-03    0.00       1.6  T
  49   -429.9755309 -0.251490E-05  0.288E-03    0.00       2.3  T
  50   -429.9755324 -0.151031E-05  0.187E-03    0.00       3.5  T
  51   -429.9755328 -0.397998E-06  0.154E-03    0.00       4.3  T
  52   -429.9755331 -0.233405E-06  0.127E-03    0.00       5.2  T
  53   -429.9755332 -0.136425E-06  0.106E-03    0.00       6.2  T
  54   -429.9755334 -0.238076E-06  0.720E-04    0.00       9.1  T
  55   -429.9755335 -0.681686E-07  0.555E-04    0.00      11.8  T
     SCC iter.                  ...        0 min,  9.056 sec
     gradient                   ...        0 min,  0.395 sec
 * total energy  :  -422.7367829 Eh     change       -0.1088351E+00 Eh
   gradient norm :     0.1243470 Eh/α   predicted    -0.1055956E+00 (  -2.98%)
   displ. norm   :     0.8531015 α      lambda       -0.9766530E-01
   maximum displ.:     0.3041616 α      in ANC's #122, #238, #230, ...

........................................................................
.............................. CYCLE    6 ..............................
........................................................................
   1   -430.0757278 -0.430076E+03  0.393E-01    0.00       0.0  T
   2   -425.5619737  0.451375E+01  0.251E+00    0.02       1.0  T
   3   -427.1682481 -0.160627E+01  0.254E+00    0.01       1.0  T
   4   -428.8782210 -0.170997E+01  0.171E+00    0.00       1.0  T
   5   -427.0661175  0.181210E+01  0.276E+00    0.03       1.0  T
   6   -427.8164445 -0.750327E+00  0.235E+00    0.02       1.0  T
   7   -426.4636514  0.135279E+01  0.302E+00    0.01       1.0  T
   8   -429.5759781 -0.311233E+01  0.117E+00    0.00       1.0  T
   9   -422.3721597  0.720382E+01  0.440E+00    0.07       1.0  T
  10   -429.0538872 -0.668173E+01  0.127E+00    0.01       1.0  T
  11   -429.2964617 -0.242575E+00  0.145E+00    0.01       1.0  T
  12   -429.2161541  0.803076E-01  0.156E+00    0.01       1.0  T
  13   -429.7988738 -0.582720E+00  0.859E-01    0.01       1.0  T
  14   -429.8419757 -0.431019E-01  0.805E-01    0.01       1.0  T
  15   -429.6898250  0.152151E+00  0.945E-01    0.00       1.0  T
  16   -429.4762460  0.213579E+00  0.125E+00    0.01       1.0  T
  17   -429.7073263 -0.231080E+00  0.981E-01    0.00       1.0  T
  18   -429.7851164 -0.777901E-01  0.896E-01    0.01       1.0  T
  19   -429.8567549 -0.716385E-01  0.782E-01    0.00       1.0  T
  20   -430.0008111 -0.144056E+00  0.495E-01    0.00       1.0  T
  21   -430.0163937 -0.155826E-01  0.456E-01    0.00       1.0  T
  22   -430.0159134  0.480307E-03  0.458E-01    0.00       1.0  T
  23   -430.0147638  0.114960E-02  0.461E-01    0.00       1.0  T
  24   -429.9611230  0.536408E-01  0.547E-01    0.00       1.0  T
  25   -430.0563090 -0.951860E-01  0.341E-01    0.00       1.0  T
  26   -429.9710500  0.852590E-01  0.555E-01    0.00       1.0  T
  27   -430.0255107 -0.544607E-01  0.412E-01    0.00       1.0  T
  28   -429.9652791  0.602317E-01  0.543E-01    0.00       1.0  T
  29   -430.0577887 -0.925096E-01  0.301E-01    0.00       1.0  T
  30   -430.0311243  0.266644E-01  0.384E-01    0.00       1.0  T
  31   -430.0190613  0.120629E-01  0.415E-01    0.00       1.0  T
  32   -430.0336532 -0.145919E-01  0.381E-01    0.00       1.0  T
  33   -430.0696381 -0.359849E-01  0.257E-01    0.00       1.0  T
  34   -430.0847707 -0.151325E-01  0.178E-01    0.00       1.0  T
  35   -430.0950041 -0.102335E-01  0.105E-01    0.00       1.0  T
  36   -430.0961043 -0.110011E-02  0.901E-02    0.00       1.0  T
  37   -430.0969690 -0.864768E-03  0.771E-02    0.00       1.0  T
  38   -430.0969204  0.486595E-04  0.753E-02    0.00       1.0  T
  39   -430.0985619 -0.164153E-02  0.399E-02    0.00       1.0  T
  40   -430.0989737 -0.411788E-03  0.244E-02    0.00       1.0  T
  41   -430.0989194  0.542802E-04  0.277E-02    0.00       1.0  T
  42   -430.0987601  0.159271E-03  0.342E-02    0.00       1.0  T
  43   -430.0988859 -0.125723E-03  0.293E-02    0.00       1.0  T
  44   -430.0990203 -0.134465E-03  0.219E-02    0.00       1.0  T
  45   -430.0990925 -0.721351E-04  0.161E-02    0.00       1.0  T
  46   -430.0991210 -0.285209E-04  0.133E-02    0.00       1.0  T
  47   -430.0991374 -0.164339E-04  0.114E-02    0.00       1.0  T
  48   -430.0991497 -0.123198E-04  0.990E-03    0.00       1.0  T
  49   -430.0991538 -0.412089E-05  0.931E-03    0.00       1.0  T
  50   -430.0991586 -0.476057E-05  0.853E-03    0.00       1.0  T
  51   -430.0991624 -0.382388E-05  0.779E-03    0.00       1.0  T
  52   -430.0991700 -0.757603E-05  0.605E-03    0.00       1.1  T
  53   -430.0991758 -0.575550E-05  0.435E-03    0.00       1.5  T
  54   -430.0991779 -0.215509E-05  0.335E-03    0.00       2.0  T
  55   -430.0991810 -0.304096E-05  0.164E-03    0.00       4.0  T
  56   -430.0991815 -0.539447E-06  0.101E-03    0.00       6.5  T
  57   -430.0991815  0.109276E-07  0.998E-04    0.00       6.6  T
  58   -430.0991815 -0.477642E-07  0.910E-04    0.00       7.2  T
     SCC iter.                  ...        0 min,  9.543 sec
     gradient                   ...        0 min,  0.395 sec
 * total energy  :  -422.8227911 Eh     change       -0.8600822E-01 Eh
   gradient norm :     0.0999037 Eh/α   predicted    -0.8437387E-01 (  -1.90%)
   displ. norm   :     0.8553870 α      lambda       -0.7604539E-01
   maximum displ.:     0.3510014 α      in ANC's #122, #124, #238, ...

........................................................................
.............................. CYCLE    7 ..............................
........................................................................
   1   -430.1938704 -0.430194E+03  0.370E-01    0.00       0.0  T
   2   -426.6875173  0.350635E+01  0.231E+00    0.00       1.0  T
   3   -428.7789478 -0.209143E+01  0.171E+00    0.00       1.0  T
   4   -427.0054013  0.177355E+01  0.283E+00    0.01       1.0  T
   5   -426.7687819  0.236619E+00  0.294E+00    0.02       1.0  T
   6   -428.2986338 -0.152985E+01  0.228E+00    0.01       1.0  T
   7   -425.6898076  0.260883E+01  0.350E+00    0.04       1.0  T
   8   -429.4418416 -0.375203E+01  0.139E+00    0.00       1.0  T
   9   -425.9069301  0.353491E+01  0.333E+00    0.01       1.0  T
  10   -429.1010077 -0.319408E+01  0.173E+00    0.00       1.0  T
  11   -429.4624587 -0.361451E+00  0.141E+00    0.01       1.0  T
  12   -429.7347001 -0.272241E+00  0.929E-01    0.01       1.0  T
  13   -430.0627666 -0.328066E+00  0.587E-01    0.00       1.0  T
  14   -430.1100723 -0.473057E-01  0.498E-01    0.01       1.0  T
  15   -430.0916159  0.184564E-01  0.543E-01    0.00       1.0  T
  16   -430.1614988 -0.698829E-01  0.361E-01    0.00       1.0  T
  17   -430.0478827  0.113616E+00  0.593E-01    0.00       1.0  T
  18   -430.1545290 -0.106646E+00  0.381E-01    0.00       1.0  T
  19   -430.1831861 -0.286571E-01  0.252E-01    0.01       1.0  T
  20   -430.1859509 -0.276481E-02  0.254E-01    0.00       1.0  T
  21   -430.1815047  0.444620E-02  0.274E-01    0.00       1.0  T
  22   -430.1847320 -0.322730E-02  0.261E-01    0.00       1.0  T
  23   -430.1942653 -0.953332E-02  0.212E-01    0.00       1.0  T
  24   -430.1845682  0.969708E-02  0.230E-01    0.00       1.0  T
  25   -430.2071223 -0.225541E-01  0.107E-01    0.00       1.0  T
  26   -430.2054736  0.164870E-02  0.123E-01    0.00       1.0  T
  27   -430.2076290 -0.215543E-02  0.905E-02    0.00       1.0  T
  28   -430.2092296 -0.160055E-02  0.754E-02    0.00       1.0  T
  29   -430.2095956 -0.366075E-03  0.675E-02    0.00       1.0  T
  30   -430.2104772 -0.881567E-03  0.460E-02    0.00       1.0  T
  31   -430.2108164 -0.339247E-03  0.365E-02    0.00       1.0  T
  32   -430.2110882 -0.271801E-03  0.253E-02    0.00       1.0  T
  33   -430.2111311 -0.428068E-04  0.229E-02    0.00       1.0  T
  34   -430.2112499 -0.118799E-03  0.151E-02    0.00       1.0  T
  35   -430.2112841 -0.342306E-04  0.117E-02    0.00       1.0  T
  36   -430.2112740  0.100472E-04  0.126E-02    0.00       1.0  T
  37   -430.2112835 -0.949766E-05  0.114E-02    0.00       1.0  T
  38   -430.2112952 -0.116409E-04  0.100E-02    0.00       1.0  T
  39   -430.2113049 -0.974373E-05  0.859E-03    0.00       1.0  T
  40   -430.2113111 -0.614700E-05  0.740E-03    0.00       1.0  T
  41   -430.2113173 -0.623339E-05  0.600E-03    0.00       1.1  T
  42   -430.2113181 -0.852724E-06  0.564E-03    0.00       1.2  T
  43   -430.2113219 -0.375926E-05  0.445E-03    0.00       1.5  T
  44   -430.2113248 -0.291552E-05  0.323E-03    0.00       2.0  T
  45   -430.2113259 -0.108670E-05  0.266E-03    0.00       2.5  T
  46   -430.2113270 -0.113718E-05  0.197E-03    0.00       3.3  T
  47   -430.2113273 -0.260140E-06  0.175E-03    0.00       3.8  T
  48   -430.2113279 -0.590265E-06  0.118E-03    0.00       5.6  T
  49   -430.2113281 -0.178022E-06  0.893E-04    0.00       7.4  T
  50   -430.2113282 -0.124646E-06  0.644E-04    0.00      10.2  T
     SCC iter.                  ...        0 min,  8.257 sec
     gradient                   ...        0 min,  0.396 sec
 * total energy  :  -422.8894697 Eh     change       -0.6667855E-01 Eh
   gradient norm :     0.0755739 Eh/α   predicted    -0.6584343E-01 (  -1.25%)
   displ. norm   :     0.8475045 α      lambda       -0.5738722E-01
   maximum displ.:     0.3808783 α      in ANC's #122, #124, #123, ...

........................................................................
.............................. CYCLE    8 ..............................
........................................................................
   1   -430.2895095 -0.430290E+03  0.322E-01    0.00       0.0  T
   2   -427.8826406  0.240687E+01  0.209E+00    0.04       1.0  T
   3   -428.0832264 -0.200586E+00  0.230E+00    0.02       1.0  T
   4   -428.7326113 -0.649385E+00  0.195E+00    0.01       1.0  T
   5   -428.5994888  0.133122E+00  0.211E+00    0.01       1.0  T
   6   -427.8071664  0.792322E+00  0.266E+00    0.00       1.0  T
   7   -425.3548938  0.245227E+01  0.371E+00    0.05       1.0  T
   8   -429.4464098 -0.409152E+01  0.147E+00    0.01       1.0  T
   9   -425.5273196  0.391909E+01  0.355E+00    0.01       1.0  T
  10   -428.3146299 -0.278731E+01  0.224E+00    0.01       1.0  T
  11   -428.5271723 -0.212542E+00  0.205E+00    0.00       1.0  T
  12   -429.5595948 -0.103242E+01  0.128E+00    0.00       1.0  T
  13   -429.1302490  0.429346E+00  0.153E+00    0.01       1.0  T
  14   -429.4995823 -0.369333E+00  0.146E+00    0.01       1.0  T
  15   -430.1472380 -0.647656E+00  0.630E-01    0.02       1.0  T
  16   -429.9808867  0.166351E+00  0.836E-01    0.00       1.0  T
  17   -430.0697285 -0.888418E-01  0.709E-01    0.01       1.0  T
  18   -430.2038200 -0.134092E+00  0.514E-01    0.00       1.0  T
  19   -430.2557902 -0.519702E-01  0.334E-01    0.00       1.0  T
  20   -430.2875762 -0.317859E-01  0.196E-01    0.00       1.0  T
  21   -430.2905548 -0.297866E-02  0.174E-01    0.00       1.0  T
  22   -430.2831368  0.741807E-02  0.216E-01    0.00       1.0  T
  23   -430.2669060  0.162308E-01  0.266E-01    0.00       1.0  T
  24   -430.2799830 -0.130771E-01  0.224E-01    0.00       1.0  T
  25   -430.2937087 -0.137257E-01  0.135E-01    0.00       1.0  T
  26   -430.2919625  0.174618E-02  0.145E-01    0.00       1.0  T
  27   -430.2981911 -0.622855E-02  0.897E-02    0.00       1.0  T
  28   -430.2968756  0.131551E-02  0.103E-01    0.00       1.0  T
  29   -430.2985379 -0.166233E-02  0.857E-02    0.00       1.0  T
  30   -430.3007430 -0.220508E-02  0.407E-02    0.00       1.0  T
  31   -430.3011578 -0.414831E-03  0.236E-02    0.00       1.0  T
  32   -430.3008535  0.304288E-03  0.337E-02    0.00       1.0  T
  33   -430.3005576  0.295885E-03  0.433E-02    0.00       1.0  T
  34   -430.3006677 -0.110024E-03  0.423E-02    0.00       1.0  T
  35   -430.3009297 -0.262053E-03  0.347E-02    0.00       1.0  T
  36   -430.3009923 -0.626106E-04  0.318E-02    0.00       1.0  T
  37   -430.3011575 -0.165179E-03  0.247E-02    0.00       1.0  T
  38   -430.3012072 -0.496873E-04  0.217E-02    0.00       1.0  T
  39   -430.3012374 -0.302373E-04  0.194E-02    0.00       1.0  T
  40   -430.3012613 -0.239220E-04  0.175E-02    0.00       1.0  T
  41   -430.3012939 -0.325401E-04  0.146E-02    0.00       1.0  T
  42   -430.3013371 -0.431753E-04  0.101E-02    0.00       1.0  T
  43   -430.3013510 -0.139909E-04  0.782E-03    0.00       1.0  T
  44   -430.3013605 -0.945423E-05  0.600E-03    0.00       1.1  T
  45   -430.3013645 -0.396526E-05  0.491E-03    0.00       1.3  T
  46   -430.3013656 -0.113896E-05  0.450E-03    0.00       1.5  T
  47   -430.3013661 -0.468912E-06  0.424E-03    0.00       1.5  T
  48   -430.3013673 -0.119321E-05  0.377E-03    0.00       1.7  T
  49   -430.3013695 -0.218970E-05  0.277E-03    0.00       2.4  T
  50   -430.3013709 -0.141369E-05  0.175E-03    0.00       3.8  T
  51   -430.3013718 -0.890565E-06  0.625E-04    0.00      10.5  T
  52   -430.3013719 -0.130190E-06  0.140E-04    0.00      47.0  T
     SCC iter.                  ...        0 min,  8.457 sec
     gradient                   ...        0 min,  0.396 sec
 * total energy  :  -422.9392060 Eh     change       -0.4973628E-01 Eh
   gradient norm :     0.0546458 Eh/α   predicted    -0.4930320E-01 (  -0.87%)
   displ. norm   :     0.8312345 α      lambda       -0.4145445E-01
   maximum displ.:     0.3828372 α      in ANC's #122, #124, #123, ...

........................................................................
.............................. CYCLE    9 ..............................
........................................................................
   1   -430.3560687 -0.430356E+03  0.275E-01    0.00       0.0  T
   2   -428.9199532  0.143612E+01  0.172E+00    0.02       1.0  T
   3   -429.0124442 -0.924909E-01  0.182E+00    0.00       1.0  T
   4   -428.2709815  0.741463E+00  0.236E+00    0.00       1.0  T
   5   -427.3648040  0.906178E+00  0.305E+00    0.04       1.0  T
   6   -426.8360902  0.528714E+00  0.299E+00    0.01       1.0  T
   7   -429.5230440 -0.268695E+01  0.148E+00    0.01       1.0  T
   8   -429.8450208 -0.321977E+00  0.111E+00    0.01       1.0  T
   9   -425.6574872  0.418753E+01  0.355E+00    0.01       1.0  T
  10   -429.7705143 -0.411303E+01  0.122E+00    0.01       1.0  T
  11   -429.9900640 -0.219550E+00  0.974E-01    0.01       1.0  T
  12   -429.4032478  0.586816E+00  0.135E+00    0.00       1.0  T
  13   -430.1699849 -0.766737E+00  0.707E-01    0.01       1.0  T
  14   -430.1371092  0.328756E-01  0.771E-01    0.02       1.0  T
  15   -430.1974064 -0.602972E-01  0.594E-01    0.01       1.0  T
  16   -430.2413129 -0.439065E-01  0.570E-01    0.01       1.0  T
  17   -430.2806424 -0.393294E-01  0.467E-01    0.00       1.0  T
  18   -430.3121276 -0.314853E-01  0.322E-01    0.01       1.0  T
  19   -430.3565263 -0.443987E-01  0.123E-01    0.00       1.0  T
  20   -430.3401895  0.163368E-01  0.224E-01    0.00       1.0  T
  21   -430.3031435  0.370460E-01  0.354E-01    0.00       1.0  T
  22   -430.3494426 -0.462990E-01  0.181E-01    0.00       1.0  T
  23   -430.3620873 -0.126447E-01  0.518E-02    0.00       1.0  T
  24   -430.3621446 -0.573065E-04  0.543E-02    0.00       1.0  T
  25   -430.3605459  0.159866E-02  0.796E-02    0.00       1.0  T
  26   -430.3624313 -0.188539E-02  0.441E-02    0.00       1.0  T
  27   -430.3627425 -0.311217E-03  0.337E-02    0.00       1.0  T
  28   -430.3627088  0.337509E-04  0.337E-02    0.00       1.0  T
  29   -430.3629228 -0.213997E-03  0.259E-02    0.00       1.0  T
  30   -430.3631441 -0.221318E-03  0.117E-02    0.00       1.0  T
  31   -430.3631816 -0.375298E-04  0.637E-03    0.00       1.0  T
  32   -430.3631837 -0.209192E-05  0.590E-03    0.00       1.1  T
  33   -430.3631777  0.595233E-05  0.696E-03    0.00       1.0  T
  34   -430.3631842 -0.648328E-05  0.571E-03    0.00       1.1  T
  35   -430.3631833  0.922650E-06  0.576E-03    0.00       1.1  T
  36   -430.3631848 -0.154112E-05  0.529E-03    0.00       1.2  T
  37   -430.3631886 -0.377997E-05  0.414E-03    0.00       1.6  T
  38   -430.3631899 -0.130663E-05  0.354E-03    0.00       1.9  T
  39   -430.3631912 -0.124871E-05  0.300E-03    0.00       2.2  T
  40   -430.3631927 -0.154701E-05  0.220E-03    0.00       3.0  T
  41   -430.3631933 -0.618625E-06  0.177E-03    0.00       3.7  T
  42   -430.3631942 -0.866925E-06  0.977E-04    0.00       6.7  T
  43   -430.3631944 -0.156781E-06  0.709E-04    0.00       9.3  T
     SCC iter.                  ...        0 min,  7.069 sec
     gradient                   ...        0 min,  0.396 sec
 * total energy  :  -422.9745602 Eh     change       -0.3535420E-01 Eh
   gradient norm :     0.0394275 Eh/α   predicted    -0.3504875E-01 (  -0.86%)
   displ. norm   :     0.8141911 α      lambda       -0.2873841E-01
   maximum displ.:     0.3468262 α      in ANC's #122, #39, #35, ...

........................................................................
.............................. CYCLE   10 ..............................
........................................................................
   1   -430.3983400 -0.430398E+03  0.238E-01    0.00       0.0  T
   2   -427.3082648  0.309008E+01  0.275E+00    0.02       1.0  T
   3   -429.5306101 -0.222235E+01  0.128E+00    0.01       1.0  T
   4   -428.9645523  0.566058E+00  0.201E+00    0.00       1.0  T
   5   -428.3162190  0.648333E+00  0.250E+00    0.01       1.0  T
   6   -428.3594338 -0.432147E-01  0.228E+00    0.01       1.0  T
   7   -428.1335368  0.225897E+00  0.252E+00    0.02       1.0  T
   8   -428.9783701 -0.844833E+00  0.208E+00    0.00       1.0  T
   9   -428.5264380  0.451932E+00  0.209E+00    0.01       1.0  T
  10   -428.1907093  0.335729E+00  0.236E+00    0.01       1.0  T
  11   -429.4211786 -0.123047E+01  0.154E+00    0.00       1.0  T
  12   -427.5960313  0.182515E+01  0.274E+00    0.01       1.0  T
  13   -428.1495543 -0.553523E+00  0.243E+00    0.01       1.0  T
  14   -428.2181973 -0.686431E-01  0.240E+00    0.01       1.0  T
  15   -428.9727422 -0.754545E+00  0.191E+00    0.00       1.0  T
  16   -429.6561120 -0.683370E+00  0.133E+00    0.00       1.0  T
  17   -430.1249098 -0.468798E+00  0.863E-01    0.01       1.0  T
  18   -430.1341875 -0.927765E-02  0.879E-01    0.00       1.0  T
  19   -430.1325158  0.167167E-02  0.837E-01    0.01       1.0  T
  20   -430.2568104 -0.124295E+00  0.641E-01    0.01       1.0  T
  21   -430.2732338 -0.164234E-01  0.565E-01    0.00       1.0  T
  22   -430.3356719 -0.624381E-01  0.422E-01    0.00       1.0  T
  23   -430.3535921 -0.179201E-01  0.371E-01    0.00       1.0  T
  24   -430.2707975  0.827945E-01  0.548E-01    0.00       1.0  T
  25   -430.3176035 -0.468059E-01  0.438E-01    0.00       1.0  T
  26   -430.3815456 -0.639421E-01  0.222E-01    0.00       1.0  T
  27   -430.3377378  0.438078E-01  0.374E-01    0.00       1.0  T
  28   -430.3872010 -0.494632E-01  0.183E-01    0.00       1.0  T
  29   -430.3974297 -0.102287E-01  0.108E-01    0.00       1.0  T
  30   -430.3988077 -0.137799E-02  0.963E-02    0.00       1.0  T
  31   -430.3975068  0.130090E-02  0.109E-01    0.00       1.0  T
  32   -430.3993079 -0.180114E-02  0.868E-02    0.00       1.0  T
  33   -430.4002293 -0.921361E-03  0.742E-02    0.00       1.0  T
  34   -430.4005104 -0.281072E-03  0.675E-02    0.00       1.0  T
  35   -430.4016507 -0.114033E-02  0.389E-02    0.00       1.0  T
  36   -430.4018580 -0.207301E-03  0.268E-02    0.00       1.0  T
  37   -430.4018722 -0.141699E-04  0.253E-02    0.00       1.0  T
  38   -430.4018954 -0.232139E-04  0.240E-02    0.00       1.0  T
  39   -430.4019319 -0.365641E-04  0.219E-02    0.00       1.0  T
  40   -430.4020351 -0.103140E-03  0.143E-02    0.00       1.0  T
  41   -430.4020637 -0.286347E-04  0.110E-02    0.00       1.0  T
  42   -430.4020502  0.135324E-04  0.121E-02    0.00       1.0  T
  43   -430.4020631 -0.128902E-04  0.105E-02    0.00       1.0  T
  44   -430.4020700 -0.691299E-05  0.933E-03    0.00       1.0  T
  45   -430.4020767 -0.671400E-05  0.806E-03    0.00       1.0  T
  46   -430.4020842 -0.752610E-05  0.649E-03    0.00       1.0  T
  47   -430.4020881 -0.383169E-05  0.536E-03    0.00       1.2  T
  48   -430.4020957 -0.764302E-05  0.295E-03    0.00       2.2  T
  49   -430.4020974 -0.166663E-05  0.198E-03    0.00       3.3  T
  50   -430.4020983 -0.966856E-06  0.115E-03    0.00       5.7  T
  51   -430.4020987 -0.352440E-06  0.600E-04    0.00      10.9  T
  52   -430.4020987 -0.537682E-09  0.578E-04    0.00      11.4  T
     SCC iter.                  ...        0 min,  8.558 sec
     gradient                   ...        0 min,  0.396 sec
 * total energy  :  -422.9988379 Eh     change       -0.2427769E-01 Eh
   gradient norm :     0.0294727 Eh/α   predicted    -0.2389471E-01 (  -1.58%)
   displ. norm   :     0.8187526 α      lambda       -0.2014450E-01
   maximum displ.:     0.3341113 α      in ANC's #39, #35, #122, ...

........................................................................
.............................. CYCLE   11 ..............................
........................................................................
   1   -430.4251846 -0.430425E+03  0.213E-01    0.00       0.0  T
   2   -426.3086153  0.411657E+01  0.329E+00    0.01       1.0  T
   3   -429.4921826 -0.318357E+01  0.154E+00    0.01       1.0  T
   4   -429.1186072  0.373575E+00  0.193E+00    0.00       1.0  T
   5   -428.8546847  0.263923E+00  0.220E+00    0.02       1.0  T
   6   -426.4207951  0.243389E+01  0.337E+00    0.03       1.0  T
   7   -429.7394005 -0.331861E+01  0.124E+00    0.01       1.0  T
   8   -426.9746283  0.276477E+01  0.300E+00    0.00       1.0  T
   9   -429.6036170 -0.262899E+01  0.149E+00    0.00       1.0  T
  10   -428.9865984  0.617019E+00  0.177E+00    0.01       1.0  T
  11   -429.1655700 -0.178972E+00  0.182E+00    0.01       1.0  T
  12   -429.5404382 -0.374868E+00  0.154E+00    0.00       1.0  T
  13   -429.9496563 -0.409218E+00  0.109E+00    0.02       1.0  T
  14   -430.2808266 -0.331170E+00  0.606E-01    0.00       1.0  T
  15   -428.8895276  0.139130E+01  0.187E+00    0.00       1.0  T
  16   -429.0299358 -0.140408E+00  0.185E+00    0.02       1.0  T
  17   -429.8135006 -0.783565E+00  0.122E+00    0.01       1.0  T
  18   -429.6426119  0.170889E+00  0.138E+00    0.02       1.0  T
  19   -429.5537780  0.888339E-01  0.145E+00    0.01       1.0  T
  20   -429.9979016 -0.444124E+00  0.101E+00    0.00       1.0  T
  21   -430.1573743 -0.159473E+00  0.819E-01    0.01       1.0  T
  22   -430.1702343 -0.128599E-01  0.790E-01    0.00       1.0  T
  23   -430.3670465 -0.196812E+00  0.419E-01    0.00       1.0  T
  24   -430.3920734 -0.250269E-01  0.326E-01    0.00       1.0  T
  25   -430.3569260  0.351475E-01  0.424E-01    0.00       1.0  T
  26   -430.4183120 -0.613860E-01  0.175E-01    0.00       1.0  T
  27   -430.4213472 -0.303521E-02  0.141E-01    0.00       1.0  T
  28   -430.4243354 -0.298823E-02  0.110E-01    0.00       1.0  T
  29   -430.4240305  0.304888E-03  0.111E-01    0.00       1.0  T
  30   -430.4248079 -0.777431E-03  0.103E-01    0.00       1.0  T
  31   -430.4250795 -0.271585E-03  0.990E-02    0.00       1.0  T
  32   -430.4246318  0.447728E-03  0.101E-01    0.00       1.0  T
  33   -430.4252278 -0.595974E-03  0.916E-02    0.00       1.0  T
  34   -430.4259447 -0.716970E-03  0.785E-02    0.00       1.0  T
  35   -430.4269038 -0.959096E-03  0.596E-02    0.00       1.0  T
  36   -430.4277486 -0.844716E-03  0.398E-02    0.00       1.0  T
  37   -430.4277544 -0.587496E-05  0.394E-02    0.00       1.0  T
  38   -430.4278632 -0.108758E-03  0.357E-02    0.00       1.0  T
  39   -430.4280736 -0.210416E-03  0.270E-02    0.00       1.0  T
  40   -430.4281620 -0.884327E-04  0.218E-02    0.00       1.0  T
  41   -430.4282316 -0.695743E-04  0.168E-02    0.00       1.0  T
  42   -430.4283059 -0.742670E-04  0.917E-03    0.00       1.0  T
  43   -430.4283294 -0.235303E-04  0.445E-03    0.00       1.5  T
  44   -430.4283344 -0.501924E-05  0.242E-03    0.00       2.7  T
  45   -430.4283345 -0.645703E-07  0.225E-03    0.00       2.9  T
  46   -430.4283354 -0.939096E-06  0.147E-03    0.00       4.5  T
  47   -430.4283357 -0.259832E-06  0.114E-03    0.00       5.8  T
  48   -430.4283358 -0.118091E-06  0.943E-04    0.00       7.0  T
  49   -430.4283360 -0.151104E-06  0.660E-04    0.00      10.0  T
     SCC iter.                  ...        0 min,  8.067 sec
     gradient                   ...        0 min,  0.397 sec
 * total energy  :  -423.0162969 Eh     change       -0.1745902E-01 Eh
   gradient norm :     0.0248376 Eh/α   predicted    -0.1682425E-01 (  -3.64%)
   displ. norm   :     0.8632972 α      lambda       -0.1633186E-01
   maximum displ.:     0.3845734 α      in ANC's #39, #35, #18, ...

........................................................................
.............................. CYCLE   12 ..............................
........................................................................
   1   -430.4424847 -0.430442E+03  0.218E-01    0.00       0.0  T
   2   -425.9934520  0.444903E+01  0.344E+00    0.00       1.0  T
   3   -429.0165534 -0.302310E+01  0.194E+00    0.01       1.0  T
   4   -426.2047730  0.281178E+01  0.339E+00    0.01       1.0  T
   5   -427.9151112 -0.171034E+01  0.264E+00    0.01       1.0  T
   6   -429.4778188 -0.156271E+01  0.174E+00    0.01       1.0  T
   7   -428.1056681  0.137215E+01  0.256E+00    0.01       1.0  T
   8   -430.0818403 -0.197617E+01  0.972E-01    0.03       1.0  T
   9   -429.1256047  0.956236E+00  0.185E+00    0.01       1.0  T
  10   -429.5554452 -0.429841E+00  0.159E+00    0.01       1.0  T
  11   -428.7961224  0.759323E+00  0.210E+00    0.00       1.0  T
  12   -429.5983721 -0.802250E+00  0.149E+00    0.01       1.0  T
  13   -429.8442645 -0.245892E+00  0.129E+00    0.00       1.0  T
  14   -430.1024162 -0.258152E+00  0.100E+00    0.00       1.0  T
  15   -430.1488654 -0.464492E-01  0.934E-01    0.00       1.0  T
  16   -430.2315303 -0.826648E-01  0.791E-01    0.00       1.0  T
  17   -430.3153155 -0.837853E-01  0.625E-01    0.00       1.0  T
  18   -430.3148973  0.418186E-03  0.624E-01    0.00       1.0  T
  19   -430.2151635  0.997338E-01  0.810E-01    0.00       1.0  T
  20   -430.2885426 -0.733790E-01  0.678E-01    0.00       1.0  T
  21   -430.3123384 -0.237958E-01  0.647E-01    0.00       1.0  T
  22   -430.3485195 -0.361812E-01  0.547E-01    0.00       1.0  T
  23   -430.3426765  0.584301E-02  0.569E-01    0.00       1.0  T
  24   -430.3435736 -0.897094E-03  0.552E-01    0.00       1.0  T
  25   -430.3669561 -0.233825E-01  0.495E-01    0.00       1.0  T
  26   -430.3696170 -0.266090E-02  0.487E-01    0.00       1.0  T
  27   -430.3750630 -0.544597E-02  0.468E-01    0.00       1.0  T
  28   -430.3903076 -0.152446E-01  0.421E-01    0.00       1.0  T
  29   -430.3898212  0.486402E-03  0.423E-01    0.00       1.0  T
  30   -430.4262731 -0.364519E-01  0.261E-01    0.00       1.0  T
  31   -430.4363227 -0.100496E-01  0.195E-01    0.00       1.0  T
  32   -430.4455278 -0.920510E-02  0.988E-02    0.00       1.0  T
  33   -430.4477624 -0.223462E-02  0.569E-02    0.00       1.0  T
  34   -430.4452100  0.255243E-02  0.102E-01    0.00       1.0  T
  35   -430.4480218 -0.281186E-02  0.460E-02    0.00       1.0  T
  36   -430.4483871 -0.365322E-03  0.349E-02    0.00       1.0  T
  37   -430.4487877 -0.400531E-03  0.126E-02    0.00       1.0  T
  38   -430.4487866  0.111188E-05  0.131E-02    0.00       1.0  T
  39   -430.4487983 -0.117792E-04  0.109E-02    0.00       1.0  T
  40   -430.4488022 -0.387385E-05  0.101E-02    0.00       1.0  T
  41   -430.4488299 -0.277125E-04  0.608E-03    0.00       1.1  T
  42   -430.4488333 -0.333635E-05  0.539E-03    0.00       1.2  T
  43   -430.4488387 -0.546922E-05  0.416E-03    0.00       1.6  T
  44   -430.4488396 -0.868178E-06  0.389E-03    0.00       1.7  T
  45   -430.4488420 -0.236071E-05  0.294E-03    0.00       2.2  T
  46   -430.4488439 -0.194865E-05  0.186E-03    0.00       3.5  T
  47   -430.4488442 -0.320657E-06  0.167E-03    0.00       3.9  T
  48   -430.4488449 -0.637505E-06  0.103E-03    0.00       6.4  T
  49   -430.4488449 -0.152074E-07  0.102E-03    0.00       6.4  T
  50   -430.4488450 -0.156409E-06  0.774E-04    0.00       8.5  T
  51   -430.4488452 -0.118369E-06  0.518E-04    0.00      12.7  T
     SCC iter.                  ...        0 min,  8.398 sec
     gradient                   ...        0 min,  0.396 sec
 * total energy  :  -423.0315132 Eh     change       -0.1521635E-01 Eh
   gradient norm :     0.0259730 Eh/α   predicted    -0.1425186E-01 (  -6.34%)
   displ. norm   :     0.9335442 α      lambda       -0.1654614E-01
   maximum displ.:     0.4073574 α      in ANC's #39, #18, #35, ...

........................................................................
.............................. CYCLE   13 ..............................
........................................................................
   1   -430.4528141 -0.430453E+03  0.259E-01    0.00       0.0  T
   2   -422.5129604  0.793985E+01  0.446E+00    0.04       1.0  T
   3   -428.7266251 -0.621366E+01  0.215E+00    0.00       1.0  T
   4   -426.3758486  0.235078E+01  0.330E+00    0.01       1.0  T
   5   -428.9998463 -0.262400E+01  0.210E+00    0.01       1.0  T
   6   -429.0325897 -0.327434E-01  0.195E+00    0.01       1.0  T
   7   -427.0683607  0.196423E+01  0.303E+00    0.00       1.0  T
   8   -429.8680702 -0.279971E+01  0.124E+00    0.01       1.0  T
   9   -429.3332298  0.534840E+00  0.183E+00    0.01       1.0  T
  10   -429.1545220  0.178708E+00  0.191E+00    0.00       1.0  T
  11   -429.0446534  0.109869E+00  0.192E+00    0.01       1.0  T
  12   -429.1463516 -0.101698E+00  0.186E+00    0.00       1.0  T
  13   -429.4721568 -0.325805E+00  0.161E+00    0.01       1.0  T
  14   -430.1552192 -0.683062E+00  0.956E-01    0.00       1.0  T
  15   -429.9311287  0.224090E+00  0.124E+00    0.01       1.0  T
  16   -429.9271929  0.393581E-02  0.124E+00    0.01       1.0  T
  17   -430.1091177 -0.181925E+00  0.101E+00    0.00       1.0  T
  18   -430.3566080 -0.247490E+00  0.555E-01    0.00       1.0  T
  19   -430.2006825  0.155925E+00  0.843E-01    0.00       1.0  T
  20   -430.3052543 -0.104572E+00  0.653E-01    0.00       1.0  T
  21   -430.3147706 -0.951622E-02  0.640E-01    0.01       1.0  T
  22   -430.4118992 -0.971286E-01  0.407E-01    0.00       1.0  T
  23   -430.4426655 -0.307663E-01  0.245E-01    0.00       1.0  T
  24   -430.3747944  0.678711E-01  0.480E-01    0.00       1.0  T
  25   -430.4225937 -0.477993E-01  0.337E-01    0.00       1.0  T
  26   -430.4488272 -0.262334E-01  0.214E-01    0.00       1.0  T
  27   -430.4484126  0.414558E-03  0.219E-01    0.00       1.0  T
  28   -430.4524302 -0.401765E-02  0.195E-01    0.01       1.0  T
  29   -430.4549777 -0.254743E-02  0.176E-01    0.00       1.0  T
  30   -430.4599887 -0.501107E-02  0.135E-01    0.00       1.0  T
  31   -430.4641722 -0.418348E-02  0.895E-02    0.00       1.0  T
  32   -430.4649854 -0.813181E-03  0.766E-02    0.00       1.0  T
  33   -430.4654731 -0.487674E-03  0.655E-02    0.00       1.0  T
  34   -430.4658263 -0.353218E-03  0.562E-02    0.00       1.0  T
  35   -430.4662219 -0.395623E-03  0.448E-02    0.00       1.0  T
  36   -430.4664882 -0.266241E-03  0.355E-02    0.00       1.0  T
  37   -430.4666906 -0.202427E-03  0.272E-02    0.00       1.0  T
  38   -430.4668383 -0.147668E-03  0.185E-02    0.00       1.0  T
  39   -430.4668891 -0.508582E-04  0.144E-02    0.00       1.0  T
  40   -430.4669069 -0.177759E-04  0.126E-02    0.00       1.0  T
  41   -430.4669311 -0.242595E-04  0.100E-02    0.00       1.0  T
  42   -430.4669537 -0.225360E-04  0.557E-03    0.00       1.2  T
  43   -430.4669588 -0.516395E-05  0.371E-03    0.00       1.8  T
  44   -430.4669607 -0.188207E-05  0.272E-03    0.00       2.4  T
  45   -430.4669616 -0.898925E-06  0.229E-03    0.00       2.9  T
  46   -430.4669618 -0.173874E-06  0.225E-03    0.00       2.9  T
  47   -430.4669629 -0.104618E-05  0.147E-03    0.00       4.5  T
  48   -430.4669632 -0.378124E-06  0.958E-04    0.00       6.9  T
  49   -430.4669632 -0.945113E-08  0.907E-04    0.00       7.2  T
     SCC iter.                  ...        0 min,  8.059 sec
     gradient                   ...        0 min,  0.396 sec
 * total energy  :  -423.0481626 Eh     change       -0.1664937E-01 Eh
   gradient norm :     0.0297342 Eh/α   predicted    -0.1548312E-01 (  -7.00%)
   displ. norm   :     0.9152540 α      lambda       -0.1728228E-01
   maximum displ.:     0.3941682 α      in ANC's #18, #39, #30, ...

........................................................................
.............................. CYCLE   14 ..............................
........................................................................
   1   -430.4488779 -0.430449E+03  0.273E-01    0.00       0.0  T
   2   -422.5199215  0.792896E+01  0.444E+00    0.05       1.0  T
   3   -428.4272218 -0.590730E+01  0.238E+00    0.01       1.0  T
   4   -425.8396799  0.258754E+01  0.353E+00    0.00       1.0  T
   5   -428.3810755 -0.254140E+01  0.257E+00    0.01       1.0  T
   6   -429.7764435 -0.139537E+01  0.138E+00    0.00       1.0  T
   7   -428.4069805  0.136946E+01  0.252E+00    0.00       1.0  T
   8   -429.4337338 -0.102675E+01  0.189E+00    0.01       1.0  T
   9   -429.2422170  0.191517E+00  0.176E+00    0.01       1.0  T
  10   -427.6062702  0.163595E+01  0.277E+00    0.01       1.0  T
  11   -429.9378008 -0.233153E+01  0.125E+00    0.01       1.0  T
  12   -430.3066102 -0.368809E+00  0.719E-01    0.00       1.0  T
  13   -430.4102003 -0.103590E+00  0.416E-01    0.01       1.0  T
  14   -430.2982181  0.111982E+00  0.670E-01    0.01       1.0  T
[...]
 177:  0.00 178:  0.00 179:  0.00 180:  0.00 181:  0.00 182:  0.00 183:  0.00 184:  0.00
 185:  0.00 186:  0.00 187:  0.00 188:  0.00 189:  0.00 190:  0.00 191:  0.00 192:  0.00
 193:  0.00 194:  0.00 195:  0.00 196:  0.00 197:  0.00 198:  0.00 199:  0.00 200:  0.00
 201:  0.00 202:  0.00 203:  0.00 204:  0.00 205:  0.00 206:  0.00 207:  0.00 208:  0.00
 209:  0.00 210:  0.00 211:  0.00 212:  0.00 213:  0.00 214:  0.00 215:  0.00 216:  0.00
 217:  0.00 218:  0.00 219:  0.00 220:  0.00 221:  0.00 222:  0.00 223:  0.00 224:  0.00
 225:  0.00 226:  0.00 227:  0.00 228:  0.00 229:  0.00 230:  0.00 231:  0.00 232:  0.00
 233:  0.00 234:  0.00 235:  0.00 236:  0.00 237:  0.00 238:  0.00 239:  0.00 240:  0.00
 241:  0.00 242:  0.00 243:  0.00 244:  0.00 245:  0.00 246:  0.00 247:  0.00 248:  0.00
 249:  0.00 250:  0.00 251:  0.00 252:  0.00 253:  0.00 254:  0.00 255:  0.00 256:  0.00
 257:  0.00 258:  0.00 259:  0.00 260:  0.00 261:  0.00 262:  0.00 263:  0.00 264:  0.00
 265:  0.00 266:  0.00 267:  0.00 268:  0.00 269:  0.00 270:  0.00 271:  0.00 272:  0.00
 273:  0.00 274:  0.00 275:  0.00 276:  0.00 277:  0.00 278:  0.00 279:  0.00 280:  0.00
 281:  0.00 282:  0.00 283:  0.00 284:  0.00 285:  0.00 286:  0.00 287:  0.00 288:  0.00
 289:  0.00 290:  0.00 291:  0.00 292:  0.00 293:  0.00 294:  0.00 295:  0.00 296:  0.00
 297:  0.00 298:  0.00 299:  0.00 300:  0.00 301:  0.00 302:  0.00 303:  0.00 304:  0.00
 305:  0.00 306:  0.00 307:  0.00 308:  0.00 309:  0.00 310:  0.00 311:  0.00 312:  0.00
 313:  0.00 314:  0.00 315:  0.00 316:  0.00 317:  0.00 318:  0.00 319:  0.00 320:  0.00
 321:  0.00 322:  0.00 323:  0.00 324:  0.00 325:  0.00 326:  0.00 327:  0.00 328:  0.00
 329:  0.00 330:  0.00 331:  0.00 332:  0.00 333:  0.00 334:  0.00 335:  0.00 336:  0.00
 337:  0.00 338:  0.00 339:  0.00 340:  0.00 341:  0.00 342:  0.00 343:  0.00 344:  0.00
 345:  0.00 346:  0.00 347:  0.00 348:  0.00 349:  0.00 350:  0.00 351:  0.00 352:  0.00
 353:  0.00 354:  0.00 355:  0.00 356:  0.00 357:  0.00 358:  0.00 359:  0.00 360:  0.00
 361:  0.00 362:  0.00 363:  0.00 364:  0.00 365:  0.00 366:  0.00 367:  0.00 368:  0.00
 369:  0.00 370:  0.00 371:  0.00 372:  0.00 373:  0.00 374:  0.00 375:  0.00 376:  0.00
 377:  0.00 378:  0.00 379:  0.00 380:  0.00 381:  0.00 382:  0.00 383:  0.00 384:  0.00
 385:  0.00 386:  0.00 387:  0.00 388:  0.00 389:  0.00 390:  0.00 391:  0.00 392:  0.00
 393:  0.00 394:  0.00 395:  0.00 396:  0.00 397:  0.00 398:  0.00 399:  0.00 400:  0.00
 401:  0.00 402:  0.00 403:  0.00 404:  0.00 405:  0.00 406:  0.00 407:  0.00 408:  0.00
 409:  0.00 410:  0.00 411:  0.00 412:  0.00 413:  0.00 414:  0.00 415:  0.00 416:  0.00
 417:  0.00 418:  0.00 419:  0.00 420:  0.00 421:  0.00 422:  0.00 423:  0.00 424:  0.00
 425:  0.00 426:  0.00 427:  0.00 428:  0.00 429:  0.00 430:  0.00 431:  0.00 432:  0.00
 433:  0.00 434:  0.00 435:  0.00 436:  0.00 437:  0.00 438:  0.00 439:  0.00 440:  0.00
 441:  0.00 442:  0.00 443:  0.00 444:  0.00 445:  0.00 446:  0.00 447:  0.00 448:  0.00
 449:  0.00 450:  0.00 451:  0.00 452:  0.00 453:  0.00 454:  0.00 455:  0.00 456:  0.00
 457:  0.00 458:  0.00 459:  0.00 460:  0.00 461:  0.00 462:  0.00 463:  0.00 464:  0.00
 465:  0.00 466:  0.00 467:  0.00 468:  0.00 469:  0.00 470:  0.00 471:  0.00 472:  0.00
 473:  0.00 474:  0.00 475:  0.00 476:  0.00 477:  0.00 478:  0.00 479:  0.00 480:  0.00
 481:  0.00 482:  0.00 483:  0.00 484:  0.00 485:  0.00 486:  0.00 487:  0.00 488:  0.00
 489:  0.00 490:  0.00 491:  0.00 492:  0.00 493:  0.00 494:  0.00 495:  0.00 496:  0.00
 497:  0.00 498:  0.00 499:  0.00 500:  0.00 501:  0.00 502:  0.00 503:  0.00 504:  0.00
 505:  0.00 506:  0.00 507:  0.00 508:  0.00 509:  0.00 510:  0.00 511:  0.00 512:  0.00
 513:  0.00 514:  0.00 515:  0.00 516:  0.00 517:  0.00 518:  0.00 519:  0.00 520:  0.00
 521:  0.00 522:  0.00 523:  0.00 524:  0.00 525:  0.00 526:  0.00 527:  0.00 528:  0.00
 529:  0.00 530:  0.00 531:  0.00 532:  0.00 533:  0.00 534:  0.00 535:  0.00 536:  0.00
 537:  0.00 538:  0.00 539:  0.00 540:  0.00 541:  0.00 542:  0.00 543:  0.00 544:  0.00
 545:  0.00 546:  0.00 547:  0.00 548:  0.00 549:  0.00 550:  0.00 551:  0.00 552:  0.00
 553:  0.00 554:  0.00 555:  0.00 556:  0.00 557:  0.00 558:  0.00 559:  0.00 560:  0.00
 561:  0.00 562:  0.00 563:  0.00 564:  0.00 565:  0.00 566:  0.00 567:  0.00 568:  0.00
 569:  0.00 570:  0.00 571:  0.00 572:  0.00 573:  0.00 574:  0.00 575:  0.00 576:  0.00
 577:  0.00 578:  0.00 579:  0.00 580:  0.00 581:  0.00 582:  0.00 583:  0.00 584:  0.00
 585:  0.00 586:  0.00 587:  0.00 588:  0.00 589:  0.00 590:  0.00 591:  0.00 592:  0.00
 593:  0.00 594:  0.00 595:  0.00 596:  0.00 597:  0.00 598:  0.00 599:  0.00 600:  0.00
 601:  0.00 602:  0.00 603:  0.00 604:  0.00 605:  0.00 606:  0.00 607:  0.00 608:  0.00
 609:  0.00 610:  0.00 611:  0.00 612:  0.00 613:  0.00 614:  0.00 615:  0.00 616:  0.00
 617:  0.00 618:  0.00 619:  0.00 620:  0.00 621:  0.00 622:  0.00 623:  0.00 624:  0.00
 625:  0.00 626:  0.00 627:  0.00 628:  0.00 629:  0.00 630:  0.00 631:  0.00 632:  0.00
 633:  0.00 634:  0.00 635:  0.00 636:  0.00 637:  0.00 638:  0.00 639:  0.00 640:  0.00
 641:  0.00 642:  0.00 643:  0.00 644:  0.00 645:  0.00 646:  0.00 647:  0.00 648:  0.00
 649:  0.00 650:  0.00 651:  0.00 652:  0.00 653:  0.00 654:  0.00 655:  0.00 656:  0.00
 657:  0.00 658:  0.00 659:  0.00 660:  0.00 661:  0.00 662:  0.00 663:  0.00 664:  0.00
 665:  0.00 666:  0.00 667:  0.00 668:  0.00 669:  0.00 670:  0.00 671:  0.00 672:  0.00
 673:  0.00 674:  0.00 675:  0.00 676:  0.00 677:  0.00 678:  0.00 679:  0.00 680:  0.00
 681:  0.00 682:  0.00 683:  0.00 684:  0.00 685:  0.00 686:  0.00 687:  0.00 688:  0.00
 689:  0.00 690:  0.00 691:  0.00 692:  0.00 693:  0.00 694:  0.00 695:  0.00 696:  0.00
 output can be read by thermo (or use thermo option).
 writing <g98.out> molden fake output.
 recommended (thermochemical) frequency scaling factor: 1.0
           -------------------------------------------------
          |             Thermodynamic Functions             |
           -------------------------------------------------
 symmetry recognition skipped because # atoms >         200
 inverting freq            1   11.934280421645564     
 inverting freq            2   11.292865996667533     
 inverting freq            3   6.1730400031014883     
 inverting freq            4   5.2554623607639659     
 inverting freq            5   3.8899733788792132     
 inverting freq            6   2.2182199408496523     

          ...................................................
          :                      SETUP                      :
          :.................................................:
          :  # frequencies                         689      :
          :  # imaginary freq.                       0      :
          :  linear?                             false      :
          :  only rotor calc.                    false      :
          :  symmetry                               C1      :
          :  rotational number                       1      :
          :  scaling factor                  1.0000000      :
          :  rotor cutoff                   50.0000000 cm⁻¹ :
          :  imag. cutoff                  -20.0000000 cm⁻¹ :
          :.................................................:

    mode    ω/cm⁻¹     T·S(HO)/kcal·mol⁻¹    T·S(FR)/kcal·mol⁻¹   T·S(vib)
   ------------------------------------------------------------------------
       1     11.93    -2.28375 (  0.32%)    -1.48095 ( 99.68%)    -1.48355
       2     11.29    -2.31647 (  0.26%)    -1.49731 ( 99.74%)    -1.49944
       3      6.17    -2.67427 (  0.02%)    -1.67624 ( 99.98%)    -1.67647
       4      5.26    -2.76960 (  0.01%)    -1.72391 ( 99.99%)    -1.72404
       5      3.89    -2.94786 (  0.00%)    -1.81304 (100.00%)    -1.81308
       6      2.22    -3.28065 (  0.00%)    -1.97944 (100.00%)    -1.97944
       7      1.88    -3.37976 (  0.00%)    -2.02899 (100.00%)    -2.02900
       8      2.57    -3.19286 (  0.00%)    -1.93555 (100.00%)    -1.93555
       9      2.81    -3.14098 (  0.00%)    -1.90960 (100.00%)    -1.90961
      10      3.94    -2.94071 (  0.00%)    -1.80947 (100.00%)    -1.80951
      11      4.84    -2.81826 (  0.01%)    -1.74824 ( 99.99%)    -1.74833
      12      4.91    -2.80952 (  0.01%)    -1.74387 ( 99.99%)    -1.74397
      13      5.53    -2.73955 (  0.01%)    -1.70888 ( 99.99%)    -1.70904
      14      7.57    -2.55307 (  0.05%)    -1.61564 ( 99.95%)    -1.61613
      15      7.93    -2.52570 (  0.06%)    -1.60195 ( 99.94%)    -1.60253
      16      9.44    -2.42241 (  0.13%)    -1.55030 ( 99.87%)    -1.55141
      17     10.53    -2.35776 (  0.20%)    -1.51797 ( 99.80%)    -1.51962
      18     11.39    -2.31137 (  0.27%)    -1.49476 ( 99.73%)    -1.49696
      19     12.23    -2.26923 (  0.36%)    -1.47369 ( 99.64%)    -1.47653
      20     12.47    -2.25751 (  0.39%)    -1.46783 ( 99.61%)    -1.47088
      21     20.40    -1.96637 (  2.69%)    -1.32218 ( 97.31%)    -1.33954
      22     20.81    -1.95455 (  2.91%)    -1.31627 ( 97.09%)    -1.33485
      23     21.35    -1.93939 (  3.22%)    -1.30868 ( 96.78%)    -1.32896
      24     21.79    -1.92722 (  3.48%)    -1.30259 ( 96.52%)    -1.32434
      25     23.32    -1.88716 (  4.52%)    -1.28254 ( 95.48%)    -1.30984
      26     23.50    -1.88259 (  4.65%)    -1.28025 ( 95.35%)    -1.30827
      27     24.32    -1.86233 (  5.30%)    -1.27011 ( 94.70%)    -1.30148
      28     25.71    -1.82936 (  6.53%)    -1.25360 ( 93.47%)    -1.29122
      29     29.70    -1.74407 ( 11.07%)    -1.21090 ( 88.93%)    -1.26990
      30     33.36    -1.67529 ( 16.54%)    -1.17644 ( 83.46%)    -1.25893
      31     35.48    -1.63883 ( 20.23%)    -1.15817 ( 79.77%)    -1.25540
      32     36.88    -1.61589 ( 22.85%)    -1.14667 ( 77.15%)    -1.25388
      33     40.38    -1.56245 ( 29.84%)    -1.11988 ( 70.16%)    -1.25193
      34     41.92    -1.54029 ( 33.07%)    -1.10876 ( 66.93%)    -1.25147
      35     43.76    -1.51499 ( 36.97%)    -1.09606 ( 63.03%)    -1.25094
      36     47.51    -1.46642 ( 44.91%)    -1.07168 ( 55.09%)    -1.24896
      37     51.20    -1.42233 ( 52.37%)    -1.04953 ( 47.63%)    -1.24476
      38     52.17    -1.41121 ( 54.25%)    -1.04394 ( 45.75%)    -1.24317
      39     76.22    -1.18839 ( 84.38%)    -0.93165 ( 15.62%)    -1.14828
      40     77.86    -1.17591 ( 85.47%)    -0.92534 ( 14.53%)    -1.13949
      41     83.80    -1.13295 ( 88.75%)    -0.90358 ( 11.25%)    -1.10714
      42     91.15    -1.08385 ( 91.70%)    -0.87867 (  8.30%)    -1.06682
      43     96.41    -1.05114 ( 93.25%)    -0.86203 (  6.75%)    -1.03838
      44     98.49    -1.03874 ( 93.77%)    -0.85571 (  6.23%)    -1.02734
      45     99.80    -1.03107 ( 94.07%)    -0.85181 (  5.93%)    -1.02045
      46    100.83    -1.02507 ( 94.30%)    -0.84875 (  5.70%)    -1.01502
      47    101.82    -1.01941 ( 94.51%)    -0.84586 (  5.49%)    -1.00987
      48    102.75    -1.01417 ( 94.69%)    -0.84319 (  5.31%)    -1.00509
      49    103.96    -1.00736 ( 94.92%)    -0.83971 (  5.08%)    -0.99884
      50    107.84    -0.98613 ( 95.58%)    -0.82886 (  4.42%)    -0.97918
      51    115.37    -0.94708 ( 96.59%)    -0.80886 (  3.41%)    -0.94237
      52    117.50    -0.93649 ( 96.83%)    -0.80343 (  3.17%)    -0.93227
      53    117.53    -0.93634 ( 96.83%)    -0.80335 (  3.17%)    -0.93213
      54    117.61    -0.93596 ( 96.84%)    -0.80315 (  3.16%)    -0.93176
      55    117.69    -0.93559 ( 96.84%)    -0.80296 (  3.16%)    -0.93140
      56    119.23    -0.92807 ( 97.00%)    -0.79910 (  3.00%)    -0.92420
      57    119.27    -0.92787 ( 97.00%)    -0.79900 (  3.00%)    -0.92401
      58    122.58    -0.91212 ( 97.31%)    -0.79090 (  2.69%)    -0.90886
      59    123.46    -0.90801 ( 97.38%)    -0.78878 (  2.62%)    -0.90488
      60    134.94    -0.85701 ( 98.15%)    -0.76245 (  1.85%)    -0.85526
      61    144.36    -0.81849 ( 98.58%)    -0.74244 (  1.42%)    -0.81741
      62    146.99    -0.80822 ( 98.68%)    -0.73709 (  1.32%)    -0.80728
      63    149.06    -0.80030 ( 98.75%)    -0.73296 (  1.25%)    -0.79946
      64    151.78    -0.79005 ( 98.84%)    -0.72761 (  1.16%)    -0.78932
      65    153.36    -0.78417 ( 98.88%)    -0.72453 (  1.12%)    -0.78350
      66    154.47    -0.78008 ( 98.91%)    -0.72239 (  1.09%)    -0.77945
      67    156.58    -0.77241 ( 98.97%)    -0.71838 (  1.03%)    -0.77186
      68    160.49    -0.75848 ( 99.07%)    -0.71106 (  0.93%)    -0.75804
      69    165.41    -0.74151 ( 99.17%)    -0.70213 (  0.83%)    -0.74119
      70    175.52    -0.70826 ( 99.35%)    -0.68455 (  0.65%)    -0.70810
      71    189.00    -0.66715 ( 99.51%)    -0.66263 (  0.49%)    -0.66712
      72    189.10    -0.66684 ( 99.51%)    -0.66247 (  0.49%)    -0.66682
      73    189.26    -0.66638 ( 99.52%)    -0.66222 (  0.48%)    -0.66636
      74    189.42    -0.66591 ( 99.52%)    -0.66197 (  0.48%)    -0.66589
      75    189.54    -0.66558 ( 99.52%)    -0.66179 (  0.48%)    -0.66556
      76    189.63    -0.66532 ( 99.52%)    -0.66165 (  0.48%)    -0.66530
      77    189.97    -0.66431 ( 99.52%)    -0.66111 (  0.48%)    -0.66430
      78    211.22    -0.60617 ( 99.69%)    -0.62970 (  0.31%)    -0.60625
      79    223.18    -0.57636 ( 99.75%)    -0.61338 (  0.25%)    -0.57645
      80    224.83    -0.57239 ( 99.76%)    -0.61120 (  0.24%)    -0.57249
      81    225.95    -0.56974 ( 99.76%)    -0.60973 (  0.24%)    -0.56983
      82    226.11    -0.56936 ( 99.76%)    -0.60953 (  0.24%)    -0.56946
      83    226.17    -0.56922 ( 99.76%)    -0.60945 (  0.24%)    -0.56931
      84    226.41    -0.56863 ( 99.76%)    -0.60912 (  0.24%)    -0.56873
      85    226.54    -0.56833 ( 99.76%)    -0.60896 (  0.24%)    -0.56843
      86    226.64    -0.56810 ( 99.76%)    -0.60883 (  0.24%)    -0.56819
      87    226.77    -0.56779 ( 99.76%)    -0.60866 (  0.24%)    -0.56788
      88    226.79    -0.56775 ( 99.76%)    -0.60864 (  0.24%)    -0.56785
      89    226.85    -0.56760 ( 99.76%)    -0.60855 (  0.24%)    -0.56769
      90    231.20    -0.55743 ( 99.78%)    -0.60293 (  0.22%)    -0.55753
      91    231.36    -0.55706 ( 99.78%)    -0.60273 (  0.22%)    -0.55716
      92    233.92    -0.55117 ( 99.79%)    -0.59946 (  0.21%)    -0.55127
      93    239.43    -0.53879 ( 99.81%)    -0.59257 (  0.19%)    -0.53890
      94    239.93    -0.53769 ( 99.81%)    -0.59195 (  0.19%)    -0.53779
      95    240.05    -0.53742 ( 99.81%)    -0.59180 (  0.19%)    -0.53752
      96    240.20    -0.53708 ( 99.81%)    -0.59161 (  0.19%)    -0.53718
      97    240.34    -0.53679 ( 99.81%)    -0.59145 (  0.19%)    -0.53689
      98    242.68    -0.53164 ( 99.82%)    -0.58857 (  0.18%)    -0.53174
      99    243.33    -0.53022 ( 99.82%)    -0.58777 (  0.18%)    -0.53032
     100    243.41    -0.53006 ( 99.82%)    -0.58768 (  0.18%)    -0.53016
     101    246.66    -0.52305 ( 99.83%)    -0.58375 (  0.17%)    -0.52316
     102    249.02    -0.51803 ( 99.84%)    -0.58093 (  0.16%)    -0.51813
     103    249.09    -0.51789 ( 99.84%)    -0.58085 (  0.16%)    -0.51800
     104    249.51    -0.51699 ( 99.84%)    -0.58034 (  0.16%)    -0.51710
     105    249.81    -0.51638 ( 99.84%)    -0.58000 (  0.16%)    -0.51648
     106    249.88    -0.51623 ( 99.84%)    -0.57991 (  0.16%)    -0.51633
     107    250.17    -0.51561 ( 99.84%)    -0.57956 (  0.16%)    -0.51571
     108    250.48    -0.51497 ( 99.84%)    -0.57920 (  0.16%)    -0.51507
     109    250.91    -0.51407 ( 99.84%)    -0.57869 (  0.16%)    -0.51417
     110    255.91    -0.50373 ( 99.85%)    -0.57285 (  0.15%)    -0.50383
     111    262.54    -0.49041 ( 99.87%)    -0.56527 (  0.13%)    -0.49050
     112    263.29    -0.48893 ( 99.87%)    -0.56443 (  0.13%)    -0.48903
     113    264.05    -0.48743 ( 99.87%)    -0.56357 (  0.13%)    -0.48753
     114    264.50    -0.48654 ( 99.87%)    -0.56306 (  0.13%)    -0.48663
     115    265.08    -0.48541 ( 99.87%)    -0.56241 (  0.13%)    -0.48550
     116    265.12    -0.48534 ( 99.87%)    -0.56237 (  0.13%)    -0.48543
     117    265.33    -0.48493 ( 99.87%)    -0.56214 (  0.13%)    -0.48503
     118    265.38    -0.48482 ( 99.87%)    -0.56208 (  0.13%)    -0.48492
     119    266.18    -0.48326 ( 99.88%)    -0.56118 (  0.12%)    -0.48335
     120    266.30    -0.48302 ( 99.88%)    -0.56105 (  0.12%)    -0.48312
     121    267.02    -0.48164 ( 99.88%)    -0.56026 (  0.12%)    -0.48173
     122    267.11    -0.48146 ( 99.88%)    -0.56016 (  0.12%)    -0.48156
     123    275.73    -0.46511 ( 99.89%)    -0.55074 (  0.11%)    -0.46521
     124    289.19    -0.44087 ( 99.91%)    -0.53662 (  0.09%)    -0.44095
     125    290.32    -0.43890 ( 99.91%)    -0.53547 (  0.09%)    -0.43899
     126    291.90    -0.43617 ( 99.91%)    -0.53386 (  0.09%)    -0.43625
     127    293.09    -0.43412 ( 99.92%)    -0.53266 (  0.08%)    -0.43420
     128    293.90    -0.43273 ( 99.92%)    -0.53184 (  0.08%)    -0.43281
   ------------------------------------------------------------------------

   temp. (K)  partition function   enthalpy   heat capacity  entropy
                                   cal/mol     cal/K/mol   cal/K/mol   J/K/mol
 298.15  VIB  0.309E+77            83916.467    538.024    536.868
         ROT  0.101E+11              888.752      2.981     48.754
         INT  0.311E+87            84805.220    541.004    585.622
         TR   0.116E+30             1481.254      4.968     49.210
         TOT                       86286.4735   545.9726   634.8321  2656.1377

       T/K    H(0)-H(T)+PV         H(T)/Eh          T*S/Eh         G(T)/Eh
   ------------------------------------------------------------------------
    298.15    0.137506E+00    0.172651E+01    0.301629E+00    0.142488E+01
   ------------------------------------------------------------------------

         :::::::::::::::::::::::::::::::::::::::::::::::::::::
         ::                  THERMODYNAMIC                  ::
         :::::::::::::::::::::::::::::::::::::::::::::::::::::
         :: total free energy        -422.156259701318 Eh   ::
         ::.................................................::
         :: total energy             -423.581136179619 Eh   ::
         :: zero point energy           1.588999468324 Eh   ::
         :: G(RRHO) w/o ZPVE           -0.164122990024 Eh   ::
         :: G(RRHO) contrib.            1.424876478301 Eh   ::
         :::::::::::::::::::::::::::::::::::::::::::::::::::::
imag cut-off (cm-1) :    5.00
 found            4  significant imaginary frequencies
 writing imag mode distorted coords to xtbhess.xyz
 for further optimization.

optimized geometry written to: xtbopt.xyz


           -------------------------------------------------
          | TOTAL ENERGY             -423.581136179619 Eh   |
          | TOTAL ENTHALPY           -421.854630463069 Eh   |
          | TOTAL FREE ENERGY        -422.156259701318 Eh   |
          | GRADIENT NORM               0.000516533210 Eh/α |
          | HOMO-LUMO GAP               0.000329027392 eV   |
           -------------------------------------------------

------------------------------------------------------------------------
 * finished run on 2021/11/20 at 03:06:41.335     
------------------------------------------------------------------------
 total:
 * wall-time:     0 d,  1 h, 11 min,  1.171 sec
 *  cpu-time:     0 d,  1 h, 11 min,  1.212 sec
 * ratio c/w:     1.000 speedup
 SCF:
 * wall-time:     0 d,  0 h,  0 min, 39.674 sec
 *  cpu-time:     0 d,  0 h,  0 min, 39.675 sec
 * ratio c/w:     1.000 speedup
 ANC optimizer:
 * wall-time:     0 d,  0 h,  7 min,  9.140 sec
 *  cpu-time:     0 d,  0 h,  7 min,  9.131 sec
 * ratio c/w:     1.000 speedup
 analytical hessian:
 * wall-time:     0 d,  1 h,  3 min, 12.029 sec
 *  cpu-time:     0 d,  1 h,  3 min, 12.078 sec
 * ratio c/w:     1.000 speedup

