232
 energy: -421.855382572111 gnorm: 0.934765872182 xtb: 6.4.1 (bd6e46d)
Co       34.82588100000000    0.04286800000000   -0.01312800000000
C        37.15487200000000   -3.10392600000000    1.30956100000000
C        38.07097900000000   -2.15971800000000    1.25927900000000
C        37.65980000000000   -1.10581400000000    0.33798700000000
C        38.27867000000000    0.01853200000000   -0.00842300000000
C        37.57462800000000    1.23848000000000   -0.37252800000000
C        37.90273900000000    2.19853500000000   -1.22000200000000
C        36.86795900000000    3.21482100000000   -1.23689900000000
C        35.93169100000001    2.83835900000000   -0.39000800000000
N        36.33368100000000    1.60534800000000    0.17380900000000
C        34.67061700000000    3.48335800000000   -0.01085600000000
C        33.57539900000000    2.84857500000000    0.33990400000000
C        32.50177400000000    3.16653100000000    1.30893200000000
C        31.66421100000000    2.16977700000000    1.23176600000000
C        32.10250800000000    1.16609400000000    0.25131400000000
N        33.20744700000000    1.60494700000000   -0.23297800000000
C        31.49167400000000   -0.08717700000000   -0.16223400000000
C        32.15583400000000   -1.19168300000000   -0.41665800000000
C        31.78198500000000   -2.25462500000000   -1.37418600000000
C        32.73073300000000   -3.14838000000000   -1.28516600000000
C        33.71645700000000   -2.71093100000000   -0.30228900000000
N        33.36341100000000   -1.56512600000000    0.19450800000000
C        34.94734400000000   -3.36700100000000    0.14343200000000
C        36.07038600000000   -2.72114000000000    0.41055300000000
N        36.39898600000001   -1.47369900000000   -0.18785000000000
H        37.21513400000001   -4.01370600000000    1.92710800000000
H        38.98730700000000   -2.19966700000000    1.83732700000000
H        38.83010400000000    2.21533100000000   -1.82114500000000
H        36.88485800000000    4.11950900000000   -1.84952100000000
H        34.62289400000000    4.57816100000000   -0.01463300000000
H        32.44895200000000    4.04525600000000    1.93392500000000
H        30.75258100000000    2.13410800000000    1.84909000000000
H        30.39342300000000   -0.08426600000000   -0.26150500000000
H        30.91313000000000   -2.30709000000000   -2.02313600000000
H        32.72788700000000   -4.06468900000000   -1.88392600000000
H        34.91186200000000   -4.46280300000000    0.25535700000000
Co      104.76176300000002   -0.00450900000000   -0.01756100000000
C       102.43277200000001    2.84228300000000    1.86594400000000
C       101.51666500000002    1.92379400000000    1.64137100000000
C       101.92784500000000    1.05909700000000    0.54055600000000
C       101.30897400000001    0.01853200000000   -0.00842300000000
C       102.01301599999999   -1.11269300000000   -0.59252600000000
C       101.68490600000000   -1.89886400000000   -1.60339200000000
C       102.71968600000001   -2.89437400000000   -1.80853300000000
C       103.65595399999999   -2.68155700000000   -0.90650200000000
N       103.25396300000000   -1.57454600000000   -0.12373100000000
C       104.91702800000000   -3.38569800000000   -0.65358900000000
C       106.01224499999999   -2.82700600000000   -0.19115600000000
C       107.08587100000000   -3.31921100000000    0.70206600000000
C       107.92343400000000   -2.32544400000000    0.81115100000000
C       107.48513600000000   -1.15729500000000    0.03391600000000
N       106.38019800000001   -1.49868700000000   -0.52338300000000
C       108.09597100000001    0.15094000000000   -0.13995400000000
C       107.43181000000000    1.28347300000000   -0.18506000000000
C       107.80565900000001    2.50559900000000   -0.92877500000000
C       106.85691200000001    3.36732600000000   -0.67549600000000
C       105.87118800000000    2.75513200000000    0.20916700000000
N       106.22423400000000    1.53705300000000    0.48477700000000
C       104.64030000000000    3.31712600000000    0.76886200000000
C       103.51725900000000    2.63292100000000    0.91152900000000
N       103.18865800000000    1.51814600000000    0.09209500000000
H       102.37251000000002    3.62170800000000    2.64154800000000
H       100.60033800000001    1.85581300000000    2.21679600000000
H       100.75754100000002   -1.80384800000000   -2.19721700000000
H       102.70278700000000   -3.66970800000000   -2.57835300000000
H       104.96475100000002   -4.46079600000000   -0.86040300000000
H       107.13869200000001   -4.29862800000000    1.15319300000000
H       108.83506400000000   -2.40491600000000    1.42437700000000
H       109.19422100000001    0.16649600000000   -0.23804100000000
H       108.67451500000001    2.67754300000000   -1.55672700000000
H       106.85975800000000    4.37880700000000   -1.09387400000000
H       104.67578200000000    4.37314200000000    1.08213100000000
C        41.17337400000000    0.01649600000000   -0.00953500000000
C        42.38135100000000    0.02395100000000   -0.00784000000000
C        43.80011900000000    0.02464800000000   -0.00270300000000
C        45.01563500000000    0.01649600000000   -0.00953500000000
C        54.52352500000001    0.01649600000000   -0.00953500000000
C        55.73150100000000    0.02395100000000   -0.00784000000000
C        57.15026900000000    0.02464800000000   -0.00270300000000
C        58.36578600000001    0.01649600000000   -0.00953500000000
C        67.87367500000001    0.01649600000000   -0.00953500000000
C        69.08165200000001    0.02395100000000   -0.00784000000000
C        70.50042000000001    0.02464800000000   -0.00270300000000
C        71.71593600000000    0.01649600000000   -0.00953500000000
C        81.22382500000001    0.01649600000000   -0.00953500000000
C        82.43180200000000    0.02395100000000   -0.00784000000000
C        83.85057000000000    0.02464800000000   -0.00270300000000
C        85.06608700000000    0.01649600000000   -0.00953500000000
C        94.57397600000002    0.01649600000000   -0.00953500000000
C        95.78195300000000    0.02395100000000   -0.00784000000000
C        97.20072100000000    0.02464800000000   -0.00270300000000
C        98.41623700000000    0.01649600000000   -0.00953500000000
Co       49.80421700000001    0.03663200000000    0.00260400000000
C        47.52440600000001   -3.22481500000000   -0.90706200000000
C        46.56819700000000   -2.32546500000000   -1.00908800000000
C        46.96057100000000   -1.16316000000000   -0.20657200000000
C        46.32545400000000   -0.01188700000000    0.00569400000000
C        47.01091100000000    1.26271200000000    0.23192300000000
C        46.67562100000000    2.34131200000000    0.93616300000000
C        47.70016200000000    3.36062900000000    0.84558200000000
C        48.65076000000000    2.86370400000000    0.07221700000000
N        48.27376500000000    1.54709900000000   -0.34392600000000
C        49.89789900000000    3.47540600000000   -0.34464800000000
C        50.99945100000000    2.80814900000000   -0.67642000000000
C        51.99299700000001    3.06013300000000   -1.71059000000000
C        52.88688000000000    2.09927400000000   -1.60910600000000
C        52.50718200000001    1.18739000000000   -0.50512900000000
N        51.41226700000000    1.63670900000000    0.00223800000000
C        53.16438900000000   -0.01188700000000    0.00569400000000
C        52.54097800000001   -1.08106900000000    0.46721100000000
C        52.91969000000001   -2.01318500000000    1.54268600000000
C        51.97902200000000   -2.92733100000000    1.62855200000000
C        50.97072000000000   -2.63155200000000    0.63112500000000
N        51.30849500000000   -1.57817400000000   -0.01817000000000
C        49.71832700000001   -3.33855900000000    0.29993200000000
C        48.60445100000000   -2.74186300000000   -0.04741000000000
N        48.22233800000001   -1.45910500000000    0.37027300000000
H        47.52475000000000   -4.21588900000000   -1.39829600000000
H        45.65966200000000   -2.44715900000000   -1.59023600000000
H        45.75076900000000    2.45966400000000    1.51308900000000
H        47.72745700000000    4.34979300000000    1.30223200000000
H        49.98383900000001    4.57278400000000   -0.40667100000000
H        52.02567000000000    3.86634900000000   -2.43741400000000
H        53.77994200000001    1.98630600000000   -2.24288000000000
H        53.83444100000000   -1.93877800000000    2.15285600000000
H        51.99806800000000   -3.74093900000000    2.33682000000000
H        49.75681200000000   -4.43851800000000    0.35896800000000
Co       63.15436700000001    0.03663200000000    0.00260400000000
C        60.87455600000000   -3.22481500000000   -0.90706200000000
C        59.91834700000000   -2.32546500000000   -1.00908800000000
C        60.31072100000000   -1.16316000000000   -0.20657200000000
C        59.67560500000000   -0.01188700000000    0.00569400000000
C        60.36106200000000    1.26271200000000    0.23192300000000
C        60.02577100000000    2.34131200000000    0.93616300000000
C        61.05031300000001    3.36062900000000    0.84558200000000
C        62.00091000000000    2.86370400000000    0.07221700000000
N        61.62391600000000    1.54709900000000   -0.34392600000000
C        63.24805000000001    3.47540600000000   -0.34464800000000
C        64.34960100000001    2.80814900000000   -0.67642000000000
C        65.34314800000000    3.06013300000000   -1.71059000000000
C        66.23703100000000    2.09927400000000   -1.60910600000000
C        65.85733300000000    1.18739000000000   -0.50512900000000
N        64.76241700000000    1.63670900000000    0.00223800000000
C        66.51454000000000   -0.01188700000000    0.00569400000000
C        65.89112799999999   -1.08106900000000    0.46721100000000
C        66.26984100000000   -2.01318500000000    1.54268600000000
C        65.32917200000000   -2.92733100000000    1.62855200000000
C        64.32087100000000   -2.63155200000000    0.63112500000000
N        64.65864600000000   -1.57817400000000   -0.01817000000000
C        63.06847800000000   -3.33855900000000    0.29993200000000
C        61.95460100000000   -2.74186300000000   -0.04741000000000
N        61.57248900000000   -1.45910500000000    0.37027300000000
H        60.87490100000000   -4.21588900000000   -1.39829600000000
H        59.00981300000001   -2.44715900000000   -1.59023600000000
H        59.10091900000000    2.45966400000000    1.51308900000000
H        61.07760700000000    4.34979300000000    1.30223200000000
H        63.33398900000001    4.57278400000000   -0.40667100000000
H        65.37582000000000    3.86634900000000   -2.43741400000000
H        67.13009200000000    1.98630600000000   -2.24288000000000
H        67.18459100000000   -1.93877800000000    2.15285600000000
H        65.34821900000000   -3.74093900000000    2.33682000000000
H        63.10696200000000   -4.43851800000000    0.35896800000000
Co       76.50451700000001    0.03663200000000    0.00260400000000
C        74.22470700000000   -3.22481500000000   -0.90706200000000
C        73.26849700000000   -2.32546500000000   -1.00908800000000
C        73.66087200000000   -1.16316000000000   -0.20657200000000
C        73.02575500000000   -0.01188700000000    0.00569400000000
C        73.71121200000000    1.26271200000000    0.23192300000000
C        73.37592200000000    2.34131200000000    0.93616300000000
C        74.40046300000000    3.36062900000000    0.84558200000000
C        75.35106000000000    2.86370400000000    0.07221700000000
N        74.97406599999999    1.54709900000000   -0.34392600000000
C        76.59820000000001    3.47540600000000   -0.34464800000000
C        77.69975200000000    2.80814900000000   -0.67642000000000
C        78.69329800000001    3.06013300000000   -1.71059000000000
C        79.58718100000000    2.09927400000000   -1.60910600000000
C        79.20748300000000    1.18739000000000   -0.50512900000000
N        78.11256800000000    1.63670900000000    0.00223800000000
C        79.86469000000000   -0.01188700000000    0.00569400000000
C        79.24127900000001   -1.08106900000000    0.46721100000000
C        79.61999100000000   -2.01318500000000    1.54268600000000
C        78.67932300000000   -2.92733100000000    1.62855200000000
C        77.67102100000000   -2.63155200000000    0.63112500000000
N        78.00879600000000   -1.57817400000000   -0.01817000000000
C        76.41862800000000   -3.33855900000000    0.29993200000000
C        75.30475100000001   -2.74186300000000   -0.04741000000000
N        74.92263900000000   -1.45910500000000    0.37027300000000
H        74.22505099999999   -4.21588900000000   -1.39829600000000
H        72.35996299999999   -2.44715900000000   -1.59023600000000
H        72.45107000000000    2.45966400000000    1.51308900000000
H        74.42775800000000    4.34979300000000    1.30223200000000
H        76.68414000000000    4.57278400000000   -0.40667100000000
H        78.72597000000002    3.86634900000000   -2.43741400000000
H        80.48024300000000    1.98630600000000   -2.24288000000000
H        80.53474199999999   -1.93877800000000    2.15285600000000
H        78.69836900000000   -3.74093900000000    2.33682000000000
H        76.45711300000001   -4.43851800000000    0.35896800000000
Co       89.85466800000000    0.03663200000000    0.00260400000000
C        87.57485699999999   -3.22481500000000   -0.90706200000000
C        86.61864799999999   -2.32546500000000   -1.00908800000000
C        87.01102200000000   -1.16316000000000   -0.20657200000000
C        86.37590500000000   -0.01188700000000    0.00569400000000
C        87.06136300000001    1.26271200000000    0.23192300000000
C        86.72607200000000    2.34131200000000    0.93616300000000
C        87.75061400000000    3.36062900000000    0.84558200000000
C        88.70121100000000    2.86370400000000    0.07221700000000
N        88.32421700000000    1.54709900000000   -0.34392600000000
C        89.94835000000000    3.47540600000000   -0.34464800000000
C        91.04990200000000    2.80814900000000   -0.67642000000000
C        92.04344900000001    3.06013300000000   -1.71059000000000
C        92.93733200000000    2.09927400000000   -1.60910600000000
C        92.55763400000001    1.18739000000000   -0.50512900000000
N        91.46271800000000    1.63670900000000    0.00223800000000
C        93.21484100000001   -0.01188700000000    0.00569400000000
C        92.59142900000001   -1.08106900000000    0.46721100000000
C        92.97014200000000   -2.01318500000000    1.54268600000000
C        92.02947300000000   -2.92733100000000    1.62855200000000
C        91.02117200000001   -2.63155200000000    0.63112500000000
N        91.35894700000001   -1.57817400000000   -0.01817000000000
C        89.76877899999999   -3.33855900000000    0.29993200000000
C        88.65490200000001   -2.74186300000000   -0.04741000000000
N        88.27279000000000   -1.45910500000000    0.37027300000000
H        87.57520200000000   -4.21588900000000   -1.39829600000000
H        85.71011300000001   -2.44715900000000   -1.59023600000000
H        85.80122000000000    2.45966400000000    1.51308900000000
H        87.77790800000000    4.34979300000000    1.30223200000000
H        90.03429000000000    4.57278400000000   -0.40667100000000
H        92.07612100000000    3.86634900000000   -2.43741400000000
H        93.83039300000000    1.98630600000000   -2.24288000000000
H        93.88489199999999   -1.93877800000000    2.15285600000000
H        92.04852000000001   -3.74093900000000    2.33682000000000
H        89.80726300000001   -4.43851800000000    0.35896800000000
232
 energy: -422.239853836929 gnorm: 0.542618576931 xtb: 6.4.1 (bd6e46d)
Co       34.83564624140099    0.04066965231388   -0.01254051444772
C        37.15478343444964   -3.11217848840479    1.30217218016583
C        38.08409697699246   -2.15883719812853    1.25645933407014
C        37.65503322546699   -1.10854220509011    0.34276108451407
C        38.25967392019623    0.03780191330261   -0.01008211080758
C        37.56253192713202    1.23229219783972   -0.36419240816557
C        37.91350788153818    2.22488419932216   -1.23681899010488
C        36.89653579819277    3.21659721365903   -1.24955858713273
C        35.92446436062420    2.81544972223416   -0.38227169712524
N        36.30553842181689    1.58029654492913    0.17271519793208
C        34.68837411749715    3.48276653711522   -0.01170659058889
C        33.56552533428553    2.83334688924556    0.34049528641110
C        32.50369571641143    3.17378201830269    1.29400573459977
C        31.64049688947048    2.16264609905734    1.23442512013751
C        32.09772692718857    1.16585418812826    0.26589107010639
N        33.24426513846630    1.58156093309482   -0.21519006975165
C        31.48043688454975   -0.06672130522394   -0.15596015644927
C        32.16046752759163   -1.19528503836977   -0.42122403363158
C        31.77430229009915   -2.25362127412445   -1.36207562198636
C        32.73771423126905   -3.16792062086932   -1.28254667641302
C        33.72634893361032   -2.71908236241817   -0.30901070919534
N        33.37874544424396   -1.53779476208932    0.17034800432010
C        34.92996077923524   -3.37308389031261    0.13638962694150
C        36.07591313300552   -2.70510139410874    0.41284192431485
N        36.38640974924828   -1.46278631072373   -0.16101484289874
H        37.20799122214799   -4.00870081967325    1.91992066344026
H        38.99106270304009   -2.19168550508962    1.83486294602842
H        38.82748396031928    2.22267520943564   -1.82227402206416
H        36.89061185168545    4.11628171220292   -1.85027819125646
H        34.63620576796387    4.57445647135552   -0.00914551556150
H        32.45484934395517    4.04376577886062    1.92865817735287
H        30.74918336219572    2.12633950063380    1.84779391401167
H        30.39490666084636   -0.07750952888286   -0.26591686830334
H        30.91501522914974   -2.29911205621533   -2.01664195588625
H        32.73707728800277   -4.06775575784521   -1.88067166605202
H        34.90808511464091   -4.45891917963730    0.25531947493624
Co      104.75200087436403   -0.00244291160907   -0.01658168108761
C       102.43286659963013    2.85176132847243    1.86021776752978
C       101.50356300961988    1.92345090978598    1.63843405820353
C       101.93261141642598    1.06088997974116    0.54575842502085
C       101.32789435566094   -0.00012408528731   -0.01351833911015
C       102.02512030736143   -1.10816855555669   -0.58319270162190
C       101.67414297504875   -1.92163150352844   -1.62478151718955
C       102.69112140442002   -2.89377639058767   -1.82129327701108
C       103.66318324301794   -2.66048469357630   -0.89466105701197
N       103.28208762285117   -1.54972912752965   -0.12017123022785
C       104.89926924356004   -3.38496342476009   -0.65431621934559
C       106.02211970218013   -2.81214696371081   -0.18774689715740
C       107.08394632848088   -3.32356498420004    0.68605223635347
C       107.94714755080626   -2.31892682061184    0.81508542580910
C       107.48991579625569   -1.15976464511712    0.04828322795402
N       106.34338350107011   -1.47901609536624   -0.50156839217354
C       108.10720497276178    0.12967505204778   -0.13758209508014
C       107.42717190454016    1.28786025702522   -0.18887796938383
C       107.81334015478051    2.50236713516491   -0.91706199213450
C       106.84993188478782    3.38604247041092   -0.66929701362785
C       105.86129451122956    2.76438491426221    0.20407544906433
N       106.20890687287969    1.51468231382982    0.45597344070805
C       104.65768403796125    3.32441030255288    0.76306870485544
C       103.51172749120306    2.61673052448948    0.91079469976287
N       103.20123348862361    1.50243897064578    0.11645010727049
H       102.37965025951216    3.61812508847935    2.63355693903921
H       100.59658363875111    1.84844081929314    2.21289419198904
H       100.76016568327584   -1.81084324786114   -2.19969352337941
H       102.69703998214135   -3.66640119572371   -2.57850647432704
H       104.95144350998575   -4.45818069935305   -0.85432807458331
H       107.13279587831052   -4.29618901452521    1.14829411112960
H       108.83846337075943   -2.39704217316743    1.42454497027963
H       109.19273675747800    0.16067554006540   -0.24362943586917
H       108.67262970805027    2.66849914300366   -1.55182597775094
H       106.85056689685874    4.38121821581904   -1.09010696416068
H       104.67955662684244    4.36933383653427    1.08137287254620
C        41.16368952882729    0.01676353845376   -0.00841181124760
C        42.38541143872280    0.02414699435771   -0.00789419923571
C        43.77279758629354    0.02521701441431   -0.00282434284192
C        44.99071655529218    0.02385525758482   -0.01198190568031
C        54.53924921679107    0.02293635104747   -0.00691039726954
C        55.75411901725091    0.02440406214255   -0.00638898034452
C        57.12623761908477    0.02510686635975   -0.00329531701621
C        58.34223463203872    0.02371946273056   -0.01287730389695
C        67.88935648957352    0.02297112178618   -0.00670806550893
C        69.10425331378033    0.02441527634005   -0.00634251473111
C        70.47639991374768    0.02510829060424   -0.00332433365107
C        71.69236615076025    0.02369893722913   -0.01294648222620
C        81.23944082151552    0.02296353176039   -0.00670236231102
C        82.45448417573260    0.02442621821091   -0.00630207727107
C        83.82645682800754    0.02510344618427   -0.00331699002007
C        85.04249703597705    0.02366154788440   -0.01299353239677
C        94.59189504513932    0.02322495286163   -0.00658636734262
C        95.80854380603922    0.02432264614087   -0.00673057561664
C        97.19905003135503    0.02405189599081   -0.00305875160186
C        98.42137825832710    0.01612325031158   -0.00904686202637
Co       49.79591964571893    0.03794588267899    0.00219672635930
C        47.52609855925895   -3.24162887943196   -0.90096032985972
C        46.56281878756808   -2.32410015227201   -1.00132403415325
C        46.98709577037768   -1.17757807735697   -0.20938776093847
C        46.34141169316233    0.00639521517210    0.00504739891089
C        47.03949501311099    1.26516283602441    0.22825692985202
C        46.66753255360965    2.36621726180719    0.94654551998298
C        47.67711437885693    3.36198966054693    0.85258714284953
C        48.66190427455052    2.84398877134733    0.06680728485733
N        48.30204233149919    1.52921091152284   -0.32976897495830
C        49.88415406651259    3.47575548003839   -0.34561039772655
C        51.00747558618839    2.79626690844708   -0.67682332325106
C        51.99812759343515    3.06714497155876   -1.69925258450604
C        52.90598724587942    2.08826495252960   -1.60748667313542
C        52.50755656824531    1.18640406318871   -0.52032948100529
N        51.37542825545628    1.61523751058954   -0.01413072144992
C        53.16728226579447    0.00452268024634   -0.00291769717835
C        52.52477569923854   -1.09354424174046    0.47484921454238
C        52.93097010047330   -2.01140528121755    1.53355812483824
C        51.97503725619490   -2.94239671803640    1.62757923176987
C        50.95958075587188   -2.63855536465768    0.63907781285874
N        51.28908329374391   -1.54076039589040   -0.00676750281244
C        49.73810386494971   -3.34568847095465    0.30903342459616
C        48.59325334285757   -2.72917178569845   -0.05435872400152
N        48.24016968447534   -1.44255575752536    0.33955575091025
H        47.52907634157651   -4.21248599220905   -1.39472016723220
H        45.66069764003755   -2.43839452356508   -1.58599529613015
H        45.75088264730770    2.46302616103495    1.51387853519523
H        47.71833038978984    4.34443971255136    1.30401650714090
H        49.96935738309054    4.56749565907253   -0.41135635203373
H        52.01940147756819    3.86471113683703   -2.43033689750451
H        53.77999554836227    1.98076619138079   -2.23977118108160
H        53.82927102841494   -1.93433938629017    2.14552419514312
H        51.99168718274089   -3.74598700094606    2.33719269944558
H        49.76176313560539   -4.43607558603692    0.35704389961388
Co       63.14571024705675    0.03792225670086    0.00222121296204
C        60.87573016412359   -3.24161445266096   -0.90112275429089
C        59.91269029894398   -2.32477990440615   -1.00101913898306
C        60.33723631308078   -1.17735234789209   -0.20848604789317
C        59.69272002439929    0.00600810559519    0.00494056303320
C        60.38987097488556    1.26551259127253    0.22813633804569
C        60.01771290741758    2.36639831301984    0.94663228347725
C        61.02703021828517    3.36201752971374    0.85257568475814
C        62.01217014666766    2.84373816023135    0.06664335256224
N        61.65229277616432    1.52919835205562   -0.32960476343127
C        63.23414466997379    3.47558843343611   -0.34542899630003
C        64.35774650135382    2.79605687634138   -0.67687458513791
C        65.34825779360274    3.06715744318731   -1.69931963560810
C        66.25617952755324    2.08827925517921   -1.60754983321161
C        65.85746655199885    1.18658334630160   -0.52044037673871
N        64.72564993427525    1.61525394254433   -0.01443621778751
C        66.51733305763481    0.00431611572766   -0.00278363316397
C        65.87499238652632   -1.09357834526281    0.47471366343960
C        66.28129303247876   -2.01159333013579    1.53363519343478
C        65.32538113151008   -2.94233252618814    1.62771923688756
C        64.30989697421624   -2.63798217828325    0.63912242310387
N        64.63925601996253   -1.54100559772902   -0.00663007206933
C        63.08791065021954   -3.34556121784094    0.30872623153509
C        61.94384119243353   -2.72886905882086   -0.05423601547360
N        61.59083446027233   -1.44247368237771    0.33945034616464
H        60.87913208304131   -4.21247980397203   -1.39480519081602
H        59.01083625937822   -2.43852030084388   -1.58614638081134
H        59.10102174458628    2.46311138966353    1.51398326337435
H        61.06838862505781    4.34449101133116    1.30395056664248
H        63.31950218507718    4.56743645744276   -0.41119663910784
H        65.36955555454453    3.86473196711714   -2.43034629814496
H        67.13016628677489    1.98077602056372   -2.23977510086541
H        67.17947831573937   -1.93437392045509    2.14557754495957
H        65.34184540027107   -3.74596140268436    2.33723974620115
H        63.11188486519993   -4.43600093591552    0.35682804882585
Co       76.49579968978313    0.03791365069466    0.00221704515152
C        74.22581538950601   -3.24162280561305   -0.90112109161242
C        73.26283534807791   -2.32485217715825   -1.00100494366202
C        73.68737722638022   -1.17729133294501   -0.20843799183238
C        73.04288709932987    0.00596616126655    0.00491418083527
C        73.74000180254730    1.26555015815581    0.22818002074763
C        73.36787340936900    2.36638088366043    0.94665027200934
C        74.37718585072300    3.36201273342440    0.85256878674462
C        75.36233361090396    2.84373349149344    0.06663581922410
N        75.00244591473852    1.52918981345583   -0.32957966604836
C        76.58428360072911    3.47557882535474   -0.34542013174277
C        77.70790933388646    2.79607388770108   -0.67688416010865
C        78.69839906443134    3.06717538228546   -1.69931490313590
C        79.60631041004950    2.08825895523940   -1.60756968240559
C        79.20756266538206    1.18662670444641   -0.52046426644233
N        78.07585770523784    1.61526684619754   -0.01444685952373
C        79.86756822394877    0.00427353342166   -0.00275774077856
C        79.22519632954847   -1.09360318519083    0.47471867260942
C        79.63146396695730   -2.01155959420660    1.53361263227732
C        78.67550013013219   -2.94230757637232    1.62772829121710
C        77.66012034495738   -2.63791223557994    0.63918275872045
N        77.98942012581148   -1.54107278154842   -0.00661231044354
C        76.43794122513654   -3.34557933631628    0.30866262200509
C        75.29405360321451   -2.72890496194913   -0.05417404601133
N        74.94102719096841   -1.44239560156048    0.33944772552970
H        74.22926873667406   -4.21248307718388   -1.39481376086880
H        72.36098915451699   -2.43853332953183   -1.58616809400905
H        72.45116894701860    2.46311722993755    1.51399460293395
H        74.41853380576086    4.34449888633637    1.30393503237569
H        76.66965025699029    4.56743446709894   -0.41119774224964
H        78.71970682252578    3.86473872469065   -2.43034594521686
H        80.48031372492540    1.98077342257209   -2.23975975750073
H        80.52963528928099   -1.93437164507934    2.14556139372735
H        78.69198329738727   -3.74595354459415    2.33723512453479
H        76.46203407087611   -4.43600881530927    0.35674077251123
Co       89.84584848166044    0.03784918525242    0.00211319831213
C        87.57591718627106   -3.24166163284178   -0.90102034385266
C        86.61308797970622   -2.32485428653622   -1.00099740604564
C        87.03746557685278   -1.17714949085165   -0.20843958726505
C        86.39288921771384    0.00590108261928    0.00486125972401
C        87.08987986970087    1.26562282529821    0.22830121378274
C        86.71800102128502    2.36615654602028    0.94658147629596
C        87.72754326565368    3.36193982742773    0.85256493771910
C        88.71252734638445    2.84393007362226    0.06671000256563
N        88.35263542354349    1.52924079195268   -0.32963242110670
C        89.93452188608589    3.47566286586074   -0.34546619608264
C        91.05811490729552    2.79632642929274   -0.67684631541825
C        92.04852178648822    3.06726552173227   -1.69918211081063
C        92.95630130305810    2.08807857213648   -1.60771466278750
C        92.55761992457438    1.18613311992466   -0.52109997864249
N        91.42645626213690    1.61512264996977   -0.01430628973628