232
 energy: -423.581136213976 gnorm: 0.000516381637 xtb: 6.4.1 (bd6e46d)
Co       36.23289942444267    0.00620311525146   -0.00078331181237
C        38.72295599239678   -3.40509635390303    0.12944814214910
C        39.67672573058498   -2.44803136111130    0.07574975425919
C        38.98864480620619   -1.19423869350467    0.02676528088119
C        39.65504899308748    0.03220693959926   -0.01257523001024
C        38.97002194523760    1.24889324073239   -0.00499065544592
C        39.63884560823875    2.51387597054909    0.01165941751514
C        38.67077595127869    3.45692980217254    0.05666170606413
C        37.42161450187262    2.75815178321289    0.05639060325078
N        37.61608700854423    1.40217816448811    0.01917716130639
C        36.20228395075675    3.40004652608691    0.07140209465447
C        34.99570370814877    2.73705040013404    0.01804178075435
C        33.73137145929630    3.41207560145241   -0.02013973652771
C        32.78624181091454    2.45139262218816   -0.10932638449745
C        33.47986743015891    1.19630956041715   -0.11301335010196
N        34.83176942049047    1.38079673012401   -0.03535520534698
C        32.83468942975627   -0.02052498280083   -0.16694454949255
C        33.49908183658411   -1.22707887448871   -0.11637800487598
C        32.82550372083334   -2.49302655302740   -0.11776869878040
C        33.78500285079328   -3.43848621261950   -0.01952176800988
C        35.03803235563178   -2.74340671296389    0.02960912436364
N        34.85327249295295   -1.39014588109288   -0.02976653278349
C        36.25395975616783   -3.38688292529996    0.10636790016516
C        37.46320252446655   -2.72612114263017    0.10226426681277
N        37.63715777849890   -1.36803877093113    0.04315260021909
H        38.83888998617503   -4.47035189139805    0.17754986877744
H        40.74390596823079   -2.55483592061476    0.07253640555497
H        40.70419096034037    2.63717521530475   -0.00392168869813
H        38.77052714795126    4.52457316715220    0.08308245330514
H        36.19367665235334    4.47887701409820    0.10653332438524
H        33.61123195054665    4.47766510532293    0.01240351080190
H        31.71981228644327    2.55524412370273   -0.16331005409011
H        31.75731493962413   -0.02897815605667   -0.23093051415725
H        31.76131648558889   -2.61380591507859   -0.18040123958072
H        33.68150983041665   -4.50580247470258    0.01328898906742
H        36.26161897718517   -4.46532877446095    0.15222934716974
Co      103.38141710460043    0.03634813244650   -0.00090502056691
C       100.89407796109602    3.39372827592108    0.63013644614920
C        99.93960417610347    2.45717616348262    0.42951460249810
C       100.62658503794650    1.22257944526015    0.20201764639563
C        99.95889814735644    0.01483127721504   -0.01021464355984
C       100.64250797707848   -1.19003852508437   -0.18408481797839
C        99.97229584206475   -2.44234048602542   -0.35839685223218
C       100.93966118360593   -3.37960382210074   -0.47774346026012
C       102.18961884306624   -2.68854986499310   -0.38384565314242
N       101.99646958328060   -1.34433784757713   -0.20016136370838
C       103.40808273324785   -3.32285986831029   -0.49327950020275
C       104.61505187106552   -2.66017932692786   -0.44529144221647
C       105.87817875236830   -3.31973083959999   -0.60378268425265
C       106.82495187188427   -2.36010773100168   -0.52111029083122
C       106.13337957497765   -1.12290258438359   -0.30333046809860
N       104.78100236812928   -1.31555746503143   -0.26173705945652
C       106.78102615688393    0.08229653266959   -0.13646245461812
C       106.11810715777786    1.26405544661406    0.11574659155560
C       106.79353462833672    2.50983925329606    0.33534661519464
C       105.83387523624633    3.43040621690509    0.57112134255465
C       104.57917917407288    2.74201831728468    0.48410060995442
N       104.76303863492281    1.41566710455022    0.20844594279264
C       103.36301598073923    3.37069889511394    0.63861369537951
C       102.15315173100333    2.72303192462306    0.51362174353865
N       101.97822835058396    1.38951433824355    0.25094394323758
H       100.77905089145827    4.44041059904330    0.83431098879936
H        98.87257418134757    2.56554264090143    0.43565319361632
H        98.90667985416789   -2.56225110757416   -0.37994458139880
H       100.83897382927989   -4.43787879635026   -0.62065396173048
H       103.41556447421569   -4.39220757045134   -0.64044277860556
H       105.99654048441288   -4.37454076303639   -0.75985606500361
H       107.89124000054353   -2.45459027141731   -0.59217581865979
H       107.85893209359693    0.09838181517951   -0.18869764147346
H       107.85878376242208    2.63483509134693    0.31105368984931
H       105.93826456429929    4.47740716658651    0.78048124697306
H       103.35599966113392    4.42878928308208    0.85201351823374
C        41.05305209744071    0.04216653810835   -0.03184816287094
C        42.27059085242384    0.05000415861874   -0.04416813600221
C        43.61316595497169    0.05638767513885   -0.05082006689702
C        44.83087666113276    0.05945216935388   -0.05166081676750
C        54.48340579664863    0.05625794695711   -0.02524676465050
C        55.70138739582830    0.05351717518582   -0.02644422919463
C        57.04383946652629    0.05094540374354   -0.02650132390033
C        58.26182781847961    0.04764736520370   -0.02596079331625
C        67.91732361960042    0.05117877173961   -0.01938681983434
C        69.13537799414880    0.04558464009247   -0.01859698850565
C        70.47795185982508    0.04312175037485   -0.01959955232431
C        71.69600692124321    0.03722080079352   -0.01955883324581
C        81.35165615461604    0.03808996713580   -0.02353438191948
C        82.56964247147825    0.03346178311801   -0.02497021967050
C        83.91211285366477    0.03073103792854   -0.02663538085127
C        85.13008398298003    0.02599529992368   -0.02764771893104
C        94.78271885535942    0.01294974431716   -0.04139763674922
C        96.00038972393885    0.00959363675389   -0.04409861047946
C        97.34311561772734    0.00955321590877   -0.03832098284988
C        98.56065780856093    0.00957661812872   -0.02710883341673
Co       49.65705073341625    0.06022788213734   -0.02428878175225
C        47.18653970877959   -3.35157589531405    0.33420783085320
C        46.22572692312285   -2.40726115667123    0.21734074704919
C        46.90482504207869   -1.15445789159376    0.08681739995034
C        46.22851509948788    0.06019676324046   -0.04550004389666
C        46.90626170732848    1.27520955502324   -0.16570431560460
C        46.22874936682246    2.52884164787247   -0.29634502185452
C        47.19088409419042    3.47441903380431   -0.39004889044043
C        48.44405972737472    2.78739558373104   -0.31637666000058
N        48.25876409175720    1.43666769702912   -0.17724540441385
C        49.65895963412341    3.43276891961513   -0.38605515317473
C        50.87280063553395    2.78480784682512   -0.32148505842417
C        52.12665995695574    3.46971147150648   -0.40195668809019
C        53.08781962015643    2.52364582207488   -0.30297753010942
C        52.40914847023363    1.27186627301389   -0.16182544811375
N        51.05674840355534    1.43461523948340   -0.17501107876245
C        53.08582726715838    0.05791540040424   -0.02350633704466
C        52.40744544914714   -1.15448787676684    0.12017176036242
C        53.08441759279619   -2.40600275973236    0.27149677315108
C        52.12195163038212   -3.34938620665988    0.38247651089517
C        50.86906498077922   -2.66349518093567    0.29581750213414
N        51.05484433539350   -1.31501942470641    0.13650808184776
C        49.65439759387541   -3.30982771889551    0.36065048203539
C        48.44051399861458   -2.66487577826271    0.27240893801219
N        48.25701301790806   -1.31544324574024    0.11906633372676
H        47.07879765197874   -4.41231278938943    0.45113252750945
H        45.15937087123777   -2.52202916031806    0.21779959269314
H        45.16243890437656    2.64334499495830   -0.31183043383624
H        47.08452098213866    4.53611556808044   -0.49938131138675
H        49.65991162212041    4.50627389987741   -0.49986153098789
H        52.23394638719540    4.53053631082042   -0.51852727548178
H        54.15420255108484    2.63692832334153   -0.31997567662997
H        54.15062878883955   -2.52085213604818    0.28791857852930
H        52.22777375004980   -4.40910472863424    0.50981116066363
H        49.65385109079942   -4.38213604677788    0.48514010583525
Co       63.08927903900079    0.04944965192185   -0.02228713115753
C        60.62285462781067   -3.36028784005277    0.37640834854422
C        59.66046329054429   -2.41700521647452    0.26376599444300
C        60.33756985059694   -1.16495011004156    0.11750323556937
C        59.65939290968394    0.04764169825140   -0.02538133424614
C        60.33669538981006    1.26091853909827   -0.16713637165852
C        59.65854534398108    2.51226393672045   -0.31465463187123
C        60.62012813651279    3.45660913444778   -0.42516184906954
C        61.87369273275429    2.77123721510312   -0.34372802255862
N        61.68913596533918    1.42249537368596   -0.18532034790837
C        63.08799026523941    3.41712245940541   -0.41911119625265
C        64.30279096904245    2.77224237155768   -0.34262030082169
C        65.55571464364613    3.45883138826160   -0.42343264854159
C        66.51816824831505    2.51548695460828   -0.31184544601723
C        65.84122342803676    1.26346992087959   -0.16457872124215
N        64.48858045353091    1.42378271449736   -0.18355627934059
C        66.51963387792918    0.05106777224420   -0.02069848941161
C        65.84214568334443   -1.16192911153820    0.12345875718101
C        66.52010493922465   -2.41307607542468    0.27358260555400
C        65.55842964594049   -3.35724304843955    0.38488125979665
C        64.30494575161794   -2.67195368894577    0.30187855149189
N        64.48966502090343   -1.32346574066430    0.14163759933090
C        63.09067325956422   -3.31804833164643    0.37631663996121
C        61.87583944854897   -2.67353888411505    0.29765920279871
N        61.69015806698619   -1.32507987789217    0.13834362469146
H        60.51683535071717   -4.42031811815452    0.50103632776527
H        58.59419764242303   -2.53218982566805    0.27556143953624
H        58.59220593776649    2.62633110853176   -0.32861388813045
H        60.51310591214959    4.51652294501264   -0.54989744884506
H        63.08754795012130    4.48922979158034   -0.54546777005183
H        65.66156003720353    4.51883203001350   -0.54846714260482
H        67.58442249340830    2.63057894198357   -0.32527658327070
H        67.58641380147685   -2.52720417509008    0.28835088045851
H        65.66526082524679   -4.41698122718293    0.51120739007100
H        63.09115493492031   -4.39008180792816    0.50330158763148
Co       76.52409975683609    0.03785715951963   -0.02044716473278
C        74.05704590908114   -3.37097658846989    0.38173217395716
C        73.09476440216822   -2.42743991258698    0.27019387465363
C        73.77193923847371   -1.17555848011089    0.12280370767544
C        73.09369986593835    0.03711747035942   -0.01967740039812
C        73.77138630291395    1.25014484834181   -0.16251583374446
C        73.09368305953683    2.50179460740347   -0.30957837501443
C        74.05555208178107    3.44573030522133   -0.42104807532621
C        75.30889707226844    2.75985045862066   -0.34076771269886
N        75.12391957239535    1.41123833874010   -0.18193362037963
C        76.52328354679265    3.40546619085858   -0.41739815369018
C        77.73801765046396    2.76036299739808   -0.34216104933880
C        78.99111625768076    3.44653576014672   -0.42400550555944
C        79.95335291194515    2.50282729582391   -0.31359630566897
C        79.27605463338537    1.25111287907559   -0.16542538159001
N        77.92348674458125    1.41182768707213   -0.18325642391905
C        79.95407357538750    0.03845447243380   -0.02242365172309
C        79.27654743595608   -1.17437886453821    0.12216628865595
C        79.95442319450254   -2.42574163949338    0.27085700257785
C        78.99263637565397   -3.36964759210660    0.38331340486440
C        77.73922082458141   -2.68399684803567    0.30191285082653
N        77.92406007085880   -1.33551889279964    0.14168306050736
C        76.52480854920809   -3.32959252077725    0.37806389813962
C        75.31010014060197   -2.68459306308178    0.30118046774237
N        75.12453694667153   -1.33610320045699    0.14199915443256
H        73.95096175817720   -4.43096014003841    0.50666946633350
H        72.02849827287112   -2.54237837782078    0.28338079973682
H        72.02738628775555    2.61632683575894   -0.32265964337531
H        73.94897289570339    4.50568420967041   -0.54581407585292
H        76.52297662715526    4.47758686335440   -0.54364363128594
H        79.09732135223439    4.50650215744109   -0.54901557350437
H        81.01963480216152    2.61752761483373   -0.32802539804840
H        81.02073725674141   -2.54011247034691    0.28437933652338
H        79.09940030663584   -4.42942737055970    0.50938108929444
H        76.52510490491420   -4.40162736510150    0.50504504363117
Co       89.95658438246441    0.02001343603378   -0.02932252755254
C        87.48539450149744   -3.38814285440439    0.35113366246409
C        86.52466089229222   -2.44149070259562    0.25376287314885
C        87.20384626681148   -1.19033620455926    0.10928473894698
C        86.52768590342517    0.02406891236376   -0.02768315245644
C        87.20662816322280    1.23713553701713   -0.16293222159125
C        86.53022572648885    2.49037158285202   -0.30216349222122
C        87.49305841951744    3.43536602227245   -0.39474511541909
C        88.74564878259484    2.74846307578048   -0.31163908112139
N        88.55925806162200    1.39788891600972   -0.17192012572946
C        89.96061177422555    3.39546352413875   -0.36287328203850
C        91.17423338785507    2.74824553307004   -0.28801474108176
C        92.42860624628867    3.43477497265230   -0.34372773273685
C        93.38907716657332    2.48719601040588   -0.25332214473426
C        92.70937573341637    1.23273198609484   -0.14319689903884
N        91.35712581555454    1.39589900860745   -0.16213717835427
C        93.38491825439839    0.01486803263008   -0.04061086901746
C        92.70650505892577   -1.20073830424269    0.06830614357595
C        93.38326991782222   -2.45667704608766    0.17930774847330
C        92.42067363602104   -3.40082736972922    0.28190194585174
C        91.16797180116515   -2.71081234428835    0.23164167208660
N        91.35393536388644   -1.35967398263259    0.09765907628736
C        89.95297009333687   -3.35423895076700    0.31590141636958
C        88.73950153927531   -2.70443038691182    0.26460648503778
N        88.55615175008045   -1.35406940605828    0.11899396777071
H        87.37767228915635   -4.44874593410330    0.46923789186087
H        85.45825335446527   -2.55395778624476    0.27444264926906
H        85.46409694719846    2.60525566550554   -0.32259388659562
H        87.38766766172925    4.49673462243697   -0.50799878377556
H        89.96173129938826    4.46979851846847   -0.46853337624657
H        92.53682503772350    4.49753285941451   -0.44020802607901
H        94.45557846160537    2.60077127516272   -0.25966859132777
H        94.44943229219416   -2.57340348871838    0.17831663090972
H        92.52648315043322   -4.46338405192811    0.38306788905230
H        89.95168303141310   -4.42801618181708    0.42706919899809
