      -----------------------------------------------------------      
     |                   =====================                   |     
     |                           x T B                           |     
     |                   =====================                   |     
     |                         S. Grimme                         |     
     |          Mulliken Center for Theoretical Chemistry        |     
     |                    University of Bonn                     |     
      -----------------------------------------------------------      

   * xtb version 6.4.1 (bd6e46d) compiled by 'conda@4901f00b25ba' on 2021-06-10

   xtb is free software: you can redistribute it and/or modify it under
   the terms of the GNU Lesser General Public License as published by
   the Free Software Foundation, either version 3 of the License, or
   (at your option) any later version.
   
   xtb is distributed in the hope that it will be useful,
   but WITHOUT ANY WARRANTY; without even the implied warranty of
   MERCHANTABILITY or FITNESS FOR A PARTICULAR PURPOSE.  See the
   GNU Lesser General Public License for more details.
   
   Cite this work as:
   * C. Bannwarth, E. Caldeweyher, S. Ehlert, A. Hansen, P. Pracht,
     J. Seibert, S. Spicher, S. Grimme, WIREs Comput. Mol. Sci., 2020, 11,
     e01493. DOI: 10.1002/wcms.1493
   
   for GFN2-xTB:
   * C. Bannwarth, S. Ehlert and S. Grimme., J. Chem. Theory Comput., 2019,
     15, 1652-1671. DOI: 10.1021/acs.jctc.8b01176
   for GFN1-xTB:
   * S. Grimme, C. Bannwarth, P. Shushkov, J. Chem. Theory Comput., 2017,
     13, 1989-2009. DOI: 10.1021/acs.jctc.7b00118
   for GFN0-xTB:
   * P. Pracht, E. Caldeweyher, S. Ehlert, S. Grimme, ChemRxiv, 2019, preprint.
     DOI: 10.26434/chemrxiv.8326202.v1
   for GFN-FF:
   * S. Spicher and S. Grimme, Angew. Chem. Int. Ed., 2020, 59, 15665-15673.
     DOI: 10.1002/anie.202004239
   
   for DFT-D4:
   * E. Caldeweyher, C. Bannwarth and S. Grimme, J. Chem. Phys., 2017,
     147, 034112. DOI: 10.1063/1.4993215
   * E. Caldeweyher, S. Ehlert, A. Hansen, H. Neugebauer, S. Spicher,
     C. Bannwarth and S. Grimme, J. Chem. Phys., 2019, 150, 154122.
     DOI: 10.1063/1.5090222
   * E. Caldeweyher, J.-M. Mewes, S. Ehlert and S. Grimme, Phys. Chem. Chem. Phys.
     2020, 22, 8499-8512. DOI: 10.1039/D0CP00502A
   
   for sTDA-xTB:
   * S. Grimme and C. Bannwarth, J. Chem. Phys., 2016, 145, 054103.
     DOI: 10.1063/1.4959605
   
   in the mass-spec context:
   * V. Asgeirsson, C. Bauer and S. Grimme, Chem. Sci., 2017, 8, 4879.
     DOI: 10.1039/c7sc00601b
   * J. Koopman and S. Grimme, ACS Omega 2019, 4, 12, 15120-15133.
     DOI: 10.1021/acsomega.9b02011
   
   for metadynamics refer to:
   * S. Grimme, J. Chem. Theory Comput., 2019, 155, 2847-2862
     DOI: 10.1021/acs.jctc.9b00143
   
   for SPH calculations refer to:
   * S. Spicher and S. Grimme, J. Chem. Theory Comput., 2021, 17, 1701-1714
     DOI: 10.1021/acs.jctc.0c01306
   
   with help from (in alphabetical order)
   P. Atkinson, C. Bannwarth, F. Bohle, G. Brandenburg, E. Caldeweyher
   M. Checinski, S. Dohm, S. Ehlert, S. Ehrlich, I. Gerasimov, J. Koopman
   C. Lavigne, S. Lehtola, F. März, M. Müller, F. Musil, H. Neugebauer
   J. Pisarek, C. Plett, P. Pracht, J. Seibert, P. Shushkov, S. Spicher
   M. Stahn, M. Steiner, T. Strunk, J. Stückrath, T. Rose, and J. Unsleber
   
 * started run on 2021/11/21 at 01:40:12.103     

           -------------------------------------------------
          |                Calculation Setup                |
           -------------------------------------------------

          program call               : /home/jeff/miniconda3/bin/xtb /home/jeff/chem/final-year-proejct/Zn+2_4_3_outenergy/input_structure.xyz --gfn 2 --parallel 1 --etemp 300 --chrg 0 --uhf 0 -I det_control.in
          coordinate file            : /home/jeff/chem/final-year-proejct/Zn+2_4_3_outenergy/input_structure.xyz
          omp threads                :                     1
          number of atoms            :                   115
          number of electrons        :                   370
          charge                     :                     0
          spin                       :                   0.0
          first test random number   :      0.67184836583830

   ID    Z sym.   atoms
    1   30 Zn     1, 37, 81
    2    6 C      2-9, 11-15, 17-21, 23, 24, 38-45, 47-51, 53-57, 59, 60,
                  73-80, 82-89, 91-95, 97-101, 103, 104
    3    7 N      10, 16, 22, 25, 46, 52, 58, 61, 90, 96, 102, 105
    4    1 H      26-36, 62-72, 106-115

           -------------------------------------------------
          |                 G F N 2 - x T B                 |
           -------------------------------------------------

        Reference                      10.1021/acs.jctc.8b01176
      * Hamiltonian:
        H0-scaling (s, p, d)           1.850000    2.230000    2.230000
        zeta-weighting                 0.500000
      * Dispersion:
        s8                             2.700000
        a1                             0.520000
        a2                             5.000000
        s9                             5.000000
      * Repulsion:
        kExp                           1.500000    1.000000
        rExp                           1.000000
      * Coulomb:
        alpha                          2.000000
        third order                    shell-resolved
        anisotropic                    true
        a3                             3.000000
        a5                             4.000000
        cn-shift                       1.200000
        cn-exp                         4.000000
        max-rad                        5.000000


          ...................................................
          :                      SETUP                      :
          :.................................................:
          :  # basis functions                 364          :
          :  # atomic orbitals                 364          :
          :  # shells                          198          :
          :  # electrons                       370          :
          :  max. iterations                   250          :
          :  Hamiltonian                  GFN2-xTB          :
          :  restarted?                      false          :
          :  GBSA solvation                  false          :
          :  PC potential                    false          :
          :  electronic temp.          300.0000000     K    :
          :  accuracy                    1.0000000          :
          :  -> integral cutoff          0.2500000E+02      :
          :  -> integral neglect         0.1000000E-07      :
          :  -> SCF convergence          0.1000000E-05 Eh   :
          :  -> wf. convergence          0.1000000E-03 e    :
          :  Broyden damping             0.4000000          :
          ...................................................

 iter      E             dE          RMSdq      gap      omega  full diag
   1   -201.6655784 -0.201666E+03  0.682E+00    1.04       0.0  T
   2   -202.0739780 -0.408400E+00  0.356E+00    0.98       1.0  T
   3   -201.9932078  0.807703E-01  0.247E+00    1.10       1.0  T
   4   -202.4029853 -0.409778E+00  0.410E-01    1.02       1.0  T
   5   -202.4052424 -0.225710E-02  0.278E-01    1.04       1.0  T
   6   -202.4074018 -0.215941E-02  0.180E-01    1.04       1.0  T
   7   -202.4100212 -0.261941E-02  0.859E-02    1.03       1.0  T
   8   -202.4107100 -0.688735E-03  0.373E-02    1.03       1.0  T
   9   -202.4108682 -0.158268E-03  0.145E-02    1.03       1.0  T
  10   -202.4108809 -0.126774E-04  0.581E-03    1.03       1.6  T
  11   -202.4108823 -0.135495E-05  0.197E-03    1.03       4.7  T
  12   -202.4108824 -0.157062E-06  0.102E-03    1.03       9.1  T
  13   -202.4108824 -0.274127E-07  0.349E-04    1.03      26.7  T
  14   -202.4108824 -0.856735E-08  0.190E-04    1.03      49.0  T

   *** convergence criteria satisfied after 14 iterations ***

         #    Occupation            Energy/Eh            Energy/eV
      -------------------------------------------------------------
         1        2.0000           -0.6675964             -18.1662
       ...           ...                  ...                  ...
       179        2.0000           -0.3859790             -10.5030
       180        2.0000           -0.3699718             -10.0674
       181        2.0000           -0.3696622             -10.0590
       182        2.0000           -0.3689776             -10.0404
       183        2.0000           -0.3689660             -10.0401
       184        2.0000           -0.3604666              -9.8088
       185        2.0000           -0.3507599              -9.5447 (HOMO)
       186                         -0.3127736              -8.5110 (LUMO)
       187                         -0.3022125              -8.2236
       188                         -0.2992045              -8.1418
       189                         -0.2983016              -8.1172
       190                         -0.2982883              -8.1168
       ...                                ...                  ...
       364                          1.6316619              44.3998
      -------------------------------------------------------------
                  HL-Gap            0.0379863 Eh            1.0337 eV
             Fermi-level           -0.3317667 Eh           -9.0278 eV

 SCC (total)                   0 d,  0 h,  0 min,  0.587 sec
 SCC setup                      ...        0 min,  0.002 sec (  0.380%)
 Dispersion                     ...        0 min,  0.005 sec (  0.810%)
 classical contributions        ...        0 min,  0.001 sec (  0.124%)
 integral evaluation            ...        0 min,  0.042 sec (  7.123%)
 iterations                     ...        0 min,  0.383 sec ( 65.354%)
 molecular gradient             ...        0 min,  0.151 sec ( 25.729%)
 printout                       ...        0 min,  0.003 sec (  0.478%)

         :::::::::::::::::::::::::::::::::::::::::::::::::::::
         ::                     SUMMARY                     ::
         :::::::::::::::::::::::::::::::::::::::::::::::::::::
         :: total energy            -198.741677723043 Eh    ::
         :: gradient norm              0.000489530949 Eh/a0 ::
         :: HOMO-LUMO gap              1.033659525464 eV    ::
         ::.................................................::
         :: SCC energy              -202.410882447426 Eh    ::
         :: -> isotropic ES            0.195066175154 Eh    ::
         :: -> anisotropic ES          0.027807621888 Eh    ::
         :: -> anisotropic XC          0.111715429361 Eh    ::
         :: -> dispersion             -0.181795533541 Eh    ::
         :: repulsion energy           3.671804385394 Eh    ::
         :: add. restraining           0.000000000000 Eh    ::
         :: total charge               0.000000000000 e     ::
         :::::::::::::::::::::::::::::::::::::::::::::::::::::

           -------------------------------------------------
          |                Property Printout                |
           -------------------------------------------------

    * Orbital Energies and Occupations

         #    Occupation            Energy/Eh            Energy/eV
      -------------------------------------------------------------
         1        2.0000           -0.6675964             -18.1662
       ...           ...                  ...                  ...
       173        2.0000           -0.4000155             -10.8850
       174        2.0000           -0.3922490             -10.6736
       175        2.0000           -0.3897381             -10.6053
       176        2.0000           -0.3895093             -10.5991
       177        2.0000           -0.3873617             -10.5406
       178        2.0000           -0.3860036             -10.5037
       179        2.0000           -0.3859790             -10.5030
       180        2.0000           -0.3699718             -10.0674
       181        2.0000           -0.3696622             -10.0590
       182        2.0000           -0.3689776             -10.0404
       183        2.0000           -0.3689660             -10.0401
       184        2.0000           -0.3604666              -9.8088
       185        2.0000           -0.3507599              -9.5447 (HOMO)
       186                         -0.3127736              -8.5110 (LUMO)
       187                         -0.3022125              -8.2236
       188                         -0.2992045              -8.1418
       189                         -0.2983016              -8.1172
       190                         -0.2982883              -8.1168
       191                         -0.2933900              -7.9835
       192                         -0.2689008              -7.3172
       193                         -0.2597761              -7.0689
       194                         -0.2558696              -6.9626
       195                         -0.2259504              -6.1484
       196                         -0.2253311              -6.1316
       ...                                ...                  ...
       364                          1.6316619              44.3998
      -------------------------------------------------------------
                  HL-Gap            0.0379863 Eh            1.0337 eV
             Fermi-level           -0.3317667 Eh           -9.0278 eV

     #   Z          covCN         q      C6AA      α(0)
     1  30 Zn       3.042     0.245   122.299    21.603
     2   6 C        3.020    -0.052    29.267     8.874
     3   6 C        3.018    -0.050    29.228     8.868
     4   6 C        3.166     0.077    25.944     8.324
     5   6 C        2.953     0.017    27.630     8.621
     6   6 C        3.165     0.077    25.946     8.324
     7   6 C        3.018    -0.050    29.226     8.868
     8   6 C        3.020    -0.052    29.267     8.874
     9   6 C        3.149     0.076    26.053     8.349
    10   7 N        2.632    -0.177    24.837     7.402
    11   6 C        2.901    -0.050    29.235     8.866
    12   6 C        3.145     0.077    26.040     8.349
    13   6 C        3.017    -0.051    29.245     8.871
    14   6 C        3.018    -0.051    29.248     8.871
    15   6 C        3.145     0.077    26.029     8.347
    16   7 N        2.635    -0.175    24.791     7.395
    17   6 C        2.901    -0.052    29.280     8.872
    18   6 C        3.145     0.077    26.029     8.347
    19   6 C        3.018    -0.051    29.248     8.871
    20   6 C        3.017    -0.051    29.245     8.871
    21   6 C        3.145     0.077    26.039     8.349
    22   7 N        2.634    -0.175    24.792     7.395
    23   6 C        2.901    -0.050    29.235     8.865
    24   6 C        3.149     0.076    26.053     8.349
    25   7 N        2.632    -0.177    24.835     7.401
    26   1 H        0.926     0.034     2.535     2.490
    27   1 H        0.926     0.035     2.511     2.478
    28   1 H        0.926     0.035     2.510     2.478
    29   1 H        0.926     0.034     2.535     2.490
    30   1 H        0.926     0.049     2.330     2.387
    31   1 H        0.926     0.034     2.527     2.486
    32   1 H        0.926     0.034     2.528     2.486
    33   1 H        0.926     0.048     2.339     2.391
    34   1 H        0.926     0.034     2.528     2.486
    35   1 H        0.926     0.034     2.527     2.486
    36   1 H        0.926     0.049     2.330     2.387
    37  30 Zn       3.042     0.245   122.299    21.603
    38   6 C        3.020    -0.052    29.267     8.874
    39   6 C        3.018    -0.050    29.228     8.868
    40   6 C        3.166     0.077    25.946     8.324
    41   6 C        2.953     0.017    27.630     8.621
    42   6 C        3.166     0.077    25.945     8.324
    43   6 C        3.018    -0.050    29.227     8.868
    44   6 C        3.020    -0.052    29.267     8.874
    45   6 C        3.149     0.076    26.052     8.349
    46   7 N        2.632    -0.177    24.837     7.402
    47   6 C        2.901    -0.050    29.236     8.866
    48   6 C        3.145     0.077    26.039     8.349
    49   6 C        3.017    -0.051    29.245     8.871
    50   6 C        3.018    -0.051    29.248     8.871
    51   6 C        3.145     0.077    26.029     8.347
    52   7 N        2.635    -0.175    24.792     7.395
    53   6 C        2.901    -0.052    29.280     8.872
    54   6 C        3.145     0.077    26.029     8.347
    55   6 C        3.018    -0.051    29.248     8.871
    56   6 C        3.017    -0.051    29.245     8.871
    57   6 C        3.145     0.077    26.039     8.349
    58   7 N        2.634    -0.175    24.792     7.395
    59   6 C        2.901    -0.050    29.236     8.866
    60   6 C        3.149     0.076    26.053     8.349
    61   7 N        2.632    -0.177    24.836     7.401
    62   1 H        0.926     0.034     2.535     2.490
    63   1 H        0.926     0.035     2.510     2.477
    64   1 H        0.926     0.035     2.510     2.477
    65   1 H        0.926     0.034     2.535     2.490
    66   1 H        0.926     0.049     2.331     2.387
    67   1 H        0.926     0.034     2.527     2.486
    68   1 H        0.926     0.034     2.528     2.486
    69   1 H        0.926     0.048     2.339     2.391
    70   1 H        0.926     0.034     2.528     2.486
    71   1 H        0.926     0.034     2.527     2.486
    72   1 H        0.926     0.049     2.331     2.387
    73   6 C        1.996    -0.021    31.589     9.077
    74   6 C        1.963    -0.010    31.335     9.040
    75   6 C        1.963    -0.010    31.323     9.038
    76   6 C        1.996    -0.021    31.603     9.079
    77   6 C        1.996    -0.021    31.602     9.079
    78   6 C        1.963    -0.009    31.321     9.038
    79   6 C        1.963    -0.010    31.335     9.040
    80   6 C        1.996    -0.020    31.587     9.076
    81  30 Zn       3.038     0.246   122.276    21.601
    82   6 C        3.021    -0.052    29.263     8.873
    83   6 C        3.018    -0.050    29.228     8.868
    84   6 C        3.167     0.077    25.936     8.322
    85   6 C        2.953     0.017    27.626     8.621
    86   6 C        3.167     0.077    25.935     8.322
    87   6 C        3.018    -0.050    29.227     8.868
    88   6 C        3.020    -0.052    29.263     8.873
    89   6 C        3.150     0.075    26.057     8.349
    90   7 N        2.632    -0.177    24.840     7.402
    91   6 C        2.901    -0.048    29.186     8.858
    92   6 C        3.150     0.075    26.057     8.349
    93   6 C        3.020    -0.052    29.263     8.873
    94   6 C        3.018    -0.050    29.229     8.868
    95   6 C        3.167     0.077    25.936     8.322
    96   7 N        2.632    -0.177    24.839     7.402
    97   6 C        2.953     0.017    27.626     8.621
    98   6 C        3.167     0.077    25.936     8.322
    99   6 C        3.018    -0.050    29.227     8.868
   100   6 C        3.020    -0.052    29.263     8.873
   101   6 C        3.150     0.075    26.057     8.349
   102   7 N        2.632    -0.177    24.841     7.402
   103   6 C        2.901    -0.048    29.186     8.858
   104   6 C        3.150     0.075    26.057     8.349
   105   7 N        2.632    -0.177    24.839     7.402
   106   1 H        0.926     0.034     2.534     2.489
   107   1 H        0.926     0.035     2.510     2.478
   108   1 H        0.926     0.035     2.510     2.477
   109   1 H        0.926     0.034     2.534     2.489
   110   1 H        0.925     0.050     2.323     2.383
   111   1 H        0.926     0.034     2.534     2.489
   112   1 H        0.926     0.036     2.509     2.477
   113   1 H        0.926     0.036     2.509     2.477
   114   1 H        0.926     0.034     2.534     2.489
   115   1 H        0.925     0.050     2.323     2.383

 Mol. C6AA /au·bohr⁶  :     253768.200543
 Mol. C8AA /au·bohr⁸  :    7213354.003558
 Mol. α(0) /au        :        823.260855


Wiberg/Mayer (AO) data.
largest (>0.10) Wiberg bond orders for each atom

 ---------------------------------------------------------------------------
     #   Z sym  total        # sym  WBO       # sym  WBO       # sym  WBO
 ---------------------------------------------------------------------------
     1  30 Zn   2.081 --    16 N    0.491    22 N    0.491    25 N    0.489
                            10 N    0.489
     2   6 C    3.953 --     3 C    1.650    24 C    1.171    26 H    0.972
     3   6 C    3.957 --     2 C    1.650     4 C    1.179    27 H    0.971
     4   6 C    3.912 --    25 N    1.286     5 C    1.252     3 C    1.179
     5   6 C    3.941 --     6 C    1.252     4 C    1.252    73 C    1.184
     6   6 C    3.912 --    10 N    1.286     5 C    1.252     7 C    1.179
     7   6 C    3.957 --     8 C    1.650     6 C    1.179    28 H    0.971
     8   6 C    3.953 --     7 C    1.650     9 C    1.171    29 H    0.972
     9   6 C    3.924 --    11 C    1.357    10 N    1.247     8 C    1.171
    10   7 N    3.467 --     6 C    1.286     9 C    1.247     1 Zn   0.489
    11   6 C    3.931 --     9 C    1.357    12 C    1.354    30 H    0.964
    12   6 C    3.929 --    11 C    1.354    16 N    1.261    13 C    1.163
    13   6 C    3.957 --    14 C    1.666    12 C    1.163    31 H    0.972
    14   6 C    3.955 --    13 C    1.666    15 C    1.162    32 H    0.972
    15   6 C    3.932 --    17 C    1.354    16 N    1.263    14 C    1.162
    16   7 N    3.464 --    15 C    1.263    12 C    1.261     1 Zn   0.491
    17   6 C    3.926 --    15 C    1.354    18 C    1.354    33 H    0.964
    18   6 C    3.932 --    17 C    1.354    22 N    1.263    19 C    1.162
    19   6 C    3.955 --    20 C    1.666    18 C    1.162    34 H    0.972
    20   6 C    3.957 --    19 C    1.666    21 C    1.163    35 H    0.972
    21   6 C    3.929 --    23 C    1.354    22 N    1.261    20 C    1.163
    22   7 N    3.464 --    18 C    1.263    21 C    1.261     1 Zn   0.491
    23   6 C    3.931 --    24 C    1.358    21 C    1.354    36 H    0.964
    24   6 C    3.924 --    23 C    1.358    25 N    1.247     2 C    1.171
    25   7 N    3.467 --     4 C    1.286    24 C    1.247     1 Zn   0.489
    26   1 H    0.998 --     2 C    0.972
    27   1 H    0.998 --     3 C    0.971
    28   1 H    0.998 --     7 C    0.971
    29   1 H    0.998 --     8 C    0.972
    30   1 H    0.996 --    11 C    0.964
    31   1 H    0.998 --    13 C    0.972
    32   1 H    0.998 --    14 C    0.972
    33   1 H    0.996 --    17 C    0.964
    34   1 H    0.998 --    19 C    0.972
    35   1 H    0.998 --    20 C    0.972
    36   1 H    0.996 --    23 C    0.964
    37  30 Zn   2.081 --    52 N    0.491    58 N    0.491    46 N    0.489
                            61 N    0.489
    38   6 C    3.953 --    39 C    1.651    60 C    1.171    62 H    0.972
    39   6 C    3.957 --    38 C    1.651    40 C    1.179    63 H    0.971
    40   6 C    3.912 --    61 N    1.286    41 C    1.252    39 C    1.179
    41   6 C    3.941 --    42 C    1.253    40 C    1.252    80 C    1.183
    42   6 C    3.912 --    46 N    1.286    41 C    1.253    43 C    1.179
    43   6 C    3.957 --    44 C    1.651    42 C    1.179    64 H    0.971
    44   6 C    3.953 --    43 C    1.651    45 C    1.171    65 H    0.972
    45   6 C    3.924 --    47 C    1.357    46 N    1.247    44 C    1.171
    46   7 N    3.467 --    42 C    1.286    45 C    1.247    37 Zn   0.489
    47   6 C    3.931 --    45 C    1.357    48 C    1.354    66 H    0.964
    48   6 C    3.929 --    47 C    1.354    52 N    1.261    49 C    1.163
    49   6 C    3.957 --    50 C    1.666    48 C    1.163    67 H    0.972
    50   6 C    3.955 --    49 C    1.666    51 C    1.162    68 H    0.972
    51   6 C    3.932 --    53 C    1.354    52 N    1.263    50 C    1.162
    52   7 N    3.464 --    51 C    1.263    48 C    1.261    37 Zn   0.491
    53   6 C    3.926 --    51 C    1.354    54 C    1.354    69 H    0.964
    54   6 C    3.932 --    53 C    1.354    58 N    1.263    55 C    1.162
    55   6 C    3.955 --    56 C    1.666    54 C    1.162    70 H    0.972
    56   6 C    3.957 --    55 C    1.666    57 C    1.163    71 H    0.972
    57   6 C    3.929 --    59 C    1.354    58 N    1.261    56 C    1.163
    58   7 N    3.464 --    54 C    1.263    57 C    1.261    37 Zn   0.491
    59   6 C    3.931 --    60 C    1.357    57 C    1.354    72 H    0.964
    60   6 C    3.924 --    59 C    1.357    61 N    1.247    38 C    1.171
    61   7 N    3.467 --    40 C    1.286    60 C    1.247    37 Zn   0.489
    62   1 H    0.998 --    38 C    0.972
    63   1 H    0.998 --    39 C    0.971
    64   1 H    0.998 --    43 C    0.971
    65   1 H    0.998 --    44 C    0.972
    66   1 H    0.996 --    47 C    0.964
    67   1 H    0.998 --    49 C    0.972
    68   1 H    0.998 --    50 C    0.972
    69   1 H    0.996 --    53 C    0.964
    70   1 H    0.998 --    55 C    0.972
    71   1 H    0.998 --    56 C    0.972
    72   1 H    0.996 --    59 C    0.964
    73   6 C    3.918 --    74 C    2.470     5 C    1.184    76 C    0.203
    74   6 C    3.928 --    73 C    2.470    75 C    1.305
    75   6 C    3.925 --    76 C    2.469    74 C    1.305
    76   6 C    3.919 --    75 C    2.469    85 C    1.187    73 C    0.203
    77   6 C    3.919 --    78 C    2.470    97 C    1.185    80 C    0.203
    78   6 C    3.925 --    77 C    2.470    79 C    1.304
    79   6 C    3.928 --    80 C    2.471    78 C    1.304
    80   6 C    3.917 --    79 C    2.471    41 C    1.183    77 C    0.203
    81  30 Zn   2.077 --   105 N    0.489    96 N    0.489    90 N    0.489
                           102 N    0.489
    82   6 C    3.954 --    83 C    1.648   104 C    1.173   106 H    0.972
    83   6 C    3.955 --    82 C    1.648    84 C    1.181   107 H    0.971
    84   6 C    3.912 --   105 N    1.287    85 C    1.249    83 C    1.181
    85   6 C    3.930 --    86 C    1.250    84 C    1.249    76 C    1.187
    86   6 C    3.912 --    90 N    1.287    85 C    1.250    87 C    1.181
    87   6 C    3.955 --    88 C    1.648    86 C    1.181   108 H    0.971
    88   6 C    3.954 --    87 C    1.648    89 C    1.173   109 H    0.972
    89   6 C    3.923 --    91 C    1.356    90 N    1.245    88 C    1.173
    90   7 N    3.461 --    86 C    1.287    89 C    1.245    81 Zn   0.489
    91   6 C    3.926 --    89 C    1.356    92 C    1.356   110 H    0.964
    92   6 C    3.923 --    91 C    1.356    96 N    1.245    93 C    1.173
    93   6 C    3.954 --    94 C    1.648    92 C    1.173   111 H    0.972
    94   6 C    3.955 --    93 C    1.648    95 C    1.181   112 H    0.971
    95   6 C    3.912 --    96 N    1.287    97 C    1.250    94 C    1.181
    96   7 N    3.461 --    95 C    1.287    92 C    1.245    81 Zn   0.489
    97   6 C    3.930 --    98 C    1.250    95 C    1.250    77 C    1.185
    98   6 C    3.912 --   102 N    1.287    97 C    1.250    99 C    1.181
    99   6 C    3.955 --   100 C    1.648    98 C    1.181   113 H    0.971
   100   6 C    3.954 --    99 C    1.648   101 C    1.173   114 H    0.972
   101   6 C    3.923 --   103 C    1.356   102 N    1.245   100 C    1.173
   102   7 N    3.460 --    98 C    1.287   101 C    1.245    81 Zn   0.489
   103   6 C    3.926 --   104 C    1.356   101 C    1.356   115 H    0.964
   104   6 C    3.923 --   103 C    1.356   105 N    1.245    82 C    1.173
   105   7 N    3.461 --    84 C    1.287   104 C    1.245    81 Zn   0.489
   106   1 H    0.998 --    82 C    0.972
   107   1 H    0.998 --    83 C    0.971
   108   1 H    0.998 --    87 C    0.971
   109   1 H    0.998 --    88 C    0.972
   110   1 H    0.996 --    91 C    0.964
   111   1 H    0.998 --    93 C    0.972
   112   1 H    0.998 --    94 C    0.971
   113   1 H    0.998 --    99 C    0.971
   114   1 H    0.998 --   100 C    0.972
   115   1 H    0.996 --   103 C    0.964
 ---------------------------------------------------------------------------

Topologies differ in total number of bonds
Writing topology from bond orders to xtbtopo.mol

molecular dipole:
                 x           y           z       tot (Debye)
 q only:       -0.000      -0.001      -0.003
   full:       -0.000      -0.001      -0.005       0.012
molecular quadrupole (traceless):
                xx          xy          yy          xz          yz          zz
 q only:       29.650       0.169       2.440      -0.219       0.752     -32.091
  q+dip:       64.130       0.263      12.750      -0.363       1.993     -76.881
   full:       41.342       0.237       3.391      -0.344       1.048     -44.733


           -------------------------------------------------
          | TOTAL ENERGY             -198.741677723043 Eh   |
          | GRADIENT NORM               0.000489530949 Eh/α |
          | HOMO-LUMO GAP               1.033659525464 eV   |
           -------------------------------------------------

------------------------------------------------------------------------
 * finished run on 2021/11/21 at 01:40:12.741     
------------------------------------------------------------------------
 total:
 * wall-time:     0 d,  0 h,  0 min,  0.638 sec
 *  cpu-time:     0 d,  0 h,  0 min,  0.638 sec
 * ratio c/w:     1.000 speedup
 SCF:
 * wall-time:     0 d,  0 h,  0 min,  0.587 sec
 *  cpu-time:     0 d,  0 h,  0 min,  0.587 sec
 * ratio c/w:     1.000 speedup

