 Entering Gaussian System
 *********************************************
 Gaussian 98:
 frequency output generated by the xtb code
 *********************************************
                         Standard orientation:
 --------------------------------------------------------------------
  Center     Atomic     Atomic              Coordinates (Angstroms)
  Number     Number      Type              X           Y           Z
 --------------------------------------------------------------------
    1         26             0       14.300747   -0.001312   -0.009165
    2          6             0       16.805553   -3.386858    0.025600
    3          6             0       17.795809   -2.463808    0.023756
    4          6             0       17.152572   -1.185713    0.012356
    5          6             0       17.826164    0.039573    0.007487
    6          6             0       17.124466    1.248757    0.000741
    7          6             0       17.738213    2.541217    0.003171
    8          6             0       16.726980    3.441224   -0.001304
    9          6             0       15.503248    2.692514   -0.007634
   10          7             0       15.767497    1.347993   -0.005435
   11          6             0       14.260558    3.295335   -0.017348
   12          6             0       13.033716    2.661390   -0.027145
   13          6             0       11.789337    3.379509   -0.041119
   14          6             0       10.803230    2.454684   -0.048239
   15          6             0       11.448176    1.173740   -0.037942
   16          7             0       12.805724    1.313125   -0.025761
   17          6             0       10.792383   -0.041304   -0.038445
   18          6             0       11.476083   -1.240801   -0.025771
   19          6             0       10.860625   -2.536216   -0.022636
   20          6             0       11.867628   -3.438131   -0.008196
   21          6             0       13.095258   -2.691648   -0.002889
   22          7             0       12.836511   -1.348945   -0.013564
   23          6             0       14.336232   -3.297408    0.010373
   24          6             0       15.564939   -2.666424    0.014434
   25          7             0       15.798245   -1.316145    0.006725
   26          1             0       16.887848   -4.456630    0.033518
   27          1             0       18.858271   -2.611324    0.029730
   28          1             0       18.797115    2.712931    0.008486
   29          1             0       16.784524    4.512636   -0.000789
   30          1             0       14.248026    4.376123   -0.018689
   31          1             0       11.706022    4.449418   -0.044982
   32          1             0        9.740640    2.602661   -0.058878
   33          1             0        9.713542   -0.053866   -0.047998
   34          1             0        9.801682   -2.708503   -0.030505
   35          1             0       11.808865   -4.509658   -0.001775
   36          1             0       14.348330   -4.378181    0.017345
   37         26             0       41.550493    0.030829   -0.006801
   38          6             0       39.055466    3.366305    0.616598
   39          6             0       38.062507    2.461576    0.448977
   40          6             0       38.702178    1.202586    0.217236
   41          6             0       38.025023   -0.001999    0.004014
   42          6             0       38.723011   -1.194083   -0.210403
   43          6             0       38.105521   -2.465132   -0.434705
   44          6             0       39.114031   -3.352148   -0.604040
   45          6             0       40.339981   -2.616787   -0.482909
   46          7             0       40.079750   -1.293612   -0.239848
   47          6             0       41.580849   -3.210386   -0.607933
   48          6             0       42.809475   -2.587633   -0.508799
   49          6             0       44.051648   -3.293953   -0.658435
   50          6             0       45.040480   -2.385986   -0.498505
   51          6             0       44.399402   -1.127181   -0.251115
   52          7             0       43.041447   -1.262893   -0.261668
   53          6             0       45.058911    0.065071   -0.027571
   54          6             0       44.378833    1.243872    0.205361
   55          6             0       44.998094    2.514662    0.447238
   56          6             0       43.993694    3.402486    0.622305
   57          6             0       42.763842    2.672117    0.486590
   58          7             0       43.018693    1.352756    0.233264
   59          6             0       41.524635    3.270788    0.601078
   60          6             0       40.294053    2.654232    0.485150
   61          7             0       40.056883    1.327224    0.239200
   62          1             0       38.976264    4.418324    0.811721
   63          1             0       37.000486    2.609519    0.477395
   64          1             0       37.046084   -2.632636   -0.456279
   65          1             0       39.053285   -4.406433   -0.794469
   66          1             0       41.590238   -4.273141   -0.804716
   67          1             0       44.131777   -4.345150   -0.858942
   68          1             0       46.102587   -2.532096   -0.539326
   69          1             0       46.137791    0.075800   -0.034474
   70          1             0       46.057564    2.681644    0.474620
   71          1             0       44.055539    4.454639    0.824247
   72          1             0       41.515731    4.332933    0.801139
   73          6             0       19.222574    0.054547    0.009489
   74          6             0       20.440212    0.063540    0.008379
   75          6             0       21.782602    0.067044    0.007300
   76          6             0       23.000366    0.065325    0.003874
   77          6             0       32.850590   -0.017226   -0.003435
   78          6             0       34.068267   -0.021656   -0.000394
   79          6             0       35.410788   -0.020768    0.001928
   80          6             0       36.628378   -0.012707    0.004105
   81         26             0       27.925370    0.023378   -0.007158
   82          6             0       25.428626   -3.346202    0.387361
   83          6             0       24.435266   -2.431467    0.290420
   84          6             0       25.074320   -1.160172    0.140104
   85          6             0       24.396292    0.055108    0.001222
   86          6             0       25.095256    1.257662   -0.143327
   87          6             0       24.478554    2.539420   -0.297223
   88          6             0       25.487887    3.435286   -0.404957
   89          6             0       26.712821    2.694628   -0.315476
   90          7             0       26.451411    1.358779   -0.156675
   91          6             0       27.953977    3.296463   -0.381704
   92          6             0       29.184592    2.674814   -0.304442
   93          6             0       30.422454    3.395617   -0.380109
   94          6             0       31.415763    2.481951   -0.273286
   95          6             0       30.776618    1.209428   -0.133878
   96          7             0       29.422462    1.333733   -0.152606
   97          6             0       31.454477   -0.007065   -0.005873
   98          6             0       30.755545   -1.211969    0.117477
   99          6             0       31.372308   -2.496403    0.248310
  100          6             0       30.363003   -3.393221    0.347878
  101          6             0       29.138047   -2.650408    0.277486
  102          7             0       29.399417   -1.312789    0.134078
  103          6             0       27.896902   -3.251044    0.353643
  104          6             0       26.666375   -2.627124    0.295989
  105          7             0       26.428417   -1.285848    0.145778
  106          1             0       25.350185   -4.409336    0.509185
  107          1             0       23.373273   -2.580400    0.315423
  108          1             0       23.419353    2.707383   -0.317844
  109          1             0       25.428299    4.498749   -0.533244
  110          1             0       27.963157    4.370137   -0.506464
  111          1             0       30.501015    4.459060   -0.499557
  112          1             0       32.477828    2.632213   -0.286758
  113          1             0       32.431448   -2.665276    0.260587
  114          1             0       30.422635   -4.458584    0.459089
  115          1             0       27.887641   -4.325509    0.471398
 --------------------------------------------------------------------
     1 basis functions        1 primitive gaussians
     1 alpha electrons        1 beta electrons

 Harmonic frequencies (cm**-1), IR intensities (km*mol⁻¹),
 Raman scattering activities (A**4/amu), Raman depolarization ratios,
 reduced masses (AMU), force constants (mDyne/A) and normal coordinates:
                      1                      2                      3
                        a                      a                      a 
 Frequencies --     2.2934                 3.6204                 4.1587
 Red. masses --    17.3038                15.7717                11.2289
 Frc consts  --     0.0000                 0.0000                 0.0000
 IR Inten    --    12.9810                 0.7220                 8.1560
 Raman Activ --     0.0000                 0.0000                 0.0000
 Depolar     --     0.0000                 0.0000                 0.0000
 Atom AN      X      Y      Z        X      Y      Z        X      Y      Z
   1  26     0.00  -0.02  -0.15     0.00  -0.14   0.02    -0.00   0.00  -0.01
   2   6     0.01  -0.00  -0.02     0.08  -0.00   0.01    -0.00   0.00   0.14
   3   6     0.01  -0.00  -0.00     0.06   0.02   0.00    -0.00  -0.00   0.10
   4   6     0.00  -0.00  -0.01     0.03   0.00   0.00    -0.00   0.00   0.05
   5   6    -0.00  -0.00   0.01    -0.00   0.02  -0.00     0.00  -0.00  -0.00
   6   6    -0.00  -0.00  -0.00    -0.03   0.00  -0.00     0.00  -0.00  -0.05
   7   6    -0.01  -0.00   0.01    -0.06   0.02  -0.01     0.00  -0.00  -0.11
   8   6    -0.01  -0.00  -0.00    -0.08  -0.01  -0.01     0.00  -0.00  -0.15
   9   6    -0.01  -0.01  -0.03    -0.06  -0.03  -0.00     0.00   0.00  -0.11
  10   7    -0.00  -0.01  -0.04    -0.03  -0.03  -0.00     0.00   0.00  -0.06
  11   6    -0.01  -0.01  -0.06    -0.08  -0.06   0.00     0.00   0.00  -0.14
  12   6    -0.01  -0.01  -0.09    -0.06  -0.09   0.01     0.00   0.00  -0.11
  13   6    -0.01  -0.01  -0.12    -0.08  -0.12   0.01     0.00   0.00  -0.14
  14   6    -0.00  -0.02  -0.14    -0.06  -0.15   0.02     0.00   0.00  -0.11
  15   6    -0.00  -0.02  -0.13    -0.03  -0.13   0.02     0.00   0.00  -0.05
  16   7    -0.00  -0.01  -0.11    -0.03  -0.11   0.01     0.00   0.00  -0.06
  17   6     0.00  -0.02  -0.15     0.00  -0.15   0.02    -0.00   0.00  -0.00
  18   6     0.00  -0.02  -0.14     0.03  -0.13   0.02    -0.00   0.00   0.05
  19   6     0.01  -0.02  -0.16     0.06  -0.15   0.03    -0.00   0.00   0.10
  20   6     0.01  -0.01  -0.14     0.08  -0.12   0.02    -0.00   0.00   0.14
  21   6     0.01  -0.01  -0.11     0.06  -0.09   0.02    -0.00   0.00   0.11
  22   7     0.00  -0.01  -0.12     0.04  -0.11   0.02    -0.00   0.00   0.06
  23   6     0.01  -0.01  -0.08     0.08  -0.06   0.01    -0.00   0.00   0.13
  24   6     0.01  -0.01  -0.05     0.06  -0.03   0.01    -0.00   0.00   0.11
  25   7     0.00  -0.01  -0.04     0.03  -0.03   0.01    -0.00   0.00   0.05
  26   1     0.00  -0.00  -0.01     0.03  -0.00   0.00    -0.00   0.00   0.05
  27   1     0.00   0.00   0.01     0.02   0.01  -0.00    -0.00  -0.00   0.03
  28   1    -0.00   0.00   0.01    -0.02   0.01  -0.00     0.00  -0.00  -0.03
  29   1    -0.00  -0.00   0.00    -0.03  -0.00  -0.00     0.00  -0.00  -0.05
  30   1    -0.00  -0.00  -0.02    -0.03  -0.02  -0.00     0.00   0.00  -0.05
  31   1    -0.00  -0.00  -0.03    -0.03  -0.04   0.00     0.00   0.00  -0.05
  32   1    -0.00  -0.01  -0.05    -0.02  -0.05   0.01     0.00   0.00  -0.03
  33   1     0.00  -0.01  -0.05     0.00  -0.05   0.01    -0.00   0.00  -0.00
  34   1     0.00  -0.01  -0.05     0.02  -0.05   0.01    -0.00   0.00   0.03
  35   1     0.00  -0.00  -0.04     0.03  -0.04   0.01    -0.00   0.00   0.05
  36   1     0.00  -0.00  -0.02     0.03  -0.02   0.00    -0.00   0.00   0.05
  37  26     0.00  -0.02  -0.15     0.00  -0.14   0.02     0.00   0.00  -0.01
  38   6     0.02   0.00  -0.03     0.08  -0.01   0.01    -0.00  -0.04   0.22
  39   6     0.01   0.00  -0.01     0.06   0.02   0.00    -0.00  -0.03   0.16
  40   6     0.01  -0.00  -0.02     0.03   0.00   0.00     0.00  -0.01   0.08
  41   6     0.00   0.00   0.00    -0.00   0.02  -0.00     0.00  -0.00   0.00
  42   6    -0.01  -0.00  -0.01    -0.03   0.00  -0.00     0.00   0.01  -0.07
  43   6    -0.01  -0.00   0.01    -0.06   0.02  -0.01     0.00   0.03  -0.15
  44   6    -0.02  -0.00  -0.01    -0.08  -0.00  -0.01     0.00   0.04  -0.22
  45   6    -0.02  -0.01  -0.04    -0.06  -0.03  -0.00     0.00   0.03  -0.17
  46   7    -0.01  -0.01  -0.04    -0.03  -0.03   0.00     0.00   0.02  -0.09
  47   6    -0.02  -0.01  -0.06    -0.07  -0.06   0.00     0.00   0.04  -0.22
  48   6    -0.02  -0.01  -0.09    -0.06  -0.09   0.01     0.00   0.04  -0.18
  49   6    -0.02  -0.01  -0.11    -0.08  -0.12   0.01     0.00   0.05  -0.24
  50   6    -0.02  -0.02  -0.14    -0.06  -0.15   0.02    -0.00   0.04  -0.18
  51   6    -0.01  -0.01  -0.13    -0.03  -0.13   0.02    -0.00   0.02  -0.09
  52   7    -0.01  -0.01  -0.11    -0.03  -0.11   0.01    -0.00   0.02  -0.10
  53   6    -0.00  -0.02  -0.15     0.00  -0.15   0.02    -0.00   0.01  -0.01
  54   6     0.01  -0.01  -0.13     0.03  -0.13   0.02    -0.00  -0.01   0.07
  55   6     0.02  -0.01  -0.15     0.06  -0.15   0.03    -0.00  -0.03   0.16
  56   6     0.02  -0.01  -0.13     0.08  -0.12   0.03    -0.00  -0.04   0.22
  57   6     0.02  -0.01  -0.10     0.06  -0.09   0.02    -0.00  -0.03   0.17
  58   7     0.01  -0.01  -0.11     0.03  -0.11   0.02    -0.00  -0.01   0.09
  59   6     0.02  -0.01  -0.08     0.08  -0.06   0.02    -0.00  -0.04   0.21
  60   6     0.02  -0.00  -0.05     0.06  -0.03   0.01    -0.00  -0.03   0.17
  61   7     0.01  -0.00  -0.05     0.03  -0.03   0.01     0.00  -0.02   0.09
  62   1     0.01   0.00  -0.01     0.03  -0.00   0.00    -0.00  -0.02   0.08
  63   1     0.00   0.00   0.00     0.02   0.01  -0.00    -0.00  -0.01   0.05
  64   1    -0.00   0.00   0.01    -0.02   0.01  -0.00     0.00   0.01  -0.05
  65   1    -0.01  -0.00  -0.00    -0.03  -0.00  -0.00     0.00   0.01  -0.08
  66   1    -0.01  -0.00  -0.02    -0.03  -0.02  -0.00     0.00   0.02  -0.08
  67   1    -0.01  -0.00  -0.03    -0.03  -0.04   0.00     0.00   0.02  -0.09
  68   1    -0.00  -0.01  -0.05    -0.02  -0.05   0.01    -0.00   0.01  -0.06
  69   1    -0.00  -0.01  -0.05     0.00  -0.05   0.01    -0.00   0.00  -0.00
  70   1     0.00  -0.00  -0.05     0.02  -0.05   0.01    -0.00  -0.01   0.05
  71   1     0.01  -0.00  -0.04     0.03  -0.04   0.01    -0.00  -0.02   0.08
  72   1     0.01  -0.00  -0.02     0.03  -0.02   0.01    -0.00  -0.01   0.08
  73   6    -0.00   0.00   0.03    -0.00   0.05  -0.01     0.00  -0.00  -0.00
  74   6    -0.00   0.01   0.06    -0.00   0.08  -0.01     0.00  -0.00  -0.00
  75   6    -0.00   0.01   0.08    -0.00   0.09  -0.01     0.00  -0.00  -0.00
  76   6    -0.00   0.01   0.10    -0.00   0.10  -0.01     0.00  -0.00   0.00
  77   6    -0.00   0.01   0.09    -0.00   0.10  -0.01     0.00  -0.00   0.01
  78   6    -0.00   0.01   0.07    -0.00   0.09  -0.01     0.00  -0.00   0.01
  79   6    -0.00   0.01   0.05    -0.00   0.07  -0.01     0.00  -0.00   0.01
  80   6     0.00   0.00   0.03    -0.00   0.05  -0.01     0.00  -0.00   0.00
  81  26    -0.00   0.03   0.28    -0.00   0.23  -0.03     0.00  -0.01   0.02
  82   6     0.00   0.01   0.13    -0.00   0.11  -0.02     0.00   0.01   0.09
  83   6    -0.00   0.01   0.12    -0.00   0.11  -0.02     0.00   0.00   0.07
  84   6    -0.00   0.01   0.12    -0.00   0.11  -0.02     0.00   0.00   0.04
  85   6    -0.00   0.01   0.11    -0.00   0.11  -0.02     0.00  -0.00   0.00
  86   6    -0.00   0.01   0.12    -0.00   0.11  -0.02     0.00  -0.01  -0.03
  87   6    -0.00   0.01   0.12    -0.00   0.11  -0.02     0.00  -0.01  -0.06
  88   6    -0.00   0.01   0.13    -0.00   0.11  -0.02    -0.00  -0.01  -0.08
  89   6    -0.00   0.02   0.13    -0.00   0.11  -0.02     0.00  -0.01  -0.06
  90   7    -0.00   0.02   0.14    -0.00   0.12  -0.02     0.00  -0.01  -0.03
  91   6    -0.00   0.02   0.14    -0.00   0.11  -0.01     0.00  -0.01  -0.07
  92   6    -0.00   0.02   0.13    -0.00   0.11  -0.01     0.00  -0.01  -0.06
  93   6    -0.00   0.01   0.13    -0.00   0.11  -0.01     0.00  -0.01  -0.07
  94   6    -0.00   0.01   0.12    -0.00   0.11  -0.01     0.00  -0.01  -0.05
  95   6    -0.00   0.01   0.12    -0.00   0.11  -0.01     0.00  -0.01  -0.02
  96   7    -0.00   0.02   0.13    -0.00   0.11  -0.02     0.00  -0.01  -0.03
  97   6    -0.00   0.01   0.11    -0.00   0.11  -0.01    -0.00  -0.00   0.01
  98   6    -0.00   0.01   0.12    -0.00   0.11  -0.01     0.00  -0.00   0.04
  99   6     0.00   0.01   0.12    -0.00   0.11  -0.01     0.00   0.00   0.07
 100   6     0.00   0.01   0.13    -0.00   0.11  -0.01     0.00   0.01   0.09
 101   6     0.00   0.02   0.14    -0.00   0.11  -0.01     0.00   0.00   0.07
 102   7     0.00   0.02   0.14    -0.00   0.11  -0.02     0.00   0.00   0.04
 103   6     0.00   0.02   0.14    -0.00   0.11  -0.02     0.00   0.01   0.09
 104   6     0.00   0.02   0.14    -0.00   0.11  -0.02     0.00   0.00   0.08
 105   7    -0.00   0.02   0.14    -0.00   0.12  -0.02     0.00   0.00   0.04
 106   1     0.00   0.00   0.04    -0.00   0.03  -0.00     0.00   0.00   0.04
 107   1    -0.00   0.00   0.03    -0.00   0.03  -0.00     0.00   0.00   0.02
 108   1    -0.00   0.00   0.03    -0.00   0.03  -0.00     0.00  -0.00  -0.02
 109   1    -0.00   0.00   0.04    -0.00   0.03  -0.00    -0.00  -0.00  -0.03
 110   1    -0.00   0.00   0.04    -0.00   0.03  -0.00     0.00  -0.00  -0.03
 111   1    -0.00   0.00   0.04    -0.00   0.03  -0.00     0.00  -0.00  -0.03
 112   1    -0.00   0.00   0.03    -0.00   0.03  -0.00     0.00  -0.00  -0.01
 113   1     0.00   0.00   0.03    -0.00   0.03  -0.00     0.00   0.00   0.02
 114   1     0.00   0.00   0.04    -0.00   0.03  -0.00     0.00   0.00   0.03
 115   1     0.00   0.00   0.04    -0.00   0.03  -0.00     0.00   0.00   0.03
                      4                      5                      6
                        a                      a                      a 
 Frequencies --     5.5485                 8.8510                 8.8583
 Red. masses --    11.2085                11.4510                11.5065
 Frc consts  --     0.0000                 0.0000                 0.0000
 IR Inten    --    19.1976                 3.5506                 3.4171
 Raman Activ --     0.0000                 0.0000                 0.0000
 Depolar     --     0.0000                 0.0000                 0.0000
 Atom AN      X      Y      Z        X      Y      Z        X      Y      Z
   1  26     0.00   0.00  -0.00    -0.01  -0.00  -0.00    -0.00   0.00  -0.01
   2   6    -0.00   0.00   0.17    -0.10  -0.08  -0.01     0.01   0.01  -0.13
   3   6    -0.00   0.00   0.13    -0.08  -0.11  -0.01     0.01   0.01  -0.15
   4   6    -0.00   0.00   0.06    -0.04  -0.09  -0.01     0.00   0.01  -0.12
   5   6    -0.00   0.00   0.00    -0.00  -0.11  -0.01     0.00   0.01  -0.13
   6   6     0.00   0.00  -0.06     0.03  -0.09  -0.01    -0.00   0.01  -0.11
   7   6     0.00   0.00  -0.12     0.07  -0.11  -0.02    -0.01   0.01  -0.15
   8   6     0.00   0.00  -0.18     0.10  -0.08  -0.01    -0.01   0.01  -0.12
   9   6     0.00   0.00  -0.14     0.08  -0.04  -0.01    -0.01   0.00  -0.07
  10   7     0.00   0.00  -0.07     0.04  -0.05  -0.01    -0.00   0.00  -0.07
  11   6     0.00   0.00  -0.18     0.10  -0.00  -0.00    -0.01   0.00  -0.02
  12   6     0.00   0.00  -0.15     0.08   0.04   0.00    -0.01  -0.00   0.04
  13   6     0.00  -0.00  -0.19     0.10   0.07   0.01    -0.01  -0.01   0.10
  14   6     0.00  -0.00  -0.14     0.07   0.10   0.02    -0.01  -0.01   0.17
  15   6     0.00  -0.00  -0.07     0.03   0.08   0.01    -0.00  -0.01   0.14
  16   7     0.00   0.00  -0.08     0.04   0.05   0.01    -0.00  -0.00   0.07
  17   6     0.00  -0.00  -0.00    -0.00   0.10   0.02    -0.00  -0.01   0.18
  18   6    -0.00   0.00   0.06    -0.04   0.08   0.01     0.00  -0.01   0.14
  19   6    -0.00   0.00   0.13    -0.08   0.10   0.02     0.01  -0.01   0.16
  20   6    -0.00   0.00   0.18    -0.11   0.07   0.01     0.01  -0.01   0.10
  21   6    -0.00   0.00   0.14    -0.08   0.03   0.01     0.01  -0.00   0.04
  22   7    -0.00   0.00   0.07    -0.05   0.05   0.01     0.00  -0.00   0.07
  23   6    -0.00   0.00   0.17    -0.10  -0.00  -0.00     0.01  -0.00  -0.03
  24   6    -0.00   0.00   0.14    -0.08  -0.04  -0.01     0.01   0.00  -0.07
  25   7    -0.00   0.00   0.07    -0.05  -0.05  -0.01     0.00   0.00  -0.08
  26   1    -0.00   0.00   0.07    -0.04  -0.02  -0.00     0.00   0.00  -0.04
  27   1    -0.00   0.00   0.04    -0.02  -0.04  -0.01     0.00   0.00  -0.05
  28   1     0.00   0.00  -0.04     0.02  -0.04  -0.01    -0.00   0.00  -0.05
  29   1     0.00   0.00  -0.07     0.04  -0.02  -0.00    -0.00   0.00  -0.04
  30   1     0.00   0.00  -0.07     0.04  -0.00  -0.00    -0.00   0.00  -0.01
  31   1     0.00  -0.00  -0.07     0.04   0.02   0.00    -0.00  -0.00   0.03
  32   1     0.00  -0.00  -0.04     0.02   0.04   0.01    -0.00  -0.00   0.06
  33   1     0.00  -0.00  -0.00    -0.00   0.04   0.01    -0.00  -0.00   0.07
  34   1    -0.00   0.00   0.04    -0.02   0.04   0.01     0.00  -0.00   0.06
  35   1    -0.00   0.00   0.07    -0.04   0.02   0.00     0.00  -0.00   0.03
  36   1    -0.00   0.00   0.07    -0.04  -0.00  -0.00     0.00  -0.00  -0.01
  37  26     0.00   0.00  -0.00     0.01   0.00   0.00    -0.00   0.00   0.00
  38   6    -0.00   0.00  -0.03     0.10   0.08   0.00     0.01  -0.01   0.11
  39   6    -0.00   0.00  -0.02     0.08   0.11   0.01     0.01  -0.02   0.14
  40   6    -0.00   0.00  -0.01     0.04   0.09   0.01     0.00  -0.01   0.11
  41   6    -0.00  -0.00  -0.00     0.00   0.11   0.01     0.00  -0.01   0.13
  42   6     0.00  -0.00   0.01    -0.03   0.09   0.01    -0.00  -0.01   0.11
  43   6     0.00  -0.01   0.02    -0.07   0.11   0.01    -0.01  -0.02   0.14
  44   6     0.00  -0.01   0.03    -0.10   0.08   0.01    -0.01  -0.01   0.12
  45   6     0.00  -0.00   0.02    -0.08   0.04   0.00    -0.01  -0.01   0.07
  46   7     0.00  -0.00   0.01    -0.04   0.05   0.00    -0.00  -0.01   0.07
  47   6     0.00  -0.01   0.03    -0.10   0.00   0.00    -0.01  -0.00   0.02
  48   6     0.00  -0.00   0.02    -0.08  -0.04  -0.00    -0.01   0.01  -0.04
  49   6     0.00  -0.01   0.03    -0.10  -0.07  -0.00    -0.01   0.01  -0.10
  50   6     0.00  -0.00   0.03    -0.07  -0.10  -0.00    -0.01   0.02  -0.16
  51   6     0.00  -0.00   0.01    -0.03  -0.09  -0.00    -0.00   0.02  -0.13
  52   7     0.00  -0.00   0.01    -0.04  -0.05  -0.00    -0.00   0.01  -0.07
  53   6     0.00   0.00  -0.00     0.00  -0.11  -0.00    -0.00   0.02  -0.17
  54   6    -0.00   0.00  -0.01     0.04  -0.08  -0.00     0.00   0.02  -0.14
  55   6    -0.00   0.01  -0.03     0.08  -0.10  -0.00     0.01   0.02  -0.16
  56   6    -0.00   0.01  -0.04     0.11  -0.07  -0.00     0.01   0.01  -0.11
  57   6    -0.00   0.01  -0.03     0.08  -0.03  -0.00     0.01   0.01  -0.05
  58   7    -0.00   0.00  -0.02     0.05  -0.05  -0.00     0.00   0.01  -0.07
  59   6    -0.00   0.01  -0.03     0.10   0.00  -0.00     0.01  -0.00   0.01
  60   6    -0.00   0.00  -0.03     0.08   0.04   0.00     0.01  -0.01   0.06
  61   7    -0.00   0.00  -0.01     0.05   0.05   0.00     0.00  -0.01   0.07
  62   1    -0.00   0.00  -0.01     0.04   0.02   0.00     0.00  -0.00   0.04
  63   1    -0.00   0.00  -0.01     0.02   0.04   0.00     0.00  -0.01   0.05
  64   1     0.00  -0.00   0.00    -0.02   0.04   0.00    -0.00  -0.01   0.05
  65   1     0.00  -0.00   0.01    -0.04   0.02   0.00    -0.00  -0.00   0.04
  66   1     0.00  -0.00   0.01    -0.04   0.00   0.00    -0.00  -0.00   0.01
  67   1     0.00  -0.00   0.01    -0.04  -0.02  -0.00    -0.00   0.00  -0.03
  68   1     0.00  -0.00   0.01    -0.02  -0.04  -0.00    -0.00   0.01  -0.06
  69   1     0.00   0.00  -0.00     0.00  -0.04  -0.00    -0.00   0.01  -0.07
  70   1    -0.00   0.00  -0.01     0.02  -0.04  -0.00     0.00   0.01  -0.06
  71   1    -0.00   0.00  -0.01     0.04  -0.02  -0.00     0.00   0.00  -0.03
  72   1    -0.00   0.00  -0.01     0.04   0.00  -0.00     0.00  -0.00   0.01
  73   6    -0.00   0.00   0.00    -0.00  -0.14  -0.02     0.00   0.01  -0.16
  74   6    -0.00   0.00   0.00    -0.00  -0.16  -0.02     0.00   0.01  -0.16
  75   6    -0.00   0.00   0.01    -0.00  -0.16  -0.02     0.00   0.01  -0.16
  76   6    -0.00  -0.00   0.01    -0.00  -0.14  -0.02     0.00   0.01  -0.14
  77   6    -0.00  -0.00  -0.00     0.00   0.14   0.02     0.00  -0.01   0.14
  78   6    -0.00  -0.00  -0.00     0.00   0.16   0.02     0.00  -0.01   0.16
  79   6    -0.00  -0.00  -0.00     0.00   0.16   0.02     0.00  -0.02   0.16
  80   6    -0.00  -0.00  -0.00     0.00   0.14   0.01     0.00  -0.02   0.15
  81  26    -0.00  -0.00   0.01     0.00   0.00  -0.00     0.00  -0.00   0.01
  82   6    -0.00  -0.02  -0.20     0.10  -0.07  -0.01    -0.02   0.00  -0.09
  83   6    -0.00  -0.02  -0.15     0.07  -0.10  -0.02    -0.01   0.01  -0.12
  84   6    -0.00  -0.01  -0.07     0.03  -0.08  -0.01    -0.01   0.00  -0.09
  85   6    -0.00  -0.00   0.01    -0.00  -0.10  -0.01     0.00   0.01  -0.11
  86   6     0.00   0.01   0.08    -0.04  -0.08  -0.01     0.01   0.00  -0.09
  87   6     0.00   0.02   0.16    -0.07  -0.10  -0.01     0.02   0.01  -0.11
  88   6     0.00   0.02   0.22    -0.10  -0.07  -0.01     0.02   0.00  -0.07
  89   6     0.00   0.02   0.17    -0.08  -0.04  -0.00     0.02   0.00  -0.03
  90   7     0.00   0.01   0.09    -0.04  -0.05  -0.01     0.01   0.00  -0.05
  91   6     0.00   0.02   0.21    -0.09   0.00   0.00     0.02  -0.00   0.01
  92   6     0.00   0.02   0.17    -0.08   0.04   0.01     0.02  -0.00   0.05
  93   6     0.00   0.02   0.21    -0.10   0.07   0.01     0.02  -0.01   0.09
  94   6     0.00   0.01   0.16    -0.07   0.10   0.01     0.01  -0.01   0.12
  95   6     0.00   0.01   0.08    -0.03   0.08   0.01     0.01  -0.01   0.10
  96   7     0.00   0.01   0.09    -0.04   0.05   0.01     0.01  -0.00   0.06
  97   6     0.00  -0.00   0.00     0.00   0.10   0.01     0.00  -0.01   0.12
  98   6    -0.00  -0.01  -0.07     0.04   0.08   0.01    -0.01  -0.01   0.09
  99   6    -0.00  -0.02  -0.16     0.07   0.10   0.01    -0.01  -0.01   0.11
 100   6    -0.00  -0.02  -0.21     0.10   0.07   0.01    -0.02  -0.01   0.08
 101   6    -0.00  -0.02  -0.16     0.08   0.04   0.00    -0.01  -0.00   0.04
 102   7    -0.00  -0.01  -0.09     0.04   0.05   0.00    -0.01  -0.00   0.05
 103   6    -0.00  -0.02  -0.20     0.09  -0.00  -0.00    -0.02  -0.00  -0.00
 104   6    -0.00  -0.02  -0.16     0.08  -0.04  -0.01    -0.01   0.00  -0.04
 105   7    -0.00  -0.01  -0.08     0.04  -0.05  -0.01    -0.01   0.00  -0.05
 106   1    -0.00  -0.01  -0.08     0.04  -0.02  -0.00    -0.01   0.00  -0.03
 107   1    -0.00  -0.01  -0.04     0.02  -0.04  -0.01    -0.00   0.00  -0.04
 108   1     0.00   0.01   0.05    -0.02  -0.04  -0.00     0.00   0.00  -0.04
 109   1     0.00   0.01   0.08    -0.04  -0.02  -0.00     0.01   0.00  -0.02
 110   1     0.00   0.01   0.08    -0.04   0.00   0.00     0.01  -0.00   0.00
 111   1     0.00   0.01   0.08    -0.04   0.02   0.00     0.01  -0.00   0.03
 112   1     0.00   0.00   0.05    -0.02   0.04   0.01     0.00  -0.00   0.05
 113   1    -0.00  -0.01  -0.05     0.02   0.04   0.00    -0.00  -0.00   0.04
 114   1    -0.00  -0.01  -0.08     0.04   0.02   0.00    -0.01  -0.00   0.02
 115   1    -0.00  -0.01  -0.08     0.04  -0.00  -0.00    -0.01  -0.00  -0.00
                      7                      8                      9
                        a                      a                      a 
 Frequencies --    13.1296                22.5116                27.0586
 Red. masses --    12.8016                11.9851                13.9304
 Frc consts  --     0.0000                 0.0000                 0.0000
 IR Inten    --     1.9453                 1.5114                 5.6698
 Raman Activ --     0.0000                 0.0000                 0.0000
 Depolar     --     0.0000                 0.0000                 0.0000
 Atom AN      X      Y      Z        X      Y      Z        X      Y      Z
   1  26    -0.00  -0.00  -0.06    -0.00   0.01   0.07    -0.00  -0.08   0.04
   2   6    -0.00  -0.00  -0.16     0.02   0.02   0.13    -0.09  -0.11   0.06
   3   6    -0.00  -0.01  -0.16     0.01   0.02   0.08    -0.07  -0.13   0.02
   4   6    -0.00  -0.01  -0.12     0.01   0.02   0.04    -0.03  -0.12   0.00
   5   6    -0.00  -0.01  -0.13    -0.00   0.02   0.01     0.00  -0.13  -0.02
   6   6     0.00  -0.00  -0.12    -0.01   0.02   0.04     0.03  -0.12   0.01
   7   6     0.00  -0.01  -0.16    -0.01   0.02   0.08     0.07  -0.13   0.03
   8   6     0.00  -0.00  -0.16    -0.02   0.02   0.13     0.09  -0.10   0.06
   9   6     0.00  -0.00  -0.11    -0.01   0.01   0.11     0.07  -0.07   0.06
  10   7     0.00  -0.00  -0.10    -0.01   0.01   0.07     0.04  -0.08   0.03
  11   6     0.00  -0.00  -0.07    -0.02   0.01   0.11     0.09  -0.04   0.07
  12   6     0.00   0.00   0.01    -0.01  -0.00   0.04     0.07  -0.00   0.03
  13   6     0.00   0.00   0.08    -0.02  -0.01  -0.01     0.09   0.03   0.00
  14   6     0.00   0.00   0.16    -0.01  -0.01  -0.10     0.07   0.06  -0.05
  15   6    -0.00   0.00   0.14    -0.00  -0.01  -0.10     0.03   0.04  -0.05
  16   7     0.00   0.00   0.05    -0.01  -0.00  -0.01     0.04   0.01  -0.00
  17   6    -0.00   0.00   0.18     0.00  -0.01  -0.15    -0.00   0.06  -0.07
  18   6    -0.00   0.00   0.13     0.01  -0.01  -0.09    -0.03   0.04  -0.05
  19   6    -0.01   0.00   0.16     0.01  -0.01  -0.10    -0.07   0.06  -0.04
  20   6    -0.01   0.00   0.07     0.02  -0.01  -0.01    -0.10   0.03   0.01
  21   6    -0.00   0.00   0.01     0.01   0.00   0.04    -0.07  -0.00   0.03
  22   7    -0.00   0.00   0.05     0.01  -0.00  -0.01    -0.04   0.00  -0.00
  23   6    -0.00  -0.00  -0.07     0.01   0.01   0.11    -0.09  -0.04   0.07
  24   6    -0.00  -0.00  -0.11     0.01   0.01   0.11    -0.07  -0.07   0.06
  25   7    -0.00  -0.00  -0.10     0.01   0.01   0.07    -0.04  -0.08   0.03
  26   1    -0.00  -0.00  -0.05     0.01   0.01   0.05    -0.04  -0.03   0.02
  27   1    -0.00  -0.00  -0.06     0.00   0.01   0.02    -0.02  -0.05   0.00
  28   1     0.00  -0.00  -0.06    -0.00   0.01   0.02     0.02  -0.05   0.00
  29   1     0.00  -0.00  -0.05    -0.01   0.01   0.05     0.04  -0.03   0.03
  30   1     0.00  -0.00  -0.02    -0.01   0.00   0.04     0.03  -0.01   0.03
  31   1     0.00   0.00   0.02    -0.01  -0.00   0.01     0.04   0.01   0.01
  32   1     0.00   0.00   0.07    -0.00  -0.00  -0.05     0.02   0.03  -0.02
  33   1    -0.00   0.00   0.07     0.00  -0.01  -0.06    -0.00   0.03  -0.03
  34   1    -0.00   0.00   0.06     0.00  -0.00  -0.05    -0.02   0.03  -0.02
  35   1    -0.00   0.00   0.02     0.01  -0.00   0.01    -0.04   0.01   0.01
  36   1    -0.00  -0.00  -0.03     0.01   0.00   0.04    -0.04  -0.01   0.03
  37  26     0.00   0.00  -0.06     0.00   0.03  -0.08     0.00  -0.09   0.00
  38   6    -0.02   0.01  -0.16     0.01   0.04  -0.14    -0.10  -0.11   0.01
  39   6    -0.02   0.00  -0.17     0.01   0.04  -0.08    -0.07  -0.14  -0.01
  40   6    -0.01   0.00  -0.13     0.00   0.03  -0.05    -0.03  -0.12  -0.02
  41   6     0.00  -0.00  -0.13    -0.00   0.02  -0.01     0.00  -0.14  -0.03
  42   6     0.01   0.00  -0.13    -0.01   0.03  -0.05     0.03  -0.12  -0.02
  43   6     0.02   0.00  -0.17    -0.01   0.04  -0.09     0.07  -0.14  -0.01
  44   6     0.02   0.01  -0.16    -0.02   0.04  -0.14     0.10  -0.11   0.01
  45   6     0.02   0.01  -0.11    -0.01   0.03  -0.12     0.08  -0.08   0.02
  46   7     0.01   0.00  -0.10    -0.01   0.03  -0.07     0.04  -0.09  -0.00
  47   6     0.02   0.01  -0.07    -0.02   0.03  -0.12     0.09  -0.04   0.03
  48   6     0.02   0.00   0.01    -0.01   0.01  -0.04     0.08  -0.00   0.02
  49   6     0.02  -0.00   0.08    -0.01  -0.01   0.01     0.10   0.03   0.01
  50   6     0.02  -0.01   0.16    -0.01  -0.03   0.11     0.07   0.07  -0.01
  51   6     0.01  -0.01   0.14    -0.00  -0.03   0.10     0.03   0.05  -0.01
  52   7     0.01  -0.00   0.05    -0.01  -0.00   0.02     0.04   0.01   0.00
  53   6     0.00  -0.02   0.19     0.00  -0.04   0.16    -0.00   0.07  -0.03
  54   6    -0.01  -0.01   0.14     0.01  -0.03   0.10    -0.04   0.05  -0.02
  55   6    -0.02  -0.01   0.16     0.01  -0.03   0.11    -0.07   0.07  -0.01
  56   6    -0.02  -0.00   0.08     0.02  -0.01   0.01    -0.10   0.03   0.01
  57   6    -0.02   0.00   0.01     0.01   0.01  -0.04    -0.08  -0.01   0.01
  58   7    -0.01  -0.00   0.05     0.01  -0.00   0.02    -0.04   0.01  -0.00
  59   6    -0.02   0.01  -0.07     0.01   0.03  -0.12    -0.09  -0.04   0.03
  60   6    -0.02   0.01  -0.11     0.01   0.03  -0.12    -0.08  -0.08   0.02
  61   7    -0.01   0.00  -0.10     0.01   0.03  -0.07    -0.04  -0.09  -0.00
  62   1    -0.01   0.00  -0.05     0.01   0.01  -0.05    -0.04  -0.03   0.01
  63   1    -0.00   0.00  -0.06     0.00   0.01  -0.02    -0.02  -0.05  -0.01
  64   1     0.00   0.00  -0.06    -0.00   0.01  -0.02     0.02  -0.05  -0.01
  65   1     0.01   0.00  -0.05    -0.01   0.01  -0.05     0.04  -0.03   0.01
  66   1     0.01   0.00  -0.02    -0.01   0.01  -0.05     0.04  -0.01   0.01
  67   1     0.01   0.00   0.02    -0.01  -0.00  -0.01     0.04   0.01   0.01
  68   1     0.01  -0.00   0.07    -0.00  -0.01   0.05     0.02   0.03  -0.01
  69   1     0.00  -0.01   0.07     0.00  -0.02   0.07    -0.00   0.03  -0.01
  70   1    -0.00  -0.00   0.07     0.00  -0.01   0.05    -0.02   0.03  -0.01
  71   1    -0.01   0.00   0.02     0.01  -0.00  -0.01    -0.04   0.01   0.00
  72   1    -0.01   0.00  -0.03     0.01   0.01  -0.05    -0.04  -0.01   0.01
  73   6    -0.00  -0.01  -0.13    -0.00   0.03  -0.04     0.00  -0.15  -0.05
  74   6    -0.00  -0.01  -0.10    -0.00   0.02  -0.10     0.00  -0.08  -0.08
  75   6    -0.00  -0.01  -0.07    -0.00   0.01  -0.14    -0.00  -0.03  -0.10
  76   6    -0.00  -0.00  -0.03    -0.00  -0.00  -0.17     0.00   0.05  -0.10
  77   6     0.00  -0.01  -0.04    -0.00  -0.02   0.18     0.00   0.06  -0.03
  78   6     0.00  -0.01  -0.08    -0.00  -0.01   0.15     0.00  -0.02  -0.05
  79   6     0.00  -0.01  -0.11    -0.00   0.00   0.11     0.00  -0.08  -0.05
  80   6     0.00  -0.01  -0.13    -0.00   0.02   0.04     0.00  -0.15  -0.05
  81  26     0.00   0.01   0.15    -0.00  -0.04   0.00     0.00   0.19   0.01
  82   6    -0.00   0.01   0.09    -0.02  -0.02  -0.14     0.00   0.09  -0.01
  83   6    -0.00   0.00   0.05    -0.02  -0.02  -0.18     0.00   0.08  -0.05
  84   6    -0.00   0.00   0.04    -0.01  -0.01  -0.14     0.00   0.08  -0.05
  85   6    -0.00   0.00   0.01    -0.00  -0.01  -0.16     0.00   0.08  -0.08
  86   6     0.00   0.00   0.04     0.01  -0.01  -0.14    -0.00   0.08  -0.06
  87   6     0.00   0.00   0.05     0.02  -0.02  -0.18    -0.00   0.08  -0.06
  88   6     0.00   0.01   0.09     0.02  -0.02  -0.14    -0.00   0.08  -0.01
  89   6     0.00   0.01   0.10     0.02  -0.02  -0.07    -0.00   0.09   0.01
  90   7     0.00   0.01   0.07     0.01  -0.02  -0.08    -0.00   0.09  -0.02
  91   6     0.00   0.01   0.12     0.02  -0.02  -0.00    -0.00   0.09   0.05
  92   6     0.00   0.01   0.10     0.02  -0.02   0.07     0.00   0.09   0.05
  93   6     0.00   0.00   0.09     0.02  -0.02   0.14     0.00   0.09   0.06
  94   6     0.00  -0.00   0.04     0.01  -0.02   0.18     0.00   0.09   0.03
  95   6     0.00  -0.00   0.03     0.01  -0.02   0.14     0.00   0.09   0.01
  96   7     0.00   0.00   0.07     0.01  -0.02   0.09     0.00   0.10   0.02
  97   6     0.00  -0.01   0.00    -0.00  -0.02   0.16     0.00   0.09  -0.01
  98   6    -0.00  -0.00   0.03    -0.01  -0.02   0.14    -0.00   0.09   0.01
  99   6    -0.00  -0.00   0.04    -0.01  -0.02   0.18     0.00   0.09   0.03
 100   6    -0.00   0.00   0.09    -0.02  -0.02   0.14     0.00   0.09   0.05
 101   6    -0.00   0.01   0.10    -0.02  -0.02   0.07     0.00   0.09   0.05
 102   7    -0.00   0.00   0.07    -0.01  -0.02   0.08    -0.00   0.10   0.02
 103   6    -0.00   0.01   0.12    -0.02  -0.02  -0.00     0.00   0.09   0.05
 104   6    -0.00   0.01   0.10    -0.02  -0.02  -0.07     0.00   0.09   0.01
 105   7    -0.00   0.01   0.07    -0.01  -0.02  -0.09     0.00   0.09  -0.02
 106   1    -0.00   0.00   0.03    -0.01  -0.01  -0.04     0.00   0.03   0.00
 107   1    -0.00   0.00   0.01    -0.01  -0.00  -0.07     0.00   0.02  -0.02
 108   1     0.00   0.00   0.01     0.01  -0.00  -0.07    -0.00   0.02  -0.02
 109   1     0.00   0.00   0.03     0.01  -0.01  -0.04    -0.00   0.03   0.00
 110   1     0.00   0.00   0.04     0.01  -0.01  -0.00    -0.00   0.03   0.02
 111   1     0.00   0.00   0.03     0.01  -0.01   0.04     0.00   0.03   0.02
 112   1     0.00  -0.00   0.01     0.00  -0.01   0.07     0.00   0.03   0.01
 113   1    -0.00  -0.00   0.01    -0.00  -0.01   0.07    -0.00   0.03   0.01
 114   1    -0.00   0.00   0.03    -0.01  -0.01   0.04     0.00   0.03   0.02
 115   1    -0.00   0.00   0.04    -0.01  -0.01  -0.00     0.00   0.03   0.02
                     10                     11                     12
                        a                      a                      a 
 Frequencies --    30.2583                31.4709                31.5977
 Red. masses --    10.9240                10.9292                10.9266
 Frc consts  --     0.0000                 0.0000                 0.0000
 IR Inten    --     0.4028                 0.2902                 0.6281
 Raman Activ --     0.0000                 0.0000                 0.0000
 Depolar     --     0.0000                 0.0000                 0.0000
 Atom AN      X      Y      Z        X      Y      Z        X      Y      Z
   1  26    -0.00  -0.00  -0.00     0.00  -0.00   0.00     0.00  -0.00  -0.00
   2   6    -0.00  -0.00  -0.06    -0.00   0.00   0.21     0.00  -0.00  -0.21
   3   6    -0.00  -0.00  -0.06    -0.00   0.00   0.21     0.00  -0.00  -0.21
   4   6    -0.00  -0.00  -0.03    -0.00  -0.00   0.10     0.00  -0.00  -0.10
   5   6    -0.00  -0.00  -0.00     0.00  -0.00  -0.00     0.00   0.00  -0.00
   6   6    -0.00  -0.00   0.03     0.00  -0.00  -0.10     0.00   0.00   0.10
   7   6    -0.00  -0.00   0.06     0.00  -0.00  -0.21    -0.00   0.00   0.21
   8   6    -0.00  -0.00   0.06     0.00  -0.00  -0.20    -0.00   0.00   0.21
   9   6    -0.00  -0.00   0.03     0.00  -0.00  -0.09    -0.00  -0.00   0.10
  10   7    -0.00  -0.00   0.01     0.00  -0.00  -0.05     0.00  -0.00   0.05
  11   6     0.00  -0.00  -0.00     0.00  -0.00   0.00     0.00  -0.00   0.00
  12   6     0.00  -0.00  -0.03     0.00   0.00   0.09     0.00  -0.00  -0.10
  13   6     0.00   0.00  -0.07    -0.00   0.00   0.20     0.00  -0.00  -0.21
  14   6     0.00   0.00  -0.06    -0.00   0.00   0.20     0.00  -0.00  -0.21
  15   6    -0.00   0.00  -0.03     0.00   0.00   0.09     0.00  -0.00  -0.10
  16   7    -0.00  -0.00  -0.02     0.00   0.00   0.05     0.00  -0.00  -0.05
  17   6    -0.00   0.00   0.00     0.00   0.00  -0.00     0.00  -0.00   0.00
  18   6    -0.00   0.00   0.03     0.00  -0.00  -0.10     0.00   0.00   0.10
  19   6    -0.00   0.00   0.06     0.00  -0.00  -0.20    -0.00   0.00   0.21
  20   6    -0.00   0.00   0.07     0.00  -0.00  -0.20    -0.00   0.00   0.21
  21   6    -0.00   0.00   0.03     0.00  -0.00  -0.09     0.00   0.00   0.10
  22   7    -0.00   0.00   0.02     0.00  -0.00  -0.05     0.00   0.00   0.05
  23   6    -0.00  -0.00   0.00    -0.00  -0.00   0.00     0.00  -0.00  -0.00
  24   6    -0.00  -0.00  -0.03    -0.00   0.00   0.10     0.00  -0.00  -0.10
  25   7    -0.00  -0.00  -0.02    -0.00  -0.00   0.05     0.00  -0.00  -0.05
  26   1    -0.00  -0.00  -0.02    -0.00   0.00   0.08     0.00  -0.00  -0.08
  27   1    -0.00  -0.00  -0.02    -0.00   0.00   0.08     0.00  -0.00  -0.08
  28   1    -0.00  -0.00   0.02     0.00  -0.00  -0.08    -0.00   0.00   0.08
  29   1     0.00  -0.00   0.02     0.00  -0.00  -0.08    -0.00   0.00   0.08
  30   1     0.00  -0.00  -0.00     0.00  -0.00   0.00     0.00  -0.00   0.00
  31   1     0.00   0.00  -0.02    -0.00   0.00   0.08     0.00  -0.00  -0.08
  32   1     0.00   0.00  -0.02    -0.00   0.00   0.08     0.00  -0.00  -0.08
  33   1    -0.00   0.00   0.00     0.00   0.00  -0.00     0.00  -0.00   0.00
  34   1    -0.00   0.00   0.02     0.00  -0.00  -0.08    -0.00   0.00   0.08
  35   1    -0.00   0.00   0.02     0.00  -0.00  -0.08    -0.00   0.00   0.08
  36   1    -0.00  -0.00   0.00    -0.00  -0.00   0.00     0.00  -0.00  -0.00
  37  26     0.00  -0.00  -0.00    -0.00  -0.00   0.00    -0.00   0.00   0.00
  38   6     0.00   0.01  -0.06    -0.00   0.04  -0.22    -0.00   0.04  -0.19
  39   6     0.00   0.01  -0.06    -0.00   0.04  -0.22    -0.00   0.04  -0.19
  40   6     0.00   0.00  -0.03    -0.00   0.02  -0.10    -0.00   0.02  -0.09
  41   6     0.00  -0.00  -0.00    -0.00  -0.00  -0.00    -0.00   0.00  -0.00
  42   6     0.00  -0.01   0.03     0.00  -0.02   0.10    -0.00  -0.01   0.09
  43   6     0.00  -0.01   0.06     0.00  -0.04   0.22     0.00  -0.03   0.19
  44   6     0.00  -0.01   0.06     0.00  -0.04   0.22     0.00  -0.03   0.19
  45   6     0.00  -0.01   0.03     0.00  -0.02   0.10    -0.00  -0.02   0.09
  46   7     0.00  -0.00   0.02     0.00  -0.01   0.06    -0.00  -0.01   0.05
  47   6     0.00   0.00  -0.00     0.00  -0.00   0.00    -0.00   0.00   0.00
  48   6     0.00   0.01  -0.03    -0.00   0.02  -0.10    -0.00   0.02  -0.09
  49   6     0.00   0.01  -0.07    -0.00   0.04  -0.21    -0.00   0.04  -0.18
  50   6     0.00   0.01  -0.07    -0.00   0.04  -0.21    -0.00   0.04  -0.19
  51   6     0.00   0.01  -0.03    -0.00   0.02  -0.10    -0.00   0.02  -0.09
  52   7     0.00   0.00  -0.02    -0.00   0.01  -0.06    -0.00   0.01  -0.05
  53   6     0.00   0.00   0.00    -0.00   0.00  -0.00    -0.00  -0.00   0.00
  54   6     0.00  -0.01   0.03    -0.00  -0.02   0.10    -0.00  -0.02   0.09
  55   6     0.00  -0.01   0.07    -0.00  -0.04   0.21     0.00  -0.04   0.19
  56   6     0.00  -0.01   0.07    -0.00  -0.04   0.21     0.00  -0.04   0.18
  57   6     0.00  -0.01   0.03    -0.00  -0.02   0.10    -0.00  -0.02   0.09
  58   7     0.00  -0.00   0.02    -0.00  -0.01   0.06    -0.00  -0.01   0.05
  59   6     0.00  -0.00   0.00    -0.00  -0.00  -0.00    -0.00   0.00  -0.00
  60   6     0.00   0.00  -0.03    -0.00   0.02  -0.10    -0.00   0.02  -0.09
  61   7     0.00   0.00  -0.02    -0.00   0.01  -0.06    -0.00   0.01  -0.05
  62   1     0.00   0.00  -0.02    -0.00   0.01  -0.08    -0.00   0.01  -0.07
  63   1     0.00   0.00  -0.02    -0.00   0.01  -0.08    -0.00   0.01  -0.07
  64   1     0.00  -0.00   0.02     0.00  -0.02   0.08     0.00  -0.01   0.07
  65   1     0.00  -0.00   0.02     0.00  -0.02   0.08     0.00  -0.01   0.07
  66   1     0.00   0.00  -0.00     0.00  -0.00   0.00    -0.00   0.00   0.00
  67   1     0.00   0.00  -0.03    -0.00   0.02  -0.08    -0.00   0.01  -0.07
  68   1     0.00   0.00  -0.02    -0.00   0.02  -0.08    -0.00   0.01  -0.07
  69   1     0.00   0.00   0.00    -0.00   0.00  -0.00    -0.00  -0.00   0.00
  70   1     0.00  -0.00   0.02    -0.00  -0.02   0.08     0.00  -0.01   0.07
  71   1     0.00  -0.00   0.03    -0.00  -0.02   0.08     0.00  -0.01   0.07
  72   1     0.00  -0.00   0.00    -0.00  -0.00  -0.00     0.00   0.00  -0.00
  73   6    -0.00  -0.00  -0.00     0.00  -0.00  -0.00     0.00   0.00  -0.00
  74   6    -0.00  -0.00   0.00     0.00  -0.00  -0.00     0.00   0.00  -0.00
  75   6    -0.00   0.00  -0.00     0.00  -0.00  -0.00     0.00   0.00  -0.00
  76   6    -0.00   0.00  -0.00     0.00  -0.00  -0.00     0.00   0.00  -0.00
  77   6     0.00  -0.00   0.00    -0.00   0.00  -0.00    -0.00  -0.00  -0.00
  78   6     0.00  -0.00   0.00     0.00  -0.00  -0.00    -0.00  -0.00  -0.00
  79   6     0.00  -0.00   0.00    -0.00  -0.00  -0.00    -0.00  -0.00  -0.00
  80   6     0.00  -0.00   0.00    -0.00  -0.00  -0.00    -0.00   0.00  -0.00
  81  26     0.00   0.00  -0.00     0.00   0.00   0.00     0.00  -0.00   0.00
  82   6    -0.00  -0.03  -0.28     0.00   0.00   0.00    -0.00   0.01   0.09
  83   6    -0.00  -0.03  -0.28     0.00   0.00   0.00     0.00   0.01   0.09
  84   6    -0.00  -0.01  -0.13     0.00   0.00  -0.00     0.00   0.01   0.04
  85   6    -0.00   0.00  -0.00     0.00   0.00  -0.00     0.00   0.00   0.00
  86   6    -0.00   0.02   0.13    -0.00   0.00  -0.00     0.00  -0.00  -0.04
  87   6    -0.00   0.04   0.28    -0.00   0.00  -0.00     0.00  -0.01  -0.09
  88   6    -0.00   0.04   0.28    -0.00   0.00   0.00     0.00  -0.01  -0.09
  89   6    -0.00   0.02   0.13    -0.00   0.00   0.00     0.00  -0.00  -0.04
  90   7    -0.00   0.01   0.07    -0.00   0.00   0.00     0.00  -0.00  -0.02
  91   6     0.00   0.00   0.00    -0.00   0.00   0.01     0.00  -0.00   0.00
  92   6     0.00  -0.01  -0.13     0.00   0.00   0.01     0.00   0.00   0.04
  93   6     0.00  -0.03  -0.28     0.00   0.00   0.01     0.00   0.01   0.09
  94   6     0.00  -0.03  -0.28     0.00   0.00   0.01     0.00   0.01   0.09
  95   6     0.00  -0.01  -0.13     0.00   0.00   0.00     0.00   0.00   0.04
  96   7     0.00  -0.01  -0.07     0.00   0.00   0.00     0.00   0.00   0.02
  97   6     0.00   0.00  -0.00     0.00   0.00  -0.00    -0.00  -0.00  -0.00
  98   6     0.00   0.01   0.13     0.00   0.00  -0.00    -0.00  -0.01  -0.04
  99   6     0.00   0.03   0.29     0.00   0.00  -0.01    -0.00  -0.01  -0.09
 100   6     0.00   0.03   0.28     0.00  -0.00  -0.01    -0.00  -0.01  -0.09
 101   6     0.00   0.01   0.13     0.00  -0.00  -0.01    -0.00  -0.01  -0.04
 102   7     0.00   0.01   0.07     0.00   0.00  -0.00    -0.00  -0.00  -0.02
 103   6    -0.00   0.00   0.00     0.00  -0.00  -0.00    -0.00  -0.00  -0.00
 104   6    -0.00  -0.01  -0.13     0.00  -0.00  -0.00    -0.00   0.00   0.04
 105   7    -0.00  -0.01  -0.07     0.00  -0.00  -0.00     0.00   0.00   0.02
 106   1    -0.00  -0.01  -0.11     0.00   0.00   0.00    -0.00   0.00   0.03
 107   1    -0.00  -0.01  -0.11     0.00   0.00   0.00     0.00   0.00   0.03
 108   1    -0.00   0.01   0.11    -0.00  -0.00  -0.00     0.00  -0.00  -0.03
 109   1    -0.00   0.01   0.11    -0.00   0.00   0.00     0.00  -0.00  -0.03
 110   1     0.00   0.00   0.00    -0.00   0.00   0.00     0.00  -0.00   0.00
 111   1     0.00  -0.01  -0.11     0.00   0.00   0.01     0.00   0.00   0.03
 112   1     0.00  -0.01  -0.11     0.00   0.00   0.00     0.00   0.00   0.03
 113   1     0.00   0.01   0.11     0.00   0.00  -0.00    -0.00  -0.00  -0.03
 114   1     0.00   0.01   0.11     0.00  -0.00  -0.00    -0.00  -0.00  -0.03
 115   1    -0.00   0.00   0.00     0.00  -0.00  -0.00    -0.00  -0.00  -0.00
                     13                     14                     15
                        a                      a                      a 
 Frequencies --    34.8599                38.2739                48.9232
 Red. masses --    11.9834                11.9031                11.2025
 Frc consts  --     0.0000                 0.0000                 0.0000
 IR Inten    --     1.4494                 4.8587                 0.5680
 Raman Activ --     0.0000                 0.0000                 0.0000
 Depolar     --     0.0000                 0.0000                 0.0000
 Atom AN      X      Y      Z        X      Y      Z        X      Y      Z
   1  26    -0.01   0.05   0.04    -0.00   0.06  -0.02     0.00  -0.01  -0.00
   2   6     0.05   0.07   0.08     0.06   0.08  -0.04    -0.01  -0.01  -0.05
   3   6     0.04   0.08  -0.02     0.04   0.09   0.01    -0.00  -0.01   0.09
   4   6     0.02   0.07  -0.05     0.02   0.08   0.03    -0.00  -0.01   0.12
   5   6    -0.00   0.08  -0.10    -0.00   0.09   0.06     0.00  -0.01   0.18
   6   6    -0.02   0.07  -0.05    -0.02   0.08   0.03     0.00  -0.01   0.12
   7   6    -0.04   0.08  -0.01    -0.05   0.09   0.02     0.01  -0.01   0.09
   8   6    -0.06   0.06   0.08    -0.06   0.07  -0.03     0.01  -0.01  -0.05
   9   6    -0.05   0.04   0.09    -0.05   0.05  -0.04     0.01  -0.01  -0.08
  10   7    -0.03   0.05   0.02    -0.03   0.06  -0.00     0.00  -0.01   0.03
  11   6    -0.06   0.02   0.13    -0.06   0.03  -0.07     0.01  -0.00  -0.17
  12   6    -0.05   0.00   0.07    -0.05   0.00  -0.04     0.01  -0.00  -0.11
  13   6    -0.06  -0.02   0.04    -0.06  -0.02  -0.03     0.01   0.00  -0.10
  14   6    -0.04  -0.04  -0.06    -0.05  -0.04   0.02     0.01   0.00   0.03
  15   6    -0.02  -0.02  -0.08    -0.02  -0.03   0.04     0.00   0.00   0.08
  16   7    -0.03  -0.00  -0.00    -0.03  -0.00  -0.00     0.01   0.00  -0.00
  17   6    -0.00  -0.04  -0.13    -0.00  -0.04   0.07     0.00   0.01   0.15
  18   6     0.02  -0.02  -0.08     0.02  -0.03   0.04    -0.00   0.00   0.08
  19   6     0.04  -0.03  -0.06     0.05  -0.04   0.03    -0.00   0.00   0.04
  20   6     0.05  -0.02   0.05     0.06  -0.02  -0.03    -0.01   0.00  -0.10
  21   6     0.04   0.00   0.07     0.05   0.00  -0.04    -0.00  -0.00  -0.11
  22   7     0.02  -0.00   0.00     0.03  -0.00  -0.00    -0.00  -0.00  -0.00
  23   6     0.05   0.03   0.13     0.06   0.03  -0.07    -0.00  -0.01  -0.17
  24   6     0.04   0.05   0.09     0.05   0.05  -0.04    -0.00  -0.01  -0.08
  25   7     0.02   0.05   0.02     0.02   0.06  -0.00    -0.00  -0.01   0.03
  26   1     0.02   0.02   0.04     0.02   0.02  -0.02    -0.00  -0.00  -0.03
  27   1     0.01   0.03  -0.02     0.01   0.03   0.01    -0.00  -0.00   0.05
  28   1    -0.01   0.03  -0.01    -0.01   0.03   0.01     0.00  -0.00   0.05
  29   1    -0.02   0.02   0.04    -0.02   0.02  -0.02     0.00  -0.00  -0.03
  30   1    -0.02   0.01   0.06    -0.02   0.01  -0.03     0.00  -0.00  -0.07
  31   1    -0.02  -0.01   0.03    -0.02  -0.01  -0.02     0.00   0.00  -0.05
  32   1    -0.01  -0.02  -0.03    -0.01  -0.02   0.01     0.00   0.00   0.03
  33   1     0.00  -0.02  -0.06    -0.00  -0.02   0.03    -0.00   0.00   0.07
  34   1     0.01  -0.02  -0.03     0.01  -0.02   0.02    -0.00   0.00   0.03
  35   1     0.02  -0.00   0.03     0.02  -0.01  -0.01    -0.00   0.00  -0.05
  36   1     0.02   0.01   0.06     0.02   0.01  -0.03    -0.00  -0.00  -0.07
  37  26     0.01  -0.00   0.05     0.00  -0.07  -0.02    -0.00   0.01   0.01
  38   6     0.01  -0.01   0.09    -0.07  -0.09  -0.03     0.01   0.00   0.05
  39   6     0.01   0.01  -0.01    -0.05  -0.11  -0.01     0.01   0.03  -0.09
  40   6     0.00   0.02  -0.05    -0.02  -0.10  -0.00     0.00   0.04  -0.13
  41   6     0.00   0.03  -0.10     0.00  -0.12   0.01    -0.00   0.05  -0.19
  42   6     0.00   0.02  -0.05     0.03  -0.10  -0.00    -0.00   0.04  -0.13
  43   6    -0.00   0.01  -0.01     0.06  -0.11  -0.01    -0.01   0.03  -0.09
  44   6    -0.00  -0.01   0.09     0.08  -0.09  -0.03    -0.01   0.00   0.05
  45   6    -0.00  -0.01   0.10     0.06  -0.06  -0.03    -0.01  -0.01   0.08
  46   7     0.00   0.00   0.02     0.03  -0.07  -0.01    -0.00   0.01  -0.03
  47   6    -0.00  -0.02   0.14     0.08  -0.03  -0.04    -0.01  -0.03   0.17
  48   6    -0.00  -0.01   0.08     0.06  -0.00  -0.02    -0.01  -0.02   0.11
  49   6    -0.00  -0.01   0.05     0.08   0.03  -0.01    -0.01  -0.02   0.11
  50   6    -0.00   0.01  -0.06     0.06   0.04   0.02    -0.01   0.00  -0.04
  51   6     0.00   0.01  -0.08     0.03   0.03   0.02    -0.00   0.01  -0.09
  52   7     0.00   0.00  -0.00     0.03   0.00  -0.00    -0.00   0.00   0.00
  53   6     0.00   0.02  -0.14     0.00   0.04   0.04    -0.00   0.03  -0.16
  54   6     0.00   0.01  -0.08    -0.03   0.03   0.02     0.00   0.01  -0.09
  55   6     0.01   0.01  -0.06    -0.06   0.04   0.02     0.01   0.00  -0.04
  56   6     0.01  -0.01   0.05    -0.08   0.03  -0.01     0.01  -0.02   0.11
  57   6     0.01  -0.01   0.08    -0.06  -0.00  -0.02     0.01  -0.02   0.11
  58   7     0.00  -0.00  -0.00    -0.03   0.00   0.00     0.00  -0.00   0.00
  59   6     0.01  -0.02   0.14    -0.07  -0.03  -0.04     0.01  -0.03   0.17
  60   6     0.01  -0.01   0.10    -0.06  -0.06  -0.03     0.01  -0.01   0.08
  61   7     0.00   0.00   0.02    -0.03  -0.07  -0.01     0.00   0.01  -0.03
  62   1     0.00  -0.01   0.04    -0.03  -0.02  -0.01     0.00  -0.00   0.03
  63   1     0.00   0.01  -0.01    -0.02  -0.04  -0.00     0.00   0.01  -0.05
  64   1    -0.00   0.01  -0.02     0.02  -0.04  -0.00    -0.00   0.01  -0.05
  65   1    -0.00  -0.01   0.04     0.03  -0.02  -0.01    -0.00  -0.00   0.03
  66   1    -0.00  -0.01   0.06     0.03  -0.01  -0.01    -0.00  -0.01   0.08
  67   1    -0.00  -0.01   0.03     0.03   0.01  -0.01    -0.00  -0.01   0.05
  68   1    -0.00   0.00  -0.03     0.02   0.02   0.01    -0.00   0.00  -0.03
  69   1     0.00   0.01  -0.06     0.00   0.02   0.02    -0.00   0.01  -0.07
  70   1     0.00   0.01  -0.03    -0.02   0.02   0.01     0.00   0.00  -0.03
  71   1     0.00  -0.01   0.03    -0.03   0.01  -0.01     0.00  -0.01   0.05
  72   1     0.00  -0.01   0.06    -0.03  -0.01  -0.02     0.00  -0.01   0.08
  73   6    -0.00   0.08  -0.17    -0.00   0.09   0.09     0.00  -0.01   0.22
  74   6    -0.00   0.01  -0.21    -0.00  -0.00   0.10     0.00   0.01   0.17
  75   6    -0.00  -0.03  -0.21    -0.00  -0.06   0.09     0.00   0.02   0.10
  76   6    -0.00  -0.10  -0.17    -0.00  -0.15   0.06    -0.00   0.03  -0.01
  77   6     0.00   0.02  -0.18     0.00   0.17   0.08    -0.00  -0.03  -0.00
  78   6     0.00   0.03  -0.22     0.00   0.07   0.07    -0.00   0.00  -0.11
  79   6     0.00   0.04  -0.21     0.00  -0.01   0.05    -0.00   0.02  -0.18
  80   6     0.00   0.04  -0.17     0.00  -0.12   0.03    -0.00   0.05  -0.22
  81  26     0.00  -0.06   0.06    -0.00   0.01  -0.01    -0.00  -0.01   0.00
  82   6     0.05  -0.06   0.08     0.13  -0.10  -0.07    -0.03   0.00  -0.13
  83   6     0.03  -0.08  -0.03     0.09  -0.13  -0.03    -0.02   0.01  -0.13
  84   6     0.01  -0.08  -0.06     0.04  -0.11  -0.00    -0.01   0.01  -0.09
  85   6    -0.00  -0.09  -0.11    -0.00  -0.13   0.03    -0.00   0.02  -0.07
  86   6    -0.02  -0.08  -0.06    -0.04  -0.10   0.00     0.01   0.01  -0.09
  87   6    -0.03  -0.08  -0.02    -0.09  -0.13  -0.03     0.02   0.01  -0.13
  88   6    -0.05  -0.06   0.08    -0.13  -0.10  -0.06     0.03   0.00  -0.13
  89   6    -0.04  -0.04   0.10    -0.10  -0.05  -0.05     0.02  -0.00  -0.07
  90   7    -0.02  -0.05   0.02    -0.05  -0.06  -0.02     0.01   0.00  -0.06
  91   6    -0.05  -0.01   0.15    -0.12   0.00  -0.06     0.03  -0.00   0.00
  92   6    -0.04   0.00   0.10    -0.10   0.05  -0.02     0.02  -0.01   0.07
  93   6    -0.05   0.02   0.08    -0.13   0.10   0.00     0.03  -0.01   0.13
  94   6    -0.03   0.02  -0.02    -0.09   0.15   0.05     0.02  -0.02   0.13
  95   6    -0.02   0.01  -0.06    -0.04   0.12   0.05     0.01  -0.02   0.08
  96   7    -0.02  -0.01   0.02    -0.05   0.07   0.02     0.01  -0.01   0.06
  97   6     0.00   0.01  -0.11     0.00   0.15   0.07    -0.00  -0.03   0.06
  98   6     0.02   0.01  -0.05     0.04   0.12   0.05    -0.01  -0.02   0.08
  99   6     0.04   0.02  -0.02     0.09   0.15   0.05    -0.02  -0.02   0.13
 100   6     0.05   0.01   0.09     0.13   0.10   0.01    -0.03  -0.01   0.13
 101   6     0.04  -0.00   0.10     0.10   0.05  -0.02    -0.02  -0.01   0.07
 102   7     0.02  -0.01   0.02     0.05   0.07   0.02    -0.01  -0.01   0.06
 103   6     0.05  -0.01   0.15     0.12  -0.00  -0.06    -0.03  -0.00   0.00
 104   6     0.04  -0.04   0.10     0.10  -0.05  -0.06    -0.02  -0.00  -0.07
 105   7     0.02  -0.05   0.02     0.05  -0.06  -0.02    -0.01   0.00  -0.06
 106   1     0.02  -0.02   0.04     0.05  -0.03  -0.03    -0.01   0.00  -0.04
 107   1     0.01  -0.03  -0.02     0.03  -0.05  -0.01    -0.01   0.00  -0.05
 108   1    -0.01  -0.03  -0.02    -0.03  -0.05  -0.01     0.01   0.00  -0.05
 109   1    -0.02  -0.01   0.04    -0.05  -0.03  -0.03     0.01  -0.00  -0.04
 110   1    -0.02  -0.00   0.06    -0.05  -0.00  -0.02     0.01  -0.00   0.00
 111   1    -0.02   0.01   0.04    -0.05   0.03  -0.00     0.01  -0.00   0.05
 112   1    -0.01   0.01  -0.02    -0.03   0.06   0.02     0.01  -0.01   0.05
 113   1     0.01   0.01  -0.02     0.03   0.05   0.02    -0.01  -0.01   0.05
 114   1     0.02   0.01   0.04     0.05   0.03  -0.00    -0.01  -0.00   0.05
 115   1     0.02  -0.00   0.06     0.05  -0.00  -0.02    -0.01  -0.00   0.00
                     16                     17                     18
                        a                      a                      a 
 Frequencies --    51.7006                62.1543                88.2610
 Red. masses --    18.2995                11.4561                15.7955
 Frc consts  --     0.0000                 0.0000                 0.0000
 IR Inten    --     4.3375                 0.5094                 6.2516
 Raman Activ --     0.0000                 0.0000                 0.0000
 Depolar     --     0.0000                 0.0000                 0.0000
 Atom AN      X      Y      Z        X      Y      Z        X      Y      Z
   1  26    -0.27  -0.00  -0.00    -0.00   0.00   0.04    -0.00   0.01   0.23
   2   6    -0.13   0.01  -0.00     0.00   0.00  -0.01     0.00   0.00  -0.00
   3   6    -0.12  -0.00   0.00     0.00   0.01   0.11     0.00   0.00   0.03
   4   6    -0.10   0.01   0.00    -0.00   0.00   0.13    -0.00   0.00   0.07
   5   6    -0.09   0.00   0.00    -0.00   0.01   0.16    -0.00   0.00   0.04
   6   6    -0.10  -0.01   0.00    -0.00   0.00   0.13    -0.00   0.00   0.07
   7   6    -0.12   0.00   0.00    -0.00   0.01   0.11    -0.00   0.00   0.03
   8   6    -0.13  -0.01  -0.00    -0.00   0.00  -0.01    -0.00   0.00  -0.00
   9   6    -0.12  -0.02  -0.00    -0.00   0.00  -0.04    -0.00   0.00   0.01
  10   7    -0.12  -0.02   0.00    -0.00   0.00   0.05    -0.00   0.00   0.08
  11   6    -0.12  -0.02  -0.00    -0.00   0.00  -0.15    -0.00   0.00  -0.09
  12   6    -0.13  -0.01  -0.00    -0.00  -0.00  -0.11    -0.00   0.00  -0.08
  13   6    -0.13  -0.01  -0.00    -0.00  -0.00  -0.12    -0.00  -0.00  -0.19
  14   6    -0.13  -0.00   0.00    -0.00  -0.00   0.01    -0.00  -0.00  -0.07
  15   6    -0.14  -0.00   0.00    -0.00  -0.00   0.08    -0.00  -0.00   0.07
  16   7    -0.15  -0.01  -0.00    -0.00   0.00   0.01    -0.00   0.00   0.06
  17   6    -0.14  -0.00   0.00    -0.00  -0.00   0.14    -0.00  -0.00   0.12
  18   6    -0.14   0.00   0.00    -0.00  -0.00   0.08     0.00  -0.00   0.07
  19   6    -0.13  -0.00  -0.00     0.00  -0.00   0.01     0.00  -0.00  -0.07
  20   6    -0.12   0.00  -0.00     0.00  -0.00  -0.12     0.00  -0.00  -0.19
  21   6    -0.13   0.01  -0.00     0.00  -0.00  -0.11     0.00  -0.00  -0.08
  22   7    -0.15   0.01  -0.00    -0.00   0.00   0.01     0.00   0.00   0.06
  23   6    -0.12   0.02  -0.00     0.00   0.00  -0.15     0.00   0.00  -0.09
  24   6    -0.12   0.02  -0.00     0.00   0.00  -0.04     0.00   0.00   0.01
  25   7    -0.12   0.02  -0.00    -0.00   0.00   0.05     0.00   0.00   0.08
  26   1    -0.04   0.00  -0.00     0.00   0.00  -0.02     0.00   0.00  -0.01
  27   1    -0.03  -0.00   0.00     0.00   0.00   0.05     0.00   0.00   0.01
  28   1    -0.03   0.00   0.00    -0.00   0.00   0.05    -0.00   0.00   0.01
  29   1    -0.04  -0.00  -0.00    -0.00   0.00  -0.02    -0.00   0.00  -0.01
  30   1    -0.03  -0.01  -0.00    -0.00   0.00  -0.07    -0.00   0.00  -0.05
  31   1    -0.03  -0.00  -0.00    -0.00  -0.00  -0.06    -0.00  -0.00  -0.09
  32   1    -0.04   0.00   0.00    -0.00  -0.00   0.01    -0.00  -0.00  -0.03
  33   1    -0.04  -0.00   0.00    -0.00  -0.00   0.06    -0.00  -0.00   0.04
  34   1    -0.04  -0.00   0.00     0.00  -0.00   0.01     0.00  -0.00  -0.03
  35   1    -0.03   0.00  -0.00     0.00  -0.00  -0.06     0.00  -0.00  -0.09
  36   1    -0.03   0.01  -0.00     0.00   0.00  -0.07     0.00  -0.00  -0.05
  37  26     0.27   0.00  -0.00     0.00   0.00   0.04    -0.00   0.03  -0.22
  38   6     0.13  -0.01  -0.00     0.01   0.01  -0.00    -0.01  -0.01   0.00
  39   6     0.12   0.00  -0.00     0.01  -0.01   0.11    -0.00  -0.00  -0.04
  40   6     0.10  -0.01  -0.00     0.00  -0.01   0.13    -0.00   0.00  -0.07
  41   6     0.09  -0.00  -0.00     0.00  -0.02   0.16    -0.00  -0.00  -0.04
  42   6     0.10   0.01   0.00    -0.00  -0.01   0.13     0.00   0.00  -0.07
  43   6     0.12  -0.00   0.00    -0.00  -0.01   0.11     0.00  -0.00  -0.04
  44   6     0.13   0.01   0.00    -0.01   0.01  -0.00     0.01  -0.01   0.00
  45   6     0.12   0.02   0.00    -0.00   0.01  -0.04     0.00  -0.00  -0.01
  46   7     0.12   0.02   0.00    -0.00  -0.00   0.05     0.00   0.01  -0.08
  47   6     0.12   0.02   0.01    -0.01   0.03  -0.14     0.01  -0.02   0.09
  48   6     0.13   0.01   0.00    -0.01   0.02  -0.10     0.01  -0.02   0.08
  49   6     0.13   0.01  -0.00    -0.01   0.02  -0.12     0.01  -0.03   0.18
  50   6     0.13   0.00  -0.00    -0.00  -0.01   0.01     0.01  -0.01   0.07
  51   6     0.14   0.00  -0.00    -0.00  -0.02   0.07     0.00   0.01  -0.07
  52   7     0.15   0.01   0.00    -0.00  -0.00   0.01     0.00   0.01  -0.06
  53   6     0.14   0.00  -0.00     0.00  -0.03   0.14    -0.00   0.03  -0.12
  54   6     0.14  -0.00  -0.00     0.00  -0.02   0.07    -0.00   0.01  -0.07
  55   6     0.13   0.00   0.00     0.01  -0.01   0.01    -0.01  -0.01   0.07
  56   6     0.12  -0.00   0.00     0.01   0.02  -0.12    -0.01  -0.03   0.18
  57   6     0.13  -0.01  -0.00     0.01   0.02  -0.10    -0.01  -0.02   0.08
  58   7     0.15  -0.01  -0.00     0.00  -0.00   0.01    -0.00   0.01  -0.06
  59   6     0.12  -0.02  -0.00     0.01   0.03  -0.14    -0.01  -0.02   0.09
  60   6     0.12  -0.02  -0.00     0.01   0.01  -0.04    -0.00  -0.00  -0.01
  61   7     0.12  -0.02  -0.00     0.00  -0.00   0.05    -0.00   0.01  -0.08
  62   1     0.04  -0.00  -0.00     0.00   0.01  -0.02    -0.00  -0.00   0.01
  63   1     0.03   0.00  -0.00     0.00  -0.01   0.05    -0.00  -0.00  -0.01
  64   1     0.03  -0.00   0.00    -0.00  -0.01   0.05     0.00  -0.00  -0.01
  65   1     0.04   0.00   0.00    -0.00   0.01  -0.02     0.00  -0.00   0.01
  66   1     0.03   0.01   0.00    -0.00   0.01  -0.06     0.00  -0.01   0.05
  67   1     0.03   0.00  -0.00    -0.00   0.01  -0.06     0.00  -0.02   0.09
  68   1     0.04  -0.00  -0.00    -0.00  -0.00   0.01     0.00  -0.00   0.03
  69   1     0.04   0.00  -0.00     0.00  -0.01   0.06    -0.00   0.01  -0.04
  70   1     0.04   0.00   0.00     0.00  -0.00   0.01    -0.00  -0.00   0.03
  71   1     0.03  -0.00   0.00     0.00   0.01  -0.06    -0.00  -0.02   0.09
  72   1     0.03  -0.01  -0.00     0.00   0.01  -0.06    -0.00  -0.01   0.05
  73   6    -0.08   0.00   0.00    -0.00   0.00   0.13    -0.00  -0.00  -0.08
  74   6    -0.08   0.00   0.01    -0.00  -0.01   0.00    -0.00  -0.02  -0.23
  75   6    -0.07   0.00   0.01    -0.00  -0.02  -0.10    -0.00  -0.03  -0.26
  76   6    -0.06   0.01   0.01    -0.00  -0.02  -0.20    -0.00  -0.03  -0.18
  77   6     0.06  -0.01   0.00     0.00  -0.02  -0.20    -0.00   0.02   0.18
  78   6     0.07  -0.00   0.00     0.00  -0.02  -0.10    -0.00   0.01   0.26
  79   6     0.08  -0.00   0.00     0.00  -0.02  -0.00    -0.00  -0.00   0.23
  80   6     0.08  -0.00   0.00     0.00  -0.02   0.12    -0.00  -0.01   0.08
  81  26     0.00   0.00  -0.00     0.00  -0.00  -0.07     0.00   0.00   0.01
  82   6    -0.00   0.02  -0.00     0.00   0.01   0.10     0.01   0.01   0.15
  83   6    -0.02   0.00   0.00     0.00  -0.01  -0.06     0.00   0.01   0.09
  84   6    -0.04   0.01   0.00     0.00  -0.01  -0.13     0.00  -0.00  -0.00
  85   6    -0.06   0.01   0.00    -0.00  -0.02  -0.20     0.00  -0.01  -0.08
  86   6    -0.03  -0.00   0.00    -0.00  -0.02  -0.13    -0.00  -0.00  -0.00
  87   6    -0.01   0.01  -0.00    -0.00  -0.01  -0.06    -0.00   0.01   0.09
  88   6     0.01  -0.01  -0.00    -0.00   0.01   0.10    -0.00   0.02   0.15
  89   6    -0.00  -0.03  -0.00    -0.00   0.01   0.10    -0.00   0.01   0.08
  90   7    -0.03  -0.02   0.00    -0.00  -0.00  -0.04    -0.00   0.00   0.01
  91   6     0.01  -0.04  -0.00    -0.00   0.02   0.20    -0.00   0.00  -0.00
  92   6     0.01  -0.03   0.00    -0.00   0.01   0.10    -0.00  -0.01  -0.08
  93   6     0.00  -0.02   0.00    -0.00   0.01   0.10    -0.00  -0.01  -0.16
  94   6     0.02  -0.00   0.00     0.00  -0.00  -0.06    -0.00  -0.00  -0.09
  95   6     0.04  -0.01   0.00     0.00  -0.01  -0.13    -0.00   0.01   0.01
  96   7     0.04  -0.03   0.00     0.00  -0.00  -0.04    -0.00   0.00  -0.01
  97   6     0.06  -0.01   0.00     0.00  -0.02  -0.20    -0.00   0.01   0.08
  98   6     0.03   0.00   0.00     0.00  -0.01  -0.13     0.00   0.01   0.01
  99   6     0.01  -0.01  -0.00     0.00  -0.00  -0.06     0.00  -0.00  -0.09
 100   6    -0.01   0.01  -0.01     0.00   0.01   0.10     0.00  -0.01  -0.16
 101   6     0.00   0.03  -0.01     0.00   0.01   0.10     0.00  -0.01  -0.08
 102   7     0.03   0.02  -0.00     0.00  -0.00  -0.04     0.00   0.00  -0.01
 103   6    -0.00   0.04  -0.01     0.00   0.02   0.20     0.00   0.00  -0.00
 104   6    -0.01   0.03  -0.00     0.00   0.01   0.10     0.00   0.01   0.08
 105   7    -0.04   0.03  -0.00     0.00  -0.00  -0.04     0.00   0.00   0.01
 106   1     0.00   0.00  -0.00     0.00   0.01   0.06     0.00   0.01   0.07
 107   1    -0.00  -0.00   0.00     0.00  -0.00  -0.03     0.00   0.00   0.03
 108   1    -0.00   0.01  -0.00    -0.00  -0.00  -0.03    -0.00   0.00   0.03
 109   1     0.01  -0.00  -0.00    -0.00   0.01   0.06    -0.00   0.01   0.07
 110   1     0.00  -0.01  -0.00    -0.00   0.01   0.09    -0.00   0.00  -0.00
 111   1    -0.00  -0.00  -0.00    -0.00   0.01   0.06    -0.00  -0.01  -0.07
 112   1     0.00   0.00   0.00     0.00  -0.00  -0.03    -0.00  -0.00  -0.03
 113   1     0.00  -0.01   0.00     0.00  -0.00  -0.03     0.00  -0.00  -0.03
 114   1    -0.01   0.00  -0.00     0.00   0.01   0.06     0.00  -0.01  -0.07
 115   1    -0.00   0.01  -0.00     0.00   0.01   0.09     0.00   0.00  -0.00
                     19                     20                     21
                        a                      a                      a 
 Frequencies --    91.6950                93.6916                94.4011
 Red. masses --    29.3590                29.3269                25.3557
 Frc consts  --     0.0000                 0.0000                 0.0000
 IR Inten    --     1.6582                21.4954                11.8260
 Raman Activ --     0.0000                 0.0000                 0.0000
 Depolar     --     0.0000                 0.0000                 0.0000
 Atom AN      X      Y      Z        X      Y      Z        X      Y      Z
   1  26     0.00  -0.00  -0.22    -0.00   0.00   0.41    -0.00   0.00  -0.39
   2   6    -0.00  -0.00   0.04     0.00  -0.00  -0.17    -0.00   0.00   0.19
   3   6    -0.00  -0.00   0.03     0.00  -0.00  -0.17    -0.00   0.00   0.19
   4   6     0.00  -0.00  -0.02    -0.00  -0.00  -0.01    -0.00   0.00   0.02
   5   6     0.00  -0.00  -0.01    -0.00  -0.00   0.00     0.00   0.00  -0.00
   6   6     0.00  -0.00  -0.02    -0.00  -0.00  -0.01    -0.00   0.00   0.02
   7   6    -0.00  -0.00   0.03     0.00  -0.00  -0.17    -0.00   0.00   0.19
   8   6    -0.00  -0.00   0.04     0.00  -0.00  -0.17    -0.00   0.00   0.19
   9   6     0.00  -0.00  -0.01     0.00   0.00  -0.01    -0.00  -0.00   0.01
  10   7     0.00  -0.00  -0.06    -0.00   0.00   0.09    -0.00   0.00  -0.08
  11   6    -0.00  -0.00   0.04     0.00   0.00   0.01    -0.00  -0.00  -0.03
  12   6    -0.00  -0.00   0.03     0.00   0.00   0.03    -0.00  -0.00  -0.06
  13   6    -0.00   0.00   0.11     0.00   0.00  -0.10    -0.00  -0.00   0.05
  14   6    -0.00   0.00   0.07     0.00  -0.00  -0.13    -0.00  -0.00   0.13
  15   6    -0.00   0.00  -0.03     0.00   0.00  -0.02    -0.00  -0.00   0.04
  16   7    -0.00  -0.00  -0.05    -0.00   0.00   0.09    -0.00  -0.00  -0.08
  17   6    -0.00   0.00  -0.04     0.00   0.00  -0.06    -0.00  -0.00   0.10
  18   6    -0.00   0.00  -0.03    -0.00  -0.00  -0.02    -0.00  -0.00   0.04
  19   6    -0.00   0.00   0.07     0.00  -0.00  -0.13    -0.00  -0.00   0.13
  20   6    -0.00   0.00   0.11    -0.00  -0.00  -0.10    -0.00   0.00   0.05
  21   6    -0.00   0.00   0.03    -0.00  -0.00   0.03    -0.00   0.00  -0.06
  22   7    -0.00   0.00  -0.05    -0.00   0.00   0.09    -0.00   0.00  -0.08
  23   6    -0.00   0.00   0.04    -0.00  -0.00   0.01    -0.00   0.00  -0.03
  24   6    -0.00   0.00  -0.01    -0.00  -0.00  -0.01    -0.00   0.00   0.01
  25   7     0.00  -0.00  -0.06    -0.00  -0.00   0.09     0.00   0.00  -0.08
  26   1    -0.00   0.00   0.03     0.00  -0.00  -0.08    -0.00   0.00   0.09
  27   1    -0.00  -0.00   0.02     0.00  -0.00  -0.08    -0.00   0.00   0.09
  28   1    -0.00  -0.00   0.02     0.00  -0.00  -0.08    -0.00   0.00   0.09
  29   1    -0.00  -0.00   0.03     0.00  -0.00  -0.08    -0.00   0.00   0.09
  30   1    -0.00  -0.00   0.03     0.00   0.00  -0.02    -0.00  -0.00   0.01
  31   1    -0.00   0.00   0.06     0.00  -0.00  -0.05    -0.00  -0.00   0.03
  32   1    -0.00   0.00   0.03     0.00  -0.00  -0.07    -0.00   0.00   0.07
  33   1    -0.00   0.00  -0.01     0.00  -0.00  -0.04    -0.00  -0.00   0.06
  34   1    -0.00   0.00   0.03     0.00  -0.00  -0.07    -0.00  -0.00   0.07
  35   1    -0.00   0.00   0.06    -0.00  -0.00  -0.05    -0.00   0.00   0.03
  36   1    -0.00   0.00   0.03    -0.00  -0.00  -0.02     0.00   0.00   0.01
  37  26    -0.00   0.04  -0.23     0.00  -0.07   0.39    -0.00  -0.08   0.41
  38   6    -0.00  -0.01   0.05    -0.00   0.03  -0.15    -0.00   0.03  -0.19
  39   6    -0.00  -0.01   0.03     0.00   0.03  -0.15    -0.00   0.03  -0.19
  40   6    -0.00   0.00  -0.03     0.00  -0.00  -0.01     0.00  -0.00  -0.02
  41   6    -0.00  -0.00  -0.01     0.00  -0.00   0.00     0.00  -0.00  -0.00
  42   6     0.00   0.00  -0.03     0.00  -0.00  -0.01    -0.00  -0.00  -0.02
  43   6     0.00  -0.01   0.03    -0.00   0.02  -0.15    -0.00   0.03  -0.19
  44   6     0.00  -0.01   0.05    -0.00   0.03  -0.15    -0.00   0.03  -0.19
  45   6     0.00  -0.00  -0.01     0.00  -0.00  -0.01    -0.00  -0.00  -0.01
  46   7     0.00   0.01  -0.06     0.00  -0.02   0.08     0.00  -0.02   0.08
  47   6     0.00  -0.01   0.04     0.00  -0.00   0.00     0.00  -0.01   0.03
  48   6     0.00  -0.01   0.03     0.00  -0.00   0.03     0.00  -0.01   0.06
  49   6     0.00  -0.02   0.11     0.00   0.02  -0.09    -0.00   0.01  -0.06
  50   6     0.00  -0.01   0.07    -0.00   0.03  -0.12    -0.00   0.03  -0.13
  51   6     0.00   0.01  -0.03     0.00   0.00  -0.02    -0.00   0.01  -0.04
  52   7     0.00   0.01  -0.06     0.00  -0.02   0.09    -0.00  -0.02   0.09
  53   6    -0.00   0.01  -0.04    -0.00   0.01  -0.05    -0.00   0.02  -0.10
  54   6    -0.00   0.01  -0.03    -0.00   0.00  -0.02    -0.00   0.01  -0.04
  55   6    -0.00  -0.01   0.07    -0.00   0.02  -0.12    -0.00   0.03  -0.13
  56   6    -0.00  -0.02   0.11    -0.00   0.02  -0.09    -0.00   0.01  -0.06
  57   6    -0.00  -0.01   0.03    -0.00  -0.00   0.03    -0.00  -0.01   0.06
  58   7    -0.00   0.01  -0.06     0.00  -0.02   0.09    -0.00  -0.02   0.09
  59   6    -0.00  -0.01   0.04    -0.00  -0.00   0.00    -0.00  -0.01   0.03
  60   6    -0.00  -0.00  -0.01     0.00  -0.00  -0.01    -0.00   0.00  -0.01
  61   7    -0.00   0.01  -0.06     0.00  -0.02   0.08    -0.00  -0.02   0.08
  62   1    -0.00  -0.01   0.03    -0.00   0.01  -0.07    -0.00   0.02  -0.09
  63   1    -0.00  -0.00   0.02     0.00   0.01  -0.07    -0.00   0.01  -0.09
  64   1     0.00  -0.00   0.02    -0.00   0.01  -0.07    -0.00   0.02  -0.09
  65   1     0.00  -0.01   0.03    -0.00   0.01  -0.07    -0.00   0.01  -0.09
  66   1     0.00  -0.01   0.03     0.00   0.00  -0.02     0.00   0.00  -0.01
  67   1     0.00  -0.01   0.06    -0.00   0.01  -0.05     0.00   0.01  -0.03
  68   1     0.00  -0.01   0.03    -0.00   0.01  -0.06    -0.00   0.01  -0.07
  69   1     0.00   0.00  -0.01    -0.00   0.01  -0.04    -0.00   0.01  -0.06
  70   1    -0.00  -0.01   0.03    -0.00   0.01  -0.06    -0.00   0.01  -0.07
  71   1    -0.00  -0.01   0.06    -0.00   0.01  -0.05    -0.00   0.01  -0.03
  72   1    -0.00  -0.01   0.03    -0.00   0.00  -0.02    -0.00   0.00  -0.01
  73   6     0.00   0.00   0.05    -0.00  -0.00  -0.01     0.00  -0.00  -0.02
  74   6     0.00   0.00   0.10    -0.00   0.00   0.02     0.00  -0.01  -0.09
  75   6     0.00   0.00   0.09    -0.00   0.01   0.04     0.00  -0.01  -0.11
  76   6     0.00   0.00   0.04    -0.00   0.01   0.04     0.00  -0.01  -0.09
  77   6    -0.00   0.00   0.05    -0.00   0.00   0.04     0.00   0.01   0.09
  78   6    -0.00  -0.00   0.10     0.00   0.01   0.03     0.00   0.01   0.12
  79   6    -0.00  -0.01   0.10     0.00   0.01   0.02     0.00   0.00   0.09
  80   6    -0.00  -0.01   0.05     0.00   0.00  -0.01     0.00  -0.00   0.02
  81  26    -0.00  -0.06  -0.55    -0.00  -0.04  -0.30     0.01  -0.00  -0.01
  82   6     0.00   0.02   0.19     0.00   0.01   0.09     0.00   0.01   0.07
  83   6     0.00   0.02   0.15     0.00   0.01   0.10     0.00   0.00   0.04
  84   6     0.00  -0.00  -0.04    -0.00   0.00   0.00     0.00  -0.00  -0.01
  85   6     0.00  -0.00  -0.04    -0.00   0.00   0.01     0.00  -0.01  -0.04
  86   6    -0.00  -0.00  -0.04    -0.00   0.00   0.00     0.00  -0.00  -0.01
  87   6    -0.00   0.02   0.15    -0.00   0.01   0.10     0.00   0.00   0.04
  88   6    -0.00   0.02   0.19    -0.00   0.01   0.09     0.00   0.01   0.07
  89   6    -0.00   0.00   0.01    -0.00  -0.00  -0.01     0.00   0.00   0.03
  90   7    -0.00  -0.01  -0.13    -0.00  -0.01  -0.07     0.00  -0.00  -0.00
  91   6    -0.00   0.01   0.05    -0.00  -0.00  -0.00     0.00   0.00  -0.00
  92   6    -0.00   0.00   0.01    -0.00  -0.00  -0.01     0.00  -0.00  -0.04
  93   6    -0.00   0.02   0.18    -0.00   0.01   0.10     0.00  -0.01  -0.07
  94   6    -0.00   0.02   0.15    -0.00   0.01   0.10     0.00  -0.00  -0.03
  95   6    -0.00  -0.00  -0.04    -0.00  -0.00   0.00     0.00   0.00   0.01
  96   7    -0.00  -0.01  -0.13    -0.00  -0.01  -0.07     0.00   0.00  -0.00
  97   6    -0.00  -0.00  -0.03    -0.00   0.00   0.01     0.00   0.01   0.05
  98   6     0.00  -0.00  -0.04     0.00  -0.00   0.00     0.00   0.00   0.01
  99   6     0.00   0.02   0.15     0.00   0.01   0.10     0.00  -0.00  -0.03
 100   6     0.00   0.02   0.18     0.00   0.01   0.09     0.00  -0.01  -0.07
 101   6     0.00   0.00   0.01    -0.00  -0.00  -0.01     0.00  -0.00  -0.04
 102   7     0.00  -0.01  -0.13    -0.00  -0.01  -0.07     0.00  -0.00  -0.00
 103   6     0.00   0.01   0.05    -0.00  -0.00  -0.00     0.00  -0.00  -0.00
 104   6     0.00   0.00   0.01    -0.00  -0.00  -0.01     0.00   0.00   0.03
 105   7     0.00  -0.01  -0.13    -0.00  -0.01  -0.07     0.00  -0.00  -0.00
 106   1     0.00   0.01   0.10     0.00   0.01   0.04     0.00   0.00   0.03
 107   1     0.00   0.01   0.07     0.00   0.01   0.05     0.00   0.00   0.02
 108   1    -0.00   0.01   0.07    -0.00   0.01   0.05     0.00   0.00   0.02
 109   1    -0.00   0.01   0.09    -0.00   0.01   0.04     0.00   0.00   0.03
 110   1    -0.00   0.01   0.05     0.00   0.00   0.01     0.00   0.00   0.00
 111   1    -0.00   0.01   0.09    -0.00   0.00   0.05     0.00  -0.00  -0.03
 112   1    -0.00   0.01   0.07    -0.00   0.01   0.05     0.00  -0.00  -0.01
 113   1     0.00   0.01   0.07     0.00   0.00   0.05     0.00  -0.00  -0.01
 114   1     0.00   0.01   0.09     0.00   0.00   0.05     0.00  -0.00  -0.03
 115   1     0.00   0.01   0.05    -0.00   0.00   0.01     0.00  -0.00   0.00
                     22                     23                     24
                        a                      a                      a 
 Frequencies --   101.2120               109.4126               124.2653
 Red. masses --    18.1084                12.3918                11.1645
 Frc consts  --     0.0000                 0.0000                 0.0000
 IR Inten    --   280.8073                 1.8944                 1.1011
 Raman Activ --     0.0000                 0.0000                 0.0000
 Depolar     --     0.0000                 0.0000                 0.0000
 Atom AN      X      Y      Z        X      Y      Z        X      Y      Z
   1  26    -0.16   0.00   0.01     0.00   0.00  -0.01    -0.00   0.00  -0.04
   2   6    -0.08   0.02  -0.00     0.00  -0.00  -0.15     0.00   0.00  -0.15
   3   6    -0.06  -0.00  -0.00     0.00   0.00  -0.09     0.00   0.00  -0.03
   4   6    -0.02   0.02  -0.00    -0.00   0.00   0.02    -0.00   0.00   0.10
   5   6     0.03   0.00   0.00    -0.00   0.00   0.09     0.00   0.00   0.18
   6   6    -0.02  -0.01   0.00     0.00   0.00   0.02     0.00   0.00   0.10
   7   6    -0.06   0.01  -0.00     0.00   0.00  -0.09    -0.00   0.00  -0.03
   8   6    -0.09  -0.02  -0.01     0.00   0.00  -0.15    -0.00   0.00  -0.15
   9   6    -0.07  -0.05  -0.00     0.00   0.00  -0.05    -0.00   0.00  -0.07
  10   7    -0.03  -0.05   0.00     0.00   0.00   0.01     0.00   0.00   0.05
  11   6    -0.07  -0.06   0.00    -0.00   0.00   0.04    -0.00  -0.00  -0.00
  12   6    -0.09  -0.04   0.00    -0.00   0.00   0.09    -0.00  -0.00   0.06
  13   6    -0.08  -0.01  -0.00    -0.00  -0.00   0.16    -0.00  -0.00   0.17
  14   6    -0.09   0.00  -0.00    -0.00  -0.00   0.02    -0.00  -0.00   0.05
  15   6    -0.12  -0.01  -0.00     0.00  -0.00  -0.09    -0.00  -0.00  -0.09
  16   7    -0.12  -0.03   0.00     0.00  -0.00  -0.03    -0.00  -0.00  -0.06
  17   6    -0.13  -0.00  -0.00     0.00  -0.00  -0.18     0.00  -0.00  -0.17
  18   6    -0.12   0.00  -0.00     0.00  -0.00  -0.09     0.00  -0.00  -0.09
  19   6    -0.09  -0.01  -0.00     0.00  -0.00   0.02     0.00  -0.00   0.05
  20   6    -0.07   0.01  -0.00     0.00   0.00   0.16     0.00   0.00   0.17
  21   6    -0.09   0.04   0.00     0.00   0.00   0.09     0.00   0.00   0.06
  22   7    -0.12   0.03   0.00     0.00  -0.00  -0.03     0.00   0.00  -0.06
  23   6    -0.07   0.06   0.00     0.00   0.00   0.04     0.00   0.00  -0.01
  24   6    -0.07   0.05  -0.00     0.00  -0.00  -0.05     0.00   0.00  -0.07
  25   7    -0.03   0.05   0.00     0.00   0.00   0.01     0.00   0.00   0.05
  26   1    -0.03   0.01  -0.00     0.00  -0.00  -0.07     0.00   0.00  -0.08
  27   1    -0.02  -0.01  -0.00     0.00   0.00  -0.04     0.00   0.00  -0.01
  28   1    -0.02   0.01  -0.00     0.00   0.00  -0.04    -0.00   0.00  -0.01
  29   1    -0.03  -0.01  -0.00     0.00   0.00  -0.07    -0.00   0.00  -0.08
  30   1    -0.02  -0.02  -0.00    -0.00   0.00   0.02    -0.00  -0.00  -0.00
  31   1    -0.02  -0.00  -0.00    -0.00   0.00   0.08    -0.00  -0.00   0.09
  32   1    -0.03   0.01  -0.00    -0.00  -0.00   0.00    -0.00  -0.00   0.02
  33   1    -0.04  -0.00  -0.00     0.00  -0.00  -0.07     0.00  -0.00  -0.06
  34   1    -0.03  -0.01  -0.00     0.00  -0.00   0.00     0.00  -0.00   0.02
  35   1    -0.02   0.00  -0.00    -0.00   0.00   0.08     0.00   0.00   0.09
  36   1    -0.02   0.02  -0.00     0.00   0.00   0.02     0.00   0.00  -0.00
  37  26    -0.16   0.00  -0.01     0.00   0.00  -0.00    -0.00  -0.02   0.03
[...]
 107   1     0.04   0.01  -0.00     0.07   0.01  -0.00     0.08   0.01  -0.00
 108   1     0.03  -0.00   0.00     0.05  -0.01   0.00     0.11  -0.02   0.00
 109   1     0.00  -0.01   0.00     0.00  -0.03   0.00     0.00  -0.08   0.01
 110   1     0.00   0.00  -0.00    -0.00   0.00  -0.00     0.00  -0.00   0.00
 111   1    -0.00  -0.02   0.00    -0.00  -0.03   0.00    -0.02  -0.25   0.03
 112   1    -0.04  -0.01   0.00    -0.05  -0.01   0.00    -0.43  -0.06   0.01
 113   1    -0.03   0.00  -0.00    -0.09   0.02  -0.00    -0.00   0.00  -0.00
 114   1    -0.00   0.01  -0.00    -0.00   0.06  -0.01     0.00  -0.00   0.00
 115   1    -0.00  -0.00   0.00     0.00   0.00  -0.00    -0.00  -0.00   0.00
                    334                    335                    336
                        a                      a                      a 
 Frequencies --  3165.1154              3165.5705              3165.9744
 Red. masses --     1.9646                 1.9640                 1.9637
 Frc consts  --     0.0000                 0.0000                 0.0000
 IR Inten    --    21.1741               755.8231                64.5262
 Raman Activ --     0.0000                 0.0000                 0.0000
 Depolar     --     0.0000                 0.0000                 0.0000
 Atom AN      X      Y      Z        X      Y      Z        X      Y      Z
   1  26     0.00  -0.00   0.00     0.00  -0.00   0.00    -0.00   0.00  -0.00
   2   6    -0.00   0.06  -0.00    -0.00   0.09  -0.00     0.00  -0.09   0.00
   3   6    -0.10   0.01  -0.00    -0.15   0.02  -0.00     0.15  -0.02   0.00
   4   6    -0.00  -0.00   0.00    -0.00  -0.01   0.00     0.00   0.00  -0.00
   5   6    -0.00   0.00  -0.00    -0.00   0.00  -0.00     0.00  -0.00   0.00
   6   6     0.00  -0.00   0.00    -0.00   0.00  -0.00    -0.00  -0.00   0.00
   7   6     0.11   0.01   0.00    -0.06  -0.01  -0.00    -0.00  -0.00  -0.00
   8   6    -0.00   0.08   0.00     0.00  -0.04  -0.00    -0.00  -0.00  -0.00
   9   6    -0.00   0.00  -0.00     0.00  -0.00   0.00     0.00   0.00   0.00
  10   7    -0.00  -0.00  -0.00     0.00   0.00   0.00    -0.00   0.00  -0.00
  11   6     0.00   0.00  -0.00    -0.00  -0.00  -0.00    -0.00  -0.00  -0.00
  12   6     0.00   0.00   0.00     0.00   0.00  -0.00    -0.00  -0.00   0.00
  13   6    -0.00   0.01  -0.00     0.00   0.00  -0.00     0.00  -0.00   0.00
  14   6    -0.01   0.00  -0.00    -0.00   0.00  -0.00     0.00  -0.00   0.00
  15   6    -0.00  -0.00  -0.00    -0.00  -0.00  -0.00     0.00   0.00   0.00
  16   7     0.00  -0.00  -0.00     0.00   0.00   0.00     0.00  -0.00  -0.00
  17   6    -0.00   0.00  -0.00    -0.00   0.00  -0.00     0.00  -0.00   0.00
  18   6     0.00  -0.00   0.00    -0.00  -0.00  -0.00    -0.00   0.00  -0.00
  19   6    -0.00  -0.00  -0.00     0.00   0.00   0.00    -0.00  -0.00  -0.00
  20   6    -0.00  -0.00   0.00     0.00   0.00  -0.00    -0.00  -0.00   0.00
  21   6     0.00  -0.00   0.00    -0.00  -0.00   0.00     0.00   0.00   0.00
  22   7    -0.00  -0.00   0.00    -0.00  -0.00   0.00     0.00   0.00  -0.00
  23   6    -0.00   0.00  -0.00    -0.00   0.00  -0.00     0.00  -0.00   0.00
  24   6     0.00   0.00   0.00     0.00   0.00   0.00    -0.00  -0.00  -0.00
  25   7     0.00  -0.00   0.00     0.00  -0.00   0.00    -0.00   0.00  -0.00
  26   1     0.01  -0.19   0.00     0.02  -0.29   0.00    -0.02   0.28  -0.00
  27   1     0.32  -0.05   0.00     0.50  -0.07   0.00    -0.48   0.07  -0.00
  28   1    -0.38  -0.06  -0.00     0.21   0.03   0.00     0.00   0.00   0.00
  29   1    -0.01  -0.24  -0.00     0.01   0.12   0.00     0.00   0.00   0.00
  30   1     0.00  -0.01   0.00    -0.00   0.00  -0.00    -0.00   0.00  -0.00
  31   1     0.00  -0.02   0.00     0.00  -0.00   0.00    -0.00   0.01  -0.00
  32   1     0.02  -0.00   0.00     0.00  -0.00   0.00    -0.00   0.00  -0.00
  33   1     0.00   0.00   0.00     0.00   0.00   0.00    -0.00  -0.00  -0.00
  34   1     0.00   0.00   0.00    -0.00  -0.00  -0.00     0.01   0.00   0.00
  35   1     0.00   0.00  -0.00    -0.00  -0.00   0.00     0.00   0.01  -0.00
  36   1    -0.00  -0.00   0.00    -0.00  -0.01   0.00     0.00   0.01  -0.00
  37  26    -0.00   0.00   0.00     0.00   0.00   0.00     0.00  -0.00  -0.00
  38   6     0.00  -0.03  -0.01    -0.00   0.00   0.00    -0.00   0.03   0.00
  39   6     0.05  -0.01  -0.00    -0.00   0.00   0.00    -0.04   0.00   0.00
  40   6     0.00   0.00   0.00    -0.00  -0.00  -0.00    -0.00  -0.00  -0.00
  41   6     0.00  -0.00  -0.00    -0.00  -0.00  -0.00    -0.00   0.00   0.00
  42   6    -0.00   0.00   0.00    -0.00   0.00   0.00     0.00  -0.00  -0.00
  43   6    -0.00  -0.00  -0.00    -0.02  -0.00  -0.00     0.00   0.00   0.00
  44   6    -0.00  -0.00  -0.00     0.00  -0.01  -0.00    -0.00   0.00   0.00
  45   6     0.00  -0.00  -0.00     0.00  -0.00  -0.00    -0.00   0.00   0.00
  46   7    -0.00   0.00   0.00     0.00   0.00   0.00     0.00   0.00   0.00
  47   6     0.00  -0.00  -0.00    -0.00  -0.00  -0.00     0.00   0.00   0.00
  48   6    -0.00  -0.00  -0.00    -0.00  -0.00  -0.00    -0.00   0.00   0.00
  49   6     0.00  -0.00  -0.00     0.00  -0.00  -0.00    -0.00   0.00   0.00
  50   6     0.01  -0.00  -0.00     0.00  -0.00  -0.00    -0.00  -0.00  -0.00
  51   6     0.00   0.00   0.00     0.00   0.00   0.00    -0.00   0.00  -0.00
  52   7    -0.00   0.00   0.00     0.00  -0.00  -0.00    -0.00   0.00   0.00
  53   6     0.00  -0.00  -0.00     0.00  -0.00  -0.00    -0.00   0.00   0.00
  54   6     0.00  -0.00  -0.00     0.00  -0.00  -0.00    -0.00  -0.00  -0.00
  55   6     0.00   0.00   0.00     0.00   0.00   0.00     0.00   0.00   0.00
  56   6     0.00   0.00   0.00     0.00   0.00   0.00     0.00   0.00   0.00
  57   6    -0.00   0.00   0.00    -0.00   0.00   0.00    -0.00  -0.00  -0.00
  58   7    -0.00   0.00   0.00     0.00   0.00   0.00    -0.00  -0.00  -0.00
  59   6     0.00  -0.00  -0.00     0.00   0.00   0.00    -0.00   0.00   0.00
  60   6    -0.00  -0.00  -0.00     0.00   0.00   0.00     0.00   0.00   0.00
  61   7    -0.00   0.00   0.00    -0.00   0.00   0.00     0.00  -0.00  -0.00
  62   1    -0.01   0.10   0.02     0.00  -0.00  -0.00     0.01  -0.08  -0.02
  63   1    -0.16   0.02   0.00     0.01  -0.00  -0.00     0.14  -0.02  -0.00
  64   1     0.01   0.00   0.00     0.08   0.01   0.00    -0.01  -0.00  -0.00
  65   1     0.00   0.01   0.00     0.00   0.05   0.01    -0.00  -0.00  -0.00
  66   1     0.00   0.00   0.00    -0.00   0.00   0.00     0.00  -0.00  -0.00
  67   1    -0.00   0.02   0.00    -0.00   0.01   0.00     0.00  -0.00  -0.00
  68   1    -0.02   0.00   0.00    -0.00   0.00   0.00     0.00  -0.00  -0.00
  69   1    -0.00  -0.00   0.00    -0.00  -0.00   0.00     0.00   0.00  -0.00
  70   1    -0.01  -0.00  -0.00    -0.00  -0.00  -0.00    -0.00  -0.00  -0.00
  71   1    -0.00  -0.01  -0.00    -0.00  -0.00  -0.00    -0.00  -0.00  -0.00
  72   1     0.00   0.00   0.00     0.00  -0.00  -0.00    -0.00  -0.00  -0.00
  73   6     0.00   0.00   0.00    -0.00   0.00  -0.00    -0.00  -0.00   0.00
  74   6     0.00  -0.00  -0.00    -0.00  -0.00  -0.00     0.00   0.00  -0.00
  75   6    -0.00   0.00  -0.00     0.00   0.00  -0.00    -0.00   0.00  -0.00
  76   6     0.00  -0.00   0.00    -0.00  -0.00   0.00     0.00  -0.00   0.00
  77   6    -0.00   0.00  -0.00    -0.00  -0.00   0.00     0.00   0.00  -0.00
  78   6     0.00  -0.00   0.00    -0.00   0.00  -0.00    -0.00  -0.00   0.00
  79   6    -0.00   0.00   0.00     0.00   0.00   0.00     0.00  -0.00  -0.00
  80   6     0.00  -0.00  -0.00    -0.00  -0.00  -0.00    -0.00   0.00   0.00
  81  26    -0.00  -0.00   0.00     0.00   0.00  -0.00     0.00   0.00  -0.00
  82   6    -0.00  -0.05   0.01    -0.00  -0.09   0.01    -0.00  -0.10   0.01
  83   6    -0.08  -0.01   0.00    -0.15  -0.02   0.00    -0.16  -0.02   0.00
  84   6    -0.00   0.00  -0.00    -0.00   0.00  -0.00    -0.00   0.01  -0.00
  85   6    -0.00  -0.00   0.00    -0.00  -0.00   0.00    -0.00  -0.00   0.00
  86   6     0.00   0.00  -0.00    -0.00  -0.00   0.00     0.00   0.00  -0.00
  87   6     0.03  -0.00   0.00    -0.01   0.00  -0.00     0.10  -0.01   0.00
  88   6    -0.00  -0.02   0.00     0.00   0.01  -0.00    -0.00  -0.07   0.01
  89   6    -0.00  -0.00   0.00     0.00   0.00  -0.00    -0.00  -0.00   0.00
  90   7    -0.00   0.00  -0.00     0.00  -0.00   0.00    -0.00   0.00  -0.00
  91   6     0.00   0.00  -0.00    -0.00  -0.00   0.00     0.00  -0.00   0.00
  92   6    -0.00   0.00  -0.00     0.00  -0.00   0.00     0.00   0.00  -0.00
  93   6     0.00   0.10  -0.01    -0.00  -0.07   0.01    -0.00  -0.00   0.00
  94   6     0.17   0.02  -0.00    -0.11  -0.01   0.00    -0.01  -0.00   0.00
  95   6     0.00  -0.01   0.00    -0.00   0.00  -0.00    -0.00   0.00  -0.00
  96   7    -0.00  -0.00   0.00     0.00   0.00  -0.00     0.00   0.00  -0.00
  97   6     0.00   0.00  -0.00    -0.00  -0.00   0.00    -0.00   0.00  -0.00
  98   6    -0.00  -0.00   0.00     0.00   0.00  -0.00    -0.00  -0.00   0.00
  99   6    -0.02   0.00  -0.00     0.02  -0.00   0.00    -0.05   0.01  -0.00
 100   6     0.00   0.01  -0.00     0.00  -0.02   0.00     0.00   0.03  -0.00
 101   6     0.00   0.00  -0.00    -0.00   0.00  -0.00     0.00   0.00  -0.00
 102   7    -0.00  -0.00   0.00    -0.00   0.00  -0.00     0.00  -0.00   0.00
 103   6    -0.00  -0.00   0.00    -0.00  -0.00   0.00    -0.00  -0.00   0.00
 104   6     0.00  -0.00   0.00     0.00  -0.00   0.00     0.00  -0.00   0.00
 105   7     0.00   0.00  -0.00     0.00   0.00  -0.00     0.00   0.00  -0.00
 106   1     0.01   0.15  -0.02     0.02   0.28  -0.03     0.02   0.31  -0.04
 107   1     0.27   0.04  -0.01     0.48   0.07  -0.01     0.54   0.08  -0.01
 108   1    -0.11   0.02  -0.00     0.05  -0.01   0.00    -0.33   0.05  -0.01
 109   1    -0.00   0.07  -0.01     0.00  -0.02   0.00    -0.01   0.21  -0.02
 110   1     0.00  -0.00   0.00    -0.00   0.01  -0.00     0.00   0.00  -0.00
 111   1    -0.02  -0.32   0.04     0.02   0.22  -0.02     0.00   0.01  -0.00
 112   1    -0.55  -0.08   0.01     0.36   0.05  -0.00     0.02   0.00  -0.00
 113   1     0.05  -0.01   0.00    -0.07   0.01  -0.00     0.16  -0.03   0.00
 114   1     0.00  -0.03   0.00    -0.00   0.05  -0.01     0.00  -0.09   0.01
 115   1    -0.00   0.00  -0.00    -0.00   0.01  -0.00    -0.00   0.01  -0.00
                    337                    338                    339
                        a                      a                      a 
 Frequencies --  3166.2066              3166.5960              3166.8782
 Red. masses --     1.9648                 1.9659                 1.9655
 Frc consts  --     0.0000                 0.0000                 0.0000
 IR Inten    --  1412.6253               217.6849                88.5367
 Raman Activ --     0.0000                 0.0000                 0.0000
 Depolar     --     0.0000                 0.0000                 0.0000
 Atom AN      X      Y      Z        X      Y      Z        X      Y      Z
   1  26     0.00  -0.00   0.00    -0.00  -0.00  -0.00     0.00  -0.00   0.00
   2   6    -0.00   0.04  -0.00     0.00  -0.03   0.00    -0.00   0.02  -0.00
   3   6    -0.07   0.01  -0.00     0.05  -0.01   0.00    -0.03   0.00  -0.00
   4   6    -0.00  -0.00   0.00     0.00   0.00  -0.00    -0.00  -0.00   0.00
   5   6    -0.00   0.00  -0.00     0.00   0.00  -0.00    -0.00   0.00  -0.00
   6   6    -0.00   0.00  -0.00     0.00  -0.00   0.00    -0.00   0.00  -0.00
   7   6    -0.03  -0.00  -0.00     0.05   0.01   0.00    -0.01  -0.00  -0.00
   8   6     0.00  -0.02  -0.00    -0.00   0.03   0.00    -0.00  -0.01  -0.00
   9   6     0.00  -0.00   0.00    -0.00   0.00  -0.00     0.00  -0.00   0.00
  10   7     0.00   0.00   0.00    -0.00  -0.00  -0.00     0.00   0.00   0.00
  11   6    -0.00  -0.00   0.00     0.00   0.00  -0.00    -0.00  -0.00   0.00
  12   6    -0.00  -0.00   0.00     0.00   0.00   0.00    -0.00  -0.00  -0.00
  13   6     0.00  -0.00   0.00    -0.00   0.01  -0.00     0.00  -0.00   0.00
  14   6    -0.00   0.00  -0.00    -0.01   0.00  -0.00     0.00  -0.00   0.00
  15   6     0.00   0.00   0.00    -0.00  -0.00  -0.00     0.00   0.00   0.00
  16   7     0.00  -0.00   0.00     0.00  -0.00   0.00    -0.00   0.00  -0.00
  17   6     0.00   0.00   0.00    -0.00  -0.00  -0.00     0.00   0.00   0.00
  18   6     0.00  -0.00   0.00    -0.00   0.00  -0.00     0.00  -0.00   0.00
  19   6     0.00   0.00   0.00    -0.00  -0.00  -0.00     0.00   0.00   0.00
  20   6     0.00   0.00  -0.00    -0.00  -0.01   0.00     0.00   0.00  -0.00
  21   6    -0.00   0.00   0.00     0.00  -0.00   0.00    -0.00   0.00  -0.00
  22   7     0.00   0.00  -0.00     0.00   0.00   0.00    -0.00  -0.00  -0.00
  23   6    -0.00   0.00  -0.00     0.00  -0.00   0.00    -0.00   0.00  -0.00
  24   6     0.00   0.00   0.00    -0.00  -0.00  -0.00     0.00   0.00   0.00
  25   7     0.00  -0.00   0.00    -0.00   0.00  -0.00     0.00  -0.00   0.00
  26   1     0.01  -0.13   0.00    -0.01   0.09  -0.00     0.00  -0.06   0.00
  27   1     0.22  -0.03   0.00    -0.16   0.02  -0.00     0.09  -0.01   0.00
  28   1     0.11   0.02   0.00    -0.16  -0.03  -0.00     0.04   0.01   0.00
  29   1     0.00   0.07   0.00    -0.01  -0.10  -0.00     0.00   0.03   0.00
  30   1    -0.00   0.00  -0.00     0.00  -0.00   0.00    -0.00   0.00  -0.00
  31   1    -0.00   0.00  -0.00     0.00  -0.02   0.00    -0.00   0.01  -0.00
  32   1     0.00  -0.00   0.00     0.02  -0.00   0.00    -0.01   0.00  -0.00
  33   1    -0.00  -0.00  -0.00     0.00   0.00   0.00    -0.00  -0.00  -0.00
  34   1    -0.00  -0.00  -0.00     0.02   0.00   0.00    -0.01  -0.00  -0.00
  35   1    -0.00  -0.01   0.00     0.00   0.02  -0.00    -0.00  -0.01   0.00
  36   1    -0.00  -0.00   0.00     0.00   0.00  -0.00    -0.00  -0.00   0.00
  37  26     0.00  -0.00  -0.00     0.00  -0.00  -0.00    -0.00   0.00   0.00
  38   6    -0.00   0.14   0.03    -0.00   0.05   0.01     0.00  -0.02  -0.00
  39   6    -0.22   0.02   0.00    -0.08   0.01   0.00     0.03  -0.00  -0.00
  40   6    -0.00  -0.01  -0.00    -0.00  -0.00  -0.00     0.00   0.00   0.00
  41   6    -0.00   0.00   0.00    -0.00   0.00   0.00     0.00   0.00  -0.00
  42   6    -0.00   0.00   0.00    -0.00   0.00   0.00     0.00  -0.00  -0.00
  43   6    -0.02  -0.00  -0.00    -0.02  -0.00  -0.00     0.03   0.00   0.00
  44   6     0.00  -0.01  -0.00    -0.00  -0.01  -0.00     0.00   0.02   0.00
  45   6     0.00  -0.00  -0.00     0.00  -0.00  -0.00    -0.00   0.00   0.00
  46   7     0.00  -0.00  -0.00     0.00   0.00   0.00    -0.00  -0.00  -0.00
  47   6    -0.00   0.00   0.00    -0.00  -0.00  -0.00     0.00   0.00   0.00
  48   6     0.00   0.00   0.00    -0.00  -0.00   0.00     0.00   0.00  -0.00
  49   6    -0.00   0.00   0.00     0.00  -0.00  -0.00    -0.00   0.00   0.00
  50   6    -0.00   0.00   0.00     0.00  -0.00  -0.00    -0.00   0.00   0.00
  51   6    -0.00  -0.00  -0.00     0.00   0.00   0.00    -0.00  -0.00  -0.00
  52   7     0.00  -0.00  -0.00    -0.00   0.00   0.00     0.00  -0.00  -0.00
  53   6    -0.00   0.00   0.00     0.00   0.00  -0.00    -0.00  -0.00   0.00
  54   6     0.00  -0.00  -0.00     0.00  -0.00  -0.00    -0.00   0.00   0.00
  55   6     0.00   0.00   0.00     0.01   0.00   0.00    -0.00  -0.00  -0.00
  56   6     0.00   0.00   0.00     0.00   0.01   0.00    -0.00  -0.00  -0.00
  57   6    -0.00  -0.00  -0.00    -0.00   0.00   0.00     0.00  -0.00  -0.00
  58   7    -0.00  -0.00  -0.00    -0.00  -0.00  -0.00    -0.00   0.00   0.00
  59   6    -0.00   0.00   0.00    -0.00   0.00   0.00     0.00  -0.00  -0.00
  60   6     0.01   0.00   0.00     0.00   0.00   0.00    -0.00  -0.00  -0.00
  61   7     0.00  -0.00  -0.00     0.00  -0.00  -0.00    -0.00   0.00   0.00
  62   1     0.03  -0.43  -0.08     0.01  -0.16  -0.03    -0.01   0.07   0.01
  63   1     0.70  -0.10  -0.02     0.27  -0.04  -0.01    -0.11   0.02   0.00
  64   1     0.05   0.01   0.00     0.06   0.01   0.00    -0.10  -0.02  -0.00
  65   1     0.00   0.03   0.01     0.00   0.04   0.01    -0.00  -0.06  -0.01
  66   1    -0.00  -0.00  -0.00    -0.00   0.00   0.00     0.00  -0.00  -0.00
  67   1     0.00  -0.01  -0.00    -0.00   0.01   0.00     0.00  -0.01  -0.00
  68   1     0.01  -0.00  -0.00    -0.02   0.00   0.00     0.02  -0.00  -0.00
  69   1     0.00   0.00  -0.00    -0.00  -0.00   0.00     0.00   0.00  -0.00
  70   1    -0.01  -0.00  -0.00    -0.02  -0.00  -0.00     0.01   0.00   0.00
  71   1    -0.00  -0.01  -0.00    -0.00  -0.02  -0.00     0.00   0.01   0.00
  72   1    -0.00  -0.01  -0.00    -0.00  -0.01  -0.00     0.00   0.00   0.00
  73   6     0.00   0.00  -0.00    -0.00   0.00  -0.00    -0.00   0.00  -0.00
  74   6    -0.00  -0.00  -0.00     0.00  -0.00   0.00    -0.00  -0.00   0.00
  75   6     0.00   0.00  -0.00    -0.00  -0.00   0.00     0.00  -0.00   0.00
  76   6    -0.00  -0.00   0.00     0.00   0.00  -0.00    -0.00   0.00  -0.00
  77   6    -0.00   0.00  -0.00    -0.00   0.00  -0.00     0.00   0.00  -0.00
  78   6     0.00  -0.00   0.00     0.00  -0.00   0.00    -0.00  -0.00   0.00
  79   6    -0.00  -0.00  -0.00    -0.00  -0.00  -0.00     0.00  -0.00   0.00
  80   6     0.00   0.00   0.00     0.00   0.00   0.00    -0.00   0.00  -0.00
  81  26    -0.00  -0.00   0.00     0.00  -0.00   0.00     0.00  -0.00   0.00
  82   6     0.00   0.02  -0.00    -0.00  -0.04   0.00     0.00   0.01  -0.00
  83   6     0.04   0.00  -0.00    -0.07  -0.01   0.00     0.01   0.00  -0.00
  84   6     0.00  -0.00   0.00    -0.00   0.00  -0.00     0.00  -0.00   0.00
  85   6     0.00  -0.00   0.00    -0.00   0.00  -0.00    -0.00   0.00  -0.00
  86   6     0.00   0.00  -0.00    -0.00  -0.01   0.00    -0.00  -0.00   0.00
  87   6     0.06  -0.01   0.00    -0.21   0.03  -0.00    -0.03   0.00  -0.00
  88   6    -0.00  -0.04   0.00     0.00   0.14  -0.02     0.00   0.02  -0.00
  89   6    -0.00  -0.00   0.00     0.01   0.00  -0.00     0.00   0.00  -0.00
  90   7    -0.00   0.00  -0.00     0.00  -0.00   0.00     0.00  -0.00   0.00
  91   6     0.00   0.00  -0.00    -0.00   0.00  -0.00    -0.00   0.00  -0.00
  92   6    -0.00   0.00  -0.00    -0.00  -0.00   0.00     0.00  -0.00   0.00
  93   6     0.00   0.03  -0.00     0.00   0.02  -0.00    -0.00  -0.02   0.00
  94   6     0.05   0.01  -0.00     0.03   0.00  -0.00    -0.03  -0.00   0.00
  95   6     0.00  -0.00   0.00     0.00  -0.00   0.00    -0.00   0.00  -0.00
  96   7    -0.00  -0.00   0.00    -0.00  -0.00   0.00     0.00   0.00  -0.00
  97   6     0.00   0.00  -0.00    -0.00   0.00  -0.00    -0.00   0.00  -0.00
  98   6    -0.00  -0.00   0.00    -0.00   0.00  -0.00    -0.00  -0.01   0.00
  99   6    -0.03   0.00  -0.00    -0.00   0.00  -0.00    -0.24   0.03  -0.00
 100   6     0.00   0.02  -0.00     0.00  -0.00   0.00     0.00   0.15  -0.02
 101   6     0.00   0.00  -0.00    -0.00   0.00  -0.00     0.01   0.00  -0.00
 102   7     0.00  -0.00   0.00     0.00   0.00  -0.00     0.00  -0.00   0.00
 103   6     0.00   0.00  -0.00    -0.00  -0.00   0.00    -0.00   0.00  -0.00
 104   6    -0.00   0.00  -0.00     0.00  -0.00   0.00    -0.00  -0.00   0.00
 105   7    -0.00  -0.00   0.00     0.00   0.00  -0.00    -0.00  -0.00   0.00
 106   1    -0.01  -0.07   0.01     0.01   0.13  -0.01    -0.00  -0.03   0.00
 107   1    -0.13  -0.02   0.00     0.23   0.03  -0.01    -0.04  -0.01   0.00
 108   1    -0.18   0.03  -0.00     0.68  -0.11   0.01     0.11  -0.02   0.00
 109   1    -0.01   0.11  -0.01     0.02  -0.42   0.05     0.00  -0.07   0.01
 110   1     0.00  -0.00   0.00    -0.00  -0.01   0.00    -0.00  -0.00   0.00
 111   1    -0.01  -0.10   0.01    -0.00  -0.06   0.01     0.00   0.05  -0.01
 112   1    -0.17  -0.02   0.00    -0.08  -0.01   0.00     0.09   0.01  -0.00
 113   1     0.11  -0.02   0.00     0.00  -0.00   0.00     0.77  -0.12   0.01
 114   1     0.00  -0.07   0.01    -0.00   0.00  -0.00     0.03  -0.47   0.05
 115   1     0.00  -0.00   0.00    -0.00   0.00  -0.00    -0.00  -0.01   0.00
