115
 energy: -205.459698875426 gnorm: 0.630740949625 xtb: 6.4.1 (bd6e46d)
Fe       12.97627000000000    0.03373500000000   -0.00892400000000
C        15.30526100000000   -3.11305800000000    1.31376500000000
C        16.22136800000000   -2.16885000000000    1.26348300000000
C        15.81018900000000   -1.11494600000000    0.34219100000000
C        16.42905900000000    0.00940000000000   -0.00421900000000
C        15.72501700000000    1.22934800000000   -0.36832400000000
C        16.05312700000000    2.18940300000000   -1.21579800000000
C        15.01834800000000    3.20568800000000   -1.23269600000000
C        14.08208000000000    2.82922600000000   -0.38580400000000
N        14.48407000000000    1.59621500000000    0.17801300000000
C        12.82100500000000    3.47422500000000   -0.00665200000000
C        11.72578800000000    2.83944300000000    0.34410800000000
C        10.65216200000000    3.15739900000000    1.31313600000000
C         9.81460000000000    2.16064500000000    1.23597000000000
C        10.25289700000000    1.15696200000000    0.25551800000000
N        11.35783500000000    1.59581500000000   -0.22877400000000
C         9.64206200000000   -0.09630900000000   -0.15803000000000
C        10.30622300000000   -1.20081500000000   -0.41245500000000
C         9.93237400000000   -2.26375700000000   -1.36998200000000
C        10.88112100000000   -3.15751300000000   -1.28096300000000
C        11.86684500000000   -2.72006300000000   -0.29808500000000
N        11.51379900000000   -1.57425800000000    0.19871200000000
C        13.09773300000000   -3.37613300000000    0.14763600000000
C        14.22077500000000   -2.73027200000000    0.41475700000000
N        14.54937500000000   -1.48283100000000   -0.18364700000000
H        15.36552300000000   -4.02283900000000    1.93131100000000
H        17.13769500000000   -2.20880000000000    1.84153100000000
H        16.98049300000000    2.20619800000000   -1.81694100000000
H        15.03524700000000    4.11037700000000   -1.84531700000000
H        12.77328200000000    4.56902800000000   -0.01043000000000
H        10.59934100000000    4.03612400000000    1.93812800000000
H         8.90296900000000    2.12497500000000    1.85329400000000
H         8.54381200000000   -0.09339800000000   -0.25730100000000
H         9.06351800000000   -2.31622200000000   -2.01893200000000
H        10.87827500000000   -4.07382100000000   -1.87972200000000
H        13.06225100000000   -4.47193500000000    0.25956100000000
Fe       42.86170100000000   -0.01364100000000   -0.01335700000000
C        40.53271000000000    2.83315100000000    1.87014800000000
C        39.61660200000000    1.91466200000000    1.64557400000000
C        40.02778200000000    1.04996500000000    0.54476000000000
C        39.40891100000000    0.00940000000000   -0.00421900000000
C        40.11295400000000   -1.12182500000000   -0.58832200000000
C        39.78484300000000   -1.90799700000000   -1.59918900000000
C        40.81962300000001   -2.90350600000000   -1.80432900000000
C        41.75589100000000   -2.69069000000000   -0.90229900000000
N        41.35390100000000   -1.58367800000000   -0.11952700000000
C        43.01696500000000   -3.39483100000000   -0.64938500000000
C        44.11218300000000   -2.83613800000000   -0.18695200000000
C        45.18580800000000   -3.32834300000000    0.70627000000000
C        46.02337100000000   -2.33457600000000    0.81535500000000
C        45.58507300000000   -1.16642800000000    0.03812000000000
N        44.48013500000000   -1.50782000000000   -0.51917900000000
C        46.19590800000000    0.14180800000000   -0.13575000000000
C        45.53174800000001    1.27434100000000   -0.18085600000000
C        45.90559600000000    2.49646700000000   -0.92457100000000
C        44.95684900000000    3.35819400000000   -0.67129300000000
C        43.97112500000000    2.74599900000000    0.21337100000000
N        44.32417100000000    1.52792100000000    0.48898100000000
C        42.74023700000000    3.30799400000000    0.77306500000000
C        41.61719600000000    2.62378900000000    0.91573300000000
N        41.28859600000000    1.50901400000000    0.09629800000000
H        40.47244800000000    3.61257600000000    2.64575200000000
H        38.70027500000000    1.84668100000000    2.22100000000000
H        38.85747800000001   -1.81298000000000   -2.19301300000000
H        40.80272400000000   -3.67884100000000   -2.57414900000000
H        43.06468800000000   -4.46992900000000   -0.85619900000000
H        45.23863000000001   -4.30776000000000    1.15739700000000
H        46.93500100000000   -2.41404800000000    1.42858000000000
H        47.29415900000000    0.15736300000000   -0.23383700000000
H        46.77445200000000    2.66841000000000   -1.55252400000000
H        44.95969500000000    4.36967500000000   -1.08967000000000
H        42.77572000000001    4.36401000000000    1.08633400000000
C        19.32376300000000    0.00736400000000   -0.00533100000000
C        20.53174000000000    0.01481900000000   -0.00363600000000
C        21.95050700000000    0.01551600000000    0.00150100000000
C        23.16602400000000    0.00736400000000   -0.00533100000000
C        32.67391300000000    0.00736400000000   -0.00533100000000
C        33.88189000000000    0.01481900000000   -0.00363600000000
C        35.30065800000000    0.01551600000000    0.00150100000000
C        36.51617400000000    0.00736400000000   -0.00533100000000
Fe       27.95460500000000    0.02750000000000    0.00680800000000
C        25.67479400000000   -3.23394800000000   -0.90285800000000
C        24.71858500000000   -2.33459700000000   -1.00488500000000
C        25.11095900000000   -1.17229200000000   -0.20236900000000
C        24.47584300000000   -0.02102000000000    0.00989700000000
C        25.16130000000000    1.25358000000000    0.23612700000000
C        24.82601000000000    2.33218000000000    0.94036700000000
C        25.85055100000000    3.35149700000000    0.84978600000000
C        26.80114800000000    2.85457200000000    0.07642100000000
N        26.42415400000001    1.53796700000000   -0.33972200000000
C        28.04828800000000    3.46627300000000   -0.34044500000000
C        29.14983900000000    2.79901600000000   -0.67221600000000
C        30.14338600000000    3.05100100000000   -1.70638600000000
C        31.03726900000000    2.09014200000000   -1.60490200000000
C        30.65757100000000    1.17825800000000   -0.50092500000000
N        29.56265600000000    1.62757700000000    0.00644200000000
C        31.31477800000000   -0.02102000000000    0.00989700000000
C        30.69136600000000   -1.09020200000000    0.47141400000000
C        31.07007900000000   -2.02231700000000    1.54689000000000
C        30.12941000000000   -2.93646300000000    1.63275600000000
C        29.12110900000000   -2.64068400000000    0.63532900000000
N        29.45888400000000   -1.58730700000000   -0.01396600000000
C        27.86871600000000   -3.34769200000000    0.30413500000000
C        26.75483900000000   -2.75099500000000   -0.04320600000000
N        26.37272700000000   -1.46823800000000    0.37447700000000
H        25.67513900000000   -4.22502100000000   -1.39409300000000
H        23.81005100000000   -2.45629100000000   -1.58603300000000
H        23.90115700000000    2.45053100000000    1.51729300000000
H        25.87784600000000    4.34066100000000    1.30643600000000
H        28.13422800000000    4.56365100000000   -0.40246800000000
H        30.17605800000000    3.85721700000000   -2.43321000000000
H        31.93033000000000    1.97717400000000   -2.23867600000000
H        31.98482900000000   -1.94791100000000    2.15706000000000
H        30.14845700000000   -3.75007100000000    2.34102300000000
H        27.90720000000000   -4.44765100000000    0.36317200000000
115
 energy: -205.650453825787 gnorm: 0.329902831169 xtb: 6.4.1 (bd6e46d)
Fe       12.99169461452519    0.03092128519108   -0.00816686684789
C        15.30857745926138   -3.12349029984125    1.30293056862518
C        16.24060768041575   -2.16927220498642    1.25855028179278
C        15.80555493799787   -1.11692582807092    0.35058130081197
C        16.40184663560435    0.03557998841422   -0.00290510696168
C        15.70831392131602    1.22677654227858   -0.36164268468595
C        16.06804417460029    2.22194081557527   -1.23614300529267
C        15.05411106764994    3.20892210826316   -1.24803235186598
C        14.07704802383104    2.80153380548859   -0.38048710951880
N        14.45499135619414    1.57150770309415    0.17974370630427
C        12.84469660912269    3.47008196012835   -0.00609725134769
C        11.71520887497494    2.82157179888519    0.34525632254420
C        10.64969984901522    3.16669305860318    1.29180218666107
C         9.78242444585006    2.15407119952380    1.23909337506668
C        10.24624463817558    1.15756935892248    0.27687700306476
N        11.39785456205309    1.57003599254952   -0.20248959493982
C         9.62776654832991   -0.07084001720535   -0.14938470979078
C        10.30924940753871   -1.20341029725227   -0.41960020722869
C         9.92235702844902   -2.26649662869965   -1.35242331768044
C        10.88805299523250   -3.18464018122997   -1.27713073487571
C        11.87763954119153   -2.73268543242137   -0.31016859842383
N        11.52809215669529   -1.54835717502645    0.16521049462008
C        13.07800684355012   -3.38345524871003    0.13792978089035
C        14.22680383837374   -2.71389473286267    0.41950950017085
N        14.53911999156614   -1.47552231277653   -0.14770647837872
H        15.35446098393621   -4.01709216900154    1.92051343933138
H        17.14590992255211   -2.19585282553378    1.83810046030075
H        16.97949406068499    2.21965877783246   -1.82072720490479
H        15.04648846615800    4.10691424157235   -1.84828432582933
H        12.79758113263852    4.56185609077653   -0.00076113754218
H        10.60884093572668    4.03472017830424    1.92848258318284
H         8.89407078894813    2.11266941212211    1.85305885221531
H         8.54438109094232   -0.08028583571838   -0.26465080286302
H         9.06518496725613   -2.30380623049407   -2.00796388955202
H        10.89309627544479   -4.08194983385806   -1.87571731428257
H        13.05515165642334   -4.46719034154444    0.25948697969032
Fe       42.84628058867652   -0.01098406811377   -0.01212437986475
C        40.52940025745225    2.84540881749998    1.86144030480077
C        39.59738702176647    1.91598491118985    1.64081432228577
C        40.03243102581993    1.05033728936200    0.55339358405159
C        39.43615914425266   -0.01663286384004   -0.00763233387048
C        40.12967048672822   -1.12055200252201   -0.58126147458030
C        39.76993401471054   -1.93619313893588   -1.62519673159099
C        40.78386240993983   -2.90383779623742   -1.81999352498430
C        41.76092957366251   -2.66446262942542   -0.89194238643648
N        41.38298099326604   -1.55973094669326   -0.11323619583406
C        42.99327412751659   -3.39086770171088   -0.64807443955277
C        44.12276361528875   -2.81878774578905   -0.18250913023446
C        45.18826744331719   -3.33351505481512    0.68358652086761
C        46.05554899322515   -2.32869599935260    0.81964004410943
C        45.59172379234352   -1.17098846565620    0.05899368488936
N        44.44011510731166   -1.48737202930629   -0.48856835430503
C        46.21020051173296    0.11517729171953   -0.13197798188711
C        45.52871722232821    1.27821749844127   -0.18739419826463
C        45.91561265723661    2.49590324486674   -0.90680925278943
C        44.94991609129325    3.38413845408212   -0.66249866235543
C        43.96033109036919    2.76064151290812    0.20384219564312
N        44.30988938618735    1.50869132902036    0.45127776905946
C        42.75996338265782    3.31699018140214    0.76488529271422
C        41.61116628608359    2.60680572512295    0.91735276534624
N        41.29886003737075    1.49515895270725    0.13025379690651
H        40.48350776037636    3.60893614788574    2.63407391001207
H        38.69206493761013    1.83461066436016    2.21522605157052
H        38.85848539231215   -1.82548459966097   -2.19923013465486
H        40.79148968883811   -3.67488846865402   -2.57643134035728
H        43.04039301804441   -4.46468236079135   -0.84537213947938
H        45.22913262938204   -4.30459354713740    1.14817888744479
H        46.94390162055482   -2.40191290822803    1.43063227265570
H        47.29358768411799    0.14584188872663   -0.24349300891779
H        46.77278514017333    2.65417537254492   -1.54405018102303
H        44.94487307084060    4.37692044989133   -1.08422715939385
H        42.78281467917810    4.35936290151181    1.08537984557612
C        19.30873393103599    0.00772052286260   -0.00318906405788
C        20.53166276010559    0.01518710509896   -0.00416163535613
C        21.91502612884841    0.01747603333561    0.00100917744342
C        23.13551571632682    0.01987549007634   -0.00905861093328
C        32.69985065648061    0.01881556183543   -0.00035320071598
C        33.91816269069854    0.01627349681479   -0.00219969780493
C        35.30344567761462    0.01439526792311    0.00138430689578
C        36.52625658458555    0.00654915519673   -0.00466442988869
Fe       27.94379070686183    0.03025632200336   -0.00059677128260
C        25.67380877457896   -3.25719447813385   -0.89297122721743
C        24.71171884440432   -2.33609286805076   -0.99338755404492
C        25.14178517296371   -1.18702252566556   -0.20870731271725
C        24.49434249345556    0.00191152073903    0.00628457290368
C        25.19630704568326    1.26042068588249    0.23593160204233
C        24.81476709181497    2.36269592006736    0.95406540741956
C        25.82230971879492    3.35474273085999    0.85835599620000
C        26.81218653725447    2.83184727849439    0.07502584627649
N        26.45450292157897    1.52226391280358   -0.32369530979101
C        28.03101795275392    3.46393170701739   -0.34343313387580
C        29.15962209869559    2.78628192907374   -0.67325573716529
C        30.15520694311007    3.06079177380782   -1.68918100724818
C        31.06277279153779    2.07748181243460   -1.60430232716960
C        30.65758449963935    1.17545094226654   -0.52375402081721
N        29.52420331227291    1.60421591213332   -0.01692622898422
C        31.32278663600925   -0.00234969122560   -0.00085915939400
C        30.67497062129554   -1.10255758595932    0.48198355735637
C        31.08393527072064   -2.02353683739318    1.53372102693779
C        30.12569934473344   -2.95734357023160    1.63160394411846
C        29.10903581478879   -2.64881946218016    0.64922553724331
N        29.43788683030820   -1.54750905606378    0.00563527188918
C        27.89038549021041   -3.35634937788614    0.31547047592478
C        26.74284592114347   -2.74003883287905   -0.05180084476029
N        26.39086088895376   -1.45364410976997    0.33566744051515
H        25.68166804618959   -4.22324049125004   -1.38939559083902
H        23.81065891079811   -2.44219315771477   -1.57922163625989
H        23.89856618561217    2.45766163808882    1.51950093118259
H        25.86133069849048    4.33459228130061    1.31020819997762
H        28.10833923855791    4.55490174305719   -0.41225344900488
H        30.16705600158065    3.85575634394572   -2.42145187628994
H        31.93389546975330    1.96738769440492   -2.23539759398549
H        31.97891749556220   -1.94088253599838    2.14502141878413
H        30.13840136754596   -3.75990218030685    2.34206334464138
H        27.91685835245965   -4.44520704947951    0.35847898183517
115
 energy: -205.757598429788 gnorm: 0.122937378509 xtb: 6.4.1 (bd6e46d)
Fe       13.00558085516743    0.03115504367330   -0.00446042564695
C        15.30912486629674   -3.12845534578227    1.28972877468755
C        16.25633029317484   -2.16805731308935    1.25180782866893
C        15.79441264570330   -1.11635427641170    0.36514370113723
C        16.35885348861220    0.06490512962572   -0.00371096613547
C        15.69005315107713    1.21973092767404   -0.35955900583220
C        16.07717087248354    2.25466210458126   -1.24670426344604
C        15.09189631703684    3.20774851775753   -1.24899621426575
C        14.07062259557748    2.77098731473344   -0.37272161262203
N        14.42265067610015    1.54462025206823    0.15790933858724
C        12.87181317864533    3.45612429072837   -0.00535154494520
C        11.71639490816823    2.79177529254484    0.35619541471835
C        10.65451704574389    3.16738695177667    1.26473939515645
C         9.75463715106297    2.15235687614443    1.22949198444792
C        10.24155770599040    1.15495393784557    0.30069797324342
N        11.44689612831766    1.53720003870280   -0.15874673495597
C         9.62259592822379   -0.04705098553535   -0.13896255948795
C        10.32082771938210   -1.19879963788892   -0.43700541947446
C         9.91923626072628   -2.26586569806704   -1.33166883966497
C        10.88950120979727   -3.20796074711349   -1.26384159701938
C        11.88923720810414   -2.74067753441279   -0.32446894029076
N        11.54830836629588   -1.50941641507443    0.11496661872358
C        13.05979092721617   -3.38225646811707    0.12716689155305
C        14.22651079810141   -2.68917100641153    0.43000346097928
N        14.52137708145416   -1.46462537760308   -0.10260666916665
H        15.34226643574551   -4.01235326925472    1.90307714446143
H        17.15767626463354   -2.18111433624231    1.82818695268371
H        16.97888624910432    2.23108035873569   -1.81954797580230
H        15.05366510865639    4.10176825675920   -1.84282464469556
H        12.82312842645264    4.54445836698767    0.00011428888689
H        10.61868551401157    4.03001629739073    1.90915620162831
H         8.88362840550850    2.10047279031295    1.84471263044609
H         8.54884495167605   -0.07165455210768   -0.26215670011734
H         9.06807756948428   -2.29126389935048   -1.99011070600046
H        10.90713902418318   -4.09248043602708   -1.86444803126375
H        13.05504871857486   -4.45821753470509    0.25122512010152
Fe       42.83239791315222   -0.01191524048522   -0.00851893107920
C        40.52886991701110    2.85275067063488    1.84937141615823
C        39.58167508317207    1.91604523434418    1.63393961922261
C        40.04357214158210    1.04704847225415    0.56759734181697
C        39.47898034119311   -0.04535787957592   -0.01382272159185
C        40.14797835934796   -1.11401149081438   -0.57793898051342
C        39.76082112145922   -1.96639805583173   -1.64163106106019
C        40.74610679012657   -2.90253374464751   -1.82073468194516
C        41.76736156366190   -2.63594950041892   -0.87865340706540
N        41.41531063563579   -1.52928346790908   -0.12975361718330
C        42.96616219459668   -3.37731784269693   -0.64474810382082
C        44.12157704337173   -2.79154175819637   -0.16622537948777
C        45.18345039472839   -3.32917335355847    0.65685191243794
C        46.08333474358516   -2.32521560065062    0.81052619676033
C        45.59643782421631   -1.17283804169465    0.08287930783509
N        44.39109134617460   -1.46322014091880   -0.43950466639561
C        46.21539066187889    0.08986913397149   -0.12616711821119
C        45.51715897159902    1.27691821255037   -0.20537965648902
C        45.91873286055954    2.49142805317099   -0.88656196414697
C        44.94847106747223    3.40459175383662   -0.64512764494567
C        43.94873597756578    2.77115875857308    0.19125309279665
N        44.28967796670216    1.47974230950202    0.39464222663685
C        42.77818307907646    3.31783284663437    0.75405844470806
C        41.61144802694606    2.58060849310795    0.92304576258236
N        41.31657747886178    1.47609862672891    0.17258472218142
H        40.49570586237362    3.60752609842366    2.61603773807302
H        38.68030833455170    1.82199977060414    2.20274377528431
H        38.85911018411065   -1.83693143394470   -2.20019212973099
H        40.78431975882766   -3.67086325097599   -2.57011878057070
H        43.01486692178427   -4.44776522200931   -0.84130405560969
H        45.21928540995393   -4.29637887694371    1.13005825959688
H        46.95434821924187   -2.38837367336984    1.42468546898839
H        47.28913808285428    0.13690038426459   -0.24265766951550
H        46.76989125589886    2.63853561634180   -1.52886169903424
H        44.93082327959957    4.38517430248515   -1.07122540720205
H        42.78292598244871    4.35209308112246    1.07558031268993
C        19.30091166383099    0.00958526012337   -0.00222012270798
C        20.53405274366535    0.01543854912991   -0.00517771000743
C        21.88820527460956    0.01759634201552    0.00209694508451
C        23.11690015077982    0.03250852167785   -0.00965891038590
C        32.72267210236444    0.02155779395314   -0.00121994921227
C        33.94943801782060    0.01553414932854    0.00055299739877
C        35.30434317600100    0.01368918301590    0.00024508534923
C        36.53606876331431    0.00537028449150   -0.00416425652224
Fe       27.93837988379578    0.03185891816606   -0.01762184128165
C        25.67746428800351   -3.27472961099427   -0.88016874156805
C        24.70976501833929   -2.33163850794969   -0.97934260655105
C        25.17071268988035   -1.19187936770563   -0.22029288826171
C        24.50742717423654    0.02893345898906    0.00413849145385
C        25.23062479527033    1.26177991900528    0.23538916721366
C        24.80561306990353    2.39295353778437    0.95774227690056
C        25.79208932441681    3.35243645607761    0.85705596892275
C        26.82488091323741    2.80551774701249    0.07478926251837
N        26.48663624338969    1.50236933137833   -0.27981781210358
C        28.01052945827345    3.45369446296001   -0.34621211631978
C        29.16121713957754    2.76175579742838   -0.68155059073036
C        30.16273783427504    3.06346284326720   -1.66766888935377
C        31.08498863503291    2.06572518663503   -1.59295273776890
C        30.65960923172578    1.16718142781792   -0.54802712274199
N        29.47995297610071    1.57251806338805   -0.05307489090179
C        31.33356992007588    0.01473939969235   -0.01248732825901
C        30.65623507547047   -1.10507449281098    0.49905996786536
C        31.09042514504108   -2.01950522727530    1.51651769022187
C        30.12379887235345   -2.97509869978451    1.61910331704738
C        29.09560753000535   -2.65089905897649    0.66546255042370
N        29.41618035272595   -1.49271504595834    0.04229499641973
C        27.91083881873869   -3.35421976387997    0.32692076645122
C        26.73962582257906   -2.72549137889340   -0.06800711367442
N        26.40976448869776   -1.43654697938773    0.28337310276361
H        25.68824302798019   -4.22388837081344   -1.37710398347831
H        23.81139194033227   -2.42485695336089   -1.56422110150528
H        23.89498479757459    2.46202274992209    1.51609308550892
H        25.84494989256437    4.32600073519010    1.30803179014556
H        28.07894466815957    4.53858285007039   -0.41576796380890
H        30.15781190374596    3.85438979461915   -2.39998110160449
H        31.93977613047799    1.95764579564791   -2.22573705927564
H        31.97260101238192   -1.93572583360435    2.12635109072637
H        30.12753111565442   -3.77119941274595    2.33419025539653
H        27.92109607578767   -4.43628301340028    0.35992123876543
115
 energy: -205.812543533347 gnorm: 0.077222399087 xtb: 6.4.1 (bd6e46d)
Fe       13.01773838368232    0.03280839160177    0.00776404487815
C        15.31215547909019   -3.12860557365664    1.27784599788670
C        16.26541700764458   -2.16573501352768    1.24575914468490
C        15.77959545742521   -1.10743371569054    0.38970931108263
C        16.32240181135606    0.07944753524440    0.00143885709831
C        15.67598946980227    1.21195282677125   -0.36962501396552
C        16.08868364373883    2.27526127954252   -1.24936365090250
C        15.11693472510846    3.21431945246954   -1.24323886410552
C        14.06676387999342    2.74950518020060   -0.37418466166685
N        14.39263509869275    1.51684321460048    0.11634315894609
C        12.89423490340753    3.43441718361400   -0.00006457090776
C        11.73463838319591    2.75791743685776    0.38007092941867
C        10.65672904314320    3.16428674073912    1.24276891532458
C         9.73632993473716    2.15702449087756    1.21211800010766
C        10.24738015720060    1.14139741098382    0.32864131091528
N        11.49415057830893    1.49480955727188   -0.09584793724177
C         9.62726525254373   -0.03446195248632   -0.13198912845259
C        10.33757979213006   -1.18618158309761   -0.46302575060389
C         9.91722929789545   -2.26907992609437   -1.31552544512119
C        10.88324329606810   -3.22469058790820   -1.24656852713850
C        11.90210192954078   -2.73488604945243   -0.34810183945234
N        11.57916267605423   -1.46751697166010    0.04914721230978
C        13.05218819927923   -3.37409480003493    0.12060584607715
C        14.22014307115904   -2.66913971617770    0.44717678742189
N        14.49816056847077   -1.44142228719575   -0.05252785402207
H        15.33396344440320   -4.01701188756271    1.87932815926352
H        17.17630683610089   -2.16774065413306    1.80804040436778
H        16.99435254294497    2.24396786213243   -1.81538557839766
H        15.06229820938218    4.11067289682424   -1.83057969138973
H        12.85266459124106    4.51966375473019   -0.00368257893840
H        10.62385018160417    4.03224366559146    1.87747935733641
H         8.86188241623247    2.09477175155684    1.82403915567959
H         8.55366427791373   -0.06340476701207   -0.25053124499265
H         9.06146038684164   -2.28484701143560   -1.96470436210446
H        10.91521271968086   -4.11416369370270   -1.84063956703785
H        13.05848553090466   -4.44945693730557    0.23393916234892
Fe       42.82027646934260   -0.01581004055855    0.00320730044095
C        40.52581937173061    2.85511484774587    1.83771943727928
C        39.57255622073653    1.91489866424009    1.62757294556497
C        40.05829629972944    1.03372347529842    0.59006661840540
C        39.51520326562589   -0.06056370748054   -0.01152284245867
C        40.16194065108304   -1.10452025231459   -0.58633644782082
C        39.74927799358279   -1.98616614887764   -1.64804331434139
C        40.72104666232584   -2.91006776279322   -1.81626726152394
C        41.77118935787867   -2.61456463093314   -0.87607272380944
N        41.44525449806832   -1.49424683926661   -0.16543188156963
C        42.94372666098984   -3.35696281457243   -0.63548546410283
C        44.10332864576652   -2.76270462944076   -0.13644919231032
C        45.18123423594544   -3.32205044155216    0.63587284837064
C        46.10164041925467   -2.32657793384334    0.79261400034968
C        45.59061146153482   -1.16470301057357    0.11287499999729
N        44.34383454319656   -1.43323900617299   -0.36981757020924
C        46.21071973083072    0.07620433384516   -0.12163681158294
C        45.50040704386009    1.26934595477720   -0.23328472626131
C        45.92074134670448    2.49158741495717   -0.87010222616737
C        44.95473025688903    3.41782362903529   -0.62505107765212
C        43.93586415480989    2.76985010843422    0.16694693963380
N        44.25882529119534    1.45078835362383    0.32220311995252
C        42.78576269727316    3.31100884728690    0.74607719576990
C        41.61778800725670    2.55771629830688    0.93621045414057
N        41.33973376004696    1.44394664716229    0.21753027966549
H        40.50399184032294    3.61653167227563    2.59355039935685
H        38.66166515012589    1.81263914753519    2.18049232664196
H        38.84364737225452   -1.85039760508985   -2.19849466886758
H        40.77567521519439   -3.68189549091400   -2.55970759596621
H        42.98532808815600   -4.42269393822765   -0.84039846035686
H        45.21411643625024   -4.29268275257379    1.09856339287119
H        46.97609174954563   -2.37893229707091    1.40545722399023
H        47.28431961081537    0.12663578077418   -0.23275105759501
H        46.77650926714279    2.62751001707300   -1.50508879767151
H        44.92274623778980    4.40205530661248   -1.04381949910316
H        42.77946747933823    4.34667872664540    1.05693952908200
C        19.28980210096792    0.01161113445871   -0.00202600849165
C        20.52896186775973    0.01685927254147   -0.00661136796385
C        21.87811071032489    0.02187727559178    0.00302857522615
C        23.11096844430566    0.04756938957067   -0.00679556221289
C        32.73789122067728    0.02006917506643   -0.00556522817924
C        33.96970480954103    0.01482213048035    0.00127947007267
C        35.31706311978284    0.01180302827218   -0.00064147488907
C        36.55491405075256    0.00298086349735   -0.00439817996375
Fe       27.94121297191853    0.03242062069818   -0.04772960160111
C        25.67819583941497   -3.28159866642770   -0.86649525091171
C        24.70901610421085   -2.32767035809676   -0.96567372747440
C        25.18849225858559   -1.18170980321880   -0.24268858156166
C        24.51093381507298    0.04921529636364   -0.00017563865122
C        25.24825328237442    1.25735927376198    0.24559379357277
C        24.79358756944933    2.41095878027724    0.95519117418437
C        25.76979268217586    3.35542803344489    0.85173314595751
C        26.83334409646890    2.78510335118697    0.08754981111208
N        26.51508661108797    1.47644343405161   -0.21707062848412
C        27.99420815916897    3.43253571505009   -0.34984286104245
C        29.15039820213550    2.72993019374192   -0.69948544484968
C        30.16929050803055    3.06071208156672   -1.64931803704380
C        31.10268234932347    2.06222791244903   -1.57837569062786
C        30.65924782385120    1.14848407510756   -0.57289252767856
N        29.44207091320640    1.52812903926206   -0.10382541493620
C        31.34695037114334    0.02397646580902   -0.01862924585485
C        30.64352741994294   -1.09291711086085    0.52051252079626