 Entering Gaussian System
 *********************************************
 Gaussian 98:
 frequency output generated by the xtb code
 *********************************************
                         Standard orientation:
 --------------------------------------------------------------------
  Center     Atomic     Atomic              Coordinates (Angstroms)
  Number     Number      Type              X           Y           Z
 --------------------------------------------------------------------
    1          6             0       20.827948    3.377931    0.720693
    2          6             0       21.797749    2.456623    0.560157
    3          6             0       21.118618    1.210075    0.255014
    4          6             0       21.798279   -0.002574    0.030333
    5          6             0       21.164834   -1.227268   -0.232558
    6          6             0       21.783479   -2.481990   -0.480320
    7          6             0       20.791357   -3.392915   -0.701740
    8          6             0       19.544785   -2.713347   -0.599711
    9          7             0       19.823011   -1.411519   -0.313183
   10          6             0       18.285529   -3.268830   -0.772225
   11          6             0       17.060185   -2.621353   -0.696750
   12          6             0       15.793979   -3.308793   -0.906383
   13          6             0       14.832364   -2.378927   -0.758452
   14          6             0       15.518488   -1.131376   -0.459832
   15          7             0       16.855472   -1.314516   -0.431841
   16          6             0       14.856065    0.068931   -0.235448
   17          6             0       15.464944    1.281242    0.050105
   18          6             0       14.843666    2.538878    0.297074
   19          6             0       15.831778    3.448252    0.533038
   20          6             0       17.082144    2.770680    0.435322
   21          7             0       16.808034    1.471803    0.144294
   22          6             0       18.341762    3.325731    0.604143
   23          6             0       19.568195    2.684043    0.513208
   24          7             0       19.785253    1.376327    0.235850
   25          1             0       20.919420    4.420758    0.956806
   26          1             0       22.861044    2.568079    0.647118
   27          1             0       22.842691   -2.649074   -0.495310
   28          1             0       20.901783   -4.437320   -0.919859
   29          1             0       19.142442   -0.671702   -0.184431
   30          1             0       18.258898   -4.326328   -0.996322
   31          1             0       15.697030   -4.353405   -1.132971
   32          1             0       13.767372   -2.486689   -0.835867
   33          1             0       13.776909    0.056884   -0.286108
   34          1             0       13.784609    2.709392    0.292622
   35          1             0       15.719791    4.491908    0.754886
   36          1             0       17.487024    0.732029    0.011131
   37          1             0       18.370062    4.381868    0.834800
   38          6             0       37.810184   -3.451693   -0.069193
   39          6             0       36.848097   -2.508939   -0.044642
   40          6             0       37.538494   -1.232998    0.004727
   41          6             0       36.868954    0.005721    0.051892
   42          6             0       37.518271    1.250857    0.068799
   43          6             0       36.918215    2.536174    0.141540
   44          6             0       37.921961    3.460909    0.122536
   45          6             0       39.158346    2.760198    0.044941
   46          7             0       38.862080    1.431290    0.017579
   47          6             0       40.424275    3.326153    0.008098
   48          6             0       41.644285    2.666392   -0.039970
   49          6             0       42.917888    3.371319   -0.069517
   50          6             0       43.872096    2.422723   -0.099350
   51          6             0       43.174100    1.146499   -0.087225
   52          7             0       41.837473    1.331402   -0.054353
   53          6             0       43.825373   -0.080501   -0.101830
   54          6             0       43.202275   -1.318861   -0.087791
   55          6             0       43.808195   -2.607707   -0.102474
   56          6             0       42.807905   -3.534135   -0.087809
   57          6             0       41.565256   -2.835930   -0.063755
   58          7             0       41.855975   -1.508430   -0.061885
   59          6             0       40.298100   -3.399487   -0.057595
   60          6             0       39.077289   -2.741166   -0.041469
   61          7             0       38.871514   -1.402974   -0.001731
   62          1             0       37.708931   -4.519354   -0.107554
   63          1             0       35.782602   -2.626350   -0.073421
   64          1             0       35.863692    2.715810    0.213214
   65          1             0       37.825851    4.528492    0.162203
   66          1             0       39.531095    0.671330   -0.028906
   67          1             0       40.461621    4.406727    0.024960
   68          1             0       43.024286    4.439299   -0.066100
   69          1             0       44.939114    2.534941   -0.125718
   70          1             0       44.905424   -0.069248   -0.125581
   71          1             0       44.865721   -2.786412   -0.122558
   72          1             0       42.906808   -4.602406   -0.093376
   73          1             0       41.187248   -0.747677   -0.045395
   74          1             0       40.258089   -4.480093   -0.073170
   75          6             0       23.198885    0.009040    0.065135
   76          6             0       24.411905    0.031863    0.086295
   77          6             0       34.255050   -0.008470    0.103697
   78          6             0       35.468769    0.002201    0.080987
   79          6             0       26.795095   -3.184651    1.301907
   80          6             0       25.819359   -2.316406    0.970945
   81          6             0       26.492403   -1.112335    0.520494
   82          6             0       25.811740    0.047787    0.103603
   83          6             0       26.460444    1.225141   -0.302075
   84          6             0       25.869202    2.433765   -0.754541
   85          6             0       26.883637    3.294481   -1.062600
   86          6             0       28.115152    2.627520   -0.809951
   87          7             0       27.807032    1.384678   -0.348296
   88          6             0       29.384471    3.147027   -1.023495
   89          6             0       30.611575    2.534723   -0.824300
   90          6             0       31.867310    3.195136   -1.138131
   91          6             0       32.842883    2.318211   -0.830763
   92          6             0       32.172706    1.135201   -0.324661
   93          7             0       30.837851    1.290065   -0.339857
   94          6             0       32.855627   -0.013898    0.120872
   95          6             0       32.205414   -1.170439    0.582323
   96          6             0       32.794657   -2.360459    1.083294
   97          6             0       31.779928   -3.215582    1.405465
   98          6             0       30.549452   -2.563653    1.112601
   99          7             0       30.858832   -1.332057    0.622078
  100          6             0       29.280339   -3.094931    1.296653
  101          6             0       28.052698   -2.500924    1.050743
  102          7             0       27.827855   -1.251773    0.578137
  103          1             0       26.708862   -4.185170    1.680233
  104          1             0       24.755006   -2.436749    1.028113
  105          1             0       24.814074    2.605118   -0.840422
  106          1             0       26.797197    4.296619   -1.435229
  107          1             0       28.457066    0.654070   -0.078876
  108          1             0       29.416855    4.157839   -1.407434
  109          1             0       31.952450    4.185988   -1.541286
  110          1             0       33.904912    2.419832   -0.938478
  111          1             0       33.848689   -2.523642    1.192263
  112          1             0       31.865631   -4.204784    1.811366
  113          1             0       30.209329   -0.611820    0.324910
  114          1             0       29.248433   -4.102879    1.688078
 --------------------------------------------------------------------
     1 basis functions        1 primitive gaussians
     1 alpha electrons        1 beta electrons

 Harmonic frequencies (cm**-1), IR intensities (km*mol⁻¹),
 Raman scattering activities (A**4/amu), Raman depolarization ratios,
 reduced masses (AMU), force constants (mDyne/A) and normal coordinates:
                      1                      2                      3
                        a                      a                      a 
 Frequencies --     3.7152                 6.7577                 8.5787
 Red. masses --    11.7084                11.5757                11.2467
 Frc consts  --     0.0000                 0.0000                 0.0000
 IR Inten    --    12.0574                 6.3310                 0.3400
 Raman Activ --     0.0000                 0.0000                 0.0000
 Depolar     --     0.0000                 0.0000                 0.0000
 Atom AN      X      Y      Z        X      Y      Z        X      Y      Z
   1   6     0.05   0.00  -0.01     0.07  -0.02   0.04    -0.01  -0.04   0.18
   2   6     0.04  -0.01  -0.03     0.05  -0.05   0.06    -0.01  -0.03   0.13
   3   6     0.02  -0.00  -0.01     0.03  -0.02   0.03    -0.01  -0.01   0.07
   4   6    -0.00  -0.01  -0.02    -0.00  -0.04   0.04    -0.00  -0.00   0.01
   5   6    -0.02  -0.01  -0.00    -0.03  -0.02   0.02    -0.00   0.01  -0.05
   6   6    -0.04  -0.01  -0.01    -0.06  -0.04   0.04     0.00   0.02  -0.11
   7   6    -0.06  -0.00   0.02    -0.08  -0.01   0.02     0.01   0.03  -0.16
   8   6    -0.05   0.01   0.04    -0.06   0.02  -0.01     0.00   0.03  -0.13
   9   7    -0.03   0.01   0.04    -0.03   0.01   0.00     0.00   0.01  -0.07
  10   6    -0.06   0.03   0.08    -0.07   0.05  -0.03     0.01   0.03  -0.17
  11   6    -0.05   0.04   0.10    -0.06   0.09  -0.06     0.01   0.03  -0.14
  12   6    -0.06   0.05   0.14    -0.07   0.12  -0.09     0.01   0.04  -0.18
  13   6    -0.05   0.07   0.16    -0.05   0.15  -0.11     0.01   0.03  -0.14
  14   6    -0.03   0.06   0.13    -0.02   0.13  -0.10     0.00   0.01  -0.06
  15   7    -0.03   0.05   0.11    -0.03   0.10  -0.07     0.00   0.01  -0.08
  16   6    -0.01   0.07   0.15     0.01   0.15  -0.11     0.00  -0.00   0.00
  17   6     0.01   0.06   0.12     0.03   0.13  -0.09    -0.00  -0.02   0.07
  18   6     0.03   0.07   0.13     0.06   0.14  -0.09    -0.01  -0.03   0.14
  19   6     0.05   0.06   0.10     0.08   0.12  -0.07    -0.01  -0.04   0.19
  20   6     0.04   0.05   0.08     0.06   0.08  -0.04    -0.01  -0.03   0.16
  21   7     0.02   0.05   0.10     0.04   0.10  -0.06    -0.00  -0.02   0.09
  22   6     0.05   0.03   0.05     0.08   0.05  -0.01    -0.01  -0.04   0.19
  23   6     0.04   0.02   0.02     0.06   0.01   0.01    -0.01  -0.03   0.15
  24   7     0.02   0.01   0.02     0.03   0.01   0.01    -0.01  -0.02   0.09
  25   1     0.02   0.00  -0.01     0.03  -0.01   0.02    -0.00  -0.01   0.07
  26   1     0.01  -0.01  -0.02     0.02  -0.02   0.02    -0.00  -0.01   0.04
  27   1    -0.01  -0.01  -0.01    -0.02  -0.02   0.02     0.00   0.01  -0.03
  28   1    -0.02  -0.00   0.01    -0.03  -0.01   0.01     0.00   0.01  -0.06
  29   1    -0.00   0.01   0.01    -0.00   0.01  -0.00    -0.00   0.00  -0.01
  30   1    -0.02   0.01   0.02    -0.03   0.02  -0.01     0.00   0.01  -0.06
  31   1    -0.02   0.02   0.04    -0.03   0.04  -0.03     0.00   0.01  -0.07
  32   1    -0.01   0.02   0.05    -0.01   0.05  -0.04     0.00   0.01  -0.04
  33   1    -0.00   0.02   0.05     0.00   0.05  -0.04     0.00   0.00  -0.00
  34   1     0.01   0.02   0.05     0.02   0.05  -0.03    -0.00  -0.01   0.04
  35   1     0.02   0.02   0.03     0.03   0.03  -0.02    -0.00  -0.02   0.07
  36   1     0.00   0.01   0.02     0.01   0.02  -0.01    -0.00  -0.00   0.01
  37   1     0.02   0.01   0.01     0.03   0.01   0.00    -0.00  -0.01   0.07
  38   6     0.05  -0.00  -0.01     0.08  -0.01   0.07     0.00  -0.00   0.16
  39   6     0.03  -0.01  -0.03     0.05  -0.03   0.08     0.00   0.00   0.10
  40   6     0.02  -0.00  -0.01     0.03  -0.01   0.05    -0.00   0.00   0.04
  41   6     0.00  -0.01  -0.03    -0.00  -0.03   0.05    -0.00   0.01  -0.02
  42   6    -0.01  -0.01  -0.01    -0.03  -0.01   0.03     0.00   0.01  -0.09
  43   6    -0.03  -0.01  -0.02    -0.06  -0.03   0.04     0.01   0.01  -0.16
  44   6    -0.04  -0.00   0.01    -0.08  -0.00   0.02     0.01   0.01  -0.21
  45   6    -0.03   0.02   0.04    -0.06   0.02  -0.00     0.01   0.00  -0.17
  46   7    -0.02   0.01   0.03    -0.04   0.02   0.00     0.00  -0.00  -0.10
  47   6    -0.04   0.03   0.07    -0.08   0.05  -0.04     0.01  -0.00  -0.20
  48   6    -0.03   0.05   0.10    -0.06   0.08  -0.07     0.01  -0.01  -0.15
  49   6    -0.04   0.06   0.14    -0.08   0.11  -0.10     0.01  -0.01  -0.19
  50   6    -0.02   0.07   0.16    -0.06   0.13  -0.13     0.01  -0.01  -0.12
  51   6    -0.01   0.07   0.14    -0.03   0.12  -0.10     0.01  -0.01  -0.05
  52   7    -0.01   0.05   0.11    -0.04   0.09  -0.07     0.01  -0.01  -0.07
  53   6     0.01   0.07   0.15    -0.00   0.13  -0.12     0.01  -0.01   0.04
  54   6     0.02   0.07   0.13     0.03   0.12  -0.09     0.01  -0.01   0.11
  55   6     0.04   0.07   0.15     0.06   0.13  -0.10     0.00  -0.01   0.20
  56   6     0.05   0.06   0.12     0.08   0.11  -0.06     0.00  -0.01   0.24
  57   6     0.04   0.05   0.09     0.06   0.08  -0.03     0.00  -0.00   0.18
  58   7     0.02   0.05   0.10     0.03   0.09  -0.06     0.00  -0.00   0.12
  59   6     0.05   0.03   0.05     0.08   0.05   0.01     0.00  -0.00   0.20
  60   6     0.04   0.01   0.02     0.06   0.02   0.03     0.00   0.00   0.14
  61   7     0.02   0.01   0.02     0.03   0.02   0.02     0.00   0.00   0.08
  62   1     0.02  -0.00  -0.00     0.03  -0.00   0.02     0.00  -0.00   0.06
  63   1     0.01  -0.01  -0.02     0.02  -0.02   0.03     0.00  -0.00   0.03
  64   1    -0.01  -0.01  -0.01    -0.02  -0.01   0.02     0.00   0.01  -0.05
  65   1    -0.02  -0.00   0.00    -0.03  -0.00   0.01     0.00   0.00  -0.08
  66   1    -0.00   0.01   0.01    -0.01   0.01  -0.00    -0.00  -0.00  -0.01
  67   1    -0.02   0.01   0.02    -0.03   0.02  -0.01     0.00  -0.00  -0.08
  68   1    -0.01   0.02   0.04    -0.03   0.03  -0.03     0.00  -0.00  -0.07
  69   1    -0.01   0.03   0.06    -0.02   0.05  -0.05     0.00  -0.00  -0.03
  70   1     0.00   0.03   0.05    -0.00   0.05  -0.04     0.00  -0.00   0.01
  71   1     0.01   0.02   0.05     0.02   0.04  -0.04     0.00  -0.00   0.06
  72   1     0.02   0.02   0.03     0.03   0.03  -0.02    -0.00  -0.00   0.09
  73   1     0.00   0.01   0.02     0.00   0.02  -0.01     0.00  -0.00   0.02
  74   1     0.02   0.01   0.01     0.03   0.01   0.01    -0.00  -0.00   0.08
  75   6    -0.00  -0.03  -0.05    -0.00  -0.07   0.05    -0.00  -0.00   0.01
  76   6    -0.00  -0.04  -0.07    -0.00  -0.09   0.05    -0.00   0.00   0.01
  77   6     0.00  -0.04  -0.08    -0.00  -0.08   0.06    -0.00   0.01  -0.02
  78   6     0.00  -0.03  -0.06    -0.00  -0.06   0.06    -0.00   0.01  -0.03
  79   6     0.00  -0.05  -0.12     0.00  -0.10   0.04     0.00  -0.01  -0.04
  80   6     0.00  -0.05  -0.10     0.00  -0.10   0.04     0.00  -0.01  -0.03
  81   6     0.00  -0.05  -0.10     0.00  -0.09   0.05    -0.00  -0.00  -0.02
  82   6    -0.00  -0.05  -0.10    -0.00  -0.09   0.05    -0.00   0.00   0.00
  83   6     0.00  -0.05  -0.11    -0.00  -0.09   0.04    -0.01   0.01   0.02
  84   6     0.00  -0.05  -0.11    -0.00  -0.10   0.04    -0.01   0.01   0.04
  85   6     0.00  -0.06  -0.12    -0.00  -0.10   0.04    -0.01   0.02   0.04
  86   6     0.00  -0.06  -0.13    -0.00  -0.10   0.04    -0.01   0.01   0.02
  87   7     0.00  -0.06  -0.13    -0.00  -0.10   0.05    -0.01   0.01   0.01
  88   6     0.00  -0.06  -0.13    -0.00  -0.10   0.03    -0.01   0.01   0.01
  89   6     0.00  -0.06  -0.13    -0.00  -0.09   0.03    -0.01   0.01  -0.01
  90   6     0.00  -0.06  -0.12    -0.01  -0.10   0.03    -0.01   0.00  -0.02
  91   6     0.00  -0.05  -0.11    -0.00  -0.09   0.03    -0.01   0.00  -0.03
  92   6     0.00  -0.05  -0.11    -0.00  -0.09   0.04    -0.00   0.00  -0.02
  93   7     0.00  -0.06  -0.13    -0.00  -0.10   0.05    -0.00   0.01  -0.01
  94   6     0.00  -0.05  -0.10    -0.00  -0.09   0.05    -0.00   0.01  -0.02
  95   6     0.00  -0.05  -0.11     0.00  -0.09   0.05     0.00   0.01  -0.02
  96   6    -0.00  -0.05  -0.11     0.00  -0.08   0.05     0.00   0.01  -0.01
  97   6    -0.00  -0.06  -0.12     0.00  -0.09   0.05     0.00   0.01  -0.01
  98   6     0.00  -0.06  -0.13     0.00  -0.09   0.05     0.00   0.00  -0.02
  99   7     0.00  -0.06  -0.13     0.00  -0.09   0.05     0.00   0.01  -0.02
 100   6     0.00  -0.06  -0.13     0.00  -0.09   0.05     0.00  -0.00  -0.03
 101   6     0.00  -0.06  -0.12     0.00  -0.09   0.05     0.00  -0.01  -0.03
 102   7     0.00  -0.06  -0.12     0.00  -0.10   0.05    -0.00  -0.00  -0.02
 103   1     0.00  -0.02  -0.04     0.00  -0.03   0.01     0.00  -0.01  -0.02
 104   1     0.00  -0.01  -0.03     0.00  -0.03   0.01     0.00  -0.00  -0.01
 105   1     0.00  -0.01  -0.03    -0.00  -0.03   0.01    -0.00   0.00   0.01
 106   1     0.00  -0.02  -0.04    -0.00  -0.03   0.01    -0.00   0.01   0.01
 107   1     0.00  -0.02  -0.03    -0.00  -0.03   0.01    -0.00   0.00  -0.00
 108   1     0.00  -0.02  -0.04    -0.00  -0.03   0.01    -0.00   0.00   0.00
 109   1     0.00  -0.02  -0.04    -0.00  -0.03   0.01    -0.00   0.00  -0.01
 110   1     0.00  -0.02  -0.03    -0.00  -0.03   0.01    -0.00   0.00  -0.01
 111   1    -0.00  -0.02  -0.03     0.00  -0.02   0.02     0.00   0.00  -0.00
 112   1    -0.00  -0.02  -0.04     0.00  -0.02   0.01     0.00   0.00  -0.00
 113   1     0.00  -0.02  -0.03     0.00  -0.03   0.01     0.00   0.00  -0.01
 114   1     0.00  -0.02  -0.04     0.00  -0.03   0.01     0.00  -0.00  -0.01
                      4                      5                      6
                        a                      a                      a 
 Frequencies --    11.7565                13.8583                14.5215
 Red. masses --    11.4296                11.2675                11.3966
 Frc consts  --     0.0000                 0.0000                 0.0000
 IR Inten    --     0.0430                 1.3577                 0.2158
 Raman Activ --     0.0000                 0.0000                 0.0000
 Depolar     --     0.0000                 0.0000                 0.0000
 Atom AN      X      Y      Z        X      Y      Z        X      Y      Z
   1   6     0.01   0.01  -0.09     0.01  -0.02   0.11     0.10  -0.09   0.00
   2   6     0.01   0.02  -0.13     0.01  -0.02   0.08     0.07  -0.12  -0.01
   3   6     0.00   0.02  -0.11     0.01  -0.01   0.05     0.04  -0.10  -0.01
   4   6     0.00   0.02  -0.13     0.01  -0.00   0.02     0.00  -0.12  -0.03
   5   6     0.00   0.02  -0.13     0.01   0.00  -0.02    -0.04  -0.10  -0.02
   6   6     0.00   0.03  -0.17     0.02   0.01  -0.04    -0.08  -0.12  -0.01
   7   6     0.00   0.02  -0.15     0.02   0.02  -0.08    -0.10  -0.09  -0.00
   8   6    -0.00   0.01  -0.10     0.02   0.01  -0.08    -0.08  -0.05   0.00
   9   7     0.00   0.01  -0.10     0.02   0.01  -0.04    -0.05  -0.06  -0.01
  10   6    -0.00   0.01  -0.06     0.02   0.02  -0.12    -0.10  -0.01   0.01
  11   6    -0.01  -0.00   0.01     0.02   0.02  -0.11    -0.08   0.02   0.01
  12   6    -0.01  -0.01   0.06     0.02   0.03  -0.15    -0.10   0.06   0.02
  13   6    -0.01  -0.03   0.13     0.02   0.03  -0.13    -0.07   0.09   0.01
  14   6    -0.01  -0.02   0.11     0.02   0.01  -0.07    -0.04   0.07   0.01
  15   7    -0.01  -0.01   0.05     0.03   0.01  -0.07    -0.04   0.03   0.01
  16   6    -0.01  -0.03   0.17     0.02   0.00  -0.02     0.00   0.09   0.01
  17   6    -0.01  -0.03   0.15     0.02  -0.01   0.04     0.04   0.07   0.01
  18   6    -0.00  -0.04   0.19     0.01  -0.02   0.09     0.08   0.09   0.01
  19   6    -0.00  -0.03   0.14     0.01  -0.03   0.13     0.11   0.06   0.01
  20   6     0.00  -0.02   0.07     0.01  -0.02   0.11     0.08   0.02   0.01
  21   7    -0.00  -0.02   0.08     0.02  -0.01   0.06     0.05   0.03   0.00
  22   6     0.00  -0.01   0.01     0.01  -0.02   0.13     0.10  -0.02   0.01
  23   6     0.00   0.00  -0.05     0.01  -0.02   0.10     0.08  -0.05   0.00
  24   7     0.00   0.01  -0.07     0.01  -0.01   0.06     0.04  -0.06  -0.01
  25   1     0.00   0.00  -0.03     0.00  -0.01   0.04     0.04  -0.03   0.00
  26   1     0.00   0.01  -0.05     0.00  -0.00   0.02     0.02  -0.04  -0.00
  27   1     0.00   0.01  -0.06     0.01   0.00  -0.01    -0.02  -0.04  -0.00
  28   1    -0.00   0.01  -0.05     0.01   0.01  -0.03    -0.04  -0.03   0.00
  29   1    -0.00   0.00  -0.02     0.00  -0.00  -0.01    -0.01  -0.01  -0.00
  30   1    -0.00   0.00  -0.02     0.01   0.01  -0.04    -0.04  -0.00   0.00
  31   1    -0.00  -0.00   0.01     0.01   0.01  -0.06    -0.04   0.02   0.01
  32   1    -0.00  -0.01   0.05     0.01   0.01  -0.04    -0.02   0.04   0.00
  33   1    -0.00  -0.01   0.06     0.01   0.00  -0.01     0.00   0.04   0.00
  34   1    -0.00  -0.01   0.07     0.00  -0.01   0.03     0.02   0.04   0.00
  35   1    -0.00  -0.01   0.04     0.00  -0.01   0.05     0.04   0.02   0.00
  36   1    -0.00  -0.00   0.01     0.01   0.00   0.01     0.01   0.00   0.00
  37   1     0.00  -0.00   0.00     0.00  -0.01   0.05     0.04  -0.01   0.00
  38   6     0.01  -0.01   0.16    -0.02  -0.00  -0.09    -0.10   0.08  -0.03
  39   6     0.01  -0.01   0.18    -0.02   0.00  -0.06    -0.07   0.11  -0.02
  40   6     0.00  -0.01   0.14    -0.01  -0.00  -0.04    -0.03   0.09  -0.01
  41   6     0.00  -0.01   0.14    -0.01  -0.00  -0.02    -0.00   0.11   0.00
  42   6    -0.00  -0.01   0.13    -0.01  -0.00   0.01     0.03   0.09  -0.01
  43   6    -0.00  -0.01   0.15    -0.02  -0.00   0.02     0.07   0.11  -0.02
  44   6    -0.00  -0.01   0.13    -0.02  -0.00   0.05     0.10   0.08  -0.02
  45   6    -0.01  -0.00   0.08    -0.02   0.00   0.06     0.08   0.04  -0.02
  46   7    -0.00  -0.01   0.09    -0.01   0.00   0.03     0.04   0.06  -0.01
  47   6    -0.01  -0.00   0.03    -0.02   0.00   0.09     0.10   0.01  -0.02
  48   6    -0.01   0.00  -0.04    -0.02   0.00   0.09     0.08  -0.03  -0.00
  49   6    -0.01   0.01  -0.11    -0.01   0.00   0.13     0.10  -0.07   0.00
  50   6    -0.01   0.01  -0.16    -0.02  -0.00   0.12     0.07  -0.09   0.01
  51   6    -0.01   0.01  -0.13    -0.02  -0.00   0.06     0.03  -0.07   0.01
  52   7    -0.01   0.00  -0.06    -0.02   0.00   0.06     0.04  -0.04   0.00
  53   6    -0.01   0.01  -0.17    -0.02  -0.00   0.03    -0.00  -0.09   0.02
  54   6    -0.00   0.01  -0.13    -0.02  -0.00  -0.02    -0.04  -0.07   0.01
  55   6     0.00   0.01  -0.15    -0.02  -0.00  -0.07    -0.07  -0.09   0.01
  56   6     0.01   0.01  -0.09    -0.02  -0.00  -0.10    -0.10  -0.06  -0.00
  57   6     0.01   0.00  -0.02    -0.02  -0.01  -0.08    -0.08  -0.03  -0.01
  58   7     0.00   0.00  -0.05    -0.02  -0.01  -0.04    -0.05  -0.04   0.00
  59   6     0.01  -0.00   0.05    -0.02  -0.01  -0.10    -0.10   0.01  -0.02
  60   6     0.01  -0.01   0.10    -0.02  -0.01  -0.08    -0.08   0.05  -0.02
  61   7     0.00  -0.01   0.10    -0.02  -0.01  -0.05    -0.04   0.06  -0.01
  62   1     0.00  -0.00   0.05    -0.01   0.00  -0.03    -0.04   0.03  -0.01
  63   1     0.00  -0.00   0.06    -0.01   0.00  -0.02    -0.02   0.04  -0.01
  64   1     0.00  -0.00   0.06    -0.01  -0.00   0.00     0.02   0.04  -0.01
  65   1    -0.00  -0.00   0.04    -0.01  -0.00   0.02     0.04   0.02  -0.01
  66   1    -0.00  -0.00   0.02    -0.00   0.00   0.01     0.01   0.01  -0.00
  67   1    -0.00  -0.00   0.01    -0.00   0.00   0.04     0.04   0.00  -0.01
  68   1    -0.00   0.00  -0.03    -0.00  -0.00   0.05     0.04  -0.02  -0.00
  69   1    -0.00   0.00  -0.06    -0.00  -0.00   0.04     0.02  -0.04   0.01
  70   1    -0.00   0.00  -0.07    -0.01  -0.00   0.01    -0.00  -0.04   0.01
  71   1     0.00   0.00  -0.06    -0.01   0.00  -0.02    -0.02  -0.04   0.01
  72   1     0.00   0.00  -0.02    -0.00  -0.00  -0.04    -0.04  -0.02  -0.00
  73   1    -0.00   0.00  -0.01    -0.01  -0.00  -0.00    -0.01  -0.00  -0.00
  74   1     0.00  -0.00   0.02    -0.01  -0.00  -0.04    -0.04   0.00  -0.01
  75   6     0.00   0.02  -0.15     0.01  -0.00   0.02     0.00  -0.14  -0.04
  76   6     0.00   0.02  -0.15     0.01  -0.00   0.02     0.00  -0.14  -0.06
  77   6     0.00  -0.01   0.14    -0.01   0.00  -0.02     0.00   0.14   0.05
  78   6     0.00  -0.01   0.15    -0.01  -0.00  -0.02     0.00   0.14   0.02
  79   6    -0.04   0.01  -0.07     0.00   0.07   0.21     0.08  -0.08  -0.05
  80   6    -0.03   0.01  -0.11     0.01   0.05   0.16     0.06  -0.12  -0.07
  81   6    -0.01   0.01  -0.10     0.01   0.02   0.08     0.03  -0.09  -0.05
  82   6     0.00   0.01  -0.12     0.01  -0.00   0.01     0.00  -0.11  -0.06
  83   6     0.02   0.00  -0.11     0.01  -0.03  -0.06    -0.03  -0.09  -0.05
  84   6     0.03   0.00  -0.14    -0.00  -0.06  -0.13    -0.06  -0.12  -0.07
  85   6     0.05  -0.00  -0.12    -0.01  -0.07  -0.20    -0.09  -0.08  -0.05
  86   6     0.04  -0.00  -0.07    -0.00  -0.05  -0.17    -0.07  -0.04  -0.02
  87   7     0.02   0.00  -0.08     0.01  -0.03  -0.09    -0.04  -0.05  -0.03
  88   6     0.04  -0.01  -0.04    -0.01  -0.07  -0.21    -0.08   0.01   0.01
  89   6     0.04  -0.01   0.01    -0.01  -0.05  -0.18    -0.06   0.05   0.04
  90   6     0.05  -0.01   0.05    -0.00  -0.08  -0.22    -0.08   0.10   0.07
  91   6     0.04  -0.01   0.09    -0.01  -0.06  -0.16    -0.06   0.13   0.08
  92   6     0.02  -0.00   0.08    -0.01  -0.02  -0.09    -0.03   0.10   0.06
  93   7     0.02  -0.00   0.03    -0.01  -0.03  -0.10    -0.03   0.06   0.04
  94   6     0.00  -0.00   0.11    -0.01   0.00  -0.02     0.00   0.12   0.06
  95   6    -0.02   0.00   0.10    -0.01   0.03   0.06     0.03   0.10   0.06
  96   6    -0.03   0.01   0.13     0.00   0.06   0.13     0.06   0.13   0.08
  97   6    -0.05   0.01   0.10     0.01   0.08   0.19     0.08   0.10   0.07
  98   6    -0.03   0.01   0.05     0.00   0.06   0.17     0.07   0.05   0.04
  99   7    -0.02   0.01   0.06    -0.00   0.03   0.09     0.04   0.06   0.04
 100   6    -0.04   0.01   0.01     0.01   0.07   0.21     0.08   0.01   0.01
 101   6    -0.03   0.01  -0.04     0.01   0.06   0.17     0.07  -0.04  -0.02
 102   7    -0.02   0.01  -0.06     0.01   0.03   0.10     0.04  -0.05  -0.03
 103   1    -0.02   0.00  -0.02     0.00   0.03   0.08     0.03  -0.03  -0.01
 104   1    -0.01   0.00  -0.04     0.00   0.02   0.05     0.02  -0.04  -0.03
 105   1     0.01   0.00  -0.05    -0.00  -0.02  -0.04    -0.02  -0.04  -0.03
 106   1     0.02  -0.00  -0.04    -0.00  -0.03  -0.08    -0.03  -0.02  -0.02
 107   1     0.00   0.00  -0.01     0.00  -0.00  -0.01    -0.00  -0.01  -0.00
 108   1     0.02  -0.00  -0.01    -0.00  -0.03  -0.08    -0.03   0.00   0.00
 109   1     0.02  -0.00   0.01    -0.00  -0.03  -0.08    -0.03   0.03   0.02
 110   1     0.01  -0.00   0.04    -0.00  -0.02  -0.05    -0.02   0.05   0.03
 111   1    -0.01   0.00   0.05     0.00   0.02   0.04     0.02   0.05   0.03
 112   1    -0.02   0.00   0.03     0.00   0.03   0.07     0.03   0.03   0.02
 113   1    -0.00   0.00   0.01    -0.00   0.00   0.01     0.00   0.01   0.01
 114   1    -0.02   0.00   0.01     0.00   0.03   0.08     0.03   0.00   0.01
                      7                      8                      9
                        a                      a                      a 
 Frequencies --    24.9925                31.3557                39.7054
 Red. masses --    11.5126                11.8306                11.3374
 Frc consts  --     0.0000                 0.0000                 0.0000
 IR Inten    --     1.3776                 0.2933                 9.6422
 Raman Activ --     0.0000                 0.0000                 0.0000
 Depolar     --     0.0000                 0.0000                 0.0000
 Atom AN      X      Y      Z        X      Y      Z        X      Y      Z
   1   6    -0.04  -0.01   0.18    -0.13  -0.01  -0.02     0.01   0.03  -0.15
   2   6    -0.03   0.00   0.16    -0.11   0.01  -0.03     0.01   0.01  -0.06
   3   6    -0.02   0.00   0.13    -0.09  -0.01  -0.01     0.00   0.00  -0.03
   4   6    -0.00   0.01   0.12    -0.07  -0.00   0.00    -0.00  -0.01   0.03
   5   6     0.01   0.00   0.13    -0.09   0.00   0.01    -0.00   0.00  -0.02
   6   6     0.02   0.00   0.16    -0.11  -0.01   0.03    -0.00   0.01  -0.05
   7   6     0.02  -0.01   0.17    -0.13   0.01   0.03    -0.00   0.02  -0.13
   8   6     0.02  -0.02   0.14    -0.12   0.04   0.01     0.00   0.03  -0.13
   9   7     0.01  -0.01   0.13    -0.10   0.03   0.01    -0.00   0.01  -0.08
  10   6     0.03  -0.02   0.10    -0.12   0.05  -0.01     0.00   0.03  -0.15
  11   6     0.02  -0.02   0.02    -0.13   0.04  -0.02    -0.00   0.02  -0.07
  12   6     0.03  -0.01  -0.05    -0.12   0.02  -0.05    -0.01   0.01  -0.02
  13   6     0.03  -0.00  -0.13    -0.14   0.01  -0.05    -0.01  -0.01   0.09
  14   6     0.02  -0.00  -0.11    -0.16   0.01  -0.03    -0.01  -0.01   0.09
  15   7     0.01  -0.01  -0.01    -0.17   0.03  -0.02    -0.00   0.01  -0.01
  16   6     0.01   0.00  -0.16    -0.17   0.00  -0.01    -0.01  -0.02   0.16
  17   6    -0.01  -0.00  -0.11    -0.16  -0.01   0.01    -0.00  -0.01   0.10
  18   6    -0.02  -0.01  -0.13    -0.14   0.00   0.03     0.00  -0.01   0.10
  19   6    -0.03  -0.01  -0.05    -0.12  -0.02   0.04     0.01   0.01  -0.01
  20   6    -0.03  -0.02   0.02    -0.13  -0.04   0.02     0.01   0.02  -0.07
  21   7    -0.01  -0.01  -0.02    -0.17  -0.03   0.00     0.00   0.01  -0.00
  22   6    -0.04  -0.02   0.11    -0.12  -0.05   0.01     0.01   0.04  -0.16
  23   6    -0.03  -0.02   0.14    -0.12  -0.04  -0.01     0.01   0.03  -0.14
  24   7    -0.02  -0.01   0.13    -0.10  -0.03  -0.00     0.01   0.02  -0.08
  25   1    -0.01  -0.00   0.06    -0.04  -0.00  -0.01     0.01   0.01  -0.06
  26   1    -0.01   0.00   0.05    -0.03   0.01  -0.01     0.00   0.00  -0.01
  27   1     0.01   0.00   0.05    -0.03  -0.01   0.01    -0.00  -0.00  -0.00
  28   1     0.01  -0.00   0.05    -0.05   0.00   0.01    -0.00   0.01  -0.05
  29   1     0.00  -0.00   0.03    -0.02   0.02   0.00    -0.00   0.00  -0.02
  30   1     0.01  -0.01   0.04    -0.04   0.01  -0.00    -0.00   0.01  -0.06
  31   1     0.01  -0.00  -0.01    -0.03   0.01  -0.02    -0.00   0.01  -0.02
  32   1     0.01  -0.00  -0.06    -0.04  -0.00  -0.02    -0.00  -0.01   0.05
  33   1     0.00   0.00  -0.07    -0.05   0.00  -0.00    -0.00  -0.01   0.07
  34   1    -0.00  -0.00  -0.06    -0.04   0.01   0.01    -0.00  -0.01   0.05
  35   1    -0.01  -0.00  -0.01    -0.03  -0.01   0.01     0.00   0.01  -0.01
  36   1    -0.00  -0.00   0.01    -0.05  -0.02  -0.00     0.00   0.00  -0.01
  37   1    -0.01  -0.01   0.04    -0.04  -0.01   0.00     0.01   0.01  -0.06
  38   6    -0.03   0.02   0.16     0.13   0.01   0.03    -0.03   0.03   0.15
  39   6    -0.02   0.03   0.14     0.11  -0.00   0.04    -0.02   0.05   0.07
  40   6    -0.01   0.03   0.12     0.09   0.01   0.01    -0.01   0.04   0.04
  41   6     0.00   0.03   0.10     0.07   0.00  -0.00     0.00   0.05  -0.02
  42   6     0.02   0.03   0.11     0.09  -0.00  -0.02     0.01   0.04   0.02
  43   6     0.03   0.03   0.14     0.11   0.01  -0.04     0.02   0.05   0.02
  44   6     0.04   0.02   0.15     0.13  -0.01  -0.03     0.04   0.03   0.09
  45   6     0.03   0.01   0.12     0.12  -0.04  -0.01     0.03   0.02   0.11
  46   7     0.02   0.01   0.12     0.10  -0.03  -0.00     0.02   0.03   0.07
  47   6     0.04  -0.01   0.10     0.12  -0.05   0.01     0.04   0.01   0.14
  48   6     0.03  -0.02   0.03     0.13  -0.03   0.03     0.03  -0.01   0.08
  49   6     0.04  -0.03  -0.04     0.12  -0.01   0.05     0.04  -0.02   0.04
  50   6     0.02  -0.04  -0.12     0.14   0.00   0.05     0.02  -0.03  -0.07
  51   6     0.01  -0.03  -0.09     0.16  -0.01   0.02     0.01  -0.02  -0.08
  52   7     0.01  -0.02  -0.01     0.17  -0.03   0.02     0.01  -0.01   0.01
  53   6    -0.00  -0.04  -0.14     0.17  -0.00  -0.00    -0.00  -0.03  -0.15
  54   6    -0.02  -0.04  -0.10     0.16   0.00  -0.03    -0.02  -0.03  -0.10
  55   6    -0.03  -0.04  -0.12     0.13  -0.01  -0.05    -0.03  -0.03  -0.11
  56   6    -0.04  -0.03  -0.04     0.12   0.01  -0.05    -0.04  -0.02  -0.01
  57   6    -0.03  -0.02   0.02     0.13   0.04  -0.03    -0.03  -0.01   0.06
  58   7    -0.02  -0.02  -0.01     0.17   0.03  -0.02    -0.02  -0.01   0.00
  59   6    -0.03  -0.00   0.10     0.12   0.05  -0.02    -0.03   0.01   0.14
  60   6    -0.03   0.01   0.13     0.12   0.03   0.00    -0.03   0.02   0.14
  61   7    -0.01   0.01   0.12     0.10   0.03  -0.00    -0.01   0.03   0.08
  62   1    -0.01   0.01   0.05     0.04   0.00   0.01    -0.01   0.01   0.06
  63   1    -0.01   0.01   0.04     0.03  -0.01   0.02    -0.01   0.02   0.01
  64   1     0.01   0.01   0.04     0.03   0.01  -0.02     0.01   0.02  -0.01
  65   1     0.02   0.01   0.05     0.04  -0.00  -0.01     0.01   0.01   0.03
  66   1     0.00   0.00   0.03     0.02  -0.02   0.00     0.00   0.01   0.02
  67   1     0.02  -0.00   0.03     0.04  -0.01   0.00     0.02   0.00   0.05
  68   1     0.01  -0.01  -0.01     0.03  -0.00   0.02     0.01  -0.01   0.02
  69   1     0.01  -0.02  -0.05     0.04   0.01   0.02     0.01  -0.01  -0.04
  70   1    -0.00  -0.02  -0.06     0.05  -0.00  -0.00    -0.00  -0.01  -0.06
  71   1    -0.01  -0.02  -0.05     0.04  -0.01  -0.02    -0.01  -0.01  -0.05
  72   1    -0.01  -0.01  -0.01     0.03   0.00  -0.02    -0.01  -0.01   0.00
  73   1    -0.00  -0.00   0.01     0.05   0.02  -0.00    -0.00  -0.00   0.01
  74   1    -0.01  -0.00   0.03     0.04   0.01  -0.01    -0.01   0.00   0.05
  75   6    -0.00   0.03   0.09    -0.07  -0.00   0.00    -0.00  -0.03   0.10
  76   6    -0.00   0.03   0.03    -0.07  -0.00   0.00    -0.00  -0.05   0.16
  77   6     0.00   0.05   0.03     0.07  -0.00   0.00    -0.00   0.04  -0.13
  78   6     0.00   0.05   0.07     0.07   0.00  -0.00    -0.00   0.05  -0.08
  79   6     0.01  -0.01  -0.12     0.00   0.03   0.04     0.06  -0.03   0.12
  80   6     0.01   0.01  -0.07    -0.02   0.00   0.03     0.04  -0.04   0.16
  81   6     0.00   0.01  -0.06    -0.05   0.01   0.01     0.02  -0.03   0.14
  82   6    -0.00   0.02  -0.02    -0.07   0.00   0.00    -0.00  -0.04   0.16
  83   6    -0.00   0.02  -0.05    -0.05  -0.01  -0.01    -0.02  -0.03   0.15
  84   6    -0.01   0.01  -0.05    -0.02   0.00  -0.02    -0.05  -0.03   0.17
  85   6    -0.01  -0.00  -0.10     0.01  -0.03  -0.02    -0.07  -0.03   0.13
  86   6    -0.00  -0.01  -0.13    -0.01  -0.06  -0.01    -0.05  -0.02   0.07
  87   7    -0.00   0.00  -0.11    -0.05  -0.05   0.00    -0.03  -0.02   0.10
  88   6    -0.01  -0.02  -0.15     0.00  -0.08  -0.00    -0.07  -0.02  -0.01
  89   6    -0.00  -0.01  -0.13     0.01  -0.05   0.01    -0.05  -0.02  -0.08
  90   6    -0.00   0.00  -0.11    -0.00  -0.02   0.01    -0.07  -0.01  -0.14
  91   6     0.00   0.03  -0.06     0.02   0.01   0.01    -0.05  -0.00  -0.17
  92   6     0.00   0.03  -0.06     0.05  -0.01   0.01    -0.02  -0.00  -0.13
  93   7     0.00   0.01  -0.11     0.05  -0.05   0.01    -0.03  -0.01  -0.09
  94   6     0.00   0.04  -0.03     0.07  -0.00   0.00    -0.00   0.01  -0.14
  95   6     0.00   0.03  -0.05     0.05   0.01   0.00     0.02   0.00  -0.13
  96   6     0.00   0.03  -0.05     0.02  -0.01   0.00     0.05   0.00  -0.15
  97   6     0.00   0.01  -0.11    -0.01   0.02   0.00     0.07  -0.01  -0.12
  98   6     0.00  -0.00  -0.13     0.01   0.06   0.00     0.05  -0.02  -0.08
  99   7     0.00   0.01  -0.11     0.05   0.05   0.00     0.03  -0.02  -0.09
 100   6     0.01  -0.02  -0.16     0.00   0.08   0.01     0.06  -0.02  -0.01
 101   6     0.01  -0.01  -0.14    -0.01   0.06   0.02     0.05  -0.03   0.06
 102   7     0.00   0.00  -0.11    -0.05   0.05   0.01     0.02  -0.03   0.09
 103   1     0.00  -0.01  -0.04     0.01   0.01   0.01     0.02  -0.01   0.03
 104   1     0.00   0.00  -0.01    -0.00  -0.01   0.01     0.01  -0.01   0.06
 105   1    -0.00   0.01  -0.01    -0.00   0.01  -0.01    -0.02  -0.01   0.06
 106   1    -0.00  -0.00  -0.03     0.01  -0.01  -0.01    -0.03  -0.01   0.04
 107   1    -0.00  -0.00  -0.03    -0.03  -0.02   0.01    -0.00  -0.01   0.02
 108   1    -0.00  -0.01  -0.05    -0.00  -0.02  -0.00    -0.03  -0.01  -0.01
 109   1    -0.00  -0.00  -0.04    -0.01  -0.01   0.00    -0.03  -0.01  -0.05
 110   1     0.00   0.01  -0.01     0.01   0.01   0.00    -0.02   0.00  -0.06
 111   1    -0.00   0.01  -0.01     0.00  -0.01  -0.00     0.02   0.00  -0.05
 112   1     0.00  -0.00  -0.04    -0.01   0.01   0.00     0.03  -0.00  -0.04
 113   1     0.00   0.00  -0.03     0.03   0.03  -0.00     0.00  -0.01  -0.02
 114   1     0.00  -0.01  -0.05     0.00   0.02   0.01     0.03  -0.01  -0.00
                     10                     11                     12
                        a                      a                      a 
 Frequencies --    41.9991                43.1963                46.0318
 Red. masses --    10.8742                11.4224                10.9305
 Frc consts  --     0.0000                 0.0000                 0.0000
 IR Inten    --    16.8409                 3.9374                 5.5432
 Raman Activ --     0.0000                 0.0000                 0.0000
 Depolar     --     0.0000                 0.0000                 0.0000
 Atom AN      X      Y      Z        X      Y      Z        X      Y      Z
   1   6     0.00  -0.04   0.16    -0.07   0.12  -0.06    -0.04  -0.04   0.22
   2   6    -0.00  -0.05   0.15    -0.05   0.13   0.00    -0.03  -0.04   0.22
   3   6    -0.00  -0.02   0.06    -0.02   0.11   0.04    -0.02  -0.01   0.10
   4   6     0.00  -0.01  -0.01    -0.00   0.11   0.08    -0.01   0.01   0.01
   5   6     0.00   0.00  -0.07     0.02   0.11   0.05    -0.01   0.03  -0.10
   6   6     0.00   0.02  -0.16     0.05   0.13   0.02    -0.01   0.06  -0.23
   7   6    -0.00   0.02  -0.14     0.08   0.11  -0.03    -0.01   0.06  -0.25
   8   6    -0.00   0.00  -0.06     0.06   0.08  -0.04    -0.01   0.04  -0.12
   9   7    -0.00  -0.00  -0.03     0.03   0.09   0.01    -0.01   0.03  -0.06
  10   6    -0.01  -0.01   0.02     0.08   0.05  -0.06    -0.01   0.02  -0.03
  11   6    -0.01  -0.02   0.08     0.06   0.02  -0.04    -0.02  -0.01   0.08
  12   6    -0.01  -0.03   0.16     0.08  -0.01  -0.03    -0.03  -0.04   0.20
  13   6    -0.01  -0.03   0.15     0.06  -0.04   0.02    -0.03  -0.05   0.22
  14   6    -0.01  -0.01   0.06     0.03  -0.03   0.04    -0.03  -0.02   0.10
  15   7    -0.00  -0.01   0.04     0.03   0.01   0.00    -0.03  -0.00   0.05
  16   6     0.00   0.00  -0.01    -0.00  -0.05   0.06    -0.03  -0.01   0.01
  17   6     0.01   0.02  -0.08    -0.03  -0.03   0.04    -0.03   0.02  -0.09
  18   6     0.01   0.04  -0.15    -0.06  -0.04   0.03    -0.02   0.04  -0.20
  19   6     0.01   0.03  -0.15    -0.08  -0.01  -0.02    -0.02   0.04  -0.21
  20   6     0.01   0.01  -0.06    -0.06   0.02  -0.04    -0.02   0.01  -0.10
  21   7     0.01   0.01  -0.04    -0.03   0.01   0.00    -0.03   0.00  -0.05
  22   6     0.01  -0.01   0.01    -0.07   0.06  -0.07    -0.03  -0.01  -0.00
  23   6     0.00  -0.02   0.07    -0.06   0.09  -0.05    -0.03  -0.02   0.10
  24   7     0.00  -0.01   0.03    -0.03   0.09   0.00    -0.02  -0.01   0.05
  25   1     0.00  -0.02   0.06    -0.03   0.04  -0.03    -0.01  -0.02   0.08
  26   1    -0.00  -0.02   0.06    -0.02   0.04   0.01    -0.01  -0.01   0.08
  27   1     0.00   0.01  -0.06     0.02   0.04   0.01    -0.00   0.02  -0.08
  28   1    -0.00   0.01  -0.06     0.03   0.04  -0.02    -0.00   0.02  -0.09
  29   1    -0.00  -0.00   0.01     0.00   0.02   0.00    -0.00   0.00   0.01
  30   1    -0.00  -0.00   0.01     0.03   0.02  -0.03    -0.00   0.01  -0.01
  31   1    -0.01  -0.01   0.06     0.03  -0.00  -0.02    -0.01  -0.02   0.08
  32   1    -0.00  -0.01   0.05     0.02  -0.02   0.01    -0.01  -0.02   0.09
  33   1     0.00   0.00  -0.01    -0.00  -0.02   0.03    -0.01  -0.00   0.00
  34   1     0.00   0.01  -0.06    -0.02  -0.02   0.01    -0.01   0.02  -0.08
  35   1     0.00   0.01  -0.06    -0.03  -0.00  -0.01    -0.00   0.02  -0.08
  36   1     0.00  -0.00   0.00    -0.00   0.01  -0.00    -0.01  -0.01   0.01
  37   1     0.00  -0.00   0.00    -0.03   0.02  -0.03    -0.01  -0.00  -0.00
  38   6     0.01  -0.01   0.17    -0.07   0.10  -0.08     0.01   0.01  -0.20
  39   6     0.01  -0.02   0.18    -0.05   0.11   0.01     0.01   0.01  -0.19
  40   6     0.00  -0.01   0.07    -0.02   0.10   0.03     0.02   0.01  -0.08
  41   6    -0.00  -0.01  -0.01    -0.00   0.11   0.07     0.02   0.01   0.01
  42   6    -0.01  -0.01  -0.08     0.02   0.10   0.01     0.02   0.00   0.09
  43   6    -0.01  -0.01  -0.18     0.04   0.11  -0.04     0.03   0.00   0.20
  44   6    -0.01  -0.01  -0.18     0.06   0.09  -0.11     0.03  -0.00   0.21
  45   6    -0.01  -0.01  -0.08     0.05   0.06  -0.10     0.03   0.00   0.10
  46   7    -0.01  -0.01  -0.04     0.02   0.07  -0.03     0.02   0.00   0.06
  47   6    -0.00  -0.01   0.00     0.06   0.04  -0.12     0.02   0.00   0.02
  48   6     0.00  -0.01   0.08     0.05   0.01  -0.05     0.02  -0.00  -0.07
  49   6     0.00  -0.00   0.18     0.06  -0.01  -0.01     0.02  -0.00  -0.18
  50   6     0.00   0.00   0.18     0.05  -0.03   0.07     0.02  -0.00  -0.18
  51   6     0.01   0.00   0.08     0.03  -0.02   0.07     0.02  -0.00  -0.08
  52   7     0.01  -0.00   0.05     0.03   0.01   0.00     0.02  -0.00  -0.04
  53   6     0.01   0.00   0.00     0.00  -0.03   0.11     0.02  -0.00  -0.00
  54   6     0.01   0.00  -0.08    -0.02  -0.02   0.05     0.02  -0.00   0.08
  55   6     0.01   0.00  -0.17    -0.05  -0.03   0.03     0.02  -0.00   0.17
  56   6     0.01   0.00  -0.17    -0.07  -0.01  -0.05     0.01  -0.00   0.17
  57   6     0.01   0.00  -0.08    -0.05   0.02  -0.07     0.01   0.00   0.07
  58   7     0.01   0.00  -0.05    -0.03   0.01  -0.01     0.02   0.00   0.04
  59   6     0.01   0.00  -0.01    -0.07   0.04  -0.12     0.01   0.00  -0.01
  60   6     0.01  -0.01   0.07    -0.05   0.07  -0.08     0.01   0.01  -0.09
  61   7     0.00  -0.01   0.03    -0.03   0.08  -0.02     0.02   0.01  -0.04
  62   1     0.00  -0.00   0.07    -0.03   0.03  -0.03     0.00   0.00  -0.08
  63   1     0.00  -0.01   0.07    -0.01   0.04   0.01     0.00   0.01  -0.07
  64   1    -0.00  -0.00  -0.07     0.01   0.04  -0.01     0.01  -0.00   0.07
  65   1    -0.00  -0.00  -0.07     0.02   0.03  -0.05     0.01  -0.00   0.08
  66   1    -0.00  -0.00   0.01     0.00   0.01  -0.00     0.01   0.00  -0.01
  67   1    -0.00  -0.00  -0.00     0.02   0.01  -0.05     0.01   0.00   0.01
  68   1    -0.00  -0.00   0.07     0.02  -0.00  -0.01     0.01  -0.00  -0.07
  69   1     0.00   0.00   0.07     0.02  -0.01   0.04     0.00  -0.00  -0.07
  70   1     0.00   0.00  -0.00     0.00  -0.01   0.05     0.01  -0.00  -0.00
  71   1     0.00   0.00  -0.06    -0.01  -0.01   0.02     0.00  -0.00   0.07
  72   1     0.00   0.00  -0.07    -0.03  -0.00  -0.03     0.00  -0.00   0.07
  73   1     0.00   0.00   0.01    -0.00   0.01  -0.00     0.00   0.00  -0.01
  74   1     0.00   0.00  -0.00    -0.03   0.01  -0.05     0.00   0.00  -0.00
  75   6    -0.00  -0.01  -0.02    -0.00   0.10   0.11    -0.01   0.01   0.01
  76   6    -0.00   0.01  -0.02    -0.00  -0.01   0.11    -0.01  -0.00   0.02
  77   6    -0.00  -0.00  -0.01     0.00  -0.00   0.17     0.02   0.00   0.00
  78   6    -0.00  -0.01  -0.01     0.00   0.10   0.13     0.02   0.01   0.01
  79   6    -0.00  -0.05  -0.17    -0.00  -0.13  -0.11     0.01   0.01   0.03
  80   6    -0.00  -0.05  -0.18    -0.00  -0.10  -0.03     0.00  -0.00   0.03
  81   6    -0.00  -0.02  -0.09    -0.01  -0.08   0.02    -0.01  -0.00   0.02
  82   6    -0.00   0.01  -0.01    -0.00  -0.06   0.07    -0.01  -0.01   0.02
  83   6    -0.00   0.04   0.07     0.01  -0.07   0.04    -0.01  -0.01   0.01
  84   6     0.00   0.08   0.17     0.01  -0.08   0.02    -0.00  -0.01   0.00
  85   6     0.00   0.08   0.18     0.01  -0.11  -0.05    -0.00  -0.02  -0.02
  86   6     0.00   0.04   0.09     0.00  -0.11  -0.06    -0.00  -0.03  -0.03
  87   7     0.00   0.03   0.04     0.01  -0.10  -0.01    -0.01  -0.03  -0.01
  88   6     0.00   0.01   0.02     0.00  -0.13  -0.10    -0.00  -0.04  -0.04
  89   6    -0.00  -0.02  -0.07     0.00  -0.11  -0.05     0.00  -0.03  -0.04
  90   6    -0.00  -0.06  -0.16     0.00  -0.11  -0.04    -0.00  -0.02  -0.03
  91   6    -0.01  -0.06  -0.17     0.00  -0.08   0.05     0.01  -0.00  -0.01
  92   6    -0.00  -0.02  -0.08    -0.00  -0.07   0.08     0.01  -0.01  -0.01
  93   7    -0.00  -0.00  -0.03    -0.00  -0.09   0.02     0.01  -0.02  -0.02
  94   6    -0.00   0.00  -0.00     0.00  -0.04   0.14     0.02  -0.00  -0.00
  95   6    -0.01   0.04   0.08     0.01  -0.06   0.11     0.02   0.00   0.00
  96   6    -0.01   0.08   0.17    -0.00  -0.06   0.10     0.01  -0.00  -0.00
  97   6    -0.01   0.08   0.18    -0.00  -0.09   0.02     0.01   0.01   0.01
  98   6    -0.01   0.04   0.08     0.00  -0.10  -0.02     0.01   0.01   0.02
  99   7    -0.00   0.02   0.04     0.01  -0.09   0.04     0.02   0.01   0.01
 100   6    -0.01   0.01   0.01    -0.00  -0.13  -0.10     0.01   0.02   0.03
 101   6    -0.00  -0.02  -0.07    -0.00  -0.12  -0.09     0.00   0.01   0.03
 102   7    -0.00  -0.00  -0.04    -0.00  -0.10  -0.02    -0.01   0.01   0.03
 103   1    -0.00  -0.02  -0.07    -0.00  -0.04  -0.05     0.00   0.00   0.01
 104   1    -0.00  -0.02  -0.07    -0.00  -0.03  -0.01     0.00  -0.00   0.01
 105   1     0.00   0.03   0.06     0.00  -0.02   0.01    -0.00  -0.00   0.01
 106   1     0.00   0.03   0.07     0.00  -0.04  -0.03     0.00  -0.01  -0.01
 107   1    -0.00   0.00  -0.01     0.00  -0.03  -0.00    -0.00  -0.01  -0.00
 108   1     0.00   0.01   0.01     0.00  -0.04  -0.04    -0.00  -0.01  -0.02
 109   1    -0.00  -0.02  -0.06     0.00  -0.04  -0.03    -0.00  -0.01  -0.01
 110   1    -0.00  -0.03  -0.07     0.00  -0.02   0.03     0.00   0.00   0.00
 111   1    -0.00   0.03   0.07    -0.00  -0.01   0.05     0.00  -0.00  -0.00
 112   1    -0.00   0.03   0.07    -0.00  -0.03  -0.00     0.00   0.00   0.00
 113   1    -0.00  -0.00  -0.01     0.00  -0.02   0.00     0.01   0.01   0.00
 114   1    -0.00   0.00   0.00    -0.00  -0.04  -0.04     0.00   0.01   0.01
                     13                     14                     15
                        a                      a                      a 
 Frequencies --    48.5963                57.8237                58.8747
 Red. masses --    11.0791                11.6391                11.3505
 Frc consts  --     0.0000                 0.0000                 0.0000
 IR Inten    --     0.2796                 1.3666                 5.4809
 Raman Activ --     0.0000                 0.0000                 0.0000
 Depolar     --     0.0000                 0.0000                 0.0000
 Atom AN      X      Y      Z        X      Y      Z        X      Y      Z
   1   6     0.03  -0.00   0.13     0.05   0.05  -0.05    -0.06   0.08  -0.02
   2   6     0.01  -0.02   0.11     0.01   0.01  -0.04    -0.04   0.08   0.05
   3   6    -0.02   0.01   0.05    -0.05   0.03  -0.01    -0.01   0.06   0.08
   4   6    -0.03   0.01  -0.00    -0.08   0.00   0.02     0.01   0.07   0.11
   5   6    -0.02   0.01  -0.05    -0.05  -0.01   0.03     0.01   0.07   0.07
   6   6     0.02   0.04  -0.11     0.01   0.01   0.05     0.03   0.08   0.03
   7   6     0.05   0.01  -0.12     0.06  -0.04   0.04     0.04   0.09  -0.04
   8   6     0.03  -0.03  -0.07     0.03  -0.10   0.01     0.04   0.07  -0.03
   9   7    -0.01  -0.03  -0.04    -0.04  -0.09   0.01     0.02   0.07   0.04
  10   6     0.04  -0.06  -0.03     0.05  -0.12  -0.02     0.05   0.06  -0.07
  11   6     0.04  -0.05   0.03     0.07  -0.08  -0.03     0.03   0.03  -0.04
  12   6     0.03  -0.04   0.09     0.04  -0.02  -0.06     0.05   0.00  -0.04
  13   6     0.05  -0.02   0.10     0.08   0.02  -0.04     0.02  -0.03   0.02
  14   6     0.08  -0.02   0.04     0.14  -0.02  -0.01    -0.00  -0.02   0.04
  15   7     0.08  -0.04   0.01     0.14  -0.08  -0.01     0.00   0.02   0.01
  16   6     0.09  -0.00  -0.00     0.16  -0.01   0.02    -0.03  -0.04   0.07
  17   6     0.08   0.01  -0.04     0.14   0.00   0.04    -0.04  -0.02   0.03
  18   6     0.05   0.01  -0.10     0.07  -0.03   0.05    -0.05  -0.02  -0.00
  19   6     0.02   0.04  -0.09     0.02   0.03   0.04    -0.06  -0.00  -0.06
  20   6     0.04   0.06  -0.02     0.05   0.10   0.02    -0.05   0.01  -0.05
  21   7     0.08   0.05  -0.01     0.14   0.09   0.03    -0.04  -0.01   0.00
  22   6     0.03   0.06   0.04     0.04   0.13  -0.01    -0.06   0.03  -0.08
  23   6     0.02   0.04   0.08     0.02   0.10  -0.02    -0.04   0.05  -0.02
  24   7    -0.01   0.04   0.04    -0.04   0.09  -0.00    -0.01   0.04   0.04
  25   1     0.01  -0.00   0.05     0.03   0.02  -0.02    -0.02   0.03  -0.02
  26   1     0.00  -0.01   0.04     0.00  -0.01  -0.01    -0.01   0.03   0.02
  27   1     0.01   0.02  -0.04     0.01   0.02   0.02     0.01   0.03   0.01
  28   1     0.02   0.01  -0.05     0.04  -0.01   0.01     0.02   0.03  -0.02
  29   1    -0.02  -0.02  -0.00    -0.04  -0.05  -0.01     0.00   0.02   0.01
  30   1     0.01  -0.02  -0.01     0.01  -0.03  -0.01     0.02   0.02  -0.04
  31   1     0.00  -0.01   0.04    -0.00  -0.00  -0.02     0.02   0.00  -0.02
  32   1     0.01  -0.00   0.04     0.02   0.02  -0.01     0.01  -0.02   0.01
  33   1     0.03  -0.00  -0.00     0.05  -0.00   0.01    -0.01  -0.02   0.03
  34   1     0.01  -0.00  -0.04     0.02  -0.03   0.02    -0.02  -0.01   0.00
  35   1    -0.00   0.01  -0.03    -0.01   0.01   0.01    -0.02   0.00  -0.03
  36   1     0.03   0.02   0.01     0.06   0.05   0.01    -0.01  -0.00   0.00
  37   1     0.01   0.02   0.01     0.01   0.04  -0.01    -0.02   0.01  -0.04
  38   6     0.02   0.02   0.14     0.08   0.02  -0.08     0.07  -0.12   0.04
  39   6     0.00   0.00   0.13     0.03  -0.03  -0.06     0.05  -0.14   0.01
  40   6    -0.02   0.02   0.06    -0.04  -0.00  -0.03     0.03  -0.13  -0.02
  41   6    -0.04   0.01  -0.00    -0.07  -0.02  -0.00     0.01  -0.13  -0.04
  42   6    -0.03   0.01  -0.06    -0.05  -0.04   0.03    -0.01  -0.12  -0.04
  43   6     0.01   0.03  -0.13     0.01  -0.01   0.07    -0.05  -0.14  -0.02
  44   6     0.03  -0.00  -0.14     0.06  -0.06   0.08    -0.09  -0.11   0.00
  45   6     0.02  -0.04  -0.07     0.03  -0.12   0.05    -0.06  -0.06  -0.00
  46   7    -0.02  -0.03  -0.04    -0.04  -0.11   0.03    -0.02  -0.08  -0.03
  47   6     0.02  -0.05  -0.02     0.04  -0.13   0.03    -0.08  -0.02   0.02
  48   6     0.03  -0.04   0.04     0.06  -0.09  -0.02    -0.07   0.00   0.02
  49   6     0.02  -0.01   0.11     0.02  -0.03  -0.06    -0.08   0.02   0.04
  50   6     0.04   0.00   0.11     0.07   0.02  -0.07    -0.07   0.04   0.02
  51   6     0.06  -0.01   0.05     0.14  -0.01  -0.04    -0.05   0.03  -0.00
  52   7     0.06  -0.03   0.02     0.14  -0.09  -0.01    -0.05   0.00  -0.00
  53   6     0.07  -0.00  -0.00     0.17   0.00  -0.01    -0.02   0.04  -0.02
  54   6     0.06   0.00  -0.05     0.16   0.01   0.02     0.01   0.02  -0.02
  55   6     0.03  -0.01  -0.12     0.10  -0.01   0.07     0.05   0.04  -0.02
  56   6     0.00   0.02  -0.11     0.05   0.04   0.06     0.08   0.01   0.00
  57   6     0.02   0.04  -0.04     0.08   0.10   0.02     0.06  -0.03   0.01
  58   7     0.06   0.04  -0.02     0.16   0.09   0.00     0.02  -0.02  -0.01
  59   6     0.01   0.06   0.02     0.07   0.12  -0.02     0.07  -0.07   0.03
  60   6     0.01   0.05   0.07     0.05   0.08  -0.05     0.06  -0.10   0.02
  61   7    -0.02   0.05   0.04    -0.03   0.07  -0.03     0.03  -0.11  -0.01
  62   1     0.01   0.01   0.05     0.04   0.00  -0.03     0.03  -0.04   0.02
  63   1     0.00  -0.01   0.05     0.01  -0.03  -0.02     0.02  -0.05   0.00
  64   1     0.00   0.02  -0.05     0.01   0.01   0.02    -0.02  -0.05  -0.01
  65   1     0.02   0.00  -0.06     0.03  -0.02   0.03    -0.04  -0.03   0.01
  66   1    -0.02  -0.02   0.00    -0.03  -0.05   0.00     0.01  -0.01  -0.01
  67   1     0.01  -0.01  -0.01     0.01  -0.04   0.01    -0.03  -0.01   0.01
  68   1     0.00  -0.00   0.04    -0.01  -0.01  -0.02    -0.03   0.01   0.02
  69   1     0.01   0.01   0.04     0.02   0.02  -0.03    -0.02   0.02   0.01
  70   1     0.02  -0.00  -0.00     0.05   0.00  -0.00    -0.01   0.02  -0.01
  71   1     0.01  -0.01  -0.05     0.03  -0.02   0.03     0.02   0.02  -0.01
  72   1    -0.01   0.00  -0.04    -0.00   0.01   0.03     0.03   0.00   0.00
  73   1     0.03   0.02   0.01     0.06   0.04  -0.01    -0.00  -0.01  -0.00
  74   1     0.00   0.02   0.01     0.02   0.03  -0.01     0.03  -0.02   0.02
  75   6    -0.03   0.01  -0.01    -0.08  -0.00   0.02     0.01   0.05   0.11
  76   6    -0.04  -0.00  -0.01    -0.08  -0.01   0.01     0.01  -0.08   0.07
  77   6    -0.04  -0.01  -0.00    -0.07   0.02  -0.00     0.01   0.10  -0.03
  78   6    -0.04   0.01  -0.00    -0.07  -0.02  -0.00     0.01  -0.10  -0.04
  79   6    -0.06   0.07   0.20    -0.07  -0.04  -0.10     0.11  -0.10  -0.09
  80   6    -0.05   0.07   0.19    -0.07  -0.05  -0.10     0.08  -0.12  -0.06
  81   6    -0.04   0.02   0.08    -0.08  -0.02  -0.05     0.04  -0.09  -0.02
  82   6    -0.04  -0.01  -0.01    -0.08  -0.01  -0.00     0.01  -0.10   0.01
  83   6    -0.04  -0.04  -0.09    -0.09   0.01   0.03    -0.02  -0.09  -0.04
  84   6    -0.04  -0.08  -0.20    -0.10   0.02   0.08    -0.06  -0.13  -0.09
  85   6    -0.05  -0.07  -0.20    -0.10   0.02   0.07    -0.09  -0.11  -0.12
  86   6    -0.04  -0.03  -0.09    -0.10   0.01   0.03    -0.07  -0.05  -0.07
  87   7    -0.04  -0.02  -0.05    -0.10   0.00   0.01    -0.03  -0.05  -0.04
  88   6    -0.04  -0.00   0.00    -0.10  -0.00  -0.01    -0.09   0.02  -0.02
  89   6    -0.04   0.03   0.09    -0.10  -0.01  -0.04    -0.06   0.08   0.04
  90   6    -0.04   0.07   0.21    -0.10  -0.01  -0.08    -0.08   0.15   0.10
  91   6    -0.04   0.07   0.20    -0.10  -0.00  -0.07    -0.05   0.18   0.09
  92   6    -0.04   0.02   0.09    -0.08   0.01  -0.03    -0.01   0.14   0.04
  93   7    -0.05   0.01   0.05    -0.09   0.00  -0.02    -0.02   0.09   0.02
  94   6    -0.04  -0.01   0.00    -0.08   0.03   0.00     0.01   0.14   0.01
  95   6    -0.04  -0.05  -0.09    -0.08   0.04   0.04     0.04   0.13   0.02
  96   6    -0.05  -0.09  -0.19    -0.08   0.07   0.10     0.08   0.17   0.05
  97   6    -0.05  -0.09  -0.19    -0.07   0.07   0.10     0.11   0.13   0.05
  98   6    -0.05  -0.05  -0.09    -0.07   0.04   0.05     0.09   0.07   0.02
  99   7    -0.05  -0.03  -0.05    -0.08   0.03   0.03     0.05   0.09   0.02
 100   6    -0.05  -0.01  -0.00    -0.07   0.01   0.00     0.11   0.01  -0.03
 101   6    -0.05   0.02   0.09    -0.07  -0.02  -0.05     0.09  -0.05  -0.05
 102   7    -0.05   0.00   0.04    -0.09  -0.01  -0.03     0.05  -0.05  -0.03
 103   1    -0.02   0.03   0.08    -0.02  -0.02  -0.04     0.04  -0.03  -0.03
 104   1    -0.02   0.03   0.07    -0.02  -0.02  -0.04     0.03  -0.05  -0.02
 105   1    -0.01  -0.03  -0.07    -0.03   0.01   0.03    -0.02  -0.05  -0.03
 106   1    -0.01  -0.03  -0.08    -0.03   0.01   0.03    -0.04  -0.04  -0.05
 107   1    -0.01   0.00   0.01    -0.03  -0.00  -0.00     0.00  -0.00  -0.00
 108   1    -0.01  -0.00   0.00    -0.03  -0.00  -0.00    -0.04   0.00  -0.01
 109   1    -0.01   0.03   0.08    -0.03  -0.01  -0.03    -0.03   0.05   0.04
 110   1    -0.01   0.03   0.08    -0.03  -0.00  -0.02    -0.02   0.07   0.04
 111   1    -0.01  -0.04  -0.07    -0.02   0.02   0.03     0.02   0.06   0.02
 112   1    -0.01  -0.03  -0.07    -0.02   0.02   0.04     0.04   0.04   0.02
 113   1    -0.01   0.00   0.01    -0.02   0.01  -0.00     0.00   0.01  -0.00
 114   1    -0.01  -0.00  -0.00    -0.02   0.00   0.00     0.04   0.00  -0.01
                     16                     17                     18
                        a                      a                      a 
 Frequencies --    63.2647                71.6784                74.4764
 Red. masses --    11.2329                11.7924                11.1363
 Frc consts  --     0.0000                 0.0000                 0.0000
 IR Inten    --     8.1232                 0.0070                39.6528
 Raman Activ --     0.0000                 0.0000                 0.0000
 Depolar     --     0.0000                 0.0000                 0.0000
 Atom AN      X      Y      Z        X      Y      Z        X      Y      Z
   1   6    -0.06   0.07   0.05     0.01   0.04   0.00    -0.02   0.03   0.05
   2   6    -0.04   0.11  -0.05    -0.04  -0.01  -0.01    -0.01   0.06  -0.09
   3   6    -0.01   0.10  -0.07    -0.11   0.02  -0.00    -0.00   0.07  -0.16
   4   6    -0.00   0.12  -0.11    -0.14   0.00  -0.01     0.00   0.08  -0.20
   5   6     0.01   0.10  -0.07    -0.11  -0.01  -0.01     0.01   0.07  -0.16
   6   6     0.04   0.11  -0.03    -0.04   0.02  -0.00     0.02   0.06  -0.08
   7   6     0.05   0.07   0.06     0.02  -0.04  -0.01     0.02   0.03   0.05
   8   6     0.04   0.04   0.07    -0.02  -0.12  -0.02     0.01   0.02   0.04
   9   7     0.01   0.07  -0.01    -0.11  -0.10  -0.02     0.01   0.06  -0.11
  10   6     0.05   0.00   0.13    -0.00  -0.14  -0.02     0.01  -0.02   0.17
  11   6     0.04  -0.01   0.08     0.02  -0.10  -0.02     0.01  -0.02   0.11
  12   6     0.05  -0.03   0.07    -0.02  -0.04  -0.01     0.01  -0.04   0.18
  13   6     0.04  -0.02  -0.04     0.03   0.02  -0.00     0.01  -0.01   0.01
  14   6     0.02   0.00  -0.07     0.10  -0.02  -0.00     0.01   0.02  -0.12
  15   7     0.03   0.01  -0.01     0.10  -0.10  -0.01     0.01   0.02  -0.06
  16   6     0.01   0.00  -0.13     0.14  -0.00   0.00     0.01   0.03  -0.19
  17   6    -0.02  -0.00  -0.07     0.11   0.01   0.01    -0.00   0.02  -0.11
  18   6    -0.04  -0.02  -0.03     0.03  -0.02   0.00    -0.02  -0.01   0.01
  19   6    -0.06  -0.02   0.07    -0.03   0.04   0.01    -0.03  -0.04   0.17
  20   6    -0.05  -0.00   0.08     0.01   0.12   0.03    -0.02  -0.01   0.11
  21   7    -0.02   0.01  -0.00     0.10   0.11   0.03    -0.01   0.02  -0.06
  22   6    -0.06   0.01   0.13    -0.00   0.14   0.03    -0.03  -0.02   0.17
  23   6    -0.05   0.05   0.06    -0.02   0.10   0.02    -0.02   0.02   0.04
  24   7    -0.02   0.08  -0.01    -0.10   0.10   0.01    -0.00   0.06  -0.11
  25   1    -0.02   0.02   0.03     0.02   0.01   0.00    -0.01   0.00   0.04
  26   1    -0.01   0.04  -0.03    -0.01  -0.02  -0.01    -0.00   0.02  -0.04
  27   1     0.01   0.04  -0.02    -0.01   0.02   0.00     0.00   0.02  -0.03
  28   1     0.02   0.02   0.03     0.02  -0.01  -0.00     0.01   0.00   0.04
  29   1    -0.00   0.01  -0.00    -0.06  -0.05  -0.01    -0.00   0.01  -0.03
  30   1     0.02  -0.00   0.06    -0.00  -0.04  -0.01     0.00  -0.01   0.09
  31   1     0.02  -0.01   0.04    -0.02  -0.01  -0.00     0.00  -0.02   0.09
  32   1     0.01  -0.01  -0.02     0.01   0.02   0.00     0.00  -0.00  -0.00
  33   1     0.00  -0.00  -0.05     0.04   0.00   0.00     0.00   0.01  -0.07
  34   1    -0.01  -0.01  -0.02     0.01  -0.03  -0.00    -0.01  -0.01   0.00
  35   1    -0.02  -0.01   0.04    -0.03   0.01   0.00    -0.01  -0.02   0.09
  36   1    -0.00   0.01  -0.00     0.06   0.05   0.01     0.00   0.01  -0.03
  37   1    -0.02  -0.00   0.06     0.00   0.04   0.01    -0.01  -0.01   0.09
  38   6    -0.03   0.05   0.05    -0.01  -0.04   0.00     0.02  -0.03  -0.03
  39   6    -0.02   0.06  -0.09     0.04   0.01   0.00     0.01  -0.03   0.08
  40   6    -0.01   0.05  -0.13     0.11  -0.02  -0.00     0.00  -0.03   0.14
  41   6    -0.00   0.06  -0.19     0.14  -0.00  -0.00     0.00  -0.03   0.16
  42   6     0.00   0.05  -0.12     0.12   0.01  -0.00     0.00  -0.03   0.14
  43   6     0.02   0.06  -0.07     0.04  -0.02   0.00    -0.01  -0.03   0.08
  44   6     0.03   0.05   0.06    -0.02   0.05  -0.00    -0.02  -0.03  -0.03
  45   6     0.03   0.03   0.08     0.02   0.12  -0.01    -0.01  -0.02  -0.03
  46   7     0.01   0.04  -0.04     0.11   0.11  -0.01    -0.00  -0.03   0.09
  47   6     0.04   0.02   0.18     0.00   0.15  -0.01    -0.02  -0.01  -0.13
  48   6     0.03   0.01   0.11    -0.02   0.11  -0.00    -0.02  -0.01  -0.09
  49   6     0.04  -0.00   0.11     0.02   0.04   0.01    -0.02  -0.00  -0.14
  50   6     0.02  -0.01  -0.04    -0.04  -0.02   0.01    -0.01   0.00  -0.01
  51   6     0.01  -0.01  -0.10    -0.11   0.02   0.01    -0.00  -0.00   0.09
  52   7     0.02   0.01  -0.02    -0.10   0.10   0.00    -0.01  -0.01   0.05
  53   6    -0.00  -0.01  -0.17    -0.14   0.00   0.01     0.01   0.00   0.15
  54   6    -0.01  -0.01  -0.09    -0.11  -0.01   0.00     0.01  -0.00   0.09
  55   6    -0.03  -0.01  -0.03    -0.04   0.02  -0.01     0.02   0.00  -0.01
  56   6    -0.03  -0.00   0.11     0.03  -0.05  -0.01     0.02  -0.00  -0.13
  57   6    -0.02   0.01   0.11    -0.01  -0.12  -0.00     0.02  -0.01  -0.09
  58   7    -0.01   0.01  -0.01    -0.11  -0.11   0.00     0.01  -0.01   0.04
  59   6    -0.03   0.02   0.17    -0.00  -0.15  -0.00     0.02  -0.01  -0.13
  60   6    -0.02   0.04   0.07     0.02  -0.11   0.00     0.01  -0.02  -0.03
  61   7    -0.01   0.04  -0.05     0.10  -0.10  -0.00     0.01  -0.03   0.09
  62   1    -0.01   0.01   0.03    -0.02  -0.01   0.00     0.01  -0.01  -0.03
  63   1    -0.01   0.02  -0.05     0.01   0.02   0.00     0.00  -0.01   0.03
  64   1     0.00   0.02  -0.04     0.01  -0.02   0.00    -0.00  -0.01   0.03
  65   1     0.01   0.01   0.04    -0.03   0.01   0.00    -0.01  -0.01  -0.03
  66   1     0.00   0.01  -0.01     0.06   0.06  -0.00     0.00  -0.01   0.03
  67   1     0.01   0.00   0.08     0.00   0.04  -0.00    -0.01  -0.00  -0.07
  68   1     0.01  -0.00   0.06     0.02   0.01   0.00    -0.01  -0.00  -0.07
  69   1     0.01  -0.01  -0.03    -0.01  -0.02   0.01    -0.00   0.00   0.00
  70   1    -0.00  -0.01  -0.07    -0.04  -0.00   0.00     0.00   0.00   0.05
  71   1    -0.01  -0.01  -0.02    -0.01   0.03  -0.00     0.00   0.00  -0.00
  72   1    -0.01  -0.00   0.06     0.03  -0.01  -0.00     0.01  -0.00  -0.07
  73   1    -0.00   0.00  -0.01    -0.06  -0.06   0.00     0.00  -0.00   0.02
  74   1    -0.01   0.01   0.08    -0.00  -0.04  -0.00     0.01  -0.00  -0.07
  75   6     0.00   0.09  -0.13    -0.14  -0.00  -0.01     0.00   0.05  -0.15
  76   6     0.00  -0.08  -0.13    -0.14  -0.00  -0.01     0.00  -0.08  -0.02
  77   6    -0.00  -0.07  -0.15     0.14   0.00   0.00    -0.00   0.07   0.01
  78   6    -0.00   0.04  -0.20     0.14   0.00  -0.00     0.00  -0.01   0.12
  79   6     0.01  -0.07   0.03     0.01   0.04  -0.01     0.07  -0.04   0.10
  80   6     0.01  -0.11  -0.06    -0.04  -0.02  -0.00     0.05  -0.06   0.10
  81   6     0.00  -0.11  -0.08    -0.10   0.02  -0.01     0.02  -0.06   0.06
  82   6     0.00  -0.12  -0.11    -0.14  -0.00  -0.01     0.00  -0.08   0.04
  83   6     0.01  -0.10  -0.07    -0.11  -0.01   0.01    -0.01  -0.06   0.06
  84   6    -0.00  -0.10  -0.04    -0.03   0.02   0.01    -0.05  -0.07   0.09
  85   6    -0.01  -0.06   0.05     0.02  -0.04   0.03    -0.07  -0.04   0.09
  86   6    -0.00  -0.04   0.07    -0.01  -0.11   0.04    -0.05  -0.02   0.06
  87   7     0.01  -0.08  -0.01    -0.10  -0.10   0.03    -0.02  -0.03   0.05
  88   6    -0.01  -0.01   0.13    -0.00  -0.14   0.05    -0.07   0.00   0.00
  89   6    -0.01  -0.02   0.10     0.02  -0.10   0.03    -0.05   0.02  -0.05
  90   6    -0.01  -0.01   0.11    -0.01  -0.04   0.01    -0.07   0.03  -0.09
  91   6    -0.01  -0.05   0.01     0.04   0.01  -0.00    -0.05   0.05  -0.09
  92   6    -0.01  -0.07  -0.04     0.11  -0.02   0.01    -0.02   0.05  -0.06
  93   7    -0.01  -0.06   0.01     0.10  -0.09   0.03    -0.03   0.03  -0.04
  94   6    -0.00  -0.08  -0.08     0.14  -0.00   0.00    -0.00   0.07  -0.05
  95   6     0.01  -0.07  -0.02     0.11   0.01  -0.00     0.02   0.05  -0.06
  96   6     0.01  -0.04   0.04     0.04  -0.02  -0.00     0.05   0.05  -0.09
  97   6     0.02  -0.00   0.13    -0.02   0.04  -0.02     0.07   0.03  -0.09
  98   6     0.01  -0.02   0.11     0.02   0.11  -0.03     0.06   0.01  -0.05
  99   7     0.01  -0.06   0.02     0.11   0.10  -0.03     0.02   0.02  -0.05
 100   6     0.01  -0.01   0.14     0.00   0.14  -0.04     0.07  -0.01   0.00
 101   6     0.01  -0.05   0.06    -0.02   0.10  -0.03     0.05  -0.03   0.05
 102   7     0.00  -0.09  -0.02    -0.10   0.09  -0.03     0.02  -0.04   0.04
 103   1     0.00  -0.01   0.02     0.02   0.01  -0.00     0.03  -0.01   0.04
 104   1     0.00  -0.04  -0.03    -0.01  -0.02   0.00     0.01  -0.02   0.04
 105   1    -0.00  -0.03  -0.02    -0.01   0.03  -0.00    -0.01  -0.03   0.03
 106   1    -0.00  -0.01   0.03     0.03  -0.01   0.01    -0.03  -0.01   0.03
 107   1     0.00  -0.02  -0.00    -0.06  -0.05   0.01     0.00  -0.01   0.01
 108   1    -0.00   0.00   0.06    -0.00  -0.04   0.01    -0.03   0.00   0.00
 109   1    -0.00   0.00   0.05    -0.02  -0.01   0.00    -0.03   0.01  -0.03
 110   1    -0.00  -0.02  -0.00     0.01   0.02  -0.01    -0.02   0.02  -0.03
 111   1     0.00  -0.01   0.01     0.01  -0.02   0.00     0.02   0.02  -0.03
 112   1     0.01   0.01   0.06    -0.02   0.01  -0.01     0.03   0.01  -0.03
 113   1     0.00  -0.02  -0.00     0.06   0.05  -0.01    -0.00   0.00  -0.01
 114   1     0.00   0.00   0.06     0.00   0.04  -0.01     0.03  -0.00   0.00
                     19                     20                     21
                        a                      a                      a 
 Frequencies --    83.4277                93.9074                95.8542
 Red. masses --    11.0990                10.8757                10.8343
 Frc consts  --     0.0000                 0.0000                 0.0000
 IR Inten    --    92.1626                24.4367                12.0999
 Raman Activ --     0.0000                 0.0000                 0.0000
 Depolar     --     0.0000                 0.0000                 0.0000
 Atom AN      X      Y      Z        X      Y      Z        X      Y      Z
   1   6     0.01  -0.03   0.02     0.01   0.04  -0.19    -0.01  -0.03   0.14
   2   6     0.01  -0.02  -0.04     0.01   0.05  -0.21    -0.01  -0.03   0.17
   3   6     0.01  -0.00  -0.09    -0.00  -0.01   0.03    -0.00   0.00  -0.00
   4   6     0.00  -0.01  -0.09    -0.00  -0.00   0.01    -0.00   0.00   0.01
   5   6     0.00  -0.00  -0.09    -0.00  -0.00   0.02    -0.00   0.00   0.00
   6   6    -0.01  -0.02  -0.04     0.01   0.04  -0.20    -0.01  -0.03   0.15
   7   6    -0.01  -0.03   0.02     0.01   0.04  -0.18    -0.00  -0.03   0.13
   8   6    -0.01  -0.02  -0.00    -0.00  -0.01   0.06     0.00   0.01  -0.04
   9   7     0.00   0.00  -0.10    -0.01  -0.04   0.19     0.00   0.03  -0.12
  10   6    -0.02  -0.03   0.07    -0.00  -0.01   0.07     0.00   0.01  -0.06
  11   6    -0.01  -0.01   0.05    -0.00  -0.02   0.10     0.00   0.01  -0.08
  12   6    -0.02  -0.03   0.13     0.01   0.03  -0.12    -0.00  -0.02   0.07
  13   6    -0.01  -0.00   0.04     0.01   0.04  -0.17    -0.01  -0.03   0.12
  14   6    -0.00   0.02  -0.07     0.00  -0.01   0.04    -0.00  -0.00  -0.02
  15   7    -0.00   0.01  -0.08    -0.01  -0.04   0.22     0.01   0.03  -0.15
  16   6     0.01   0.03  -0.11     0.00   0.01  -0.02    -0.00  -0.01   0.03
  17   6     0.01   0.02  -0.07    -0.00  -0.00   0.03     0.00  -0.00  -0.01
  18   6     0.01  -0.00   0.04     0.01   0.04  -0.18    -0.00  -0.03   0.12
  19   6     0.01  -0.03   0.13     0.00   0.03  -0.13    -0.00  -0.02   0.08
  20   6     0.01  -0.01   0.05    -0.01  -0.02   0.10     0.00   0.02  -0.08
  21   7     0.01   0.01  -0.08    -0.01  -0.05   0.24     0.01   0.03  -0.16
  22   6     0.01  -0.03   0.08    -0.00  -0.02   0.08     0.00   0.01  -0.07
  23   6     0.01  -0.02  -0.00    -0.00  -0.01   0.06     0.00   0.01  -0.04
  24   7     0.01   0.00  -0.09    -0.01  -0.04   0.20     0.01   0.03  -0.13
  25   1     0.00  -0.01   0.02     0.00   0.02  -0.10    -0.00  -0.01   0.07
  26   1     0.00  -0.01  -0.01     0.01   0.03  -0.11    -0.00  -0.02   0.08
  27   1    -0.00  -0.01  -0.01     0.00   0.02  -0.11    -0.00  -0.02   0.08
  28   1    -0.01  -0.01   0.02     0.00   0.02  -0.10    -0.00  -0.01   0.07
  29   1     0.00   0.00  -0.03    -0.00  -0.02   0.09     0.00   0.01  -0.06
  30   1    -0.01  -0.01   0.05     0.00   0.00  -0.01     0.00  -0.00   0.00
  31   1    -0.01  -0.01   0.07     0.00   0.02  -0.07    -0.00  -0.01   0.04
  32   1    -0.00  -0.00   0.02     0.01   0.02  -0.10    -0.00  -0.02   0.07
  33   1     0.00   0.01  -0.03     0.00   0.01  -0.05    -0.00  -0.01   0.04
  34   1     0.00  -0.00   0.02     0.00   0.02  -0.10    -0.00  -0.02   0.07
  35   1     0.00  -0.01   0.07     0.00   0.02  -0.08    -0.00  -0.01   0.05
  36   1     0.00   0.01  -0.03    -0.00  -0.02   0.09     0.00   0.01  -0.07
  37   1     0.00  -0.01   0.05     0.00   0.00  -0.01    -0.00   0.00  -0.00
  38   6     0.01  -0.02   0.02     0.01   0.00  -0.12     0.01   0.01  -0.21
  39   6     0.01  -0.02  -0.06     0.00   0.00  -0.12     0.01   0.01  -0.23
  40   6    -0.00  -0.02  -0.11     0.00  -0.00   0.03     0.01  -0.00   0.03
  41   6    -0.00  -0.02  -0.11     0.00  -0.00   0.03     0.00  -0.00   0.02
  42   6    -0.00  -0.02  -0.11    -0.00  -0.00   0.03    -0.00  -0.00   0.02
  43   6    -0.01  -0.02  -0.05    -0.01   0.00  -0.11    -0.01   0.01  -0.22
  44   6    -0.01  -0.02   0.02    -0.01   0.00  -0.11    -0.01   0.01  -0.20
  45   6    -0.01  -0.01   0.00    -0.00  -0.00   0.04    -0.00   0.00   0.06
  46   7    -0.00  -0.01  -0.10     0.00  -0.00   0.13     0.01  -0.00   0.20
  47   6    -0.01  -0.01   0.10    -0.00  -0.00   0.04    -0.00   0.00   0.08
  48   6    -0.00  -0.00   0.07    -0.00  -0.00   0.05    -0.00   0.00   0.10
  49   6    -0.01   0.00   0.16    -0.01  -0.00  -0.09    -0.01   0.00  -0.13
  50   6    -0.00   0.01   0.04    -0.01  -0.00  -0.11    -0.01   0.00  -0.19
  51   6    -0.00   0.01  -0.09    -0.00  -0.00   0.03    -0.00   0.00   0.04
  52   7    -0.00   0.00  -0.08     0.00  -0.00   0.14     0.00   0.00   0.24
  53   6    -0.00   0.01  -0.14     0.00  -0.00  -0.00    -0.00   0.00  -0.02
  54   6     0.00   0.01  -0.09     0.00  -0.00   0.02     0.00   0.00   0.03
  55   6     0.01   0.01   0.04     0.00  -0.00  -0.11     0.00   0.00  -0.19
  56   6     0.01   0.00   0.14     0.00  -0.00  -0.09     0.00   0.00  -0.14
  57   6     0.01  -0.00   0.07     0.00  -0.00   0.05     0.01  -0.00   0.11
  58   7     0.00   0.00  -0.07     0.01  -0.00   0.14     0.01  -0.00   0.25
  59   6     0.01  -0.01   0.10     0.00  -0.00   0.04     0.01  -0.00   0.09
  60   6     0.01  -0.01   0.00     0.00  -0.00   0.04     0.01  -0.00   0.07
  61   7     0.00  -0.01  -0.09     0.00  -0.00   0.14     0.01  -0.01   0.22
  62   1     0.00  -0.01   0.02     0.00   0.00  -0.06     0.00   0.00  -0.11
  63   1     0.00  -0.01  -0.02     0.00   0.00  -0.07     0.00   0.01  -0.12
  64   1    -0.00  -0.01  -0.02    -0.00   0.00  -0.06    -0.01   0.00  -0.11
  65   1    -0.00  -0.01   0.02    -0.00   0.00  -0.06    -0.01   0.00  -0.10
  66   1    -0.00  -0.00  -0.03     0.00  -0.00   0.06     0.00  -0.00   0.09
  67   1    -0.00  -0.00   0.06    -0.00  -0.00  -0.01    -0.00   0.00  -0.01
  68   1    -0.00   0.00   0.08    -0.00  -0.00  -0.05    -0.00   0.00  -0.08
  69   1    -0.00   0.00   0.02    -0.00   0.00  -0.06    -0.00   0.00  -0.11
  70   1    -0.00   0.00  -0.04    -0.00   0.00  -0.03    -0.00   0.00  -0.06
  71   1     0.00   0.00   0.02    -0.00   0.00  -0.06    -0.00   0.00  -0.11
  72   1     0.01   0.00   0.08     0.00  -0.00  -0.05     0.00   0.00  -0.08
  73   1    -0.00  -0.00  -0.04     0.00  -0.00   0.06     0.00  -0.00   0.10
  74   1     0.01  -0.00   0.06     0.00  -0.00  -0.01     0.00  -0.00  -0.01
  75   6     0.00  -0.00  -0.00     0.00   0.01  -0.04    -0.00  -0.00   0.04
  76   6    -0.00   0.05   0.13     0.00  -0.01  -0.02    -0.00   0.02   0.01
  77   6     0.00   0.05   0.12    -0.00   0.00  -0.01     0.00  -0.02  -0.02
  78   6    -0.00  -0.01  -0.01    -0.00  -0.00  -0.01     0.00  -0.01  -0.05
  79   6    -0.00  -0.05  -0.16     0.01  -0.04  -0.07    -0.01  -0.01  -0.07
  80   6    -0.00   0.00  -0.01     0.00  -0.04  -0.08    -0.00   0.00  -0.07
  81   6    -0.00   0.07   0.16     0.00   0.01   0.04    -0.00   0.02  -0.02
  82   6    -0.00   0.08   0.20     0.00   0.00   0.03    -0.00   0.02  -0.01
  83   6    -0.01   0.07   0.15    -0.00   0.01   0.04    -0.00   0.02  -0.02
  84   6    -0.00   0.00  -0.02    -0.00  -0.04  -0.08     0.01   0.00  -0.06
  85   6    -0.00  -0.05  -0.16    -0.01  -0.03  -0.07     0.01  -0.00  -0.07
  86   6    -0.00  -0.01  -0.06    -0.01   0.01   0.04     0.01   0.01  -0.02
  87   7    -0.01   0.07   0.16    -0.00   0.04   0.13    -0.00   0.02   0.01
  88   6    -0.00  -0.05  -0.15    -0.01   0.01   0.03     0.01   0.00   0.01
  89   6    -0.00  -0.02  -0.04    -0.01   0.01   0.03     0.01   0.00   0.04
  90   6    -0.01  -0.06  -0.15    -0.02  -0.04  -0.10     0.01  -0.01   0.03
  91   6    -0.00  -0.00  -0.00    -0.01  -0.04  -0.10     0.00  -0.02   0.01
  92   6     0.00   0.06   0.16    -0.01   0.02   0.03     0.00  -0.01   0.03
  93   7     0.00   0.07   0.16    -0.00   0.05   0.12     0.00   0.00   0.05
  94   6     0.00   0.08   0.20    -0.00   0.02   0.03     0.00  -0.02   0.01
  95   6     0.00   0.06   0.16     0.00   0.01   0.03     0.00  -0.01   0.03
  96   6     0.00  -0.01  -0.01     0.01  -0.03  -0.09    -0.00  -0.02   0.01
  97   6     0.00  -0.06  -0.15     0.01  -0.04  -0.09    -0.01  -0.01   0.02
  98   6     0.00  -0.02  -0.05     0.01   0.01   0.03    -0.01   0.01   0.04
  99   7     0.00   0.07   0.16     0.00   0.05   0.12     0.00   0.01   0.06
 100   6    -0.00  -0.05  -0.15     0.01   0.01   0.02    -0.01   0.01   0.01
 101   6    -0.00  -0.01  -0.05     0.00   0.01   0.04    -0.01   0.01  -0.01
 102   7    -0.00   0.07   0.16     0.00   0.04   0.13    -0.00   0.02   0.02
 103   1     0.00  -0.03  -0.10     0.00  -0.02  -0.04    -0.00  -0.01  -0.03
 104   1    -0.00  -0.00  -0.01     0.00  -0.02  -0.05    -0.00  -0.00  -0.03
 105   1    -0.00  -0.00  -0.01    -0.00  -0.02  -0.05     0.00  -0.00  -0.02
 106   1    -0.00  -0.03  -0.09    -0.00  -0.02  -0.05     0.01  -0.00  -0.03
 107   1    -0.00   0.03   0.06    -0.00   0.02   0.05    -0.00   0.01   0.01
 108   1    -0.00  -0.04  -0.10    -0.00  -0.01  -0.01     0.01  -0.00  -0.00
 109   1    -0.00  -0.04  -0.09    -0.01  -0.02  -0.05     0.00  -0.00   0.01
 110   1    -0.00  -0.00  -0.01    -0.01  -0.02  -0.05     0.00  -0.01  -0.00
 111   1     0.00  -0.01  -0.01     0.00  -0.02  -0.05    -0.00  -0.01  -0.01
 112   1    -0.00  -0.04  -0.09     0.00  -0.02  -0.05    -0.00  -0.00   0.00
 113   1     0.00   0.03   0.06     0.00   0.02   0.05     0.00   0.00   0.02
 114   1     0.00  -0.04  -0.10     0.00  -0.01  -0.01    -0.01   0.00  -0.00
                     22                     23                     24
                        a                      a                      a 
 Frequencies --   106.0707               109.3976               114.9198
 Red. masses --    10.7108                10.8301                10.7243
 Frc consts  --     0.0000                 0.0000                 0.0000
 IR Inten    --    16.1726                 0.2319                 1.9545
 Raman Activ --     0.0000                 0.0000                 0.0000
 Depolar     --     0.0000                 0.0000                 0.0000
 Atom AN      X      Y      Z        X      Y      Z        X      Y      Z
   1   6     0.01   0.01  -0.12     0.02   0.01  -0.14    -0.00   0.00  -0.00
   2   6     0.01   0.00  -0.13     0.01  -0.01  -0.08    -0.00  -0.02   0.13
   3   6    -0.00  -0.02  -0.01    -0.00  -0.03   0.05     0.00  -0.01   0.08
   4   6    -0.00  -0.02   0.01    -0.00  -0.04   0.10     0.00  -0.01   0.07
   5   6     0.00  -0.02  -0.01     0.00  -0.03   0.05     0.00  -0.00   0.04
   6   6     0.00   0.00  -0.12    -0.00  -0.00  -0.12     0.01   0.04  -0.18
   7   6    -0.00   0.00  -0.12    -0.00   0.01  -0.16     0.00   0.04  -0.14
   8   6    -0.01  -0.01  -0.01    -0.01  -0.01  -0.01    -0.00  -0.01   0.11
   9   7    -0.00  -0.03   0.05    -0.00  -0.04   0.10    -0.00  -0.04   0.23
  10   6    -0.01  -0.02   0.05    -0.01  -0.01   0.04    -0.00  -0.02   0.14
  11   6    -0.01  -0.01   0.07    -0.01  -0.01   0.05    -0.00  -0.01   0.09
  12   6    -0.01  -0.00   0.06    -0.02  -0.03   0.14     0.01   0.00  -0.01
  13   6    -0.00   0.02  -0.03    -0.01  -0.00   0.03     0.01   0.02  -0.12
  14   6     0.00   0.02  -0.04    -0.00   0.02  -0.09    -0.00   0.01  -0.07
  15   7    -0.00  -0.00   0.03    -0.00   0.02  -0.08    -0.01  -0.00   0.05
  16   6     0.01   0.03  -0.10     0.01   0.04  -0.15    -0.00   0.01  -0.05
  17   6     0.00   0.02  -0.04     0.01   0.02  -0.10    -0.00   0.00  -0.02
  18   6     0.01   0.02  -0.03     0.01  -0.01   0.07    -0.01  -0.05   0.20
  19   6     0.01  -0.00   0.05     0.01  -0.03   0.16    -0.00  -0.03   0.14
  20   6     0.00  -0.01   0.07     0.01  -0.01   0.03     0.00   0.02  -0.11
  21   7     0.00  -0.00   0.03     0.01   0.02  -0.12     0.00   0.04  -0.21
  22   6     0.01  -0.02   0.06     0.01  -0.01   0.01     0.01   0.03  -0.17
  23   6     0.00  -0.02  -0.00     0.01  -0.01  -0.03     0.01   0.02  -0.11
  24   7    -0.00  -0.03   0.05     0.00  -0.03   0.06     0.01   0.01  -0.05
  25   1     0.01   0.01  -0.06     0.01   0.01  -0.07    -0.00   0.00  -0.00
  26   1     0.00   0.00  -0.06     0.00   0.00  -0.04    -0.00  -0.01   0.07
  27   1     0.00   0.00  -0.06     0.00   0.00  -0.06     0.00   0.02  -0.11
  28   1    -0.00   0.01  -0.06    -0.00   0.01  -0.08     0.00   0.02  -0.08
  29   1     0.00  -0.01   0.03     0.00  -0.01   0.05    -0.00  -0.02   0.10
  30   1    -0.01  -0.00   0.01    -0.01  -0.00   0.01    -0.00  -0.00   0.03
  31   1    -0.01  -0.00   0.03    -0.01  -0.02   0.08     0.00   0.00  -0.00
  32   1    -0.00   0.01  -0.02    -0.00  -0.00   0.01     0.00   0.01  -0.06
  33   1     0.00   0.01  -0.05     0.00   0.01  -0.05    -0.00   0.00  -0.00
  34   1     0.00   0.01  -0.02     0.00  -0.00   0.04    -0.00  -0.02   0.12
  35   1     0.00  -0.00   0.02     0.00  -0.02   0.09    -0.00  -0.02   0.08
  36   1     0.00  -0.00   0.01     0.00   0.01  -0.06     0.00   0.02  -0.09
  37   1     0.00  -0.01   0.02     0.00  -0.01   0.01     0.00   0.01  -0.05
  38   6     0.01  -0.02  -0.16    -0.01   0.01   0.12     0.00   0.00  -0.02
  39   6     0.00  -0.02  -0.16    -0.00   0.01   0.06     0.00   0.00  -0.09
  40   6    -0.00  -0.02  -0.00    -0.00   0.01  -0.05    -0.00   0.00  -0.02
  41   6     0.00  -0.02   0.03    -0.00   0.02  -0.11    -0.01  -0.00  -0.01
  42   6     0.00  -0.02  -0.00     0.00   0.01  -0.05    -0.00  -0.00   0.00
  43   6    -0.01  -0.02  -0.15     0.01   0.01   0.09     0.00  -0.00   0.11
  44   6    -0.02  -0.02  -0.16     0.02   0.01   0.14     0.00  -0.00   0.05
  45   6    -0.01  -0.01  -0.01     0.01   0.01   0.01    -0.00  -0.00  -0.08
[...]
 104   1    -0.06  -0.01   0.00    -0.00  -0.00   0.00     0.00   0.00  -0.00
 105   1    -0.54   0.09  -0.04     0.06  -0.01   0.00     0.02  -0.00   0.00
 106   1    -0.03   0.31  -0.12     0.00  -0.04   0.02     0.00  -0.01   0.00
 107   1    -0.00   0.00  -0.00    -0.00   0.00  -0.00    -0.00   0.00  -0.00
 108   1     0.00   0.01  -0.00    -0.00  -0.00   0.00    -0.00  -0.00   0.00
 109   1     0.00   0.01  -0.00     0.00   0.01  -0.01     0.00   0.02  -0.01
 110   1     0.01   0.00  -0.00     0.02   0.00  -0.00     0.07   0.01  -0.01
 111   1     0.05  -0.01   0.01     0.81  -0.13   0.08     0.20  -0.03   0.02
 112   1     0.00  -0.02   0.01     0.03  -0.39   0.16     0.01  -0.10   0.04
 113   1     0.00  -0.00   0.00     0.00  -0.00   0.00     0.00  -0.00   0.00
 114   1     0.00  -0.00   0.00    -0.00  -0.01   0.00    -0.00  -0.00   0.00
                    331                    332                    333
                        a                      a                      a 
 Frequencies --  3329.3069              3332.7780              3347.4724
 Red. masses --     1.8979                 1.8897                 1.8928
 Frc consts  --     0.0000                 0.0000                 0.0000
 IR Inten    --    69.9843                 0.5113                16.5628
 Raman Activ --     0.0000                 0.0000                 0.0000
 Depolar     --     0.0000                 0.0000                 0.0000
 Atom AN      X      Y      Z        X      Y      Z        X      Y      Z
   1   6    -0.00  -0.00  -0.00    -0.00  -0.00  -0.00    -0.00  -0.00  -0.00
   2   6    -0.00  -0.00  -0.00    -0.00  -0.00  -0.00     0.00   0.00   0.00
   3   6     0.00  -0.00   0.00    -0.00   0.00  -0.00    -0.00   0.00   0.00
   4   6    -0.00  -0.00  -0.00     0.00   0.00   0.00     0.00  -0.00  -0.00
   5   6    -0.00   0.00   0.00    -0.00  -0.00  -0.00     0.00  -0.00  -0.00
   6   6     0.00  -0.00  -0.00    -0.00   0.00   0.00    -0.00   0.00   0.00
   7   6     0.00   0.00   0.00    -0.00   0.00   0.00    -0.00   0.00   0.00
   8   6    -0.00   0.00   0.00     0.00  -0.00  -0.00     0.00  -0.00  -0.00
   9   7     0.00  -0.00  -0.00    -0.00   0.00   0.00     0.00  -0.00  -0.00
  10   6     0.00   0.00   0.00    -0.00   0.00   0.00     0.00  -0.00  -0.00
  11   6     0.00   0.00  -0.00     0.00  -0.00  -0.00    -0.00   0.00   0.00
  12   6    -0.00  -0.00  -0.00    -0.00   0.00   0.00    -0.00   0.00   0.00
  13   6    -0.00  -0.00   0.00     0.00  -0.00   0.00     0.00  -0.00   0.00
  14   6     0.00   0.00  -0.00     0.00   0.00   0.00    -0.00   0.00   0.00
  15   7    -0.00  -0.00   0.00    -0.00   0.00   0.00    -0.00  -0.00  -0.00
  16   6     0.00   0.00   0.00     0.00   0.00   0.00     0.00  -0.00  -0.00
  17   6    -0.00  -0.00  -0.00    -0.00  -0.00  -0.00     0.00  -0.00  -0.00
  18   6    -0.00   0.00  -0.00     0.00  -0.00  -0.00     0.00   0.00   0.00
  19   6    -0.00   0.00   0.00     0.00  -0.00  -0.00    -0.00  -0.00  -0.00
  20   6     0.00   0.00   0.00     0.00   0.00  -0.00     0.00  -0.00  -0.00
  21   7     0.00  -0.00  -0.00    -0.00   0.00   0.00     0.00  -0.00  -0.00
  22   6    -0.00   0.00   0.00    -0.00  -0.00  -0.00     0.00  -0.00  -0.00
  23   6     0.00  -0.00  -0.00     0.00   0.00   0.00    -0.00   0.00  -0.00
  24   7    -0.00   0.00   0.00     0.00  -0.00  -0.00     0.00   0.00   0.00
  25   1     0.00   0.00   0.00     0.00   0.00   0.00     0.00   0.00   0.00
  26   1     0.00   0.00   0.00    -0.00   0.00  -0.00     0.00   0.00   0.00
  27   1    -0.00   0.00   0.00     0.00  -0.00  -0.00    -0.00   0.00   0.00
  28   1     0.00  -0.00  -0.00     0.00  -0.00  -0.00    -0.00   0.00   0.00
  29   1    -0.00   0.00   0.00     0.00  -0.00  -0.00    -0.01   0.01   0.00
  30   1    -0.00  -0.00  -0.00     0.00  -0.00  -0.00     0.00   0.00   0.00
  31   1     0.00   0.00   0.00    -0.00  -0.00  -0.00    -0.00  -0.00  -0.00
  32   1     0.00   0.00  -0.00    -0.00  -0.00  -0.00    -0.00  -0.00  -0.00
  33   1    -0.00  -0.00  -0.00    -0.00   0.00  -0.00    -0.00  -0.00  -0.00
  34   1     0.00  -0.00  -0.00    -0.00   0.00  -0.00    -0.00   0.00  -0.00
  35   1     0.00  -0.00  -0.00    -0.00   0.00   0.00    -0.00   0.00   0.00
  36   1    -0.00   0.00   0.00     0.00  -0.00  -0.00    -0.00   0.00   0.00
  37   1    -0.00  -0.00  -0.00     0.00   0.00   0.00     0.00   0.00   0.00
  38   6    -0.00  -0.00  -0.00     0.00   0.00   0.00     0.00   0.00   0.00
  39   6    -0.00  -0.00  -0.00     0.00   0.00  -0.00     0.00   0.00   0.00
  40   6     0.00  -0.00   0.00     0.00  -0.00   0.00    -0.00   0.00   0.00
  41   6    -0.00  -0.00   0.00    -0.00  -0.00   0.00    -0.00  -0.00  -0.00
  42   6    -0.00   0.00  -0.00     0.00   0.00  -0.00     0.00  -0.00  -0.00
  43   6     0.00  -0.00  -0.00     0.00  -0.00  -0.00    -0.00   0.00   0.00
  44   6     0.00   0.00  -0.00     0.00  -0.00  -0.00    -0.00   0.00   0.00
  45   6    -0.00   0.00   0.00    -0.00   0.00   0.00     0.00  -0.00  -0.00
  46   7     0.00  -0.00  -0.00     0.00  -0.00  -0.00     0.17  -0.19  -0.01
  47   6     0.00   0.00   0.00     0.00  -0.00  -0.00     0.00  -0.00  -0.00
  48   6     0.00   0.00  -0.00    -0.00   0.00   0.00    -0.00   0.00   0.00
  49   6    -0.00  -0.00  -0.00    -0.00  -0.00  -0.00    -0.00  -0.00   0.00
  50   6    -0.00  -0.00   0.00    -0.00  -0.00   0.00    -0.00  -0.00   0.00
  51   6     0.00   0.00   0.00    -0.00  -0.00   0.00    -0.00   0.00   0.00
  52   7    -0.00  -0.00  -0.00     0.00  -0.00  -0.00    -0.00  -0.00  -0.00
  53   6     0.00   0.00   0.00    -0.00  -0.00   0.00     0.00  -0.00  -0.00
  54   6    -0.00  -0.00   0.00     0.00   0.00   0.00     0.00  -0.00  -0.00
  55   6    -0.00   0.00   0.00    -0.00   0.00   0.00    -0.00   0.00   0.00
  56   6    -0.00   0.00  -0.00    -0.00   0.00   0.00    -0.00   0.00   0.00
  57   6     0.00   0.00   0.00    -0.00  -0.00   0.00     0.00  -0.00  -0.00
  58   7     0.00  -0.00  -0.00     0.00  -0.00  -0.00     0.04  -0.05  -0.00
  59   6    -0.00   0.00  -0.00     0.00   0.00  -0.00     0.00  -0.00  -0.00
  60   6     0.00  -0.00  -0.00    -0.00  -0.00  -0.00    -0.00  -0.00  -0.00
  61   7    -0.00   0.00   0.00    -0.00   0.00   0.00     0.00   0.00  -0.00
  62   1     0.00   0.00   0.00    -0.00  -0.00  -0.00     0.00   0.00   0.00
  63   1     0.00   0.00   0.00     0.00  -0.00   0.00     0.00   0.00   0.00
  64   1    -0.00   0.00   0.00    -0.00   0.00   0.00    -0.00   0.00   0.00
  65   1     0.00  -0.00  -0.00    -0.00   0.00   0.00    -0.00   0.00   0.00
  66   1    -0.00   0.00   0.00    -0.00   0.00   0.00    -0.63   0.69   0.04
  67   1    -0.00  -0.00  -0.00    -0.00   0.00   0.00     0.00   0.00   0.00
  68   1     0.00   0.00   0.00     0.00   0.00   0.00     0.00   0.00  -0.00
  69   1     0.00   0.00  -0.00     0.00   0.00  -0.00     0.00  -0.00   0.00
  70   1    -0.00  -0.00   0.00     0.00  -0.00   0.00    -0.00  -0.00   0.00
  71   1     0.00  -0.00  -0.00     0.00  -0.00  -0.00    -0.00   0.00   0.00
  72   1     0.00  -0.00   0.00     0.00  -0.00   0.00    -0.00   0.00   0.00
  73   1    -0.00   0.00   0.00    -0.00   0.00   0.00    -0.15   0.17   0.00
  74   1    -0.00  -0.00   0.00    -0.00  -0.00   0.00     0.00   0.00   0.00
  75   6     0.00  -0.00   0.00    -0.00   0.00  -0.00     0.00  -0.00   0.00
  76   6    -0.00   0.00  -0.00     0.00  -0.00   0.00    -0.00  -0.00   0.00
  77   6    -0.00   0.00  -0.00    -0.00   0.00  -0.00    -0.00   0.00   0.00
  78   6     0.00  -0.00  -0.00     0.00  -0.00  -0.00     0.00  -0.00  -0.00
  79   6    -0.00   0.00  -0.00     0.00   0.00  -0.00     0.00   0.00  -0.00
  80   6     0.00  -0.00   0.00     0.00   0.00  -0.00    -0.00   0.00   0.00
  81   6     0.00  -0.00   0.00    -0.00   0.00  -0.00    -0.00  -0.00   0.00
  82   6     0.00   0.00  -0.00    -0.00  -0.00   0.00     0.00  -0.00   0.00
  83   6    -0.00   0.00  -0.00     0.00  -0.00   0.00     0.00   0.00  -0.00
  84   6     0.00  -0.00   0.00    -0.00   0.00  -0.00     0.00  -0.00  -0.00
  85   6     0.00  -0.00   0.00    -0.00   0.00  -0.00     0.00  -0.00   0.00
  86   6    -0.00   0.00  -0.00     0.00   0.00  -0.00     0.00   0.00  -0.00
  87   7    -0.12   0.13  -0.05     0.12  -0.13   0.05     0.00  -0.00   0.00
  88   6    -0.00   0.00  -0.00     0.00   0.00  -0.00     0.00  -0.00   0.00
  89   6     0.00  -0.00   0.00    -0.00   0.00  -0.00    -0.00  -0.00   0.00
  90   6    -0.00   0.00  -0.00    -0.00  -0.00   0.00     0.00  -0.00   0.00
  91   6     0.00  -0.00   0.00    -0.00  -0.00   0.00     0.00  -0.00  -0.00
  92   6     0.00  -0.00   0.00     0.00  -0.00   0.00    -0.00   0.00   0.00
  93   7    -0.00  -0.00   0.00    -0.00  -0.00   0.00     0.00  -0.00   0.00
  94   6     0.00   0.00  -0.00     0.00   0.00  -0.00     0.00   0.00  -0.00
  95   6    -0.00   0.00  -0.00    -0.00   0.00  -0.00     0.00  -0.00   0.00
  96   6     0.00  -0.00   0.00     0.00  -0.00   0.00    -0.00   0.00  -0.00
  97   6     0.00  -0.00   0.00     0.00  -0.00   0.00    -0.00   0.00  -0.00
  98   6    -0.00   0.00  -0.00    -0.00  -0.00   0.00     0.00   0.00  -0.00
  99   7    -0.12   0.13  -0.05    -0.12   0.13  -0.05     0.00  -0.00   0.00
 100   6    -0.00   0.00  -0.00    -0.00   0.00  -0.00    -0.00  -0.00   0.00
 101   6     0.00  -0.00   0.00     0.00  -0.00   0.00    -0.00  -0.00   0.00
 102   7    -0.00  -0.00   0.00     0.00   0.00  -0.00     0.00   0.00  -0.00
 103   1    -0.00  -0.00   0.00     0.00   0.00  -0.00    -0.00  -0.00   0.00
 104   1    -0.00  -0.00   0.00     0.00   0.00  -0.00    -0.00   0.00  -0.00
 105   1     0.00  -0.00   0.00     0.00  -0.00   0.00    -0.00   0.00   0.00
 106   1     0.00  -0.00   0.00    -0.00   0.00  -0.00    -0.00   0.00  -0.00
 107   1     0.46  -0.49   0.18    -0.45   0.47  -0.17    -0.00   0.00  -0.00
 108   1    -0.00  -0.00   0.00     0.00  -0.00  -0.00     0.00   0.00  -0.00
 109   1    -0.00  -0.00   0.00    -0.00  -0.00   0.00     0.00   0.00  -0.00
 110   1    -0.00  -0.00   0.00    -0.00  -0.00   0.00    -0.00   0.00  -0.00
 111   1     0.00  -0.00   0.00    -0.00   0.00  -0.00     0.00  -0.00   0.00
 112   1     0.00  -0.00   0.00     0.00  -0.00   0.00     0.00  -0.00   0.00
 113   1     0.44  -0.47   0.19     0.46  -0.48   0.20    -0.00   0.00  -0.00
 114   1    -0.00  -0.00   0.00    -0.00  -0.00   0.00     0.00   0.00  -0.00
                    334                    335                    336
                        a                      a                      a 
 Frequencies --  3349.3170              3355.7847              3357.5541
 Red. masses --     1.8924                 1.8874                 1.8869
 Frc consts  --     0.0000                 0.0000                 0.0000
 IR Inten    --    21.3664                 2.0414                 2.0527
 Raman Activ --     0.0000                 0.0000                 0.0000
 Depolar     --     0.0000                 0.0000                 0.0000
 Atom AN      X      Y      Z        X      Y      Z        X      Y      Z
   1   6    -0.00   0.00  -0.00    -0.00   0.00   0.00    -0.00  -0.00  -0.00
   2   6    -0.00  -0.00  -0.00     0.00  -0.00  -0.00    -0.00  -0.00  -0.00
   3   6     0.00  -0.00  -0.00     0.00  -0.00  -0.00     0.00  -0.00  -0.00
   4   6     0.00   0.00   0.00    -0.00   0.00   0.00     0.00  -0.00  -0.00
   5   6    -0.00   0.00   0.00    -0.00   0.00   0.00     0.00   0.00   0.00
   6   6     0.00  -0.00  -0.00     0.00  -0.00  -0.00     0.00  -0.00  -0.00
   7   6     0.00  -0.00  -0.00     0.00  -0.00  -0.00     0.00  -0.00  -0.00
   8   6    -0.00   0.00   0.00    -0.00  -0.00  -0.00    -0.00  -0.00  -0.00
   9   7    -0.17   0.18   0.03    -0.00   0.00   0.00    -0.04   0.04   0.01
  10   6    -0.00   0.00   0.00     0.00  -0.00  -0.00     0.00  -0.00  -0.00
  11   6     0.00  -0.00  -0.00     0.00  -0.00  -0.00     0.00  -0.00  -0.00
  12   6     0.00   0.00   0.00     0.00  -0.00  -0.00     0.00   0.00   0.00
  13   6     0.00   0.00   0.00    -0.00   0.00   0.00     0.00   0.00   0.00
  14   6     0.00  -0.00  -0.00    -0.00   0.00   0.00    -0.00   0.00   0.00
  15   7     0.00   0.00   0.00     0.00   0.00   0.00     0.00   0.00   0.00
  16   6    -0.00   0.00   0.00     0.00  -0.00  -0.00     0.00  -0.00  -0.00
  17   6    -0.00   0.00  -0.00     0.00  -0.00  -0.00     0.00  -0.00  -0.00
  18   6     0.00  -0.00  -0.00    -0.00   0.00   0.00    -0.00   0.00   0.00
  19   6     0.00  -0.00  -0.00    -0.00   0.00   0.00    -0.00   0.00   0.00
  20   6    -0.00   0.00   0.00     0.00  -0.00  -0.00     0.00  -0.00  -0.00
  21   7    -0.04   0.04   0.01     0.00  -0.00  -0.00     0.17  -0.18  -0.03
  22   6    -0.00   0.00   0.00     0.00  -0.00  -0.00     0.00  -0.00  -0.00
  23   6     0.00   0.00   0.00    -0.00   0.00   0.00    -0.00   0.00   0.00
  24   7    -0.00  -0.00  -0.00    -0.00  -0.00  -0.00    -0.00  -0.00  -0.00
  25   1    -0.00  -0.00  -0.00    -0.00  -0.00  -0.00    -0.00  -0.00  -0.00
  26   1    -0.00  -0.00  -0.00    -0.00  -0.00  -0.00    -0.00  -0.00  -0.00
  27   1     0.00  -0.00  -0.00    -0.00   0.00   0.00    -0.00   0.00   0.00
  28   1     0.00  -0.00  -0.00    -0.00   0.00   0.00    -0.00   0.00   0.00
  29   1     0.64  -0.68  -0.12     0.00  -0.00  -0.00     0.16  -0.16  -0.03
  30   1    -0.00  -0.00  -0.00     0.00   0.00   0.00     0.00   0.00   0.00
  31   1    -0.00  -0.00  -0.00     0.00   0.00   0.00     0.00   0.00   0.00
  32   1    -0.00   0.00   0.00     0.00   0.00   0.00     0.00   0.00   0.00
  33   1     0.00   0.00   0.00    -0.00  -0.00  -0.00    -0.00  -0.00  -0.00
  34   1     0.00  -0.00  -0.00     0.00   0.00   0.00    -0.00   0.00   0.00
  35   1     0.00  -0.00  -0.00    -0.00  -0.00  -0.00    -0.00   0.00   0.00
  36   1     0.15  -0.16  -0.03    -0.01   0.01   0.00    -0.64   0.68   0.12
  37   1    -0.00  -0.00  -0.00     0.00   0.00   0.00     0.00   0.00   0.00
  38   6     0.00   0.00   0.00    -0.00  -0.00  -0.00     0.00   0.00   0.00
  39   6    -0.00   0.00   0.00    -0.00  -0.00  -0.00     0.00   0.00   0.00
  40   6    -0.00   0.00   0.00     0.00  -0.00  -0.00    -0.00   0.00  -0.00
  41   6    -0.00  -0.00   0.00     0.00  -0.00  -0.00    -0.00   0.00  -0.00
  42   6     0.00  -0.00  -0.00     0.00   0.00   0.00    -0.00  -0.00   0.00
  43   6    -0.00   0.00   0.00     0.00  -0.00  -0.00     0.00  -0.00  -0.00
  44   6    -0.00   0.00   0.00     0.00  -0.00  -0.00    -0.00  -0.00  -0.00
  45   6     0.00  -0.00  -0.00    -0.00  -0.00   0.00     0.00   0.00  -0.00
  46   7     0.00  -0.00  -0.00    -0.04   0.04   0.00     0.00  -0.00  -0.00
  47   6     0.00  -0.00  -0.00     0.00  -0.00  -0.00    -0.00  -0.00  -0.00
  48   6    -0.00   0.00  -0.00     0.00  -0.00  -0.00    -0.00   0.00   0.00
  49   6    -0.00  -0.00  -0.00     0.00   0.00  -0.00    -0.00  -0.00   0.00
  50   6    -0.00  -0.00   0.00     0.00   0.00   0.00    -0.00  -0.00  -0.00
  51   6     0.00  -0.00  -0.00    -0.00   0.00   0.00     0.00  -0.00  -0.00
  52   7    -0.00  -0.00  -0.00     0.00   0.00  -0.00    -0.00  -0.00   0.00
  53   6    -0.00  -0.00  -0.00     0.00  -0.00  -0.00     0.00   0.00   0.00
  54   6     0.00   0.00  -0.00     0.00  -0.00  -0.00    -0.00   0.00   0.00
  55   6    -0.00  -0.00   0.00    -0.00   0.00   0.00     0.00  -0.00   0.00
  56   6     0.00   0.00  -0.00    -0.00   0.00   0.00     0.00  -0.00   0.00
  57   6    -0.00  -0.00  -0.00     0.00  -0.00  -0.00    -0.00  -0.00   0.00
  58   7     0.00  -0.00  -0.00     0.17  -0.19  -0.00    -0.00   0.00   0.00
  59   6     0.00   0.00  -0.00     0.00  -0.00  -0.00    -0.00  -0.00   0.00
  60   6     0.00  -0.00  -0.00    -0.00   0.00   0.00     0.00  -0.00   0.00
  61   7     0.00   0.00  -0.00    -0.00  -0.00   0.00     0.00   0.00   0.00
  62   1     0.00  -0.00  -0.00    -0.00  -0.00  -0.00    -0.00  -0.00   0.00
  63   1    -0.00  -0.00   0.00    -0.00  -0.00  -0.00    -0.00   0.00   0.00
  64   1     0.00   0.00   0.00    -0.00   0.00   0.00    -0.00  -0.00  -0.00
  65   1    -0.00  -0.00   0.00    -0.00   0.00   0.00    -0.00   0.00  -0.00
  66   1    -0.01   0.01   0.00     0.15  -0.17  -0.01    -0.00   0.00   0.00
  67   1     0.00   0.00  -0.00     0.00   0.00   0.00     0.00   0.00  -0.00
  68   1     0.00   0.00  -0.00     0.00   0.00  -0.00    -0.00   0.00  -0.00
  69   1     0.00   0.00  -0.00     0.00   0.00  -0.00     0.00   0.00  -0.00
  70   1     0.00  -0.00  -0.00    -0.00  -0.00   0.00    -0.00   0.00   0.00
  71   1     0.00  -0.00  -0.00    -0.00   0.00   0.00     0.00  -0.00   0.00
  72   1     0.00  -0.00  -0.00    -0.00   0.00  -0.00     0.00  -0.00   0.00
  73   1    -0.00   0.00   0.00    -0.63   0.70   0.02     0.01  -0.01  -0.00
  74   1    -0.00  -0.00  -0.00     0.00   0.00   0.00    -0.00  -0.00   0.00
  75   6    -0.00   0.00  -0.00     0.00   0.00   0.00    -0.00   0.00  -0.00
  76   6     0.00  -0.00   0.00    -0.00  -0.00  -0.00     0.00  -0.00  -0.00
  77   6     0.00   0.00   0.00     0.00  -0.00  -0.00    -0.00  -0.00   0.00
  78   6     0.00  -0.00  -0.00    -0.00   0.00   0.00     0.00   0.00  -0.00
  79   6    -0.00   0.00   0.00     0.00  -0.00   0.00     0.00   0.00  -0.00
  80   6     0.00   0.00   0.00    -0.00   0.00   0.00     0.00   0.00  -0.00
  81   6     0.00  -0.00  -0.00    -0.00  -0.00   0.00    -0.00  -0.00   0.00
  82   6    -0.00  -0.00   0.00     0.00  -0.00   0.00    -0.00  -0.00   0.00
  83   6    -0.00   0.00  -0.00     0.00   0.00  -0.00     0.00   0.00  -0.00
  84   6     0.00  -0.00   0.00    -0.00  -0.00  -0.00     0.00  -0.00   0.00
  85   6     0.00  -0.00   0.00     0.00   0.00  -0.00     0.00  -0.00   0.00
  86   6    -0.00  -0.00   0.00    -0.00   0.00  -0.00    -0.00   0.00  -0.00
  87   7    -0.00   0.00  -0.00    -0.00   0.00  -0.00     0.00  -0.00   0.00
  88   6     0.00   0.00  -0.00     0.00  -0.00   0.00     0.00  -0.00   0.00
  89   6     0.00   0.00  -0.00    -0.00  -0.00   0.00    -0.00  -0.00   0.00
  90   6    -0.00  -0.00   0.00     0.00   0.00  -0.00     0.00  -0.00   0.00
  91   6     0.00  -0.00  -0.00     0.00   0.00  -0.00    -0.00   0.00   0.00
  92   6     0.00   0.00  -0.00    -0.00  -0.00   0.00    -0.00  -0.00   0.00
  93   7    -0.00  -0.00   0.00     0.00  -0.00   0.00     0.00  -0.00   0.00
  94   6     0.00   0.00  -0.00    -0.00  -0.00   0.00     0.00  -0.00   0.00
  95   6    -0.00  -0.00   0.00     0.00   0.00  -0.00     0.00   0.00  -0.00
  96   6    -0.00   0.00   0.00     0.00  -0.00   0.00    -0.00   0.00  -0.00
  97   6    -0.00   0.00  -0.00     0.00  -0.00   0.00     0.00   0.00  -0.00
  98   6    -0.00  -0.00   0.00    -0.00   0.00  -0.00    -0.00   0.00  -0.00
  99   7    -0.00   0.00  -0.00     0.00  -0.00   0.00    -0.00   0.00  -0.00
 100   6    -0.00   0.00  -0.00     0.00  -0.00   0.00     0.00  -0.00   0.00
 101   6     0.00   0.00   0.00    -0.00  -0.00  -0.00    -0.00  -0.00   0.00
 102   7    -0.00   0.00  -0.00     0.00  -0.00   0.00     0.00  -0.00   0.00
 103   1    -0.00  -0.00   0.00     0.00   0.00  -0.00    -0.00  -0.00   0.00
 104   1     0.00  -0.00   0.00     0.00   0.00  -0.00    -0.00  -0.00  -0.00
 105   1    -0.00   0.00  -0.00     0.00  -0.00   0.00    -0.00   0.00  -0.00
 106   1    -0.00  -0.00   0.00     0.00  -0.00   0.00    -0.00   0.00  -0.00
 107   1     0.00  -0.00   0.00     0.00  -0.00   0.00    -0.00   0.00  -0.00
 108   1    -0.00  -0.00   0.00    -0.00   0.00  -0.00     0.00   0.00  -0.00
 109   1     0.00   0.00  -0.00    -0.00  -0.00   0.00     0.00   0.00  -0.00
 110   1     0.00  -0.00   0.00    -0.00  -0.00  -0.00     0.00   0.00  -0.00
 111   1     0.00  -0.00  -0.00    -0.00   0.00  -0.00    -0.00  -0.00   0.00
 112   1     0.00  -0.00   0.00    -0.00   0.00  -0.00     0.00  -0.00   0.00
 113   1     0.00  -0.00   0.00    -0.00   0.00  -0.00     0.00  -0.00   0.00
 114   1    -0.00  -0.00   0.00    -0.00   0.00  -0.00    -0.00   0.00  -0.00
