      -----------------------------------------------------------      
     |                   =====================                   |     
     |                           x T B                           |     
     |                   =====================                   |     
     |                         S. Grimme                         |     
     |          Mulliken Center for Theoretical Chemistry        |     
     |                    University of Bonn                     |     
      -----------------------------------------------------------      

   * xtb version 6.4.1 (bd6e46d) compiled by 'conda@4901f00b25ba' on 2021-06-10

   xtb is free software: you can redistribute it and/or modify it under
   the terms of the GNU Lesser General Public License as published by
   the Free Software Foundation, either version 3 of the License, or
   (at your option) any later version.
   
   xtb is distributed in the hope that it will be useful,
   but WITHOUT ANY WARRANTY; without even the implied warranty of
   MERCHANTABILITY or FITNESS FOR A PARTICULAR PURPOSE.  See the
   GNU Lesser General Public License for more details.
   
   Cite this work as:
   * C. Bannwarth, E. Caldeweyher, S. Ehlert, A. Hansen, P. Pracht,
     J. Seibert, S. Spicher, S. Grimme, WIREs Comput. Mol. Sci., 2020, 11,
     e01493. DOI: 10.1002/wcms.1493
   
   for GFN2-xTB:
   * C. Bannwarth, S. Ehlert and S. Grimme., J. Chem. Theory Comput., 2019,
     15, 1652-1671. DOI: 10.1021/acs.jctc.8b01176
   for GFN1-xTB:
   * S. Grimme, C. Bannwarth, P. Shushkov, J. Chem. Theory Comput., 2017,
     13, 1989-2009. DOI: 10.1021/acs.jctc.7b00118
   for GFN0-xTB:
   * P. Pracht, E. Caldeweyher, S. Ehlert, S. Grimme, ChemRxiv, 2019, preprint.
     DOI: 10.26434/chemrxiv.8326202.v1
   for GFN-FF:
   * S. Spicher and S. Grimme, Angew. Chem. Int. Ed., 2020, 59, 15665-15673.
     DOI: 10.1002/anie.202004239
   
   for DFT-D4:
   * E. Caldeweyher, C. Bannwarth and S. Grimme, J. Chem. Phys., 2017,
     147, 034112. DOI: 10.1063/1.4993215
   * E. Caldeweyher, S. Ehlert, A. Hansen, H. Neugebauer, S. Spicher,
     C. Bannwarth and S. Grimme, J. Chem. Phys., 2019, 150, 154122.
     DOI: 10.1063/1.5090222
   * E. Caldeweyher, J.-M. Mewes, S. Ehlert and S. Grimme, Phys. Chem. Chem. Phys.
     2020, 22, 8499-8512. DOI: 10.1039/D0CP00502A
   
   for sTDA-xTB:
   * S. Grimme and C. Bannwarth, J. Chem. Phys., 2016, 145, 054103.
     DOI: 10.1063/1.4959605
   
   in the mass-spec context:
   * V. Asgeirsson, C. Bauer and S. Grimme, Chem. Sci., 2017, 8, 4879.
     DOI: 10.1039/c7sc00601b
   * J. Koopman and S. Grimme, ACS Omega 2019, 4, 12, 15120-15133.
     DOI: 10.1021/acsomega.9b02011
   
   for metadynamics refer to:
   * S. Grimme, J. Chem. Theory Comput., 2019, 155, 2847-2862
     DOI: 10.1021/acs.jctc.9b00143
   
   for SPH calculations refer to:
   * S. Spicher and S. Grimme, J. Chem. Theory Comput., 2021, 17, 1701-1714
     DOI: 10.1021/acs.jctc.0c01306
   
   with help from (in alphabetical order)
   P. Atkinson, C. Bannwarth, F. Bohle, G. Brandenburg, E. Caldeweyher
   M. Checinski, S. Dohm, S. Ehlert, S. Ehrlich, I. Gerasimov, J. Koopman
   C. Lavigne, S. Lehtola, F. März, M. Müller, F. Musil, H. Neugebauer
   J. Pisarek, C. Plett, P. Pracht, J. Seibert, P. Shushkov, S. Spicher
   M. Stahn, M. Steiner, T. Strunk, J. Stückrath, T. Rose, and J. Unsleber
   
 * started run on 2021/11/19 at 15:14:06.847     

           -------------------------------------------------
          |                Calculation Setup                |
           -------------------------------------------------

          program call               : /home/jeff/miniconda3/bin/xtb input_structure_1.xyz --gfn 2 --ohess normal --parallel 1 --etemp 300 --chrg 0 --uhf 0 -I det_control.in
          hostname                   : jelfscompute1
          coordinate file            : input_structure_1.xyz
          omp threads                :                     1
          number of atoms            :                   114
          number of electrons        :                   354
          charge                     :                     0
          spin                       :                   0.0
          first test random number   :      0.11684737469239

   ID    Z sym.   atoms
    1    6 C      1-8, 10-14, 16-20, 22, 23, 38-45, 47-51, 53-57, 59, 60,
                  75-86, 88-92, 94-98, 100, 101
    2    7 N      9, 15, 21, 24, 46, 52, 58, 61, 87, 93, 99, 102
    3    1 H      25-37, 62-74, 103-114

molecular fragmentation (1/2 indicates fragments):
111111111111111111111111111111111111122222222222222222222222222222222222
222222222222222222222222222222222222222222
# atoms in fragment 1/2:    37    77
 fragment masses (1/2) :      309.34      665.72
CMA distance (Bohr)    :  31.398
constraining FC (au)   :  0.0500

           -------------------------------------------------
          |                 G F N 2 - x T B                 |
           -------------------------------------------------

        Reference                      10.1021/acs.jctc.8b01176
      * Hamiltonian:
        H0-scaling (s, p, d)           1.850000    2.230000    2.230000
        zeta-weighting                 0.500000
      * Dispersion:
        s8                             2.700000
        a1                             0.520000
        a2                             5.000000
        s9                             5.000000
      * Repulsion:
        kExp                           1.500000    1.000000
        rExp                           1.000000
      * Coulomb:
        alpha                          2.000000
        third order                    shell-resolved
        anisotropic                    true
        a3                             3.000000
        a5                             4.000000
        cn-shift                       1.200000
        cn-exp                         4.000000
        max-rad                        5.000000


          ...................................................
          :                      SETUP                      :
          :.................................................:
          :  # basis functions                 342          :
          :  # atomic orbitals                 342          :
          :  # shells                          190          :
          :  # electrons                       354          :
          :  max. iterations                   250          :
          :  Hamiltonian                  GFN2-xTB          :
          :  restarted?                      false          :
          :  GBSA solvation                  false          :
          :  PC potential                    false          :
          :  electronic temp.          300.0000000     K    :
          :  accuracy                    1.0000000          :
          :  -> integral cutoff          0.2500000E+02      :
          :  -> integral neglect         0.1000000E-07      :
          :  -> SCF convergence          0.1000000E-05 Eh   :
          :  -> wf. convergence          0.1000000E-03 e    :
          :  Broyden damping             0.4000000          :
          ...................................................

 iter      E             dE          RMSdq      gap      omega  full diag
   1   -193.7824026 -0.193782E+03  0.479E+00    0.53       0.0  T
   2   -194.0533583 -0.270956E+00  0.308E+00    0.42       1.0  T
   3   -193.5096035  0.543755E+00  0.223E+00    0.76       1.0  T
   4   -193.2309260  0.278678E+00  0.225E+00    0.43       1.0  T
   5   -194.0653807 -0.834455E+00  0.671E-01    0.55       1.0  T
   6   -194.0783761 -0.129954E-01  0.614E-01    0.53       1.0  T
   7   -194.1398041 -0.614280E-01  0.136E-01    0.50       1.0  T
   8   -194.1395220  0.282115E-03  0.108E-01    0.50       1.0  T
   9   -194.1389911  0.530927E-03  0.112E-01    0.48       1.0  T
  10   -194.1403981 -0.140705E-02  0.340E-02    0.50       1.0  T
  11   -194.1404822 -0.840609E-04  0.219E-02    0.49       1.0  T
  12   -194.1405422 -0.600326E-04  0.102E-02    0.49       1.0  T
  13   -194.1405520 -0.977045E-05  0.601E-03    0.49       1.6  T
  14   -194.1405562 -0.420199E-05  0.275E-03    0.49       3.4  T
  15   -194.1405568 -0.616029E-06  0.150E-03    0.49       6.3  T
  16   -194.1405571 -0.295358E-06  0.707E-04    0.49      13.3  T
  17   -194.1405571 -0.318905E-07  0.357E-04    0.49      26.2  T

   *** convergence criteria satisfied after 17 iterations ***

         #    Occupation            Energy/Eh            Energy/eV
      -------------------------------------------------------------
         1        2.0000           -0.6907109             -18.7952
       ...           ...                  ...                  ...
       171        2.0000           -0.3560333              -9.6882
       172        2.0000           -0.3556107              -9.6767
       173        2.0000           -0.3552997              -9.6682
       174        2.0000           -0.3507123              -9.5434
       175        2.0000           -0.3454259              -9.3995
       176        2.0000           -0.3449680              -9.3871
       177        1.9998           -0.3278441              -8.9211 (HOMO)
       178        0.0001           -0.3098124              -8.4304 (LUMO)
       179        0.0000           -0.3087645              -8.4019
       180                         -0.3000897              -8.1659
       181                         -0.2902248              -7.8974
       182                         -0.2897980              -7.8858
       ...                                ...                  ...
       342                          2.3254146              63.2778
      -------------------------------------------------------------
                  HL-Gap            0.0180317 Eh            0.4907 eV
             Fermi-level           -0.3189644 Eh           -8.6795 eV

 SCC (total)                   0 d,  0 h,  0 min,  0.620 sec
 SCC setup                      ...        0 min,  0.003 sec (  0.476%)
 Dispersion                     ...        0 min,  0.007 sec (  1.053%)
 classical contributions        ...        0 min,  0.001 sec (  0.171%)
 integral evaluation            ...        0 min,  0.041 sec (  6.674%)
 iterations                     ...        0 min,  0.413 sec ( 66.667%)
 molecular gradient             ...        0 min,  0.152 sec ( 24.532%)
 printout                       ...        0 min,  0.003 sec (  0.424%)

         :::::::::::::::::::::::::::::::::::::::::::::::::::::
         ::                     SUMMARY                     ::
         :::::::::::::::::::::::::::::::::::::::::::::::::::::
         :: total energy            -190.477914348622 Eh    ::
         :: gradient norm              1.186080600462 Eh/a0 ::
         :: HOMO-LUMO gap              0.490667705632 eV    ::
         ::.................................................::
         :: SCC energy              -194.140557127429 Eh    ::
         :: -> isotropic ES            0.118595613821 Eh    ::
         :: -> anisotropic ES         -0.004772302546 Eh    ::
         :: -> anisotropic XC          0.134783064923 Eh    ::
         :: -> dispersion             -0.157392653751 Eh    ::
         :: repulsion energy           3.663372676498 Eh    ::
         :: add. restraining           0.000000000000 Eh    ::
         :: total charge               0.000000000000 e     ::
         :::::::::::::::::::::::::::::::::::::::::::::::::::::

      ----------------------------------------------------------- 
     |                   =====================                   |
     |                        A N C O P T                        |
     |                   =====================                   |
     |               Approximate Normal Coordinate               |
     |                Rational Function Optimizer                |
      ----------------------------------------------------------- 

          ...................................................
          :                      SETUP                      :
          :.................................................:
          :   optimization level            normal          :
          :   max. optcycles                   342          :
          :   ANC micro-cycles                  20          :
          :   degrees of freedom               336          :
          :.................................................:
          :   RF solver                   davidson          :
          :   write xtbopt.log                true          :
          :   linear?                        false          :
          :   energy convergence         0.5000000E-05 Eh   :
          :   grad. convergence          0.1000000E-02 Eh/α :
          :   maximium RF displ.         1.0000000          :
          :   Hlow (freq-cutoff)         0.1000000E-01      :
          :   Hmax (freq-cutoff)         5.0000000          :
          :   S6 in model hess.         20.0000000          :
          ...................................................

generating ANC from model Hessian ...
Using Lindh-Hessian (1995)
 Shifting diagonal of input Hessian by    1.0005025190305990E-002
 Lowest  eigenvalues of input Hessian
    0.010000    0.010002    0.000000    0.000000    0.000000    0.000000
    0.000000    0.000000    0.010013    0.010017    0.010026    0.010046
    0.010062    0.010140    0.010419    0.010466    0.010667    0.010905
 Highest eigenvalues
    2.238619    2.238619    2.569166    2.571850    3.402551    3.490073


........................................................................
.............................. CYCLE    1 ..............................
........................................................................
   1   -194.1405571 -0.194141E+03  0.140E-04    0.49       0.0  T
   2   -194.1405571  0.348928E-08  0.177E-04    0.49      52.9  T
   3   -194.1405571 -0.397199E-08  0.986E-05    0.49      95.0  T
     SCC iter.                  ...        0 min,  0.075 sec
     gradient                   ...        0 min,  0.152 sec
 * total energy  :  -190.4779144 Eh     change       -0.1244268E-07 Eh
   gradient norm :     1.1860770 Eh/α   predicted     0.0000000E+00 (-100.00%)
   displ. norm   :     0.5646635 α      lambda       -0.5443754E+00
   maximum displ.:     0.1867837 α      in ANC's #336, #335, #212, ...

........................................................................
.............................. CYCLE    2 ..............................
........................................................................
   1   -194.2236983 -0.194224E+03  0.489E-01    0.69       0.0  T
   2   -194.2124585  0.112398E-01  0.498E-01    0.67       1.0  T
   3   -194.2343429 -0.218843E-01  0.237E-01    0.68       1.0  T
   4   -194.2317016  0.264127E-02  0.169E-01    0.74       1.0  T
   5   -194.2347743 -0.307271E-02  0.100E-01    0.71       1.0  T
   6   -194.2363763 -0.160204E-02  0.290E-02    0.70       1.0  T
   7   -194.2364971 -0.120762E-03  0.864E-03    0.71       1.1  T
   8   -194.2365014 -0.434202E-05  0.536E-03    0.71       1.7  T
   9   -194.2365017 -0.313243E-06  0.403E-03    0.71       2.3  T
  10   -194.2365033 -0.154720E-05  0.228E-03    0.71       4.1  T
  11   -194.2365039 -0.642399E-06  0.111E-03    0.71       8.4  T
  12   -194.2365041 -0.158709E-06  0.382E-04    0.71      24.5  T
  13   -194.2365041 -0.106842E-07  0.178E-04    0.71      52.7  T
     SCC iter.                  ...        0 min,  0.313 sec
     gradient                   ...        0 min,  0.152 sec
 * total energy  :  -190.8248457 Eh     change       -0.3469314E+00 Eh
   gradient norm :     0.3755066 Eh/α   predicted    -0.3589832E+00 (   3.47%)
   displ. norm   :     0.6679777 α      lambda       -0.1981463E+00
   maximum displ.:     0.1927695 α      in ANC's #143, #33, #214, ...

........................................................................
.............................. CYCLE    3 ..............................
........................................................................
   1   -194.3189678 -0.194319E+03  0.405E-01    0.73       0.0  T
   2   -194.3137165  0.525129E-02  0.367E-01    0.76       1.0  T
   3   -194.3217182 -0.800172E-02  0.206E-01    0.77       1.0  T
   4   -194.3233434 -0.162517E-02  0.798E-02    0.77       1.0  T
   5   -194.3234636 -0.120197E-03  0.723E-02    0.77       1.0  T
   6   -194.3243920 -0.928490E-03  0.140E-02    0.77       1.0  T
   7   -194.3244081 -0.160324E-04  0.657E-03    0.77       1.4  T
   8   -194.3244100 -0.195851E-05  0.464E-03    0.77       2.0  T
   9   -194.3244118 -0.173069E-05  0.204E-03    0.77       4.6  T
  10   -194.3244122 -0.394202E-06  0.120E-03    0.77       7.8  T
  11   -194.3244123 -0.186989E-06  0.462E-04    0.77      20.3  T
  12   -194.3244124 -0.152447E-07  0.288E-04    0.77      32.6  T
     SCC iter.                  ...        0 min,  0.287 sec
     gradient                   ...        0 min,  0.152 sec
 * total energy  :  -190.9914753 Eh     change       -0.1666296E+00 Eh
   gradient norm :     0.2276904 Eh/α   predicted    -0.1432790E+00 ( -14.01%)
   displ. norm   :     0.8116361 α      lambda       -0.1617587E+00
   maximum displ.:     0.3215852 α      in ANC's #33, #143, #162, ...

........................................................................
.............................. CYCLE    4 ..............................
........................................................................
   1   -194.3934426 -0.194393E+03  0.395E-01    0.65       0.0  T
   2   -194.3886724  0.477017E-02  0.386E-01    0.66       1.0  T
   3   -194.3975924 -0.891998E-02  0.184E-01    0.66       1.0  T
   4   -194.3970545  0.537927E-03  0.106E-01    0.66       1.0  T
   5   -194.3981815 -0.112702E-02  0.710E-02    0.66       1.0  T
   6   -194.3990483 -0.866832E-03  0.142E-02    0.66       1.0  T
   7   -194.3990615 -0.131967E-04  0.751E-03    0.66       1.2  T
   8   -194.3990644 -0.290257E-05  0.487E-03    0.66       1.9  T
   9   -194.3990666 -0.223406E-05  0.136E-03    0.66       6.9  T
  10   -194.3990668 -0.191484E-06  0.629E-04    0.66      14.9  T
  11   -194.3990669 -0.222031E-07  0.445E-04    0.66      21.0  T
     SCC iter.                  ...        0 min,  0.267 sec
     gradient                   ...        0 min,  0.152 sec
 * total energy  :  -191.1218144 Eh     change       -0.1303391E+00 Eh
   gradient norm :     0.1316143 Eh/α   predicted    -0.1341590E+00 (   2.93%)
   displ. norm   :     0.7846244 α      lambda       -0.8701169E-01
   maximum displ.:     0.4363338 α      in ANC's #33, #143, #63, ...

........................................................................
.............................. CYCLE    5 ..............................
........................................................................
   1   -194.4467642 -0.194447E+03  0.295E-01    0.51       0.0  T
   2   -194.4432492  0.351500E-02  0.313E-01    0.53       1.0  T
   3   -194.4500833 -0.683411E-02  0.142E-01    0.52       1.0  T
   4   -194.4495886  0.494666E-03  0.644E-02    0.52       1.0  T
   5   -194.4501184 -0.529811E-03  0.309E-02    0.52       1.0  T
   6   -194.4502875 -0.169020E-03  0.106E-02    0.52       1.0  T
   7   -194.4502972 -0.979420E-05  0.491E-03    0.52       1.9  T
   8   -194.4502981 -0.840509E-06  0.272E-03    0.52       3.4  T
   9   -194.4502988 -0.699277E-06  0.852E-04    0.52      11.0  T
  10   -194.4502989 -0.724304E-07  0.470E-04    0.52      19.9  T
     SCC iter.                  ...        0 min,  0.239 sec
     gradient                   ...        0 min,  0.152 sec
 * total energy  :  -191.1729778 Eh     change       -0.5116338E-01 Eh
   gradient norm :     0.1228338 Eh/α   predicted    -0.7028958E-01 (  37.38%)
   displ. norm   :     0.6370254 α      lambda       -0.4062146E-01
   maximum displ.:     0.2727939 α      in ANC's #33, #23, #63, ...

........................................................................
.............................. CYCLE    6 ..............................
........................................................................
   1   -194.5100158 -0.194510E+03  0.182E-01    0.60       0.0  T
   2   -194.5100719 -0.561002E-04  0.120E-01    0.60       1.0  T
   3   -194.5091325  0.939396E-03  0.926E-02    0.60       1.0  T
   4   -194.5100095 -0.877055E-03  0.461E-02    0.60       1.0  T
   5   -194.5103273 -0.317792E-03  0.123E-02    0.60       1.0  T
   6   -194.5103444 -0.170522E-04  0.528E-03    0.60       1.8  T
   7   -194.5103487 -0.436565E-05  0.195E-03    0.60       4.8  T
   8   -194.5103487  0.890807E-07  0.128E-03    0.60       7.3  T
   9   -194.5103489 -0.272704E-06  0.455E-04    0.60      20.6  T
  10   -194.5103490 -0.282152E-07  0.194E-04    0.60      48.3  T
     SCC iter.                  ...        0 min,  0.241 sec
     gradient                   ...        0 min,  0.152 sec
 * total energy  :  -191.2059345 Eh     change       -0.3295668E-01 Eh
   gradient norm :     0.0563860 Eh/α   predicted    -0.2855292E-01 ( -13.36%)
   displ. norm   :     0.8443291 α      lambda       -0.3428984E-01
   maximum displ.:     0.4391223 α      in ANC's #33, #23, #24, ...

........................................................................
.............................. CYCLE    7 ..............................
........................................................................
   1   -194.5840395 -0.194584E+03  0.180E-01    0.64       0.0  T
   2   -194.5840211  0.184163E-04  0.119E-01    0.63       1.0  T
   3   -194.5819344  0.208662E-02  0.103E-01    0.64       1.0  T
   4   -194.5840739 -0.213944E-02  0.375E-02    0.64       1.0  T
   5   -194.5842912 -0.217298E-03  0.120E-02    0.63       1.0  T
   6   -194.5843087 -0.175226E-04  0.438E-03    0.64       2.1  T
   7   -194.5843109 -0.215102E-05  0.169E-03    0.64       5.5  T
   8   -194.5843108  0.756823E-07  0.116E-03    0.64       8.1  T
   9   -194.5843110 -0.176121E-06  0.329E-04    0.64      28.5  T
  10   -194.5843110 -0.706825E-08  0.202E-04    0.64      46.3  T
     SCC iter.                  ...        0 min,  0.264 sec
     gradient                   ...        0 min,  0.152 sec
 * total energy  :  -191.2355831 Eh     change       -0.2964858E-01 Eh
   gradient norm :     0.0482656 Eh/α   predicted    -0.2936739E-01 (  -0.95%)
   displ. norm   :     0.8652209 α      lambda       -0.2699770E-01
   maximum displ.:     0.4346545 α      in ANC's #23, #33, #24, ...

........................................................................
.............................. CYCLE    8 ..............................
........................................................................
   1   -194.6415191 -0.194642E+03  0.163E-01    0.67       0.0  T
   2   -194.6415542 -0.350735E-04  0.975E-02    0.67       1.0  T
   3   -194.6408862  0.668031E-03  0.605E-02    0.67       1.0  T
   4   -194.6415282 -0.642082E-03  0.215E-02    0.67       1.0  T
   5   -194.6416106 -0.824023E-04  0.483E-03    0.67       1.9  T
   6   -194.6416128 -0.215504E-05  0.251E-03    0.67       3.7  T
   7   -194.6416134 -0.588346E-06  0.118E-03    0.67       7.9  T
   8   -194.6416134 -0.420668E-07  0.567E-04    0.67      16.5  T
   9   -194.6416135 -0.393800E-07  0.213E-04    0.67      44.0  T
     SCC iter.                  ...        0 min,  0.218 sec
     gradient                   ...        0 min,  0.152 sec
 * total energy  :  -191.2596658 Eh     change       -0.2408277E-01 Eh
   gradient norm :     0.0391268 Eh/α   predicted    -0.2360418E-01 (  -1.99%)
   displ. norm   :     0.8880756 α      lambda       -0.2329739E-01
   maximum displ.:     0.5031024 α      in ANC's #23, #33, #24, ...

........................................................................
.............................. CYCLE    9 ..............................
........................................................................
   1   -194.6901520 -0.194690E+03  0.161E-01    0.71       0.0  T
   2   -194.6901460  0.600111E-05  0.988E-02    0.70       1.0  T
   3   -194.6892030  0.943072E-03  0.824E-02    0.71       1.0  T
   4   -194.6902234 -0.102046E-02  0.161E-02    0.70       1.0  T
   5   -194.6902673 -0.438937E-04  0.398E-03    0.70       2.4  T
   6   -194.6902688 -0.143692E-05  0.234E-03    0.70       4.0  T
   7   -194.6902692 -0.436091E-06  0.113E-03    0.70       8.3  T
   8   -194.6902692 -0.317542E-07  0.625E-04    0.70      15.0  T
   9   -194.6902693 -0.592441E-07  0.244E-04    0.70      38.3  T
     SCC iter.                  ...        0 min,  0.218 sec
     gradient                   ...        0 min,  0.153 sec
 * total energy  :  -191.2799046 Eh     change       -0.2023880E-01 Eh
   gradient norm :     0.0395831 Eh/α   predicted    -0.2083576E-01 (   2.95%)
   displ. norm   :     0.8945370 α      lambda       -0.2115215E-01
   maximum displ.:     0.5367941 α      in ANC's #23, #24, #33, ...

........................................................................
.............................. CYCLE   10 ..............................
........................................................................
   1   -194.7266889 -0.194727E+03  0.166E-01    0.73       0.0  T
   2   -194.7265967  0.921816E-04  0.111E-01    0.73       1.0  T
   3   -194.7256385  0.958244E-03  0.945E-02    0.73       1.0  T
   4   -194.7268494 -0.121097E-02  0.187E-02    0.73       1.0  T
   5   -194.7269095 -0.600698E-04  0.435E-03    0.73       2.2  T
   6   -194.7269114 -0.192373E-05  0.231E-03    0.73       4.1  T
   7   -194.7269117 -0.311159E-06  0.124E-03    0.73       7.6  T
   8   -194.7269118 -0.782651E-07  0.509E-04    0.73      18.4  T
   9   -194.7269118 -0.303729E-07  0.194E-04    0.73      48.4  T
     SCC iter.                  ...        0 min,  0.213 sec
     gradient                   ...        0 min,  0.153 sec
 * total energy  :  -191.2966660 Eh     change       -0.1676140E-01 Eh
   gradient norm :     0.0447934 Eh/α   predicted    -0.1903901E-01 (  13.59%)
   displ. norm   :     0.8517848 α      lambda       -0.1718079E-01
   maximum displ.:     0.5576971 α      in ANC's #23, #24, #31, ...

........................................................................
.............................. CYCLE   11 ..............................
........................................................................
   1   -194.7493532 -0.194749E+03  0.160E-01    0.75       0.0  T
   2   -194.7493245  0.287257E-04  0.984E-02    0.75       1.0  T
   3   -194.7483334  0.991022E-03  0.860E-02    0.75       1.0  T
   4   -194.7494242 -0.109074E-02  0.115E-02    0.75       1.0  T
   5   -194.7494454 -0.211805E-04  0.308E-03    0.75       3.0  T
   6   -194.7494461 -0.790271E-06  0.182E-03    0.75       5.2  T
   7   -194.7494464 -0.202978E-06  0.942E-04    0.75       9.9  T
   8   -194.7494464 -0.617730E-07  0.421E-04    0.75      22.3  T
     SCC iter.                  ...        0 min,  0.193 sec
     gradient                   ...        0 min,  0.153 sec
 * total energy  :  -191.3114244 Eh     change       -0.1475833E-01 Eh
   gradient norm :     0.0297229 Eh/α   predicted    -0.1482307E-01 (   0.44%)
   displ. norm   :     0.8743858 α      lambda       -0.1421059E-01
   maximum displ.:     0.5999036 α      in ANC's #23, #24, #31, ...

........................................................................
.............................. CYCLE   12 ..............................
........................................................................
   1   -194.7737120 -0.194774E+03  0.162E-01    0.78       0.0  T
   2   -194.7737205 -0.849642E-05  0.949E-02    0.77       1.0  T
   3   -194.7733084  0.412095E-03  0.468E-02    0.78       1.0  T
   4   -194.7737299 -0.421459E-03  0.103E-02    0.78       1.0  T
   5   -194.7737492 -0.193614E-04  0.216E-03    0.78       4.3  T
   6   -194.7737493 -0.101897E-06  0.146E-03    0.77       6.4  T
   7   -194.7737494 -0.106661E-06  0.611E-04    0.78      15.3  T
   8   -194.7737495 -0.386017E-07  0.220E-04    0.78      42.5  T
     SCC iter.                  ...        0 min,  0.195 sec
     gradient                   ...        0 min,  0.153 sec
 * total energy  :  -191.3241657 Eh     change       -0.1274132E-01 Eh
   gradient norm :     0.0278345 Eh/α   predicted    -0.1253765E-01 (  -1.60%)
   displ. norm   :     0.8836601 α      lambda       -0.1278824E-01
   maximum displ.:     0.6201327 α      in ANC's #23, #24, #31, ...

........................................................................
.............................. CYCLE   13 ..............................
........................................................................
   1   -194.7873859 -0.194787E+03  0.166E-01    0.79       0.0  T
   2   -194.7873909 -0.497194E-05  0.973E-02    0.79       1.0  T
   3   -194.7868632  0.527713E-03  0.541E-02    0.79       1.0  T
   4   -194.7874121 -0.548864E-03  0.912E-03    0.79       1.0  T
   5   -194.7874256 -0.135126E-04  0.239E-03    0.79       3.9  T
   6   -194.7874258 -0.192086E-06  0.172E-03    0.79       5.4  T
   7   -194.7874261 -0.304706E-06  0.677E-04    0.79      13.8  T
   8   -194.7874261 -0.361943E-07  0.330E-04    0.79      28.4  T
     SCC iter.                  ...        0 min,  0.190 sec
     gradient                   ...        0 min,  0.152 sec
 * total energy  :  -191.3355318 Eh     change       -0.1136609E-01 Eh
   gradient norm :     0.0242640 Eh/α   predicted    -0.1138700E-01 (   0.18%)
   displ. norm   :     0.8846527 α      lambda       -0.1126408E-01
   maximum displ.:     0.6317353 α      in ANC's #23, #24, #31, ...

........................................................................
.............................. CYCLE   14 ..............................
........................................................................
   1   -194.7995730 -0.194800E+03  0.170E-01    0.82       0.0  T
   2   -194.7995895 -0.164851E-04  0.988E-02    0.81       1.0  T
   3   -194.7992958  0.293703E-03  0.407E-02    0.82       1.0  T
   4   -194.7995906 -0.294783E-03  0.110E-02    0.82       1.0  T
   5   -194.7996124 -0.218955E-04  0.245E-03    0.82       3.8  T
   6   -194.7996126 -0.193926E-06  0.164E-03    0.82       5.7  T
   7   -194.7996128 -0.163108E-06  0.704E-04    0.82      13.3  T
   8   -194.7996129 -0.552991E-07  0.338E-04    0.82      27.7  T
     SCC iter.                  ...        0 min,  0.193 sec
     gradient                   ...        0 min,  0.153 sec
 * total energy  :  -191.3452958 Eh     change       -0.9764053E-02 Eh
   gradient norm :     0.0202397 Eh/α   predicted    -0.1003974E-01 (   2.82%)
   displ. norm   :     0.8704561 α      lambda       -0.9391741E-02
   maximum displ.:     0.6234694 α      in ANC's #23, #24, #27, ...

........................................................................
.............................. CYCLE   15 ..............................
........................................................................
   1   -194.8014223 -0.194801E+03  0.174E-01    0.84       0.0  T
   2   -194.8014311 -0.872650E-05  0.101E-01    0.84       1.0  T
   3   -194.8010623  0.368757E-03  0.442E-02    0.84       1.0  T
   4   -194.8014421 -0.379765E-03  0.901E-03    0.84       1.0  T
   5   -194.8014557 -0.135796E-04  0.221E-03    0.84       4.2  T
   6   -194.8014558 -0.879428E-07  0.148E-03    0.84       6.3  T
   7   -194.8014558 -0.813917E-07  0.732E-04    0.84      12.8  T
   8   -194.8014559 -0.930720E-07  0.301E-04    0.84      31.1  T
     SCC iter.                  ...        0 min,  0.193 sec
     gradient                   ...        0 min,  0.153 sec
 * total energy  :  -191.3533258 Eh     change       -0.8029971E-02 Eh
   gradient norm :     0.0196717 Eh/α   predicted    -0.8253911E-02 (   2.79%)
   displ. norm   :     0.8420492 α      lambda       -0.7603041E-02
   maximum displ.:     0.5985541 α      in ANC's #23, #24, #10, ...

........................................................................
.............................. CYCLE   16 ..............................
........................................................................
   1   -194.8092568 -0.194809E+03  0.160E-01    0.85       0.0  T
   2   -194.8092673 -0.104618E-04  0.936E-02    0.85       1.0  T
   3   -194.8090163  0.250975E-03  0.394E-02    0.85       1.0  T
   4   -194.8092761 -0.259760E-03  0.775E-03    0.85       1.2  T
   5   -194.8092853 -0.926125E-05  0.229E-03    0.85       4.1  T
   6   -194.8092855 -0.182528E-06  0.157E-03    0.85       5.9  T
   7   -194.8092858 -0.231927E-06  0.733E-04    0.85      12.8  T
   8   -194.8092858 -0.703650E-07  0.305E-04    0.85      30.7  T
     SCC iter.                  ...        0 min,  0.194 sec
     gradient                   ...        0 min,  0.153 sec
 * total energy  :  -191.3596292 Eh     change       -0.6303404E-02 Eh
   gradient norm :     0.0212744 Eh/α   predicted    -0.6496978E-02 (   3.07%)
   displ. norm   :     0.8170743 α      lambda       -0.6192619E-02
   maximum displ.:     0.5524825 α      in ANC's #23, #24, #10, ...

........................................................................
.............................. CYCLE   17 ..............................
........................................................................
   1   -194.8143174 -0.194814E+03  0.168E-01    0.87       0.0  T
   2   -194.8143275 -0.101259E-04  0.982E-02    0.87       1.0  T
   3   -194.8141901  0.137396E-03  0.290E-02    0.87       1.0  T
   4   -194.8143324 -0.142260E-03  0.642E-03    0.87       1.5  T
   5   -194.8143392 -0.685859E-05  0.217E-03    0.87       4.3  T
   6   -194.8143394 -0.140878E-06  0.142E-03    0.87       6.6  T
   7   -194.8143395 -0.132772E-06  0.618E-04    0.87      15.1  T
   8   -194.8143396 -0.628973E-07  0.199E-04    0.87      47.0  T
     SCC iter.                  ...        0 min,  0.196 sec
     gradient                   ...        0 min,  0.154 sec
 * total energy  :  -191.3644043 Eh     change       -0.4775065E-02 Eh
   gradient norm :     0.0193076 Eh/α   predicted    -0.5163433E-02 (   8.13%)
   displ. norm   :     0.7622591 α      lambda       -0.4708607E-02
   maximum displ.:     0.5053191 α      in ANC's #23, #24, #10, ...

........................................................................
.............................. CYCLE   18 ..............................
........................................................................
   1   -194.8228790 -0.194823E+03  0.153E-01    0.88       0.0  T
   2   -194.8228861 -0.709481E-05  0.896E-02    0.88       1.0  T
   3   -194.8227401  0.146050E-03  0.303E-02    0.88       1.0  T
   4   -194.8228930 -0.152891E-03  0.551E-03    0.88       1.7  T
   5   -194.8228974 -0.440400E-05  0.200E-03    0.88       4.7  T
   6   -194.8228974 -0.653217E-07  0.140E-03    0.88       6.7  T
   7   -194.8228976 -0.222367E-06  0.652E-04    0.88      14.4  T
   8   -194.8228977 -0.707537E-07  0.205E-04    0.88      45.6  T
     SCC iter.                  ...        0 min,  0.195 sec
     gradient                   ...        0 min,  0.154 sec
 * total energy  :  -191.3679499 Eh     change       -0.3545641E-02 Eh
   gradient norm :     0.0194973 Eh/α   predicted    -0.3722249E-02 (   4.98%)
   displ. norm   :     0.6959729 α      lambda       -0.3240574E-02
   maximum displ.:     0.4317948 α      in ANC's #23, #24, #10, ...

........................................................................
.............................. CYCLE   19 ..............................
........................................................................
   1   -194.8301260 -0.194830E+03  0.126E-01    0.88       0.0  T
   2   -194.8301322 -0.618193E-05  0.739E-02    0.88       1.0  T
   3   -194.8300491  0.830531E-04  0.224E-02    0.88       1.0  T
   4   -194.8301348 -0.856356E-04  0.497E-03    0.88       1.9  T
   5   -194.8301388 -0.407810E-05  0.185E-03    0.88       5.1  T
   6   -194.8301390 -0.182099E-06  0.107E-03    0.88       8.8  T
   7   -194.8301391 -0.463650E-07  0.647E-04    0.88      14.5  T
   8   -194.8301392 -0.856605E-07  0.162E-04    0.88      57.6  T
     SCC iter.                  ...        0 min,  0.193 sec
     gradient                   ...        0 min,  0.154 sec
 * total energy  :  -191.3702522 Eh     change       -0.2302262E-02 Eh
   gradient norm :     0.0169802 Eh/α   predicted    -0.2405117E-02 (   4.47%)
   displ. norm   :     0.6562653 α      lambda       -0.2454099E-02
   maximum displ.:     0.3506417 α      in ANC's #23, #24, #10, ...

........................................................................
.............................. CYCLE   20 ..............................
........................................................................
   1   -194.8440496 -0.194844E+03  0.128E-01    0.87       0.0  T
   2   -194.8440558 -0.627910E-05  0.753E-02    0.87       1.0  T
   3   -194.8440035  0.523283E-04  0.160E-02    0.87       1.0  T
   4   -194.8440560 -0.525146E-04  0.495E-03    0.87       1.9  T
   5   -194.8440605 -0.444229E-05  0.185E-03    0.87       5.1  T
   6   -194.8440607 -0.199524E-06  0.917E-04    0.87      10.2  T
   7   -194.8440607  0.164968E-07  0.604E-04    0.87      15.5  T
     SCC iter.                  ...        0 min,  0.168 sec
     gradient                   ...        0 min,  0.154 sec
 * total energy  :  -191.3714841 Eh     change       -0.1231920E-02 Eh
   gradient norm :     0.0207568 Eh/α   predicted    -0.1755520E-02 (  42.50%)
   displ. norm   :     0.4666348 α      lambda       -0.1513922E-02
   maximum displ.:     0.2525004 α      in ANC's #23, #24, #10, ...
 * RMSD in coord.:     1.1700721 α      energy gain  -0.8935697E+00 Eh

generating ANC from model Hessian ...
Using Lindh-Hessian (1995)
 Shifting diagonal of input Hessian by    1.0026960533578027E-002
 Lowest  eigenvalues of input Hessian
    0.010000    0.000000    0.000000    0.000000    0.000000    0.000000
    0.000000    0.010032    0.010037    0.010059    0.010104    0.010142
    0.010277    0.010614    0.010758    0.010844    0.010874    0.010994
 Highest eigenvalues
    2.230088    2.232702    2.241845    2.246083    2.653000    2.660678


........................................................................
.............................. CYCLE   21 ..............................
........................................................................
   1   -194.8348497 -0.194835E+03  0.860E-02    0.88       0.0  T
   2   -194.8348489  0.780381E-06  0.511E-02    0.88       1.0  T
   3   -194.8346829  0.165922E-03  0.337E-02    0.88       1.0  T
   4   -194.8348602 -0.177286E-03  0.307E-03    0.88       3.0  T
   5   -194.8348611 -0.882218E-06  0.145E-03    0.88       6.5  T
   6   -194.8348611 -0.323518E-07  0.103E-03    0.88       9.1  T
   7   -194.8348613 -0.143127E-06  0.317E-04    0.88      29.5  T
   8   -194.8348613 -0.109171E-07  0.115E-04    0.88      81.7  T
     SCC iter.                  ...        0 min,  0.193 sec
     gradient                   ...        0 min,  0.154 sec
 * total energy  :  -191.3721735 Eh     change       -0.6894032E-03 Eh
   gradient norm :     0.0139703 Eh/α   predicted     0.0000000E+00 (-100.00%)
   displ. norm   :     0.1093152 α      lambda       -0.4717480E-03
   maximum displ.:     0.0553317 α      in ANC's #13, #16, #19, ...

........................................................................
.............................. CYCLE   22 ..............................
........................................................................
   1   -194.8429771 -0.194843E+03  0.255E-02    0.88       0.0  T
   2   -194.8429778 -0.701231E-06  0.150E-02    0.88       1.0  T
   3   -194.8429678  0.995470E-05  0.816E-03    0.88       1.1  T
   4   -194.8429782 -0.104292E-04  0.172E-03    0.88       5.5  T
   5   -194.8429787 -0.434880E-06  0.615E-04    0.88      15.2  T
   6   -194.8429787 -0.139925E-07  0.425E-04    0.88      22.0  T
     SCC iter.                  ...        0 min,  0.143 sec
     gradient                   ...        0 min,  0.154 sec
 * total energy  :  -191.3725134 Eh     change       -0.3399311E-03 Eh
   gradient norm :     0.0056548 Eh/α   predicted    -0.2386955E-03 ( -29.78%)
   displ. norm   :     0.1919459 α      lambda       -0.3054554E-03
   maximum displ.:     0.1075688 α      in ANC's #13, #16, #19, ...

........................................................................
.............................. CYCLE   23 ..............................
........................................................................
   1   -194.8487583 -0.194849E+03  0.316E-02    0.87       0.0  T
   2   -194.8487590 -0.720948E-06  0.185E-02    0.87       1.0  T
   3   -194.8487439  0.150580E-04  0.922E-03    0.87       1.0  T
   4   -194.8487594 -0.154619E-04  0.199E-03    0.87       4.7  T
   5   -194.8487601 -0.727761E-06  0.673E-04    0.87      13.9  T
   6   -194.8487602 -0.376896E-07  0.439E-04    0.87      21.3  T
     SCC iter.                  ...        0 min,  0.145 sec
     gradient                   ...        0 min,  0.154 sec
 * total energy  :  -191.3727261 Eh     change       -0.2126452E-03 Eh
   gradient norm :     0.0037867 Eh/α   predicted    -0.1583690E-03 ( -25.52%)
   displ. norm   :     0.2295174 α      lambda       -0.2049252E-03
   maximum displ.:     0.1288131 α      in ANC's #13, #16, #8, ...

........................................................................
.............................. CYCLE   24 ..............................
........................................................................
   1   -194.8510105 -0.194851E+03  0.337E-02    0.87       0.0  T
   2   -194.8510109 -0.332859E-06  0.198E-02    0.87       1.0  T
   3   -194.8509986  0.122502E-04  0.762E-03    0.87       1.2  T
   4   -194.8510113 -0.126525E-04  0.140E-03    0.87       6.7  T
   5   -194.8510116 -0.351048E-06  0.541E-04    0.87      17.3  T
   6   -194.8510116 -0.161256E-07  0.343E-04    0.87      27.3  T
     SCC iter.                  ...        0 min,  0.147 sec
     gradient                   ...        0 min,  0.154 sec
 * total energy  :  -191.3728922 Eh     change       -0.1661579E-03 Eh
   gradient norm :     0.0064152 Eh/α   predicted    -0.1078609E-03 ( -35.09%)
   displ. norm   :     0.3397160 α      lambda       -0.2676060E-03
   maximum displ.:     0.1841707 α      in ANC's #13, #8, #16, ...

........................................................................
.............................. CYCLE   25 ..............................
........................................................................
   1   -194.8510391 -0.194851E+03  0.489E-02    0.87       0.0  T
   2   -194.8510396 -0.505854E-06  0.287E-02    0.87       1.0  T
   3   -194.8510236  0.159705E-04  0.828E-03    0.87       1.1  T
   4   -194.8510404 -0.167769E-04  0.128E-03    0.87       7.3  T
   5   -194.8510405 -0.165776E-06  0.726E-04    0.87      12.9  T
   6   -194.8510406 -0.301180E-07  0.380E-04    0.87      24.6  T
     SCC iter.                  ...        0 min,  0.145 sec
     gradient                   ...        0 min,  0.154 sec
 * total energy  :  -191.3731056 Eh     change       -0.2133570E-03 Eh
   gradient norm :     0.0067849 Eh/α   predicted    -0.1492457E-03 ( -30.05%)
   displ. norm   :     0.3745932 α      lambda       -0.2360563E-03
   maximum displ.:     0.2051104 α      in ANC's #13, #8, #7, ...

........................................................................
.............................. CYCLE   26 ..............................
........................................................................
   1   -194.8501857 -0.194850E+03  0.521E-02    0.87       0.0  T
   2   -194.8501867 -0.940842E-06  0.305E-02    0.87       1.0  T
   3   -194.8501742  0.124470E-04  0.728E-03    0.87       1.3  T
   4   -194.8501870 -0.127679E-04  0.182E-03    0.87       5.1  T
   5   -194.8501876 -0.574932E-06  0.786E-04    0.87      11.9  T
   6   -194.8501876 -0.464564E-07  0.399E-04    0.87      23.5  T
     SCC iter.                  ...        0 min,  0.145 sec
     gradient                   ...        0 min,  0.154 sec
 * total energy  :  -191.3732835 Eh     change       -0.1779004E-03 Eh
   gradient norm :     0.0049855 Eh/α   predicted    -0.1345900E-03 ( -24.35%)
   displ. norm   :     0.3200895 α      lambda       -0.1502487E-03
   maximum displ.:     0.1788046 α      in ANC's #13, #8, #7, ...

........................................................................
.............................. CYCLE   27 ..............................
........................................................................
   1   -194.8503450 -0.194850E+03  0.421E-02    0.88       0.0  T
   2   -194.8503460 -0.101290E-05  0.246E-02    0.88       1.0  T
   3   -194.8503389  0.710282E-05  0.575E-03    0.88       1.6  T
   4   -194.8503457 -0.677296E-05  0.205E-03    0.88       4.6  T
   5   -194.8503467 -0.940898E-06  0.709E-04    0.88      13.2  T
   6   -194.8503467 -0.584242E-07  0.323E-04    0.88      29.0  T
     SCC iter.                  ...        0 min,  0.145 sec
     gradient                   ...        0 min,  0.158 sec
 * total energy  :  -191.3733992 Eh     change       -0.1157503E-03 Eh
   gradient norm :     0.0032505 Eh/α   predicted    -0.8282390E-04 ( -28.45%)
   displ. norm   :     0.2993426 α      lambda       -0.1257392E-03
   maximum displ.:     0.1674715 α      in ANC's #13, #8, #7, ...

........................................................................
.............................. CYCLE   28 ..............................
........................................................................
   1   -194.8515287 -0.194852E+03  0.374E-02    0.88       0.0  T
   2   -194.8515296 -0.973257E-06  0.219E-02    0.88       1.0  T
   3   -194.8515253  0.431253E-05  0.480E-03    0.88       2.0  T
   4   -194.8515294 -0.410365E-05  0.177E-03    0.88       5.3  T
   5   -194.8515301 -0.659002E-06  0.687E-04    0.88      13.6  T
   6   -194.8515301 -0.657372E-07  0.293E-04    0.88      32.0  T
     SCC iter.                  ...        0 min,  0.145 sec
     gradient                   ...        0 min,  0.154 sec
 * total energy  :  -191.3735000 Eh     change       -0.1007612E-03 Eh
   gradient norm :     0.0031153 Eh/α   predicted    -0.6850525E-04 ( -32.01%)
   displ. norm   :     0.3399907 α      lambda       -0.1370603E-03
   maximum displ.:     0.1846253 α      in ANC's #13, #8, #7, ...

........................................................................
.............................. CYCLE   29 ..............................
........................................................................
   1   -194.8531870 -0.194853E+03  0.418E-02    0.88       0.0  T
   2   -194.8531879 -0.994779E-06  0.244E-02    0.88       1.0  T
   3   -194.8531839  0.402382E-05  0.474E-03    0.88       2.0  T
   4   -194.8531880 -0.408600E-05  0.160E-03    0.88       5.8  T
   5   -194.8531884 -0.438249E-06  0.686E-04    0.88      13.7  T
   6   -194.8531885 -0.463669E-07  0.326E-04    0.88      28.7  T
     SCC iter.                  ...        0 min,  0.142 sec
     gradient                   ...        0 min,  0.154 sec
 * total energy  :  -191.3736096 Eh     change       -0.1096447E-03 Eh
   gradient norm :     0.0043015 Eh/α   predicted    -0.7645208E-04 ( -30.27%)
   displ. norm   :     0.3865087 α      lambda       -0.1444062E-03
   maximum displ.:     0.1982599 α      in ANC's #13, #8, #7, ...

........................................................................
.............................. CYCLE   30 ..............................
........................................................................
   1   -194.8544518 -0.194854E+03  0.483E-02    0.89       0.0  T
   2   -194.8544528 -0.919345E-06  0.283E-02    0.89       1.0  T
   3   -194.8544482  0.453006E-05  0.498E-03    0.89       1.9  T
   4   -194.8544531 -0.490861E-05  0.137E-03    0.89       6.8  T
   5   -194.8544534 -0.209902E-06  0.695E-04    0.89      13.5  T
   6   -194.8544534 -0.266321E-07  0.355E-04    0.89      26.4  T
     SCC iter.                  ...        0 min,  0.145 sec
     gradient                   ...        0 min,  0.155 sec
 * total energy  :  -191.3737253 Eh     change       -0.1156756E-03 Eh
   gradient norm :     0.0049139 Eh/α   predicted    -0.8299041E-04 ( -28.26%)
   displ. norm   :     0.4139704 α      lambda       -0.1494329E-03
   maximum displ.:     0.1948316 α      in ANC's #13, #8, #7, ...

........................................................................
.............................. CYCLE   31 ..............................
........................................................................
   1   -194.8549662 -0.194855E+03  0.536E-02    0.89       0.0  T
   2   -194.8549671 -0.926601E-06  0.314E-02    0.89       1.0  T
   3   -194.8549593  0.783452E-05  0.623E-03    0.89       1.5  T
   4   -194.8549677 -0.843281E-05  0.138E-03    0.89       6.8  T
   5   -194.8549679 -0.151113E-06  0.854E-04    0.89      11.0  T
   6   -194.8549679 -0.566928E-07  0.410E-04    0.89      22.9  T
     SCC iter.                  ...        0 min,  0.145 sec
     gradient                   ...        0 min,  0.154 sec
 * total energy  :  -191.3738459 Eh     change       -0.1205478E-03 Eh
   gradient norm :     0.0043460 Eh/α   predicted    -0.8752534E-04 ( -27.39%)
   displ. norm   :     0.4160422 α      lambda       -0.1547290E-03
   maximum displ.:     0.1746092 α      in ANC's #8, #13, #1, ...

........................................................................
.............................. CYCLE   32 ..............................
........................................................................
   1   -194.8548789 -0.194855E+03  0.558E-02    0.88       0.0  T
   2   -194.8548799 -0.107168E-05  0.327E-02    0.88       1.0  T
   3   -194.8548699  0.100091E-04  0.712E-03    0.88       1.3  T
   4   -194.8548805 -0.105349E-04  0.166E-03    0.88       5.7  T
   5   -194.8548808 -0.351520E-06  0.933E-04    0.88      10.0  T
   6   -194.8548809 -0.914098E-07  0.421E-04    0.88      22.2  T
     SCC iter.                  ...        0 min,  0.145 sec
     gradient                   ...        0 min,  0.154 sec
 * total energy  :  -191.3739691 Eh     change       -0.1232626E-03 Eh
   gradient norm :     0.0035014 Eh/α   predicted    -0.9075769E-04 ( -26.37%)
   displ. norm   :     0.3912146 α      lambda       -0.1448120E-03
   maximum displ.:     0.1727894 α      in ANC's #1, #8, #7, ...

........................................................................
.............................. CYCLE   33 ..............................
........................................................................
   1   -194.8545153 -0.194855E+03  0.528E-02    0.88       0.0  T
   2   -194.8545164 -0.105367E-05  0.309E-02    0.88       1.0  T
   3   -194.8545091  0.724591E-05  0.641E-03    0.88       1.5  T
   4   -194.8545168 -0.763117E-05  0.158E-03    0.88       5.9  T
   5   -194.8545171 -0.345627E-06  0.872E-04    0.88      10.7  T
   6   -194.8545172 -0.878306E-07  0.406E-04    0.88      23.1  T
     SCC iter.                  ...        0 min,  0.142 sec
     gradient                   ...        0 min,  0.155 sec
 * total energy  :  -191.3740810 Eh     change       -0.1119096E-03 Eh
   gradient norm :     0.0039251 Eh/α   predicted    -0.8349127E-04 ( -25.39%)
   displ. norm   :     0.3351030 α      lambda       -0.1142831E-03
   maximum displ.:     0.1586534 α      in ANC's #1, #7, #8, ...

........................................................................
.............................. CYCLE   34 ..............................
........................................................................
   1   -194.8544360 -0.194854E+03  0.431E-02    0.88       0.0  T
   2   -194.8544367 -0.696792E-06  0.252E-02    0.88       1.0  T
   3   -194.8544335  0.318890E-05  0.456E-03    0.88       2.1  T
   4   -194.8544369 -0.347396E-05  0.115E-03    0.88       8.1  T
   5   -194.8544371 -0.146099E-06  0.649E-04    0.88      14.4  T
   6   -194.8544371 -0.317471E-07  0.346E-04    0.88      27.1  T
     SCC iter.                  ...        0 min,  0.145 sec
     gradient                   ...        0 min,  0.154 sec
 * total energy  :  -191.3741683 Eh     change       -0.8730936E-04 Eh
   gradient norm :     0.0043172 Eh/α   predicted    -0.6356315E-04 ( -27.20%)
   displ. norm   :     0.2783011 α      lambda       -0.8771702E-04
   maximum displ.:     0.1417064 α      in ANC's #1, #7, #8, ...

........................................................................
.............................. CYCLE   35 ..............................
........................................................................
   1   -194.8549175 -0.194855E+03  0.331E-02    0.88       0.0  T
   2   -194.8549180 -0.463982E-06  0.193E-02    0.88       1.0  T
   3   -194.8549163  0.164992E-05  0.337E-03    0.88       2.8  T
   4   -194.8549181 -0.179638E-05  0.963E-04    0.88       9.7  T
   5   -194.8549182 -0.113699E-06  0.458E-04    0.88      20.5  T
   6   -194.8549182 -0.865643E-08  0.254E-04    0.88      36.9  T
     SCC iter.                  ...        0 min,  0.145 sec
     gradient                   ...        0 min,  0.154 sec
 * total energy  :  -191.3742367 Eh     change       -0.6836557E-04 Eh
   gradient norm :     0.0036340 Eh/α   predicted    -0.4725604E-04 ( -30.88%)
   displ. norm   :     0.2449342 α      lambda       -0.7596146E-04
   maximum displ.:     0.1336727 α      in ANC's #1, #7, #6, ...

........................................................................
.............................. CYCLE   36 ..............................
........................................................................
   1   -194.8556843 -0.194856E+03  0.272E-02    0.89       0.0  T
   2   -194.8556847 -0.416923E-06  0.158E-02    0.89       1.0  T
   3   -194.8556831  0.167172E-05  0.345E-03    0.89       2.7  T
   4   -194.8556849 -0.179864E-05  0.895E-04    0.89      10.5  T
   5   -194.8556849 -0.945926E-07  0.422E-04    0.89      22.2  T
   6   -194.8556850 -0.143621E-07  0.248E-04    0.89      37.7  T
     SCC iter.                  ...        0 min,  0.144 sec
     gradient                   ...        0 min,  0.154 sec
 * total energy  :  -191.3742975 Eh     change       -0.6079660E-04 Eh
   gradient norm :     0.0024820 Eh/α   predicted    -0.4026175E-04 ( -33.78%)
   displ. norm   :     0.2346596 α      lambda       -0.7322029E-04
   maximum displ.:     0.1351911 α      in ANC's #1, #6, #7, ...

........................................................................
.............................. CYCLE   37 ..............................
........................................................................
   1   -194.8563313 -0.194856E+03  0.252E-02    0.89       0.0  T
   2   -194.8563317 -0.368059E-06  0.147E-02    0.89       1.0  T
   3   -194.8563290  0.261385E-05  0.411E-03    0.89       2.3  T
   4   -194.8563318 -0.278318E-05  0.878E-04    0.89      10.7  T
   5   -194.8563319 -0.912941E-07  0.467E-04    0.89      20.0  T
   6   -194.8563319 -0.303989E-07  0.254E-04    0.89      36.9  T
     SCC iter.                  ...        0 min,  0.144 sec
     gradient                   ...        0 min,  0.154 sec
 * total energy  :  -191.3743569 Eh     change       -0.5940573E-04 Eh
   gradient norm :     0.0024385 Eh/α   predicted    -0.3862625E-04 ( -34.98%)
   displ. norm   :     0.2323290 α      lambda       -0.7096882E-04
   maximum displ.:     0.1388432 α      in ANC's #1, #6, #7, ...

........................................................................
.............................. CYCLE   38 ..............................
........................................................................
   1   -194.8566094 -0.194857E+03  0.245E-02    0.89       0.0  T
   2   -194.8566097 -0.245974E-06  0.143E-02    0.89       1.0  T
   3   -194.8566056  0.405690E-05  0.469E-03    0.89       2.0  T
   4   -194.8566099 -0.427028E-05  0.898E-04    0.89      10.4  T
   5   -194.8566100 -0.115086E-06  0.453E-04    0.89      20.7  T
   6   -194.8566100 -0.228002E-07  0.248E-04    0.89      37.8  T
     SCC iter.                  ...        0 min,  0.145 sec
     gradient                   ...        0 min,  0.155 sec
 * total energy  :  -191.3744149 Eh     change       -0.5797542E-04 Eh
   gradient norm :     0.0032687 Eh/α   predicted    -0.3740013E-04 ( -35.49%)
   displ. norm   :     0.2301815 α      lambda       -0.6705907E-04
   maximum displ.:     0.1408344 α      in ANC's #1, #6, #7, ...

........................................................................
.............................. CYCLE   39 ..............................
........................................................................
   1   -194.8564662 -0.194856E+03  0.236E-02    0.89       0.0  T
   2   -194.8564664 -0.181364E-06  0.139E-02    0.89       1.0  T
   3   -194.8564617  0.466758E-05  0.471E-03    0.89       2.0  T
   4   -194.8564666 -0.488291E-05  0.900E-04    0.89      10.4  T
   5   -194.8564667 -0.116315E-06  0.444E-04    0.89      21.1  T
   6   -194.8564667 -0.181444E-07  0.238E-04    0.89      39.4  T
     SCC iter.                  ...        0 min,  0.145 sec
     gradient                   ...        0 min,  0.155 sec
 * total energy  :  -191.3744702 Eh     change       -0.5526902E-04 Eh
   gradient norm :     0.0034487 Eh/α   predicted    -0.3530870E-04 ( -36.11%)
   displ. norm   :     0.2251739 α      lambda       -0.6242334E-04
   maximum displ.:     0.1401355 α      in ANC's #1, #6, #7, ...

........................................................................
.............................. CYCLE   40 ..............................
........................................................................
   1   -194.8560496 -0.194856E+03  0.224E-02    0.89       0.0  T
   2   -194.8560498 -0.218427E-06  0.131E-02    0.89       1.0  T
   3   -194.8560455  0.426555E-05  0.436E-03    0.89       2.1  T
   4   -194.8560499 -0.437701E-05  0.102E-03    0.89       9.2  T
   5   -194.8560501 -0.177501E-06  0.461E-04    0.89      20.3  T
   6   -194.8560501 -0.233481E-07  0.223E-04    0.89      42.0  T
     SCC iter.                  ...        0 min,  0.142 sec
     gradient                   ...        0 min,  0.154 sec
 * total energy  :  -191.3745220 Eh     change       -0.5180482E-04 Eh
   gradient norm :     0.0027820 Eh/α   predicted    -0.3279513E-04 ( -36.69%)
   displ. norm   :     0.2239182 α      lambda       -0.5872804E-04
   maximum displ.:     0.1412864 α      in ANC's #1, #6, #7, ...

........................................................................
.............................. CYCLE   41 ..............................
........................................................................
   1   -194.8554169 -0.194855E+03  0.217E-02    0.89       0.0  T
   2   -194.8554171 -0.281019E-06  0.127E-02    0.89       1.0  T
   3   -194.8554137  0.341035E-05  0.395E-03    0.89       2.4  T
   4   -194.8554171 -0.338664E-05  0.116E-03    0.89       8.1  T
   5   -194.8554174 -0.270424E-06  0.458E-04    0.89      20.5  T
   6   -194.8554174 -0.247572E-07  0.209E-04    0.89      44.9  T
     SCC iter.                  ...        0 min,  0.144 sec
     gradient                   ...        0 min,  0.154 sec
 * total energy  :  -191.3745712 Eh     change       -0.4920034E-04 Eh
   gradient norm :     0.0020952 Eh/α   predicted    -0.3084486E-04 ( -37.31%)
   displ. norm   :     0.2308129 α      lambda       -0.5780117E-04
   maximum displ.:     0.1467524 α      in ANC's #1, #6, #7, ...

........................................................................
.............................. CYCLE   42 ..............................
........................................................................
   1   -194.8547612 -0.194855E+03  0.222E-02    0.89       0.0  T
   2   -194.8547615 -0.289324E-06  0.130E-02    0.89       1.0  T
   3   -194.8547590  0.250285E-05  0.355E-03    0.89       2.6  T
   4   -194.8547615 -0.247400E-05  0.108E-03    0.89       8.6  T
   5   -194.8547617 -0.232708E-06  0.446E-04    0.89      21.0  T
   6   -194.8547617 -0.250246E-07  0.199E-04    0.89      47.2  T
     SCC iter.                  ...        0 min,  0.145 sec
     gradient                   ...        0 min,  0.155 sec
 * total energy  :  -191.3746204 Eh     change       -0.4926115E-04 Eh
   gradient norm :     0.0024016 Eh/α   predicted    -0.3044166E-04 ( -38.20%)
   displ. norm   :     0.2540438 α      lambda       -0.6279625E-04
   maximum displ.:     0.1628579 α      in ANC's #1, #6, #7, ...
 * RMSD in coord.:     0.4715905 α      energy gain  -0.3136335E-02 Eh

generating ANC from model Hessian ...
Using Lindh-Hessian (1995)
 Shifting diagonal of input Hessian by    1.0019813053269190E-002
 Lowest  eigenvalues of input Hessian
    0.010000    0.010019    0.000000    0.000000    0.000000    0.000000
    0.000000    0.000000    0.010040    0.010047    0.010070    0.010125
    0.010292    0.010608    0.010790    0.010863    0.010880    0.010983
 Highest eigenvalues
    2.235550    2.239093    2.246911    2.247646    2.666290    2.670728


........................................................................
.............................. CYCLE   43 ..............................
........................................................................
   1   -194.8539184 -0.194854E+03  0.248E-02    0.89       0.0  T
   2   -194.8539187 -0.288951E-06  0.145E-02    0.89       1.0  T
   3   -194.8539168  0.189015E-05  0.325E-03    0.89       2.9  T
   4   -194.8539187 -0.193730E-05  0.934E-04    0.89      10.0  T
   5   -194.8539189 -0.141461E-06  0.446E-04    0.89      21.0  T
   6   -194.8539189 -0.217098E-07  0.210E-04    0.89      44.6  T
     SCC iter.                  ...        0 min,  0.143 sec
     gradient                   ...        0 min,  0.154 sec
 * total energy  :  -191.3746747 Eh     change       -0.5426225E-04 Eh
   gradient norm :     0.0031479 Eh/α   predicted     0.0000000E+00 (-100.00%)
   displ. norm   :     0.0373945 α      lambda       -0.1304683E-04
   maximum displ.:     0.0222247 α      in ANC's #1, #12, #3, ...

........................................................................
.............................. CYCLE   44 ..............................
........................................................................
   1   -194.8542785 -0.194854E+03  0.828E-03    0.89       0.0  T
   2   -194.8542785 -0.714151E-07  0.487E-03    0.89       1.9  T
   3   -194.8542783  0.249802E-06  0.131E-03    0.89       7.2  T
   4   -194.8542785 -0.247884E-06  0.412E-04    0.89      22.7  T
   5   -194.8542786 -0.289913E-07  0.167E-04    0.89      56.2  T
     SCC iter.                  ...        0 min,  0.121 sec
     gradient                   ...        0 min,  0.154 sec
 * total energy  :  -191.3746981 Eh     change       -0.2339077E-04 Eh
   gradient norm :     0.0019672 Eh/α   predicted    -0.1368488E-04 ( -41.49%)
   displ. norm   :     0.1966801 α      lambda       -0.6792575E-04
   maximum displ.:     0.1152860 α      in ANC's #1, #3, #12, ...

........................................................................
.............................. CYCLE   45 ..............................
........................................................................
   1   -194.8550450 -0.194855E+03  0.327E-02    0.90       0.0  T
   2   -194.8550462 -0.119471E-05  0.191E-02    0.90       1.0  T
   3   -194.8550410  0.521344E-05  0.562E-03    0.90       1.7  T
   4   -194.8550458 -0.478030E-05  0.212E-03    0.90       4.4  T
   5   -194.8550467 -0.927724E-06  0.749E-04    0.90      12.5  T
   6   -194.8550468 -0.878425E-07  0.300E-04    0.90      31.3  T
     SCC iter.                  ...        0 min,  0.146 sec
     gradient                   ...        0 min,  0.155 sec
 * total energy  :  -191.3747511 Eh     change       -0.5303247E-04 Eh
   gradient norm :     0.0036234 Eh/α   predicted    -0.3454836E-04 ( -34.85%)
   displ. norm   :     0.0589412 α      lambda       -0.2285820E-04
   maximum displ.:     0.0390354 α      in ANC's #1, #3, #9, ...

........................................................................
.............................. CYCLE   46 ..............................
........................................................................
   1   -194.8550294 -0.194855E+03  0.850E-03    0.90       0.0  T
   2   -194.8550294 -0.147816E-08  0.502E-03    0.90       1.9  T
   3   -194.8550284  0.983372E-06  0.203E-03    0.90       4.6  T
   4   -194.8550294 -0.102566E-05  0.262E-04    0.90      35.7  T
   5   -194.8550294 -0.880979E-08  0.141E-04    0.90      66.5  T
   6   -194.8550294 -0.152784E-08  0.772E-05    0.90     121.3  T
     SCC iter.                  ...        0 min,  0.145 sec
     gradient                   ...        0 min,  0.154 sec
 * total energy  :  -191.3747716 Eh     change       -0.2050708E-04 Eh
   gradient norm :     0.0032131 Eh/α   predicted    -0.1146958E-04 ( -44.07%)
   displ. norm   :     0.1546033 α      lambda       -0.6118980E-04
   maximum displ.:     0.0986333 α      in ANC's #1, #3, #9, ...

........................................................................
.............................. CYCLE   47 ..............................
........................................................................
   1   -194.8547795 -0.194855E+03  0.214E-02    0.90       0.0  T
   2   -194.8547797 -0.222741E-06  0.126E-02    0.90       1.0  T
   3   -194.8547780  0.170771E-05  0.306E-03    0.90       3.1  T
   4   -194.8547797 -0.171113E-05  0.889E-04    0.90      10.5  T
   5   -194.8547799 -0.145213E-06  0.362E-04    0.90      25.9  T
   6   -194.8547799 -0.135913E-07  0.199E-04    0.90      47.1  T
     SCC iter.                  ...        0 min,  0.142 sec
     gradient                   ...        0 min,  0.154 sec
 * total energy  :  -191.3748198 Eh     change       -0.4818296E-04 Eh
   gradient norm :     0.0013811 Eh/α   predicted    -0.3132638E-04 ( -34.98%)
   displ. norm   :     0.3108819 α      lambda       -0.5335276E-04
   maximum displ.:     0.1987774 α      in ANC's #1, #3, #9, ...

........................................................................
.............................. CYCLE   48 ..............................
........................................................................
   1   -194.8541169 -0.194854E+03  0.393E-02    0.89       0.0  T
   2   -194.8541175 -0.592523E-06  0.230E-02    0.89       1.0  T
   3   -194.8541114  0.609984E-05  0.540E-03    0.89       1.7  T
   4   -194.8541176 -0.619384E-05  0.144E-03    0.89       6.5  T
   5   -194.8541180 -0.384647E-06  0.629E-04    0.89      14.9  T
   6   -194.8541180 -0.382003E-07  0.329E-04    0.89      28.5  T
     SCC iter.                  ...        0 min,  0.145 sec
     gradient                   ...        0 min,  0.154 sec
 * total energy  :  -191.3748763 Eh     change       -0.5651001E-04 Eh
   gradient norm :     0.0030764 Eh/α   predicted    -0.2782275E-04 ( -50.76%)
   displ. norm   :     0.1424050 α      lambda       -0.3387619E-04
   maximum displ.:     0.0928508 α      in ANC's #1, #3, #9, ...

........................................................................
.............................. CYCLE   49 ..............................
........................................................................
   1   -194.8544381 -0.194854E+03  0.170E-02    0.89       0.0  T
   2   -194.8544382 -0.608489E-07  0.998E-03    0.89       1.0  T
   3   -194.8544366  0.157007E-05  0.254E-03    0.89       3.7  T
   4   -194.8544383 -0.165307E-05  0.397E-04    0.89      23.6  T
   5   -194.8544383 -0.142683E-07  0.234E-04    0.89      40.0  T
   6   -194.8544383 -0.367319E-08  0.123E-04    0.89      76.2  T
     SCC iter.                  ...        0 min,  0.145 sec
     gradient                   ...        0 min,  0.154 sec
 * total energy  :  -191.3749078 Eh     change       -0.3145414E-04 Eh
   gradient norm :     0.0029783 Eh/α   predicted    -0.1728200E-04 ( -45.06%)
   displ. norm   :     0.1931857 α      lambda       -0.5632863E-04
   maximum displ.:     0.1260548 α      in ANC's #1, #3, #9, ...

........................................................................
.............................. CYCLE   50 ..............................
........................................................................
   1   -194.8551982 -0.194855E+03  0.225E-02    0.89       0.0  T
   2   -194.8551984 -0.155301E-06  0.132E-02    0.89       1.0  T
   3   -194.8551956  0.274982E-05  0.361E-03    0.89       2.6  T
   4   -194.8551985 -0.286271E-05  0.711E-04    0.89      13.2  T
   5   -194.8551985 -0.762418E-07  0.346E-04    0.89      27.1  T
   6   -194.8551986 -0.803865E-08  0.209E-04    0.89      44.9  T
     SCC iter.                  ...        0 min,  0.144 sec
     gradient                   ...        0 min,  0.154 sec
 * total energy  :  -191.3749573 Eh     change       -0.4953877E-04 Eh
   gradient norm :     0.0020758 Eh/α   predicted    -0.2921871E-04 ( -41.02%)
   displ. norm   :     0.2603903 α      lambda       -0.6538181E-04
   maximum displ.:     0.1712923 α      in ANC's #1, #3, #9, ...

........................................................................
.............................. CYCLE   51 ..............................
........................................................................
   1   -194.8556918 -0.194856E+03  0.294E-02    0.90       0.0  T
   2   -194.8556920 -0.282209E-06  0.172E-02    0.90       1.0  T
   3   -194.8556870  0.500874E-05  0.484E-03    0.90       1.9  T
   4   -194.8556923 -0.522136E-05  0.952E-04    0.90       9.8  T
   5   -194.8556924 -0.135885E-06  0.457E-04    0.90      20.5  T
   6   -194.8556924 -0.132790E-07  0.273E-04    0.90      34.3  T
     SCC iter.                  ...        0 min,  0.146 sec
     gradient                   ...        0 min,  0.155 sec
 * total energy  :  -191.3750123 Eh     change       -0.5502178E-04 Eh
   gradient norm :     0.0015361 Eh/α   predicted    -0.3491078E-04 ( -36.55%)
   displ. norm   :     0.3594228 α      lambda       -0.5002132E-04
   maximum displ.:     0.2398960 α      in ANC's #1, #3, #9, ...

........................................................................
.............................. CYCLE   52 ..............................
........................................................................
   1   -194.8557549 -0.194856E+03  0.397E-02    0.90       0.0  T
   2   -194.8557554 -0.514108E-06  0.233E-02    0.90       1.0  T
   3   -194.8557473  0.812818E-05  0.617E-03    0.90       1.5  T
   4   -194.8557558 -0.854734E-05  0.118E-03    0.90       7.9  T
   5   -194.8557560 -0.175258E-06  0.625E-04    0.90      15.0  T
   6   -194.8557560 -0.254119E-07  0.352E-04    0.90      26.6  T
     SCC iter.                  ...        0 min,  0.143 sec
     gradient                   ...        0 min,  0.154 sec
 * total energy  :  -191.3750734 Eh     change       -0.6110584E-04 Eh
   gradient norm :     0.0022133 Eh/α   predicted    -0.2644727E-04 ( -56.72%)
   displ. norm   :     0.1604481 α      lambda       -0.3555820E-04
   maximum displ.:     0.1100868 α      in ANC's #1, #3, #4, ...

........................................................................
.............................. CYCLE   53 ..............................
........................................................................
   1   -194.8559020 -0.194856E+03  0.175E-02    0.90       0.0  T
   2   -194.8559021 -0.908198E-07  0.103E-02    0.90       1.0  T
   3   -194.8559008  0.122048E-05  0.232E-03    0.90       4.0  T
   4   -194.8559021 -0.128910E-05  0.470E-04    0.90      19.9  T
   5   -194.8559021 -0.237594E-07  0.270E-04    0.90      34.6  T
   6   -194.8559021 -0.601574E-08  0.130E-04    0.90      72.0  T
     SCC iter.                  ...        0 min,  0.146 sec
     gradient                   ...        0 min,  0.154 sec
 * total energy  :  -191.3751071 Eh     change       -0.3370229E-04 Eh
   gradient norm :     0.0020760 Eh/α   predicted    -0.1823757E-04 ( -45.89%)
   displ. norm   :     0.1861314 α      lambda       -0.5166760E-04
   maximum displ.:     0.1286006 α      in ANC's #1, #3, #4, ...

........................................................................
.............................. CYCLE   54 ..............................
........................................................................
   1   -194.8560852 -0.194856E+03  0.205E-02    0.90       0.0  T
   2   -194.8560853 -0.155981E-06  0.120E-02    0.90       1.0  T
   3   -194.8560849  0.448160E-06  0.174E-03    0.90       5.4  T
   4   -194.8560854 -0.504382E-06  0.527E-04    0.90      17.8  T
   5   -194.8560854 -0.224444E-07  0.301E-04    0.90      31.1  T
     SCC iter.                  ...        0 min,  0.122 sec
     gradient                   ...        0 min,  0.154 sec
 * total energy  :  -191.3751546 Eh     change       -0.4745535E-04 Eh
   gradient norm :     0.0014528 Eh/α   predicted    -0.2673121E-04 ( -43.67%)
   displ. norm   :     0.3913379 α      lambda       -0.6962378E-04
   maximum displ.:     0.2709828 α      in ANC's #1, #3, #4, ...

........................................................................
.............................. CYCLE   55 ..............................
........................................................................
   1   -194.8556715 -0.194856E+03  0.428E-02    0.90       0.0  T
   2   -194.8556722 -0.640513E-06  0.250E-02    0.90       1.0  T
   3   -194.8556702  0.191666E-05  0.367E-03    0.90       2.6  T
   4   -194.8556724 -0.217865E-05  0.103E-03    0.90       9.1  T
   5   -194.8556725 -0.595765E-07  0.647E-04    0.90      14.5  T
   6   -194.8556725 -0.393429E-07  0.341E-04    0.90      27.5  T
     SCC iter.                  ...        0 min,  0.142 sec
     gradient                   ...        0 min,  0.155 sec
 * total energy  :  -191.3752388 Eh     change       -0.8425952E-04 Eh
   gradient norm :     0.0009313 Eh/α   predicted    -0.3718466E-04 ( -55.87%)
   displ. norm   :     0.3249358 α      lambda       -0.4334090E-04
   maximum displ.:     0.2278232 α      in ANC's #1, #3, #4, ...

........................................................................
.............................. CYCLE   56 ..............................
........................................................................
   1   -194.8555417 -0.194856E+03  0.340E-02    0.90       0.0  T
   2   -194.8555421 -0.382339E-06  0.199E-02    0.90       1.0  T
   3   -194.8555408  0.128717E-05  0.279E-03    0.90       3.4  T
   4   -194.8555423 -0.144326E-05  0.799E-04    0.90      11.7  T
   5   -194.8555423 -0.307791E-07  0.541E-04    0.90      17.3  T
   6   -194.8555423 -0.407007E-07  0.213E-04    0.90      43.9  T
     SCC iter.                  ...        0 min,  0.145 sec
     gradient                   ...        0 min,  0.158 sec
 * total energy  :  -191.3752953 Eh     change       -0.5647362E-04 Eh
   gradient norm :     0.0013697 Eh/α   predicted    -0.2269227E-04 ( -59.82%)
   displ. norm   :     0.2611547 α      lambda       -0.3622538E-04
   maximum displ.:     0.1829123 α      in ANC's #1, #3, #4, ...

........................................................................
.............................. CYCLE   57 ..............................
........................................................................
   1   -194.8559611 -0.194856E+03  0.270E-02    0.90       0.0  T
   2   -194.8559613 -0.211050E-06  0.158E-02    0.90       1.0  T
   3   -194.8559602  0.113566E-05  0.247E-03    0.90       3.8  T
   4   -194.8559614 -0.124499E-05  0.613E-04    0.90      15.3  T
   5   -194.8559614 -0.206108E-07  0.414E-04    0.90      22.6  T
   6   -194.8559614 -0.194485E-07  0.162E-04    0.90      57.8  T
     SCC iter.                  ...        0 min,  0.144 sec
     gradient                   ...        0 min,  0.154 sec
 * total energy  :  -191.3753458 Eh     change       -0.5050224E-04 Eh
   gradient norm :     0.0014635 Eh/α   predicted    -0.1866265E-04 ( -63.05%)
   displ. norm   :     0.3157767 α      lambda       -0.4904827E-04
   maximum displ.:     0.2173938 α      in ANC's #1, #3, #4, ...

........................................................................
.............................. CYCLE   58 ..............................
........................................................................
   1   -194.8562901 -0.194856E+03  0.326E-02    0.91       0.0  T
   2   -194.8562904 -0.308458E-06  0.191E-02    0.91       1.0  T
   3   -194.8562880  0.238380E-05  0.347E-03    0.91       2.7  T
   4   -194.8562906 -0.256840E-05  0.787E-04    0.91      11.9  T
   5   -194.8562907 -0.466020E-07  0.496E-04    0.91      18.9  T
   6   -194.8562907 -0.218396E-07  0.229E-04    0.91      40.9  T
     SCC iter.                  ...        0 min,  0.145 sec
     gradient                   ...        0 min,  0.155 sec
 * total energy  :  -191.3754136 Eh     change       -0.6779895E-04 Eh
   gradient norm :     0.0013863 Eh/α   predicted    -0.2561139E-04 ( -62.22%)
   displ. norm   :     0.4543935 α      lambda       -0.6900143E-04
   maximum displ.:     0.3092813 α      in ANC's #1, #3, #4, ...

........................................................................
.............................. CYCLE   59 ..............................
........................................................................
   1   -194.8561282 -0.194856E+03  0.471E-02    0.91       0.0  T
   2   -194.8561289 -0.646307E-06  0.276E-02    0.91       1.0  T
   3   -194.8561242  0.467956E-05  0.493E-03    0.91       1.9  T
   4   -194.8561293 -0.504567E-05  0.115E-03    0.91       8.2  T
   5   -194.8561294 -0.111281E-06  0.687E-04    0.91      13.6  T
   6   -194.8561294 -0.316153E-07  0.338E-04    0.91      27.7  T
     SCC iter.                  ...        0 min,  0.145 sec
     gradient                   ...        0 min,  0.155 sec
 * total energy  :  -191.3755032 Eh     change       -0.8956101E-04 Eh
   gradient norm :     0.0014708 Eh/α   predicted    -0.3766767E-04 ( -57.94%)
   displ. norm   :     0.5434622 α      lambda       -0.7013666E-04
   maximum displ.:     0.3698354 α      in ANC's #1, #3, #4, ...

........................................................................
.............................. CYCLE   60 ..............................
........................................................................
   1   -194.8558287 -0.194856E+03  0.554E-02    0.91       0.0  T
   2   -194.8558296 -0.955795E-06  0.324E-02    0.91       1.0  T
   3   -194.8558231  0.659353E-05  0.590E-03    0.91       1.6  T
   4   -194.8558302 -0.716827E-05  0.133E-03    0.91       7.0  T
   5   -194.8558303 -0.101965E-06  0.865E-04    0.91      10.8  T
   6   -194.8558304 -0.720509E-07  0.402E-04    0.91      23.3  T
     SCC iter.                  ...        0 min,  0.143 sec
     gradient                   ...        0 min,  0.154 sec
 * total energy  :  -191.3755884 Eh     change       -0.8527093E-04 Eh
   gradient norm :     0.0015058 Eh/α   predicted    -0.3967295E-04 ( -53.47%)
   displ. norm   :     0.5036531 α      lambda       -0.5219874E-04
   maximum displ.:     0.3454672 α      in ANC's #1, #3, #4, ...

........................................................................
.............................. CYCLE   61 ..............................
........................................................................
   1   -194.8559137 -0.194856E+03  0.509E-02    0.92       0.0  T
   2   -194.8559145 -0.783396E-06  0.298E-02    0.92       1.0  T
[...]
eigval :     3160.79  3161.28  3162.05  3162.27  3165.18  3165.53
eigval :     3168.94  3169.04  3173.57  3173.87  3175.60  3176.24
eigval :     3329.31  3332.78  3347.47  3349.32  3355.78  3357.55
 reduced masses (amu)
   1: 11.91   2: 11.85   3: 11.85   4: 11.84   5: 11.80   6: 11.40   7: 11.71   8: 11.58
   9: 11.25  10: 11.43  11: 11.27  12: 11.40  13: 11.51  14: 11.83  15: 11.34  16: 10.87
  17: 11.42  18: 10.93  19: 11.08  20: 11.64  21: 11.35  22: 11.23  23: 11.79  24: 11.14
  25: 11.10  26: 10.88  27: 10.83  28: 10.71  29: 10.83  30: 10.72  31: 10.77  32: 11.08
  33: 10.93  34: 11.19  35: 12.02  36: 12.02  37: 12.02  38: 11.98  39: 11.65  40: 11.42
  41: 11.45  42: 11.69  43: 11.84  44: 12.44  45: 12.36  46: 12.33  47: 11.75  48: 11.62
  49: 11.06  50: 11.39  51: 10.90  52: 10.47  53: 10.51  54: 10.50  55: 11.40  56: 11.54
  57: 11.78  58: 11.86  59: 11.97  60: 12.00  61: 11.11  62: 10.95  63: 11.65  64: 11.27
  65: 11.07  66: 11.30  67: 11.07  68: 11.15  69: 10.49  70: 10.86  71: 10.84  72: 10.87
  73: 10.83  74: 10.89  75: 10.77  76:  9.92  77:  9.92  78:  9.92  79: 10.37  80: 10.25
  81: 10.30  82: 10.36  83:  9.92  84:  9.92  85: 11.81  86: 11.64  87: 11.76  88: 11.72
  89: 11.44  90: 11.62  91: 11.45  92: 11.62  93: 11.68  94: 11.45  95: 11.26  96: 11.28
  97: 11.27  98: 10.93  99: 11.00 100: 11.07 101: 10.71 102: 10.67 103: 10.69 104: 10.82
 105: 10.81 106: 11.18 107: 10.98 108: 10.98 109: 10.87 110: 10.55 111:  9.73 112:  9.99
 113:  9.61 114:  9.97 115:  4.55 116:  4.02 117: 11.18 118: 10.71 119:  3.20 120: 11.25
 121: 11.38 122: 11.07 123: 11.07 124: 10.45 125: 10.87 126:  1.97 127:  2.43 128:  3.15
 129: 10.36 130: 10.37 131: 10.85 132: 10.46 133: 10.45 134: 10.42 135: 11.41 136: 11.20
 137: 11.19 138: 11.20 139: 11.32 140: 11.29 141: 11.50 142: 11.50 143: 11.42 144: 10.93
 145:  3.82 146:  4.17 147:  3.96 148:  3.94 149:  3.88 150:  3.81 151:  4.28 152:  4.20
 153:  4.31 154:  4.40 155:  4.39 156:  4.31 157:  3.81 158:  3.81 159:  3.75 160:  3.78
 161:  3.80 162:  3.87 163:  3.96 164:  3.93 165:  3.73 166:  3.72 167:  3.73 168:  3.70
 169:  3.75 170:  3.74 171:  3.43 172:  3.43 173:  3.45 174:  3.37 175:  3.39 176:  3.34
 177: 11.19 178: 11.19 179: 11.05 180: 11.10 181:  6.93 182:  6.77 183:  6.74 184:  8.66
 185:  8.58 186:  8.64 187: 10.97 188: 10.94 189:  8.82 190:  8.61 191:  9.07 192:  8.93
 193:  8.65 194:  8.37 195:  8.97 196:  8.99 197:  8.89 198: 10.52 199: 10.70 200: 10.41
 201:  8.71 202:  7.99 203:  2.45 204:  2.36 205:  2.33 206:  2.04 207:  1.77 208:  1.82
 209:  2.05 210:  2.14 211:  1.98 212:  1.83 213:  1.90 214:  1.97 215:  7.04 216:  6.84
 217:  5.42 218:  5.28 219:  5.42 220:  6.34 221:  6.76 222:  6.67 223:  6.40 224:  5.70
 225:  7.60 226:  8.30 227:  6.79 228:  6.05 229:  6.04 230:  8.26 231:  8.62 232:  9.78
 233:  9.10 234:  8.45 235:  8.97 236:  8.67 237:  8.70 238:  8.16 239:  8.10 240:  8.17
 241:  8.66 242:  8.67 243:  8.68 244: 11.63 245: 11.09 246: 11.12 247: 11.99 248: 11.04
 249: 10.72 250: 10.78 251: 10.98 252: 11.36 253: 10.88 254: 10.88 255: 10.30 256: 10.74
 257:  9.63 258:  9.49 259: 11.42 260: 11.18 261: 11.23 262: 10.98 263: 11.12 264: 11.45
 265: 10.65 266: 10.64 267: 10.45 268: 10.83 269: 11.07 270: 11.50 271: 11.56 272: 11.63
 273: 11.46 274: 11.50 275: 11.38 276: 11.72 277: 11.77 278: 11.83 279: 11.74 280: 11.79
 281: 11.50 282: 11.79 283: 11.67 284: 11.62 285: 11.63 286: 11.46 287: 11.46 288: 11.77
 289: 11.67 290: 11.72 291: 11.77 292: 11.66 293: 11.70 294: 11.65 295: 11.61 296: 11.61
 297: 11.69 298: 11.73 299: 11.73 300: 11.77 301: 11.72 302: 11.72 303: 12.01 304: 12.01
 305:  1.80 306:  1.80 307:  1.80 308:  1.80 309:  1.80 310:  1.80 311:  1.81 312:  1.81
 313:  1.80 314:  1.80 315:  1.81 316:  1.81 317:  1.82 318:  1.82 319:  1.98 320:  1.98
 321:  1.82 322:  1.82 323:  1.83 324:  1.84 325:  1.83 326:  1.83 327:  1.95 328:  1.96
 329:  1.95 330:  1.95 331:  1.96 332:  1.96 333:  1.95 334:  1.95 335:  1.95 336:  1.94
 337:  1.90 338:  1.89 339:  1.89 340:  1.89 341:  1.89 342:  1.89
 IR intensities (km·mol⁻¹)
   1:  4.98   2:  2.78   3:  0.86   4:  3.83   5: 10.83   6:  4.50   7: 12.06   8:  6.33
   9:  0.34  10:  0.04  11:  1.36  12:  0.22  13:  1.38  14:  0.29  15:  9.64  16: 16.84
  17:  3.94  18:  5.54  19:  0.28  20:  1.37  21:  5.48  22:  8.12  23:  0.01  24: 39.65
  25: 92.16  26: 24.44  27: 12.10  28: 16.17  29:  0.23  30:  1.95  31:  0.72  32:  0.50
  33:  0.54  34:  0.30  35:  0.01  36:  0.07  37:  0.03  38:  3.84  39:  0.09  40:  2.41
  41:  1.70  42:  0.45  43:  0.62  44:  3.12  45: 10.99  46: 15.49  47:  3.86  48:  0.29
  49: 11.61  50: 13.47  51: 13.64  52:  4.45  53:  1.77  54:  6.96  55:  0.24  56:  0.53
  57: 12.62  58:  0.09  59:  0.32  60:  0.01  61: 17.29  62:  5.20  63:  2.48  64: 33.31
  65:  1.44  66: 35.10  67:  1.00  68:  0.02  69:  8.31  70:  9.36  71:  0.98  72: 14.20
  73:  0.60  74:  0.11  75:  2.30  76:  0.43  77:  0.43  78:  0.09  79: 15.85  80:  0.08
  81:  0.45  82:  0.02  83:  4.32  84:  0.80  85:  1.35  86:  0.05  87:  0.21  88:  0.03
  89: 49.75  90: 19.63  91: 23.70  92:  4.90  93:  0.12  94: 23.54  95: 67.68  96: 10.31
  97: 18.87  98:  0.07  99:  1.34 100:  1.03 101:  0.05 102:  1.64 103:  0.39 104:  7.49
 105: 24.45 106:  1.39 107:  0.36 108:  5.38 109: 44.94 110:  4.33 111:  1.79 112:  2.71
 113:  5.95 114: 12.88 115:  2.07 116:  3.04 117: 14.09 118:  0.26 119:  0.45 120:  6.55
 121:  3.46 122:  2.12 123: 19.03 124: 35.05 125:  4.53 126:176.86 127:700.78 128:805.61
 129: 31.20 130: 55.36 131:  1.96 132: 69.30 133:  2.94 134: 12.45 135:  0.08 136:  3.21
 137:  7.15 138:  6.91 139: 11.85 140:  0.54 141: 11.93 142:  0.11 143: 13.37 144:  0.58
 145: 40.84 146:  3.17 147: 37.46 148:  1.67 149:  1.28 150:  0.39 151:  7.30 152: 10.07
 153:  0.96 154: 47.43 155: 21.46 156:  1.34 157:  5.87 158: 50.27 159:  4.12 160: 66.97
 161: 29.76 162: 80.93 163:  9.89 164: 55.31 165: 28.26 166: 14.44 167:  0.91 168:  6.47
 169:109.48 170:  5.08 171:  1.04 172: 29.18 173:  8.07 174:  8.06 175: 21.44 176:  0.77
 177:  2.54 178:  0.73 179: 15.20 180:  0.02 181:  2.08 182: 19.20 183:  0.86 184: 35.08
 185:  8.67 186: 37.93 187:  5.61 188: 77.29 189: 69.12 190:  1.21 191:  0.52 192: 22.86
 193:  2.95 194:  0.02 195: 28.03 196:  2.59 197: 41.93 198:  0.12 199: 32.33 200:  0.53
 201:  0.10 202:  0.97 203:  1.15 204:  0.35 205:  0.51 206:  0.45 207:  1.91 208:  9.97
 209:  0.05 210: 10.51 211:  4.46 212:  0.10 213: 20.91 214:  0.51 215:  0.00 216:  9.84
 217:  0.71 218:  4.55 219:  3.66 220:  0.46 221:140.04 222:  0.17 223:  7.75 224:  0.10
 225:  0.22 226:  5.74 227:  0.07 228: 48.73 229:  0.74 230: 43.95 231:  0.16 232:104.15
 233:  0.43 234:  4.82 235:116.72 236: 98.83 237: 29.62 238:  4.07 239:  0.72 240:  6.08
 241:  0.05 242:  6.93 243:  0.70 244:  0.23 245: 14.07 246:  0.77 247: 78.83 248:  0.13
 249: 71.63 250:  0.45 251:128.99 252:  3.38 253:162.49 254:  2.08 255:  0.09 256:  1.94
 257: 69.25 258: 25.07 259: 10.38 260:  0.45 261: 10.72 262: 14.39 263: 41.33 264:  0.13
 265: 50.36 266: 22.77 267:  2.13 268:  0.18 269: 15.58 270:  0.03 271:  1.60 272:  0.10
 273:  0.14 274: 22.94 275:  0.06 276:  8.63 277:  0.33 278: 81.13 279: 24.17 280:  7.59
 281: 14.15 282:  0.05 283:  8.43 284:  0.31 285: 24.85 286: 39.38 287: 26.54 288:  0.14
 289: 14.96 290:  2.21 291:134.18 292:  2.76 293: 54.18 294:  0.67 295: 35.84 296:  1.26
 297:230.93 298: 12.68 299: 82.61 300:  0.07 301: 67.86 302: 43.49 303:  0.30 304:  2.42
 305:  3.03 306:  0.04 307:  8.27 308: 17.34 309:  3.02 310:  6.25 311: 19.47 312: 15.31
 313: 21.61 314: 25.82 315: 62.63 316: 11.16 317: 64.86 318: 33.72 319:379.98 320:115.33
 321: 48.45 322: 38.46 323: 23.46 324: 12.11 325: 34.85 326: 37.70 327: 33.38 328:136.18
 329: 18.53 330:116.95 331:263.60 332: 19.10 333:  7.03 334: 64.18 335: 35.06 336: 48.80
 337: 69.98 338:  0.51 339: 16.56 340: 21.37 341:  2.04 342:  2.05
 Raman intensities (amu)
   1:  0.00   2:  0.00   3:  0.00   4:  0.00   5:  0.00   6:  0.00   7:  0.00   8:  0.00
   9:  0.00  10:  0.00  11:  0.00  12:  0.00  13:  0.00  14:  0.00  15:  0.00  16:  0.00
  17:  0.00  18:  0.00  19:  0.00  20:  0.00  21:  0.00  22:  0.00  23:  0.00  24:  0.00
  25:  0.00  26:  0.00  27:  0.00  28:  0.00  29:  0.00  30:  0.00  31:  0.00  32:  0.00
  33:  0.00  34:  0.00  35:  0.00  36:  0.00  37:  0.00  38:  0.00  39:  0.00  40:  0.00
  41:  0.00  42:  0.00  43:  0.00  44:  0.00  45:  0.00  46:  0.00  47:  0.00  48:  0.00
  49:  0.00  50:  0.00  51:  0.00  52:  0.00  53:  0.00  54:  0.00  55:  0.00  56:  0.00
  57:  0.00  58:  0.00  59:  0.00  60:  0.00  61:  0.00  62:  0.00  63:  0.00  64:  0.00
  65:  0.00  66:  0.00  67:  0.00  68:  0.00  69:  0.00  70:  0.00  71:  0.00  72:  0.00
  73:  0.00  74:  0.00  75:  0.00  76:  0.00  77:  0.00  78:  0.00  79:  0.00  80:  0.00
  81:  0.00  82:  0.00  83:  0.00  84:  0.00  85:  0.00  86:  0.00  87:  0.00  88:  0.00
  89:  0.00  90:  0.00  91:  0.00  92:  0.00  93:  0.00  94:  0.00  95:  0.00  96:  0.00
  97:  0.00  98:  0.00  99:  0.00 100:  0.00 101:  0.00 102:  0.00 103:  0.00 104:  0.00
 105:  0.00 106:  0.00 107:  0.00 108:  0.00 109:  0.00 110:  0.00 111:  0.00 112:  0.00
 113:  0.00 114:  0.00 115:  0.00 116:  0.00 117:  0.00 118:  0.00 119:  0.00 120:  0.00
 121:  0.00 122:  0.00 123:  0.00 124:  0.00 125:  0.00 126:  0.00 127:  0.00 128:  0.00
 129:  0.00 130:  0.00 131:  0.00 132:  0.00 133:  0.00 134:  0.00 135:  0.00 136:  0.00
Refinement of some symmetry elements was terminated before convergence was reached.
Some symmetry elements may remain unidentified.
Molecule has no symmetry elements
It seems to be the C1 point group
 137:  0.00 138:  0.00 139:  0.00 140:  0.00 141:  0.00 142:  0.00 143:  0.00 144:  0.00
 145:  0.00 146:  0.00 147:  0.00 148:  0.00 149:  0.00 150:  0.00 151:  0.00 152:  0.00
 153:  0.00 154:  0.00 155:  0.00 156:  0.00 157:  0.00 158:  0.00 159:  0.00 160:  0.00
 161:  0.00 162:  0.00 163:  0.00 164:  0.00 165:  0.00 166:  0.00 167:  0.00 168:  0.00
 169:  0.00 170:  0.00 171:  0.00 172:  0.00 173:  0.00 174:  0.00 175:  0.00 176:  0.00
 177:  0.00 178:  0.00 179:  0.00 180:  0.00 181:  0.00 182:  0.00 183:  0.00 184:  0.00
 185:  0.00 186:  0.00 187:  0.00 188:  0.00 189:  0.00 190:  0.00 191:  0.00 192:  0.00
 193:  0.00 194:  0.00 195:  0.00 196:  0.00 197:  0.00 198:  0.00 199:  0.00 200:  0.00
 201:  0.00 202:  0.00 203:  0.00 204:  0.00 205:  0.00 206:  0.00 207:  0.00 208:  0.00
 209:  0.00 210:  0.00 211:  0.00 212:  0.00 213:  0.00 214:  0.00 215:  0.00 216:  0.00
 217:  0.00 218:  0.00 219:  0.00 220:  0.00 221:  0.00 222:  0.00 223:  0.00 224:  0.00
 225:  0.00 226:  0.00 227:  0.00 228:  0.00 229:  0.00 230:  0.00 231:  0.00 232:  0.00
 233:  0.00 234:  0.00 235:  0.00 236:  0.00 237:  0.00 238:  0.00 239:  0.00 240:  0.00
 241:  0.00 242:  0.00 243:  0.00 244:  0.00 245:  0.00 246:  0.00 247:  0.00 248:  0.00
 249:  0.00 250:  0.00 251:  0.00 252:  0.00 253:  0.00 254:  0.00 255:  0.00 256:  0.00
 257:  0.00 258:  0.00 259:  0.00 260:  0.00 261:  0.00 262:  0.00 263:  0.00 264:  0.00
 265:  0.00 266:  0.00 267:  0.00 268:  0.00 269:  0.00 270:  0.00 271:  0.00 272:  0.00
 273:  0.00 274:  0.00 275:  0.00 276:  0.00 277:  0.00 278:  0.00 279:  0.00 280:  0.00
 281:  0.00 282:  0.00 283:  0.00 284:  0.00 285:  0.00 286:  0.00 287:  0.00 288:  0.00
 289:  0.00 290:  0.00 291:  0.00 292:  0.00 293:  0.00 294:  0.00 295:  0.00 296:  0.00
 297:  0.00 298:  0.00 299:  0.00 300:  0.00 301:  0.00 302:  0.00 303:  0.00 304:  0.00
 305:  0.00 306:  0.00 307:  0.00 308:  0.00 309:  0.00 310:  0.00 311:  0.00 312:  0.00
 313:  0.00 314:  0.00 315:  0.00 316:  0.00 317:  0.00 318:  0.00 319:  0.00 320:  0.00
 321:  0.00 322:  0.00 323:  0.00 324:  0.00 325:  0.00 326:  0.00 327:  0.00 328:  0.00
 329:  0.00 330:  0.00 331:  0.00 332:  0.00 333:  0.00 334:  0.00 335:  0.00 336:  0.00
 337:  0.00 338:  0.00 339:  0.00 340:  0.00 341:  0.00 342:  0.00
 output can be read by thermo (or use thermo option).
 writing <g98.out> molden fake output.
 recommended (thermochemical) frequency scaling factor: 1.0
           -------------------------------------------------
          |             Thermodynamic Functions             |
           -------------------------------------------------

c1  symmetry found (for desy threshold:  0.10E+00) used in thermo

          ...................................................
          :                      SETUP                      :
          :.................................................:
          :  # frequencies                         336      :
          :  # imaginary freq.                       0      :
          :  linear?                             false      :
          :  only rotor calc.                    false      :
          :  symmetry                               c1      :
          :  rotational number                       1      :
          :  scaling factor                  1.0000000      :
          :  rotor cutoff                   50.0000000 cm⁻¹ :
          :  imag. cutoff                  -20.0000000 cm⁻¹ :
          :.................................................:

    mode    ω/cm⁻¹     T·S(HO)/kcal·mol⁻¹    T·S(FR)/kcal·mol⁻¹   T·S(vib)
   ------------------------------------------------------------------------
       1      3.72    -2.97509 (  0.00%)    -1.82663 (100.00%)    -1.82667
       2      6.76    -2.62065 (  0.03%)    -1.64942 ( 99.97%)    -1.64974
       3      8.58    -2.47931 (  0.09%)    -1.57874 ( 99.91%)    -1.57952
       4     11.76    -2.29264 (  0.30%)    -1.48539 ( 99.70%)    -1.48785
       5     13.86    -2.19522 (  0.59%)    -1.43666 ( 99.41%)    -1.44112
       6     14.52    -2.16753 (  0.71%)    -1.42282 ( 99.29%)    -1.42808
       7     24.99    -1.84608 (  5.88%)    -1.26198 ( 94.12%)    -1.29630
       8     31.36    -1.71190 ( 13.39%)    -1.19478 ( 86.61%)    -1.26405
       9     39.71    -1.57236 ( 28.45%)    -1.12484 ( 71.55%)    -1.25217
      10     42.00    -1.53919 ( 33.24%)    -1.10821 ( 66.76%)    -1.25145
      11     43.20    -1.52260 ( 35.78%)    -1.09988 ( 64.22%)    -1.25111
      12     46.03    -1.48508 ( 41.81%)    -1.08105 ( 58.19%)    -1.24995
      13     48.60    -1.45309 ( 47.16%)    -1.06498 ( 52.84%)    -1.24800
      14     57.82    -1.35065 ( 64.14%)    -1.01348 ( 35.86%)    -1.22975
      15     58.87    -1.34005 ( 65.78%)    -1.00815 ( 34.22%)    -1.22648
      16     63.26    -1.29775 ( 71.93%)    -0.98684 ( 28.07%)    -1.21049
      17     71.68    -1.22442 ( 80.86%)    -0.94985 ( 19.14%)    -1.17185
      18     74.48    -1.20196 ( 83.12%)    -0.93851 ( 16.88%)    -1.15748
      19     83.43    -1.13552 ( 88.57%)    -0.90489 ( 11.43%)    -1.10917
      20     93.91    -1.06648 ( 92.56%)    -0.86983 (  7.44%)    -1.05185
      21     95.85    -1.05453 ( 93.11%)    -0.86375 (  6.89%)    -1.04138
      22    106.07    -0.99570 ( 95.29%)    -0.83375 (  4.71%)    -0.98808
      23    109.40    -0.97780 ( 95.82%)    -0.82460 (  4.18%)    -0.97140
      24    114.92    -0.94933 ( 96.54%)    -0.81001 (  3.46%)    -0.94451
      25    115.51    -0.94635 ( 96.61%)    -0.80849 (  3.39%)    -0.94168
      26    120.25    -0.92319 ( 97.10%)    -0.79659 (  2.90%)    -0.91951
      27    121.19    -0.91871 ( 97.18%)    -0.79428 (  2.82%)    -0.91520
      28    121.43    -0.91754 ( 97.21%)    -0.79369 (  2.79%)    -0.91408
      29    142.41    -0.82624 ( 98.50%)    -0.74647 (  1.50%)    -0.82504
      30    142.67    -0.82521 ( 98.51%)    -0.74594 (  1.49%)    -0.82403
      31    144.32    -0.81868 ( 98.58%)    -0.74254 (  1.42%)    -0.81759
      32    168.44    -0.73130 ( 99.23%)    -0.69674 (  0.77%)    -0.73103
      33    169.85    -0.72662 ( 99.25%)    -0.69427 (  0.75%)    -0.72638
      34    177.45    -0.70218 ( 99.37%)    -0.68132 (  0.63%)    -0.70205
      35    183.02    -0.68495 ( 99.45%)    -0.67215 (  0.55%)    -0.68488
      36    188.18    -0.66956 ( 99.50%)    -0.66392 (  0.50%)    -0.66953
      37    189.08    -0.66692 ( 99.51%)    -0.66251 (  0.49%)    -0.66690
      38    201.95    -0.63067 ( 99.63%)    -0.64300 (  0.37%)    -0.63071
      39    202.40    -0.62944 ( 99.63%)    -0.64233 (  0.37%)    -0.62949
      40    203.25    -0.62715 ( 99.64%)    -0.64110 (  0.36%)    -0.62720
      41    205.45    -0.62126 ( 99.65%)    -0.63790 (  0.35%)    -0.62132
      42    207.46    -0.61595 ( 99.66%)    -0.63502 (  0.34%)    -0.61601
      43    234.62    -0.54958 ( 99.79%)    -0.59857 (  0.21%)    -0.54968
      44    259.10    -0.49726 ( 99.86%)    -0.56917 (  0.14%)    -0.49736
      45    264.34    -0.48686 ( 99.87%)    -0.56325 (  0.13%)    -0.48696
      46    265.16    -0.48526 ( 99.87%)    -0.56233 (  0.13%)    -0.48535
      47    266.35    -0.48293 ( 99.88%)    -0.56100 (  0.12%)    -0.48303
      48    267.75    -0.48022 ( 99.88%)    -0.55944 (  0.12%)    -0.48032
      49    268.70    -0.47841 ( 99.88%)    -0.55840 (  0.12%)    -0.47850
      50    272.43    -0.47130 ( 99.89%)    -0.55431 (  0.11%)    -0.47139
      51    280.65    -0.45607 ( 99.90%)    -0.54550 (  0.10%)    -0.45616
      52    291.61    -0.43667 ( 99.91%)    -0.53416 (  0.09%)    -0.43675
      53    299.62    -0.42308 ( 99.92%)    -0.52613 (  0.08%)    -0.42316
   ------------------------------------------------------------------------

   temp. (K)  partition function   enthalpy   heat capacity  entropy
                                   cal/mol     cal/K/mol   cal/K/mol   J/K/mol
 298.15  VIB  0.113E+30            35989.748    238.351    226.344
         ROT  0.485E+09              888.752      2.981     42.727
         INT  0.550E+38            36878.501    241.332    269.072
         TR   0.295E+29             1481.254      4.968     46.485
         TOT                       38359.7547   246.3002   315.5568  1320.2897

       T/K    H(0)-H(T)+PV         H(T)/Eh          T*S/Eh         G(T)/Eh
   ------------------------------------------------------------------------
    298.15    0.611302E-01    0.895982E+00    0.149931E+00    0.746051E+00
   ------------------------------------------------------------------------

         :::::::::::::::::::::::::::::::::::::::::::::::::::::
         ::                  THERMODYNAMIC                  ::
         :::::::::::::::::::::::::::::::::::::::::::::::::::::
         :: total free energy        -190.629920482608 Eh   ::
         ::.................................................::
         :: total energy             -191.375971655656 Eh   ::
         :: zero point energy           0.834852242169 Eh   ::
         :: G(RRHO) w/o ZPVE           -0.088801069121 Eh   ::
         :: G(RRHO) contrib.            0.746051173048 Eh   ::
         :::::::::::::::::::::::::::::::::::::::::::::::::::::

optimized geometry written to: xtbopt.xyz


           -------------------------------------------------
          | TOTAL ENERGY             -191.375971655656 Eh   |
          | TOTAL ENTHALPY           -190.479989253344 Eh   |
          | TOTAL FREE ENERGY        -190.629920482608 Eh   |
          | GRADIENT NORM               0.000281586833 Eh/α |
          | HOMO-LUMO GAP               0.934988436775 eV   |
           -------------------------------------------------

------------------------------------------------------------------------
 * finished run on 2021/11/19 at 15:17:58.958     
------------------------------------------------------------------------
 total:
 * wall-time:     0 d,  0 h,  3 min, 52.111 sec
 *  cpu-time:     0 d,  0 h,  3 min, 52.110 sec
 * ratio c/w:     1.000 speedup
 SCF:
 * wall-time:     0 d,  0 h,  0 min,  0.621 sec
 *  cpu-time:     0 d,  0 h,  0 min,  0.621 sec
 * ratio c/w:     1.000 speedup
 ANC optimizer:
 * wall-time:     0 d,  0 h,  0 min, 28.710 sec
 *  cpu-time:     0 d,  0 h,  0 min, 28.706 sec
 * ratio c/w:     1.000 speedup
 analytical hessian:
 * wall-time:     0 d,  0 h,  3 min, 22.649 sec
 *  cpu-time:     0 d,  0 h,  3 min, 22.653 sec
 * ratio c/w:     1.000 speedup

