114
 energy: -191.375971655694 gnorm: 0.000281632248 xtb: 6.4.1 (bd6e46d)
C        20.82794788093108    3.37793079830524    0.72069326174965
C        21.79774869897947    2.45662265159395    0.56015745848638
C        21.11861815438604    1.21007511778349    0.25501397234611
C        21.79827872880773   -0.00257444042215    0.03033329512757
C        21.16483432082584   -1.22726792827692   -0.23255765124700
C        21.78347858155062   -2.48199031030379   -0.48032044873122
C        20.79135717359941   -3.39291526079024   -0.70173996675262
C        19.54478525075043   -2.71334674676449   -0.59971141455987
N        19.82301114405628   -1.41151874436925   -0.31318304785210
C        18.28552932599194   -3.26883041885789   -0.77222453998561
C        17.06018516698721   -2.62135320267730   -0.69675027232300
C        15.79397859197371   -3.30879313936781   -0.90638295727891
C        14.83236420695813   -2.37892708356748   -0.75845209343068
C        15.51848750696327   -1.13137566356696   -0.45983244597836
N        16.85547195907685   -1.31451560794639   -0.43184094982707
C        14.85606526832626    0.06893119586749   -0.23544805157396
C        15.46494402699232    1.28124181483005    0.05010527877423
C        14.84366570895542    2.53887807567746    0.29707449332414
C        15.83177773254665    3.44825198259954    0.53303755724632
C        17.08214395699050    2.77068036188865    0.43532234815955
N        16.80803417369305    1.47180337853912    0.14429388241419
C        18.34176169329558    3.32573141964157    0.60414270066217
C        19.56819493706356    2.68404283370753    0.51320820005393
N        19.78525252967811    1.37632692878134    0.23584987966456
H        20.91941980056693    4.42075801330536    0.95680648129746
H        22.86104352540688    2.56807903510048    0.64711830414017
H        22.84269070732627   -2.64907421268482   -0.49531014815799
H        20.90178329423756   -4.43731999762966   -0.91985862902995
H        19.14244205970543   -0.67170240552981   -0.18443095359141
H        18.25889817712264   -4.32632791252672   -0.99632169783702
H        15.69703040235015   -4.35340509491788   -1.13297108208576
H        13.76737175691669   -2.48668932301063   -0.83586664995151
H        13.77690895298502    0.05688410101660   -0.28610814981647
H        13.78460889831477    2.70939191459190    0.29262195200411
H        15.71979099495324    4.49190839479596    0.75488591381176
H        17.48702360868059    0.73202891244218    0.01113069488052
H        18.37006153018035    4.38186763379477    0.83480036579393
C        37.81018431030385   -3.45169291230887   -0.06919336257877
C        36.84809725162885   -2.50893853526466   -0.04464249684801
C        37.53849448780519   -1.23299841571842    0.00472739700994
C        36.86895368817612    0.00572064371760    0.05189153273793
C        37.51827061168383    1.25085718437922    0.06879898164511
C        36.91821523073423    2.53617434365204    0.14153950408504
C        37.92196067506536    3.46090944914870    0.12253611784065
C        39.15834613543932    2.76019839434390    0.04494108553119
N        38.86207968975891    1.43128963788755    0.01757854410896
C        40.42427514245080    3.32615327575971    0.00809757010506
C        41.64428483487721    2.66639247426988   -0.03997028883387
C        42.91788778242410    3.37131877620758   -0.06951687131563
C        43.87209637794597    2.42272277478926   -0.09935033441182
C        43.17410032390178    1.14649872158553   -0.08722468593047
N        41.83747334123564    1.33140245113354   -0.05435314512909
C        43.82537290904002   -0.08050131852412   -0.10182989306852
C        43.20227500219124   -1.31886056788563   -0.08779120868195
C        43.80819507340141   -2.60770654550288   -0.10247366956096
C        42.80790479226644   -3.53413470557973   -0.08780890621663
C        41.56525616719631   -2.83593005004991   -0.06375547498152
N        41.85597543489713   -1.50843003418745   -0.06188511345531
C        40.29810035515129   -3.39948718045842   -0.05759456256829
C        39.07728913170943   -2.74116570077923   -0.04146944980628
N        38.87151389803128   -1.40297412519948   -0.00173067056873
H        37.70893051324249   -4.51935407528380   -0.10755387270122
H        35.78260221373518   -2.62635028709026   -0.07342082637071
H        35.86369187198844    2.71580968062591    0.21321443228950
H        37.82585078325992    4.52849173635543    0.16220319677983
H        39.53109513661446    0.67133003932436   -0.02890575345750
H        40.46162125362420    4.40672694020031    0.02495976440638
H        43.02428608542641    4.43929934755748   -0.06610037244405
H        44.93911360934683    2.53494114980915   -0.12571819118300
H        44.90542371607885   -0.06924787918858   -0.12558082468445
H        44.86572082662181   -2.78641228762689   -0.12255845970498
H        42.90680836943318   -4.60240634472577   -0.09337605496150
H        41.18724786081188   -0.74767701556378   -0.04539543703596
H        40.25808852754504   -4.48009311691098   -0.07316955423793
C        23.19888468816469    0.00904010485787    0.06513539794958
C        24.41190502336363    0.03186342721141    0.08629537461611
C        34.25504995202709   -0.00846971561124    0.10369657844662
C        35.46876949776399    0.00220093274612    0.08098678242010
C        26.79509494292131   -3.18465057002082    1.30190697822628
C        25.81935923796564   -2.31640602890649    0.97094464212202
C        26.49240313208509   -1.11233541338721    0.52049407714279
C        25.81173966847993    0.04778728931344    0.10360311226261
C        26.46044416634516    1.22514077307614   -0.30207516851379
C        25.86920176485034    2.43376536411921   -0.75454054258803
C        26.88363685392538    3.29448086577306   -1.06259977668799
C        28.11515228837644    2.62751999940212   -0.80995105167478
N        27.80703201189984    1.38467818756234   -0.34829581778860
C        29.38447061927564    3.14702660112525   -1.02349536293577
C        30.61157529296691    2.53472281885652   -0.82430010917730
C        31.86730982828767    3.19513610946895   -1.13813110481112
C        32.84288306118282    2.31821102219649   -0.83076313348195
C        32.17270632600487    1.13520100228817   -0.32466131920857
N        30.83785056910887    1.29006476379696   -0.33985701696078
C        32.85562743544863   -0.01389795999829    0.12087173559719
C        32.20541381656938   -1.17043933839167    0.58232258652965
C        32.79465710622908   -2.36045868248728    1.08329394391516
C        31.77992762756210   -3.21558151712867    1.40546479826599
C        30.54945234780759   -2.56365251658125    1.11260059391161
N        30.85883202275711   -1.33205718860627    0.62207842486247
C        29.28033931856795   -3.09493134174501    1.29665332828716
C        28.05269787748118   -2.50092398471891    1.05074295417806
N        27.82785451363907   -1.25177251509629    0.57813732511339
H        26.70886246562956   -4.18516982745832    1.68023287930719
H        24.75500644347756   -2.43674908884375    1.02811326578739
H        24.81407433312479    2.60511779625228   -0.84042199043910
H        26.79719688680751    4.29661945209185   -1.43522885190069
H        28.45706568036975    0.65406954419977   -0.07887585813691
H        29.41685529492890    4.15783898144288   -1.40743440596781
H        31.95244980768567    4.18598759898361   -1.54128562146249
H        33.90491207400510    2.41983207772897   -0.93847770782780
H        33.84868910937022   -2.52364202584207    1.19226303267349
H        31.86563127093701   -4.20478384725109    1.81136625635083
H        30.20932938966491   -0.61182007614573    0.32491048983838
H        29.24843297279707   -4.10287936553328    1.68807800435559
