114
 energy: -190.477914361065 gnorm: 1.186077087472 xtb: 6.4.1 (bd6e46d)
C        20.79978100000000    3.50924500000000    0.78875100000000
C        21.68975900000000    2.56898500000000    0.59055600000000
C        21.02825700000000    1.30891100000000    0.28974900000000
C        21.38669600000000    0.00324800000000    0.00106800000000
C        20.56151700000000   -1.12782300000000   -0.08414900000000
C        21.01708300000000   -2.33654800000000    0.49715800000000
C        20.04438800000000   -3.26909400000000    0.29700300000000
C        19.01329400000000   -2.60139300000000   -0.40598400000000
N        19.35001900000000   -1.32053300000000   -0.62289800000000
C        17.85533400000000   -3.32750900000000   -0.73770100000000
C        16.53723300000000   -2.88481300000000   -0.62416600000000
C        15.22488600000000   -3.48694700000000   -0.72114600000000
C        14.30325900000000   -2.54029900000000   -0.51506100000000
C        15.00014500000000   -1.29446900000000   -0.27833000000000
N        16.32121800000000   -1.57422100000000   -0.35801500000000
C        14.60090300000000    0.00752800000000   -0.01032700000000
C        15.43351500000000    1.14420500000000    0.06558200000000
C        14.99937100000000    2.34619400000000   -0.54455800000000
C        15.99488500000000    3.26258300000000   -0.35260300000000
C        17.00903600000000    2.58933900000000    0.37132900000000
N        16.64383900000000    1.32151700000000    0.61015300000000
C        18.17867700000000    3.29629600000000    0.69282800000000
C        19.49393000000000    2.89277100000000    0.62281200000000
N        19.68355300000000    1.58166700000000    0.32641000000000
H        20.96704500000000    4.53778900000000    1.02734100000000
H        22.76001800000000    2.69232300000000    0.63957400000000
H        21.97760400000000   -2.52225000000000    1.01573500000000
H        20.08127000000000   -4.32570400000000    0.62233000000000
H        18.74673400000000   -0.55312300000000   -1.17041800000000
H        17.94372500000000   -4.36293600000000   -1.11604800000000
H        15.02621100000000   -4.54764800000000   -0.92989000000000
H        13.23384900000000   -2.73223300000000   -0.53429400000000
H        13.52596000000000    0.09679800000000    0.12741800000000
H        14.04571700000000    2.53775200000000   -1.07335600000000
H        15.98046300000000    4.31281100000000   -0.69904400000000
H        17.23716300000000    0.56407400000000    1.18214900000000
H        18.11016900000000    4.35370100000000    1.04954400000000
C        37.87509200000000   -3.49437800000000    0.82512200000000
C        36.98511400000000   -2.55622800000000    0.61717200000000
C        37.64661500000000   -1.29934500000000    0.30329400000000
C        37.28817700000000    0.00324800000000    0.00106800000000
C        38.11335500000000    1.13337400000000   -0.09589100000000
C        37.65779000000000    2.34807100000000    0.47283100000000
C        38.63048400000000    3.27848800000000    0.26300100000000
C        39.66157800000000    2.60352200000000   -0.43301400000000
N        39.32485300000000    1.32047900000000   -0.63661300000000
C        40.81953900000000    3.32615300000000   -0.77225400000000
C        42.13764000000000    2.88466000000000   -0.65412800000000
C        43.44998600000000    3.48575500000000   -0.75735500000000
C        44.37161400000000    2.54129800000000   -0.54145000000000
C        43.67472800000000    1.29799400000000   -0.29179200000000
N        42.35365500000000    1.57690300000000   -0.37437900000000
C        44.07397000000000   -0.00115000000000   -0.01028200000000
C        43.24135800000000   -1.13697600000000    0.07742800000000
C        43.67550100000000   -2.34523700000000   -0.52019600000000
C        42.67998800000000   -3.25958300000000   -0.31873300000000
C        41.66583700000001   -2.57885700000000    0.39816700000000
N        42.03103400000001   -1.30862300000000    0.62381100000000
C        40.49619600000000   -3.28243700000000    0.72699200000000
C        39.18094200000000   -2.87966100000000    0.65278900000000
N        38.99132000000000   -1.57170600000000    0.34278600000000
H        37.70782700000001   -4.52038800000000    1.07438100000000
H        35.91485500000000   -2.67904900000000    0.66746800000000
H        36.69726900000001    2.53914900000000    0.98945100000000
H        38.59360300000000    4.33842000000000    0.57733700000000
H        39.92813800000000    0.54742300000000   -1.17613300000000
H        40.73114800000000    4.35759500000000   -1.16133400000000
H        43.64866100000000    4.54423100000000   -0.97710500000000
H        45.44102400000001    2.73302200000000   -0.56267500000000
H        45.14891300000000   -0.08898400000000    0.12838300000000
H        44.62915500000000   -2.54227700000000   -1.04697500000000
H        42.69440900000000   -4.31335300000000   -0.65424800000000
H        41.43770900000000   -0.54528000000000    1.18791000000000
H        40.56470300000000   -4.33608000000000    1.09467000000000
C        23.61414000000000    0.00324800000000    0.00106800000000
C        24.83034500000000    0.00324800000000    0.00106800000000
C        33.84452800000000    0.00324800000000    0.00106800000000
C        35.06073300000000    0.00324800000000    0.00106800000000
C        26.54549300000000   -3.59631100000000   -0.00042200000000
C        25.67094300000000   -2.60140700000000   -0.01072400000000
C        26.34240700000000   -1.32262400000000    0.00246500000000
C        25.94537600000000   -0.00703800000000   -0.00231300000000
C        26.75656800000000    1.13728500000000   -0.15644000000000
C        26.27754200000000    2.18980100000000   -0.96850500000000
C        27.26462800000000    3.13255400000000   -0.95997400000000
C        28.31189900000000    2.63075900000000   -0.14717100000000
N        27.97304600000000    1.42439200000000    0.32557500000000
C        29.47227600000000    3.40874200000000    0.00717900000000
C        30.79326500000001    2.95086900000000   -0.02221400000000
C        32.10583500000000    3.57900200000000   -0.08334200000000
C        33.01994800000000    2.62393800000000   -0.08592500000000
C        32.34640100000000    1.33706400000000   -0.02673600000000
N        31.03434300000000    1.62566300000000    0.00805400000000
C        32.74868400000000   -0.00703800000000   -0.00231300000000
C        31.91653000000001   -1.12082700000000    0.17996800000000
C        32.35648900000000   -2.15248500000000    1.04327900000000
C        31.35830600000000   -3.07582500000000    1.04790000000000
C        30.33539100000000   -2.59588700000000    0.19447000000000
N        30.70256800000000   -1.41464000000000   -0.31603800000000
C        29.17848100000000   -3.37129500000000    0.03740200000000
C        27.85770600000000   -2.95181700000000    0.02071600000000
N        27.68131500000000   -1.61361300000000    0.02161700000000
H        26.37697400000000   -4.65847900000000   -0.00582500000000
H        24.58311500000000   -2.78744300000000   -0.02775100000000
H        25.31346500000000    2.26517300000000   -1.50282100000000
H        27.22648100000000    4.10366900000000   -1.49241700000000
H        28.58072400000000    0.78729200000000    1.01420400000000
H        29.41717700000000    4.49500400000000    0.15129400000000
H        32.32426200000000    4.64699500000000   -0.12167200000000
H        34.09626200000000    2.76998200000000   -0.12555300000000
H        33.31049800000000   -2.21689600000000    1.60082700000000
H        31.38372500000000   -4.02114200000000    1.62321900000000
H        30.11549200000000   -0.79518400000000   -1.03968800000000
H        29.23920000000000   -4.48303500000000   -0.07672700000000
114
 energy: -190.824845722334 gnorm: 0.375506605133 xtb: 6.4.1 (bd6e46d)
C        20.79245489641942    3.51203200541390    0.79074134174482
C        21.70255224815833    2.56264724592184    0.58735560246252
C        21.02515999009945    1.31004854521499    0.28374521563578
C        21.41939874089921    0.01286610053351    0.00743414982410
C        20.58812218304586   -1.12045317737371   -0.08129593343978
C        21.02614710365443   -2.34090928827112    0.49651772521485
C        20.04882445317205   -3.27243608492575    0.29102769030887
C        19.00712678223161   -2.61090427622699   -0.41037515908247
N        19.34993999126705   -1.31312182225320   -0.62167415880925
C        17.84205100950492   -3.33083917288326   -0.74401116906454
C        16.53504077055017   -2.86989050892437   -0.63009157763027
C        15.22566003509752   -3.49540224177137   -0.72541465652480
C        14.29894807462562   -2.54365699201976   -0.51387724529395
C        15.01268876475110   -1.29969155032481   -0.27096902555485
N        16.33374385655305   -1.56291319523961   -0.35491866718087
C        14.59692498552950   -0.00456311734064   -0.00744737270516
C        15.42114661260049    1.13811968340491    0.06402216513507
C        14.99329566601229    2.34903192205964   -0.54019573980458
C        15.99080020907938    3.26643047436982   -0.34740057804263
C        17.01573155206680    2.60204201050181    0.37432894842121
N        16.65082895161046    1.31601896526883    0.60585385509952
C        18.18784426693716    3.30697988658843    0.70182307210912
C        19.49419843975812    2.87444100014371    0.62644536502405
N        19.68336157087707    1.56839136479327    0.32364092801741
H        20.96419338821056    4.54103747903087    1.02834603766219
H        22.76552746827253    2.68926208840826    0.63875883209609
H        21.97098116461616   -2.51740463237574    1.01249905159974
H        20.07722262901686   -4.31541167211181    0.61817995865677
H        18.76244244295006   -0.57381322312125   -1.15036617528092
H        17.94548924572480   -4.36124380085562   -1.10413455162948
H        15.02898308960799   -4.54450041728298   -0.92955249941096
H        13.23449112103497   -2.72716819776535   -0.53293460537946
H        13.52524131679194    0.10230893083830    0.11896699363424
H        14.05397286328720    2.53218184102773   -1.06866962932761
H        15.98414781279167    4.30277837370795   -0.69500373761074
H        17.22213320306428    0.58436799453147    1.16117876655333
H        18.10492536011851    4.35249546657409    1.03886429475614
C        37.88241216090663   -3.49716341243747    0.82718042489520
C        36.97237582598255   -2.54992824337385    0.61403739407080
C        37.64967348590772   -1.30060876051736    0.29746270620419
C        37.25554396830070   -0.00645048519517    0.00845266790522
C        38.08679203397615    1.12605951549555   -0.09291236521701
C        37.64870360918000    2.35241879664825    0.47208509138784
C        38.62608143461774    3.28177637339538    0.25698060582029
C        39.66773672594212    2.61300802238625   -0.43748783339137
N        39.32495847643319    1.31305084797350   -0.63523334667908
C        40.83283832497143    3.32942070481117   -0.77862294642252
C        42.13982608112030    2.86970267924566   -0.65990526938124
C        43.44920989762318    3.49417350302255   -0.76173186019656
C        44.37591955312516    2.54467124329261   -0.54032120565969
C        43.66216982366198    1.30330624631454   -0.28450056050218
N        42.34113956420103    1.56561498241668   -0.37117497144899
C        44.07794048795748    0.01094734498597   -0.00754649569513
C        43.25372541279953   -1.13089698990292    0.07579155081056
C        43.68157658682506   -2.34804785475588   -0.51581734318223
C        42.68408797658115   -3.26338212042767   -0.31350275599867
C        41.65912719543827   -2.59152294863406    0.40128722108920
N        42.02403379821401   -1.30316072686198    0.61943369120355
C        40.48703766181005   -3.29303590078186    0.73605423956464
C        39.18065280096310   -2.86129993977522    0.65617644876090
N        38.99148528816287   -1.55844651887912    0.34005664567080
H        37.71068449771211   -4.52364457068347    1.07542024218841
H        35.90947059503216   -2.67607171407111    0.66636935896857
H        36.70389968035550    2.53428146452181    0.98626279012555
H        38.59765373145086    4.32808164905274    0.57329017839304
H        39.91242492048656    0.56831135932407   -1.15630126458554
H        40.72938903328023    4.35601793645272   -1.14944998814912
H        43.64588724971672    4.54108683787992   -0.97675188452378
H        45.44037640036453    2.72796996326136   -0.56128276456170
H        45.14962838556671   -0.09458746515226    0.11996349876753
H        44.62089463522194   -2.53666148040546   -1.04236849165114
H        42.69072428637678   -4.30327801876016   -0.65033289412144
H        41.45273923098637   -0.56578457261135    1.16713779988332
H        40.56995390795696   -4.33499001347227    1.08395120103277
C        23.50767242872683    0.01030129373910    0.00009586917176
C        24.71169166825647    0.00936754666830   -0.00141304160088
C        33.97029539589234    0.00081376883052    0.00460900713178
C        35.17333036875207   -0.00379264926779   -0.00254884499315
C        26.55498173660705   -3.59917904126445   -0.00188965472639
C        25.66096931673919   -2.60248695723089   -0.00945538656197
C        26.37826912086193   -1.34331490527830    0.00818568670821
C        26.00185427736695   -0.01442867304341   -0.00196156522607
C        26.76791148845843    1.13708719752476   -0.16072930624821
C        26.27779759306611    2.19236408893542   -0.96490785709518
C        27.26375652289598    3.14192129036041   -0.95592143175332
C        28.32015751567641    2.64716427478351   -0.14702128423911
N        27.98696768065214    1.42385798429689    0.32505427572517
C        29.48826198154569    3.41604690517034    0.01213499571759
C        30.79389938478487    2.94589831982585   -0.01439396561060
C        32.10184337890740    3.58967408999226   -0.08077049592931
C        33.02567338381377    2.62063340083252   -0.08700393072124
C        32.30974445871602    1.35412732542719   -0.03365298456935
N        31.00948204060394    1.61717279231230    0.00622649183119
C        32.68251322288803    0.00521795561407   -0.00387800861523
C        31.90088341433768   -1.12146448060915    0.18453998368499
C        32.35753019807835   -2.15393349860522    1.03923666877801
C        31.35998626237035   -3.08629425647388    1.04532453662913
C        30.32830028563393   -2.61344905892289    0.19506335078423
N        30.68774289325688   -1.41409438917123   -0.31566427100343
C        29.16732796564505   -3.38714348655685    0.03109905985236
C        27.86145758193883   -2.94508044094046    0.01301082972718
N        27.69354510063030   -1.60978779894929    0.02329318042283
H        26.37932834610874   -4.65838409612344   -0.00597377013234
H        24.58552573648576   -2.77948252865630   -0.02766011077245
H        25.32314761658653    2.25914712380057   -1.49617514760168
H        27.23044569876884    4.09606370404359   -1.48706047811259
H        28.56734449241137    0.80374341673051    0.99111876339182
H        29.41347112580105    4.49459051748797    0.14109078924931
H        32.31976046535073    4.64719937794081   -0.12140234632258
H        34.09569948799354    2.76545203913527   -0.12608816515200
H        33.30081482219396   -2.21067681134553    1.59366925847502
H        31.37923238716862   -4.01489916442319    1.61776120630117
H        30.12829569153702   -0.81133045723422   -1.01571794332047
H        29.24541747329228   -4.48014046040586   -0.06689499083299
114
 energy: -190.991475317562 gnorm: 0.227690417943 xtb: 6.4.1 (bd6e46d)
C        20.78528345437292    3.50655261146491    0.79427803180148
C        21.71546349900560    2.55958539657185    0.58171492648817
C        21.03148285447606    1.31356143960275    0.27013356166760
C        21.49808937688355    0.03070805422503    0.00767493032160
C        20.64238801554675   -1.11072204723105   -0.08325520515217
C        21.04457008287492   -2.34626276085636    0.48789198320172
C        20.05903716916409   -3.27235315163784    0.27724918329628
C        19.00969322768340   -2.61607600713914   -0.41544883292159
N        19.36961290811616   -1.30406955222703   -0.60794255104655
C        17.83196789520618   -3.32742608191831   -0.75356714128697
C        16.53584386099414   -2.84690482376759   -0.64216896456141
C        15.23044786257061   -3.49876038027846   -0.73306541079227
C        14.30053030063508   -2.54683147959559   -0.50924814507744
C        15.03026948492024   -1.30609917228073   -0.25575045652898
N        16.35049362463269   -1.54667965961394   -0.34988748182765
C        14.59268169056733   -0.01852107139711   -0.00076054026208
C        15.40633629129352    1.13326635004114    0.06276838966588
C        14.98522105957982    2.35276972309735   -0.52745305328987
C        15.98342031017158    3.27020614158207   -0.33356039310273
C        17.02129556215853    2.61718952544414    0.37841813772841
N        16.65540785519212    1.31563620902602    0.59040855463402
C        18.19933364186330    3.31403946347415    0.71444521952208
C        19.49577467433480    2.84276497927917    0.63521506704642
N        19.68987107491607    1.54367345634955    0.31833075645639
H        20.95599187665004    4.53997321937930    1.02983703698391
H        22.77588836349935    2.68646110910904    0.63638249979462
H        21.96886259442994   -2.51278542079118    1.01074621616155
H        20.06985755058594   -4.30102149014761    0.61064380364460
H        18.79349835371004   -0.60266897743935   -1.11132191393395
H        17.94795880609175   -4.36080662360363   -1.07808131042680
H        15.03745322885043   -4.54038812433451   -0.93111761692197
H        13.23718193681639   -2.71594103631657   -0.52858147659789
H        13.52213101154267    0.11105343333512    0.09868249346305
H        14.06269521600941    2.52293507093965   -1.06173999827028
H        15.99011834044037    4.29052685109400   -0.68792500994043
H        17.20077950195664    0.61492003111701    1.12230295947819
H        18.09931276113119    4.35519885293864    1.01612076079096
C        37.88958936751020   -3.49148920552466    0.83088557396513
C        36.95954976872802   -2.54667842552405    0.60856808812321
C        37.64300033347689   -1.30390030895057    0.28291734519015
C        37.17570069083833   -0.02428239423644    0.00398908352089
C        38.03217724016825    1.11642951883442   -0.09600090539942
C        37.63015564063485    2.35750282981434    0.46311762578675
C        38.61589299094932    3.28145650425850    0.24329029094056
C        39.66522722298632    2.61812053491884   -0.44242500890422
N        39.30552151113680    1.30409538686275   -0.62110814818522
C        40.84296152899402    3.32593216156096   -0.78809167191576
C        42.13902647031651    2.84663106008061   -0.67168991172894
C        43.44442474762789    3.49746016257615   -0.76938929116103
C        44.37433275776522    2.54789359304306   -0.53569341204053
C        43.64457604941880    1.30988234177188   -0.26931247417770
N        42.32440496582513    1.54944023337501   -0.36591577354958
C        44.08217827705212    0.02495796188246   -0.00097513710496
C        43.26853646794839   -1.12605134544915    0.07451925229899
C        43.68965261597712   -2.35167142142977   -0.50298059375061
C        42.69146889773780   -3.26701904900792   -0.29957406349534
C        41.65353407175025   -2.60661518829274    0.40555921599084
N        42.01944944338872   -1.30293341274485    0.60401538705782
C        40.47551059843792   -3.29991341547235    0.74878034472383
C        39.17902291321485   -2.82932404390093    0.66476752202512
N        38.98472908554351   -1.53352824705099    0.33480396125808
H        37.71890016194007   -4.52250932846343    1.07693486611818
H        35.89927334140856   -2.67348514827956    0.66322725054332
H        36.70596221819222    2.52957354981408    0.98443489962247
H        38.60499947280423    4.31355444962055    0.56596106365306
H        39.88143728266173    0.59761115040440   -1.11755797854106
H        40.72692940396691    4.35583485219179   -1.12344824904373
H        43.63742349855137    4.53696637070027   -0.97824775978849
H        45.43768473285033    2.71678549171551   -0.55677983269201
H        45.15273617582633   -0.10354959871287    0.09979147305264
H        44.61216910664160   -2.52734807162954   -1.03549889463118
H        42.68474645406911   -4.29095403321208   -0.64335041276369
H        41.47408740278043   -0.59672411257627    1.12859159353520
H        40.57555026525407   -4.33792618042705    1.06119084827450
C        23.38150705969351   -0.00760518779933    0.01076796372331
C        24.60963110653284    0.01132223010821   -0.01696379461010
C        34.06988092625528    0.00253409382797    0.02404463170618
C        35.29848456659403    0.01176881964759    0.00829161367810
C        26.56738052605823   -3.59701084473669   -0.00686455209873
C        25.65254888571801   -2.60667758619408   -0.00506509546198
C        26.38850212982105   -1.35344383141473    0.02328676196562
C        25.96822441019214   -0.02371818537654    0.00100957429656
C        26.74394588198568    1.13403461924514   -0.15950074915702
C        26.27356471663989    2.20170831883989   -0.95603021769857
C        27.25928611739824    3.15354882847836   -0.94399759526789
C        28.32503653650287    2.66560785054645   -0.14547970442135
N        27.98863805299017    1.42218350350163    0.31171675039107
C        29.50301185763303    3.42433317846007    0.02137783657713
C        30.79372461810011    2.93422824368289    0.00122069925904
C        32.09651780303331    3.59457735807061   -0.07357410432998
C        33.02780216453258    2.61914583451032   -0.09071946650769
C        32.29598171095743    1.36045857888863   -0.04987865452542
N        30.98864542948002    1.60103283554292    0.00017363842550
C        32.71529842677343    0.02160795135687   -0.00781170325892
C        31.92530065995733   -1.11876945382813    0.18320498745209
C        32.36438468160766   -2.16177164724483    1.03039563747997
C        31.36722593621310   -3.09929195593747    1.03526298091110
C        30.32668471147148   -2.63413593221015    0.19415479560572
N        30.68632146111477   -1.41218242847533   -0.30195095234776
C        29.15975224283193   -3.40511645745897    0.01972883962360
C        27.86835590410659   -2.93225750093542   -0.00299185087624
N        27.69943370334220   -1.59767388172612    0.02653168848287
H        26.38749502304124   -4.65593894605926   -0.00769339655023
H        24.58759638429084   -2.76781119316231   -0.02651679016197
H        25.33473662600845    2.25267925951175   -1.48829006132724
H        27.23820737887625    4.08944114170409   -1.47883429875825
H        28.54624498243996    0.82748588886078    0.94836034691830
H        29.40737276258251    4.49922112121339    0.11696957851050
H        32.30788635982258    4.64760417561238   -0.11887625720113
H        34.09321868099907    2.75877883690541   -0.12825411687287
H        33.28991147841219   -2.20335116526337    1.58570150683391
H        31.37105790664039   -4.01043360329103    1.60971129181552
H        30.14868889480154   -0.83477198932805   -0.97123081695283
H        29.25658980130211   -4.48369315810586   -0.04418612228268
114
 energy: -191.121814421244 gnorm: 0.131614286936 xtb: 6.4.1 (bd6e46d)
C        20.77805724100611    3.49531577599526    0.79859701799873
C        21.72719205064138    2.55745965822617    0.57504581489451
C        21.04896612071538    1.30875139751630    0.25697756272693
C        21.62411034419807    0.03718578412904    0.01178005815024
C        20.71139607888502   -1.10405221734633   -0.08449309786107
C        21.06760419288628   -2.35345895416075    0.47640226911821
C        20.07161724718499   -3.27006993637192    0.26401688004897
C        19.02039721317934   -2.61514695348497   -0.41811120581418
N        19.40307229354918   -1.29179164785009   -0.58830474956571
C        17.82990274529996   -3.31864020611834   -0.75985482991247
C        16.54174986477099   -2.82376278963432   -0.65136316891364
C        15.23917192305405   -3.49718225396645   -0.74136865027798
C        14.30664363847047   -2.54830839799557   -0.50270122446329
C        15.04707604332408   -1.30914604324836   -0.24135877480451
N        16.36433345333971   -1.53145179811032   -0.34482295915996
C        14.58874249603427   -0.02813210642217    0.00472478170770
C        15.39196013710309    1.13138931149655    0.06121572479580
C        14.97738848440170    2.35813225398006   -0.51329875358227
C        15.97510468829339    3.27395345414072   -0.31864154544314
C        17.02561940114841    2.63059341776446    0.38031201365013
N        16.65775629462924    1.31782491602848    0.57155026443332
C        18.21214467878340    3.31455539042049    0.72237933049638
C        19.49861519426278    2.80451147903465    0.64061965738504
N        19.70786515036067    1.51253238705310    0.31063731048578
H        20.94432410996330    4.53339729233108    1.03217896489123
H        22.78672900988160    2.68535988882552    0.63227906964088
H        21.97614379670647   -2.51371810750939    1.01129352574418
H        20.06381387336594   -4.28974186305053    0.60336136987454
H        18.82652862589102   -0.62076931381690   -1.07485172298179
H        17.95376379797732   -4.35756891599085   -1.04967196588273
H        15.05034538646124   -4.53567183106795   -0.93546608870325
H        13.24217233103930   -2.70108074221995   -0.52101673856641
H        13.51950413657467    0.12137738037865    0.07628286029340
H        14.06627524834621    2.51595522445948   -1.05513733778002
H        15.99476783997078    4.28356298674870   -0.68027274820206
H        17.18588457258525    0.63668882932392    1.08772434278929
H        18.09788135558201    4.35611624080976    0.99105262084275
C        37.89688155846970   -3.48025919352116    0.83512920659810
C        36.94801248153012   -2.54465391604866    0.60181598264789
C        37.62574114973677   -1.29923227799358    0.27017239069304
C        37.04899970828247   -0.03072332405403    0.00892212568901
C        37.96307974394453    1.10968706083239   -0.09699706204823
C        37.60708130674392    2.36453736789544    0.45149841297036
C        38.60333844324876    3.27896275462742    0.23008787308423
C        39.65444972590684    2.61709309913249   -0.44515088366453
N        39.27173578877905    1.29202482736183   -0.60171755895468
C        40.84503209598623    3.31705013355637   -0.79427241998521
C        42.13312145109232    2.82341043289557   -0.68063159184959
C        43.43569922900218    3.49579754711068   -0.77769747767226
C        44.36822090683013    2.54943896451706   -0.52918345531204
C        43.62776872374651    1.31308433410257   -0.25498512911076
N        42.31057379316349    1.53426755076836   -0.36068468206238
C        44.08612191847336    0.03462227328277    0.00436309582763
C        43.28291454329948   -1.12419330204388    0.07289244392420
C        43.69747933562647   -2.35688519916517   -0.48882794800199
C        42.69975624452260   -3.27060232947940   -0.28470026337382
C        41.64920376960193   -2.61999326686683    0.40752664310110
N        42.01710887333995   -1.30532659877108    0.58513825868708
C        40.46267478123175   -3.30030878802782    0.75670659665227
C        39.17622907584678   -2.79096577257431    0.66985402336875
N        38.96677031908444   -1.50246964414804    0.32658269265290
H        37.73057898168409   -4.51593376355515    1.07923140788856
H        35.88861091863102   -2.67268304970917    0.65836080558295
H        36.69866527402007    2.53051790068361    0.98492605172290
H        38.61107553779924    4.30211916952436    0.55886965308877
H        39.84825345484634    0.61604683546577   -1.08141572350165
H        40.72111151807518    4.35286405751530   -1.09503312415009
H        43.62453095985960    4.53221694401083   -0.98255202058343
H        45.43269505180954    2.70200951798116   -0.54908528998027
H        45.15536705352393   -0.11410734387863    0.07743842198446
H        44.60858404497291   -2.52029502285286   -1.02902990822390
H        42.68008022697818   -4.28390429282699   -0.63585355445337
H        41.48897721926501   -0.61885126587667    1.09418014527941
H        40.57694108928623   -4.33909921384872    1.03598545457771
C        23.23029935835647   -0.01506006583563    0.01124206274071
C        24.47468566050194    0.01858268286762   -0.02954077337927
C        34.20350854146673   -0.00405456367789    0.04024214766210
C        35.44932554735029    0.01852090053093    0.01559989062730
C        26.58102984570542   -3.59088157107105   -0.01440488367365
C        25.64834662709159   -2.61014018924290    0.00051398798432
C        26.38920621777651   -1.35449961550080    0.03815840123561
C        25.90190995269307   -0.03192926175416    0.00448669296240
C        26.70793414782558    1.12825402875041   -0.15771478164218
C        26.26660294409771    2.21203826245801   -0.94555324748486
C        27.25234551845154    3.16305444692058   -0.93158417530544
C        28.32382330994862    2.67831071398359   -0.14525931214375
N        27.98024519827954    1.41744162530647    0.29363874252685
C        29.51295365289051    3.42678368232392    0.02775130754889
C        30.79329684976972    2.91714062355119    0.01367060826692
C        32.09015985047033    3.59346015235711   -0.06415796558293
C        33.02618834274858    2.61568311628418   -0.09568934649749
C        32.29117745663299    1.35848784277495   -0.06565676175413
N        30.97677715501539    1.58106536858560   -0.00425464351592
C        32.78005497391045    0.03608844897935   -0.01185499055968
C        31.96162282289558   -1.11346709163808    0.18211442363992
C        32.37358221195645   -2.16963835733268    1.02057010006055
C        31.37725896573317   -3.10971731288248    1.02429163104787
C        30.33097225161091   -2.64851067100040    0.19500072888982
N        30.69507459372695   -1.40749769171457   -0.28364457401765
C        29.15519211705536   -3.41502355810841    0.01133550228188
C        27.87575930500676   -2.91356697238143   -0.01617067412094