      -----------------------------------------------------------      
     |                   =====================                   |     
     |                           x T B                           |     
     |                   =====================                   |     
     |                         S. Grimme                         |     
     |          Mulliken Center for Theoretical Chemistry        |     
     |                    University of Bonn                     |     
      -----------------------------------------------------------      

   * xtb version 6.4.1 (bd6e46d) compiled by 'conda@4901f00b25ba' on 2021-06-10

   xtb is free software: you can redistribute it and/or modify it under
   the terms of the GNU Lesser General Public License as published by
   the Free Software Foundation, either version 3 of the License, or
   (at your option) any later version.
   
   xtb is distributed in the hope that it will be useful,
   but WITHOUT ANY WARRANTY; without even the implied warranty of
   MERCHANTABILITY or FITNESS FOR A PARTICULAR PURPOSE.  See the
   GNU Lesser General Public License for more details.
   
   Cite this work as:
   * C. Bannwarth, E. Caldeweyher, S. Ehlert, A. Hansen, P. Pracht,
     J. Seibert, S. Spicher, S. Grimme, WIREs Comput. Mol. Sci., 2020, 11,
     e01493. DOI: 10.1002/wcms.1493
   
   for GFN2-xTB:
   * C. Bannwarth, S. Ehlert and S. Grimme., J. Chem. Theory Comput., 2019,
     15, 1652-1671. DOI: 10.1021/acs.jctc.8b01176
   for GFN1-xTB:
   * S. Grimme, C. Bannwarth, P. Shushkov, J. Chem. Theory Comput., 2017,
     13, 1989-2009. DOI: 10.1021/acs.jctc.7b00118
   for GFN0-xTB:
   * P. Pracht, E. Caldeweyher, S. Ehlert, S. Grimme, ChemRxiv, 2019, preprint.
     DOI: 10.26434/chemrxiv.8326202.v1
   for GFN-FF:
   * S. Spicher and S. Grimme, Angew. Chem. Int. Ed., 2020, 59, 15665-15673.
     DOI: 10.1002/anie.202004239
   
   for DFT-D4:
   * E. Caldeweyher, C. Bannwarth and S. Grimme, J. Chem. Phys., 2017,
     147, 034112. DOI: 10.1063/1.4993215
   * E. Caldeweyher, S. Ehlert, A. Hansen, H. Neugebauer, S. Spicher,
     C. Bannwarth and S. Grimme, J. Chem. Phys., 2019, 150, 154122.
     DOI: 10.1063/1.5090222
   * E. Caldeweyher, J.-M. Mewes, S. Ehlert and S. Grimme, Phys. Chem. Chem. Phys.
     2020, 22, 8499-8512. DOI: 10.1039/D0CP00502A
   
   for sTDA-xTB:
   * S. Grimme and C. Bannwarth, J. Chem. Phys., 2016, 145, 054103.
     DOI: 10.1063/1.4959605
   
   in the mass-spec context:
   * V. Asgeirsson, C. Bauer and S. Grimme, Chem. Sci., 2017, 8, 4879.
     DOI: 10.1039/c7sc00601b
   * J. Koopman and S. Grimme, ACS Omega 2019, 4, 12, 15120-15133.
     DOI: 10.1021/acsomega.9b02011
   
   for metadynamics refer to:
   * S. Grimme, J. Chem. Theory Comput., 2019, 155, 2847-2862
     DOI: 10.1021/acs.jctc.9b00143
   
   for SPH calculations refer to:
   * S. Spicher and S. Grimme, J. Chem. Theory Comput., 2021, 17, 1701-1714
     DOI: 10.1021/acs.jctc.0c01306
   
   with help from (in alphabetical order)
   P. Atkinson, C. Bannwarth, F. Bohle, G. Brandenburg, E. Caldeweyher
   M. Checinski, S. Dohm, S. Ehlert, S. Ehrlich, I. Gerasimov, J. Koopman
   C. Lavigne, S. Lehtola, F. März, M. Müller, F. Musil, H. Neugebauer
   J. Pisarek, C. Plett, P. Pracht, J. Seibert, P. Shushkov, S. Spicher
   M. Stahn, M. Steiner, T. Strunk, J. Stückrath, T. Rose, and J. Unsleber
   
 * started run on 2021/11/21 at 12:48:34.599     

           -------------------------------------------------
          |                Calculation Setup                |
           -------------------------------------------------

          program call               : /home/jeff/miniconda3/bin/xtb input_structure_1.xyz --gfn 2 --ohess normal --parallel 1 --etemp 300 --chrg 0 --uhf 0 -I det_control.in
          hostname                   : jelfscompute1
          coordinate file            : input_structure_1.xyz
          omp threads                :                     1
          number of atoms            :                   374
          number of electrons        :                  1202
          charge                     :                     0
          spin                       :                   0.0
          first test random number   :      0.75032596742521

   ID    Z sym.   atoms
    1    6 C      1-8, 10-14, 16-20, 22, 23, 38-45, 47-51, 53-57, 59, 60,
                  75-130, 132-136, 138-142, 144, 145, 159-166, 168-172,
                  174-178, 180, 181, 195-202, 204-208, 210-214, 216, 217,
                  231-238, 240-244, 246-250, 252, 253, 267-274, 276-280,
                  282-286, 288, 289, 303-310, 312-316, 318-322, 324, 325,
                  339-346, 348-352, 354-358, 360, 361
    2    7 N      9, 15, 21, 24, 46, 52, 58, 61, 131, 137, 143, 146, 167,
                  173, 179, 182, 203, 209, 215, 218, 239, 245, 251, 254, 275,
                  281, 287, 290, 311, 317, 323, 326, 347, 353, 359, 362
    3    1 H      25-37, 62-74, 147-158, 183-194, 219-230, 255-266, 291-302,
                  327-338, 363-374

molecular fragmentation (1/2 indicates fragments):
111111111111111111111111111111111111122222222222222222222222222222222222
222222222222222222222222222222222222222222222222222222222222222222222222
222222222222222222222222222222222222222222222222222222222222222222222222
222222222222222222222222222222222222222222222222222222222222222222222222
222222222222222222222222222222222222222222222222222222222222222222222222
22222222222222
# atoms in fragment 1/2:    37   337
 fragment masses (1/2) :      309.34     3044.22
CMA distance (Bohr)    : 133.484
constraining FC (au)   :  0.0500

           -------------------------------------------------
          |                 G F N 2 - x T B                 |
           -------------------------------------------------

        Reference                      10.1021/acs.jctc.8b01176
      * Hamiltonian:
        H0-scaling (s, p, d)           1.850000    2.230000    2.230000
        zeta-weighting                 0.500000
      * Dispersion:
        s8                             2.700000
        a1                             0.520000
        a2                             5.000000
        s9                             5.000000
      * Repulsion:
        kExp                           1.500000    1.000000
        rExp                           1.000000
      * Coulomb:
        alpha                          2.000000
        third order                    shell-resolved
        anisotropic                    true
        a3                             3.000000
        a5                             4.000000
        cn-shift                       1.200000
        cn-exp                         4.000000
        max-rad                        5.000000


          ...................................................
          :                      SETUP                      :
          :.................................................:
          :  # basis functions                1166          :
          :  # atomic orbitals                1166          :
          :  # shells                          638          :
          :  # electrons                      1202          :
          :  max. iterations                   250          :
          :  Hamiltonian                  GFN2-xTB          :
          :  restarted?                      false          :
          :  GBSA solvation                  false          :
          :  PC potential                    false          :
          :  electronic temp.          300.0000000     K    :
          :  accuracy                    1.0000000          :
          :  -> integral cutoff          0.2500000E+02      :
          :  -> integral neglect         0.1000000E-07      :
          :  -> SCF convergence          0.1000000E-05 Eh   :
          :  -> wf. convergence          0.1000000E-03 e    :
          :  Broyden damping             0.4000000          :
          ...................................................

 iter      E             dE          RMSdq      gap      omega  full diag
   1   -657.6279495 -0.657628E+03  0.616E+00    0.09       0.0  T
   2   -607.2088662  0.504191E+02  0.548E+00    0.07       1.0  T
   3    -94.5347197  0.512674E+03  0.120E+01    0.03       1.0  T
   4   -199.9808732 -0.105446E+03  0.110E+01    0.02       1.0  T
   5   -571.8104623 -0.371830E+03  0.573E+00    0.01       1.0  T
   6   -635.5558019 -0.637453E+02  0.375E+00    0.10       1.0  T
   7   -611.9692329  0.235866E+02  0.420E+00    0.01       1.0  T
   8   -630.2573402 -0.182881E+02  0.346E+00    0.10       1.0  T
   9   -654.5549312 -0.242976E+02  0.234E+00    0.03       1.0  T
  10   -658.1744071 -0.361948E+01  0.181E+00    0.20       1.0  T
  11   -658.2817042 -0.107297E+00  0.162E+00    0.07       1.0  T
  12   -658.5185946 -0.236890E+00  0.140E+00    0.12       1.0  T
  13   -658.7658773 -0.247283E+00  0.126E+00    0.18       1.0  T
  14   -659.1766679 -0.410791E+00  0.883E-01    0.06       1.0  T
  15   -659.0282377  0.148430E+00  0.835E-01    0.14       1.0  T
  16   -659.5658577 -0.537620E+00  0.444E-01    0.04       1.0  T
  17   -659.4969155  0.689422E-01  0.468E-01    0.00       1.0  T
  18   -659.3976681  0.992473E-01  0.480E-01    0.03       1.0  T
  19   -659.5757248 -0.178057E+00  0.408E-01    0.19       1.0  T
  20   -659.6221856 -0.464608E-01  0.295E-01    0.19       1.0  T
  21   -659.6367648 -0.145792E-01  0.232E-01    0.08       1.0  T
  22   -659.6433484 -0.658352E-02  0.179E-01    0.17       1.0  T
  23   -659.6609067 -0.175583E-01  0.127E-01    0.10       1.0  T
  24   -659.6627858 -0.187912E-02  0.117E-01    0.09       1.0  T
  25   -659.6628349 -0.491053E-04  0.119E-01    0.07       1.0  T
  26   -659.6715476 -0.871269E-02  0.792E-02    0.09       1.0  T
  27   -659.6728301 -0.128245E-02  0.788E-02    0.08       1.0  T
  28   -659.6729129 -0.828654E-04  0.781E-02    0.08       1.0  T
  29   -659.6744100 -0.149709E-02  0.633E-02    0.08       1.0  T
  30   -659.6733638  0.104620E-02  0.508E-02    0.07       1.0  T
  31   -659.6755862 -0.222233E-02  0.272E-02    0.07       1.0  T
  32   -659.6755852  0.973669E-06  0.229E-02    0.07       1.0  T
  33   -659.6762381 -0.652912E-03  0.107E-02    0.07       1.0  T
  34   -659.6762252  0.128631E-04  0.131E-02    0.07       1.0  T
  35   -659.6763227 -0.974842E-04  0.841E-03    0.07       1.0  T
  36   -659.6763738 -0.510846E-04  0.686E-03    0.08       1.0  T
  37   -659.6763972 -0.234486E-04  0.430E-03    0.08       1.2  T
  38   -659.6764018 -0.451021E-05  0.342E-03    0.08       1.5  T
  39   -659.6764053 -0.354353E-05  0.266E-03    0.08       1.9  T
  40   -659.6764113 -0.602250E-05  0.178E-03    0.08       2.9  T
  41   -659.6764115 -0.185935E-06  0.164E-03    0.08       3.2  T
  42   -659.6764140 -0.254390E-05  0.752E-04    0.08       6.9  T
  43   -659.6764145 -0.449563E-06  0.381E-04    0.08      13.6  T
  44   -659.6764146 -0.143032E-06  0.268E-04    0.08      19.3  T

   *** convergence criteria satisfied after 44 iterations ***

         #    Occupation            Energy/Eh            Energy/eV
      -------------------------------------------------------------
         1        2.0000           -0.6936703             -18.8757
       ...           ...                  ...                  ...
       595        2.0000           -0.3476526              -9.4601
       596        2.0000           -0.3444874              -9.3740
       597        2.0000           -0.3444645              -9.3734
       598        2.0000           -0.3435247              -9.3478
       599        1.9997           -0.3392108              -9.2304
       600        1.9694           -0.3348317              -9.1112
       601        1.4896           -0.3318930              -9.0313 (HOMO)
       602        0.2709           -0.3291145              -8.9557 (LUMO)
       603        0.2666           -0.3290967              -8.9552
       604        0.0038           -0.3249346              -8.8419
       605        0.0000           -0.3205215              -8.7218
       606        0.0000           -0.3162423              -8.6054
       ...           ...                  ...                  ...
      1166                          2.0178808              54.9093
      -------------------------------------------------------------
                  HL-Gap            0.0027785 Eh            0.0756 eV
             Fermi-level           -0.3308755 Eh           -9.0036 eV

 SCC (total)                   0 d,  0 h,  0 min, 23.192 sec
 SCC setup                      ...        0 min,  0.024 sec (  0.104%)
 Dispersion                     ...        0 min,  0.048 sec (  0.205%)
 classical contributions        ...        0 min,  0.003 sec (  0.014%)
 integral evaluation            ...        0 min,  0.339 sec (  1.461%)
 iterations                     ...        0 min, 21.980 sec ( 94.772%)
 molecular gradient             ...        0 min,  0.730 sec (  3.149%)
 printout                       ...        0 min,  0.068 sec (  0.295%)

         :::::::::::::::::::::::::::::::::::::::::::::::::::::
         ::                     SUMMARY                     ::
         :::::::::::::::::::::::::::::::::::::::::::::::::::::
         :: total energy            -645.589087439919 Eh    ::
         :: gradient norm              2.082424024382 Eh/a0 ::
         :: HOMO-LUMO gap              0.075605527921 eV    ::
         ::.................................................::
         :: SCC energy              -659.676414641724 Eh    ::
         :: -> isotropic ES            0.352908470836 Eh    ::
         :: -> anisotropic ES         -0.023742963301 Eh    ::
         :: -> anisotropic XC          0.513546099937 Eh    ::
         :: -> dispersion             -0.516532605112 Eh    ::
         :: repulsion energy          14.092359619391 Eh    ::
         :: add. restraining           0.000000000000 Eh    ::
         :: total charge              -0.000000000010 e     ::
         :::::::::::::::::::::::::::::::::::::::::::::::::::::

      ----------------------------------------------------------- 
     |                   =====================                   |
     |                        A N C O P T                        |
     |                   =====================                   |
     |               Approximate Normal Coordinate               |
     |                Rational Function Optimizer                |
      ----------------------------------------------------------- 

          ...................................................
          :                      SETUP                      :
          :.................................................:
          :   optimization level            normal          :
          :   max. optcycles                  1122          :
          :   ANC micro-cycles                  20          :
          :   degrees of freedom              1116          :
          :.................................................:
          :   RF solver                   davidson          :
          :   write xtbopt.log                true          :
          :   linear?                        false          :
          :   energy convergence         0.5000000E-05 Eh   :
          :   grad. convergence          0.1000000E-02 Eh/α :
          :   maximium RF displ.         1.0000000          :
          :   Hlow (freq-cutoff)         0.1000000E-01      :
          :   Hmax (freq-cutoff)         5.0000000          :
          :   S6 in model hess.         20.0000000          :
          ...................................................

generating ANC from model Hessian ...
Using Lindh-Hessian (1995)
 Shifting diagonal of input Hessian by    1.0167727046240317E-002
 Lowest  eigenvalues of input Hessian
    0.010000    0.010025    0.010153    0.010154    0.010155    0.010157
    0.010158    0.010159    0.010166    0.010166    0.010166    0.010166
    0.010167    0.010167    0.010167    0.010168    0.000000    0.000000
 Highest eigenvalues
    3.334021    3.334022    3.334022    3.334024    3.334025    3.334025


........................................................................
.............................. CYCLE    1 ..............................
........................................................................
   1   -659.6764147 -0.659676E+03  0.226E-04    0.08       0.0  T
   2   -659.6763816  0.330981E-04  0.472E-03    0.07       1.1  T
   3   -659.6764142 -0.326389E-04  0.642E-04    0.08       8.0  T
   4   -659.6764144 -0.179675E-06  0.520E-04    0.08       9.9  T
   5   -659.6764143  0.146547E-06  0.663E-04    0.08       7.8  T
     SCC iter.                  ...        0 min,  2.520 sec
     gradient                   ...        0 min,  0.730 sec
 * total energy  :  -645.5890871 Eh     change        0.3598502E-06 Eh
   gradient norm :     2.0824119 Eh/α   predicted     0.0000000E+00 (-100.00%)
   displ. norm   :     0.6575617 α      lambda       -0.1287017E+01
   maximum displ.:     0.2396382 α      in ANC's #1095, #890, #1116, ...

........................................................................
.............................. CYCLE    2 ..............................
........................................................................
   1   -659.8835275 -0.659884E+03  0.299E-01    0.15       0.0  T
   2   -658.6650630  0.121846E+01  0.103E+00    0.12       1.0  T
   3   -659.8188224 -0.115376E+01  0.351E-01    0.24       1.0  T
   4   -659.8979757 -0.791532E-01  0.212E-01    0.13       1.0  T
   5   -659.7090585  0.188917E+00  0.551E-01    0.15       1.0  T
   6   -659.7965272 -0.874687E-01  0.298E-01    0.01       1.0  T
   7   -659.2488242  0.547703E+00  0.682E-01    0.11       1.0  T
   8   -659.8930518 -0.644228E+00  0.152E-01    0.06       1.0  T
   9   -659.9045517 -0.114999E-01  0.985E-02    0.08       1.0  T
  10   -659.9147428 -0.101911E-01  0.515E-02    0.10       1.0  T
  11   -659.9175684 -0.282568E-02  0.148E-02    0.08       1.0  T
  12   -659.9162543  0.131414E-02  0.339E-02    0.08       1.0  T
  13   -659.9173282 -0.107387E-02  0.198E-02    0.08       1.0  T
  14   -659.9177808 -0.452665E-03  0.753E-03    0.08       1.0  T
  15   -659.9178213 -0.404917E-04  0.441E-03    0.08       1.2  T
  16   -659.9177977  0.236631E-04  0.566E-03    0.08       1.0  T
  17   -659.9178141 -0.164827E-04  0.460E-03    0.08       1.1  T
  18   -659.9178200 -0.590166E-05  0.380E-03    0.08       1.4  T
  19   -659.9178295 -0.941790E-05  0.241E-03    0.08       2.1  T
  20   -659.9178355 -0.608080E-05  0.116E-03    0.08       4.5  T
  21   -659.9178367 -0.117169E-05  0.619E-04    0.08       8.4  T
  22   -659.9178371 -0.341804E-06  0.315E-04    0.08      16.4  T
  23   -659.9178371 -0.761390E-07  0.216E-04    0.08      24.0  T
     SCC iter.                  ...        0 min, 11.527 sec
     gradient                   ...        0 min,  0.732 sec
 * total energy  :  -646.5019080 Eh     change       -0.9128210E+00 Eh
   gradient norm :     0.9125310 Eh/α   predicted    -0.9217553E+00 (   0.98%)
   displ. norm   :     0.6387502 α      lambda       -0.5165837E+00
   maximum displ.:     0.1948027 α      in ANC's #698, #890, #542, ...

........................................................................
.............................. CYCLE    3 ..............................
........................................................................
   1   -660.1139621 -0.660114E+03  0.238E-01    0.09       0.0  T
   2   -659.3244684  0.789494E+00  0.808E-01    0.08       1.0  T
   3   -660.0636514 -0.739183E+00  0.321E-01    0.23       1.0  T
   4   -660.0473669  0.162845E-01  0.314E-01    0.12       1.0  T
   5   -659.8730612  0.174306E+00  0.442E-01    0.04       1.0  T
   6   -659.4157396  0.457322E+00  0.774E-01    0.09       1.0  T
   7   -660.0901201 -0.674381E+00  0.241E-01    0.07       1.0  T
   8   -659.8808344  0.209286E+00  0.391E-01    0.04       1.0  T
   9   -660.1058755 -0.225041E+00  0.161E-01    0.11       1.0  T
  10   -660.1151518 -0.927634E-02  0.110E-01    0.09       1.0  T
  11   -660.1219502 -0.679839E-02  0.675E-02    0.08       1.0  T
  12   -660.1251741 -0.322395E-02  0.185E-02    0.07       1.0  T
  13   -660.1250176  0.156558E-03  0.180E-02    0.07       1.0  T
  14   -660.1245882  0.429369E-03  0.246E-02    0.06       1.0  T
  15   -660.1252361 -0.647871E-03  0.124E-02    0.07       1.0  T
  16   -660.1253498 -0.113678E-03  0.759E-03    0.07       1.0  T
  17   -660.1253924 -0.426099E-04  0.492E-03    0.07       1.1  T
  18   -660.1254094 -0.170667E-04  0.333E-03    0.07       1.6  T
  19   -660.1254190 -0.951708E-05  0.196E-03    0.07       2.6  T
  20   -660.1254226 -0.368348E-05  0.866E-04    0.07       6.0  T
  21   -660.1254232 -0.573858E-06  0.472E-04    0.07      11.0  T
  22   -660.1254234 -0.224961E-06  0.231E-04    0.07      22.4  T
     SCC iter.                  ...        0 min, 11.020 sec
     gradient                   ...        0 min,  0.733 sec
 * total energy  :  -646.8970027 Eh     change       -0.3950946E+00 Eh
   gradient norm :     0.4512295 Eh/α   predicted    -0.3637912E+00 (  -7.92%)
   displ. norm   :     0.6698691 α      lambda       -0.2600641E+00
   maximum displ.:     0.1934458 α      in ANC's #698, #578, #542, ...

........................................................................
.............................. CYCLE    4 ..............................
........................................................................
   1   -660.3574578 -0.660357E+03  0.221E-01    0.10       0.0  T
   2   -659.3029378  0.105452E+01  0.922E-01    0.12       1.0  T
   3   -660.3324930 -0.102956E+01  0.254E-01    0.15       1.0  T
   4   -660.2775196  0.549735E-01  0.337E-01    0.10       1.0  T
   5   -660.0262562  0.251263E+00  0.503E-01    0.07       1.0  T
   6   -659.7285131  0.297743E+00  0.724E-01    0.09       1.0  T
   7   -660.3369291 -0.608416E+00  0.216E-01    0.07       1.0  T
   8   -660.2612718  0.756573E-01  0.261E-01    0.01       1.0  T
   9   -660.3449933 -0.837214E-01  0.180E-01    0.11       1.0  T
  10   -660.3536036 -0.861034E-02  0.137E-01    0.09       1.0  T
  11   -660.3657756 -0.121720E-01  0.606E-02    0.08       1.0  T
  12   -660.3685580 -0.278234E-02  0.200E-02    0.06       1.0  T
  13   -660.3686581 -0.100124E-03  0.139E-02    0.06       1.0  T
  14   -660.3686487  0.937396E-05  0.137E-02    0.06       1.0  T
  15   -660.3688003 -0.151573E-03  0.864E-03    0.06       1.0  T
  16   -660.3688611 -0.607676E-04  0.565E-03    0.07       1.0  T
  17   -660.3688835 -0.223944E-04  0.361E-03    0.07       1.4  T
  18   -660.3688934 -0.994641E-05  0.218E-03    0.07       2.4  T
  19   -660.3688989 -0.543014E-05  0.712E-04    0.07       7.3  T
  20   -660.3688994 -0.571195E-06  0.239E-04    0.07      21.6  T
  21   -660.3688995 -0.645668E-07  0.533E-05    0.07      97.1  T
     SCC iter.                  ...        0 min, 10.535 sec
     gradient                   ...        0 min,  0.733 sec
 * total energy  :  -647.0900825 Eh     change       -0.1930798E+00 Eh
   gradient norm :     0.2053528 Eh/α   predicted    -0.1883807E+00 (  -2.43%)
   displ. norm   :     0.7395436 α      lambda       -0.1280897E+00
   maximum displ.:     0.2306753 α      in ANC's #241, #578, #100, ...

........................................................................
.............................. CYCLE    5 ..............................
........................................................................
   1   -660.5058608 -0.660506E+03  0.203E-01    0.13       0.0  T
   2   -659.3208174  0.118504E+01  0.974E-01    0.12       1.0  T
   3   -660.5128440 -0.119203E+01  0.142E-01    0.10       1.0  T
   4   -660.4433168  0.695272E-01  0.305E-01    0.04       1.0  T
   5   -659.9516391  0.491678E+00  0.625E-01    0.08       1.0  T
   6   -660.0690195 -0.117380E+00  0.596E-01    0.07       1.0  T
   7   -660.5016947 -0.432675E+00  0.153E-01    0.14       1.0  T
   8   -660.4959492  0.574548E-02  0.128E-01    0.08       1.0  T
   9   -660.5147629 -0.188136E-01  0.764E-02    0.09       1.0  T
  10   -660.5193455 -0.458266E-02  0.298E-02    0.08       1.0  T
  11   -660.5196681 -0.322622E-03  0.193E-02    0.07       1.0  T
  12   -660.5202777 -0.609509E-03  0.948E-03    0.08       1.0  T
  13   -660.5202686  0.902050E-05  0.839E-03    0.08       1.0  T
  14   -660.5203064 -0.378079E-04  0.486E-03    0.07       1.1  T
  15   -660.5203277 -0.212846E-04  0.289E-03    0.07       1.8  T
  16   -660.5203342 -0.643486E-05  0.152E-03    0.07       3.4  T
  17   -660.5203350 -0.860330E-06  0.108E-03    0.07       4.8  T
  18   -660.5203355 -0.470605E-06  0.630E-04    0.07       8.2  T
  19   -660.5203357 -0.172015E-06  0.441E-04    0.07      11.7  T
     SCC iter.                  ...        0 min,  9.526 sec
     gradient                   ...        0 min,  0.732 sec
 * total energy  :  -647.1939878 Eh     change       -0.1039053E+00 Eh
   gradient norm :     0.1329363 Eh/α   predicted    -0.9907299E-01 (  -4.65%)
   displ. norm   :     0.8178797 α      lambda       -0.8755072E-01
   maximum displ.:     0.2708445 α      in ANC's #241, #100, #143, ...

........................................................................
.............................. CYCLE    6 ..............................
........................................................................
   1   -660.5555650 -0.660556E+03  0.187E-01    0.16       0.0  T
   2   -659.3370268  0.121854E+01  0.975E-01    0.12       1.0  T
   3   -660.5635983 -0.122657E+01  0.118E-01    0.11       1.0  T
   4   -660.4597858  0.103813E+00  0.366E-01    0.04       1.0  T
   5   -660.0626139  0.397172E+00  0.570E-01    0.07       1.0  T
   6   -660.3098764 -0.247262E+00  0.428E-01    0.03       1.0  T
   7   -660.5580471 -0.248171E+00  0.104E-01    0.11       1.0  T
   8   -660.5578899  0.157236E-03  0.971E-02    0.12       1.0  T
   9   -660.5663786 -0.848868E-02  0.505E-02    0.11       1.0  T
  10   -660.5680542 -0.167563E-02  0.300E-02    0.10       1.0  T
  11   -660.5689981 -0.943951E-03  0.154E-02    0.10       1.0  T
  12   -660.5691562 -0.158023E-03  0.108E-02    0.09       1.0  T
  13   -660.5692306 -0.744312E-04  0.731E-03    0.09       1.0  T
  14   -660.5692945 -0.638643E-04  0.316E-03    0.09       1.6  T
  15   -660.5693014 -0.693623E-05  0.217E-03    0.09       2.4  T
  16   -660.5693044 -0.302510E-05  0.153E-03    0.09       3.4  T
  17   -660.5693069 -0.251490E-05  0.715E-04    0.09       7.2  T
  18   -660.5693076 -0.619308E-06  0.242E-04    0.09      21.4  T
  19   -660.5693076 -0.619214E-07  0.917E-05    0.09      56.4  T
     SCC iter.                  ...        0 min,  9.505 sec
     gradient                   ...        0 min,  0.733 sec
 * total energy  :  -647.2697912 Eh     change       -0.7580344E-01 Eh
   gradient norm :     0.0972788 Eh/α   predicted    -0.7305789E-01 (  -3.62%)
   displ. norm   :     0.8701768 α      lambda       -0.6875494E-01
   maximum displ.:     0.3138772 α      in ANC's #100, #143, #241, ...

........................................................................
.............................. CYCLE    7 ..............................
........................................................................
   1   -660.5507928 -0.660551E+03  0.165E-01    0.19       0.0  T
   2   -659.3223554  0.122844E+01  0.946E-01    0.12       1.0  T
   3   -660.5485819 -0.122623E+01  0.157E-01    0.14       1.0  T
   4   -660.4799893  0.685926E-01  0.344E-01    0.18       1.0  T
   5   -660.5493016 -0.693124E-01  0.994E-02    0.07       1.0  T
   6   -660.5581311 -0.882950E-02  0.514E-02    0.10       1.0  T
   7   -660.5233275  0.348037E-01  0.155E-01    0.05       1.0  T
   8   -660.5592645 -0.359371E-01  0.348E-02    0.10       1.0  T
   9   -660.5611334 -0.186886E-02  0.138E-02    0.10       1.0  T
  10   -660.5613062 -0.172849E-03  0.856E-03    0.10       1.0  T
  11   -660.5612307  0.755245E-04  0.112E-02    0.10       1.0  T
  12   -660.5612830 -0.522373E-04  0.953E-03    0.10       1.0  T
  13   -660.5613636 -0.806621E-04  0.364E-03    0.10       1.4  T
  14   -660.5613690 -0.540021E-05  0.214E-03    0.11       2.4  T
  15   -660.5613700 -0.956821E-06  0.149E-03    0.11       3.5  T
  16   -660.5613707 -0.695176E-06  0.755E-04    0.11       6.9  T
  17   -660.5613710 -0.353132E-06  0.431E-04    0.11      12.0  T
     SCC iter.                  ...        0 min,  8.466 sec
     gradient                   ...        0 min,  0.733 sec
 * total energy  :  -647.3317421 Eh     change       -0.6195089E-01 Eh
   gradient norm :     0.0732756 Eh/α   predicted    -0.6040838E-01 (  -2.49%)
   displ. norm   :     0.9081170 α      lambda       -0.5829010E-01
   maximum displ.:     0.3780805 α      in ANC's #100, #143, #241, ...

........................................................................
.............................. CYCLE    8 ..............................
........................................................................
   1   -660.5269964 -0.660527E+03  0.154E-01    0.23       0.0  T
   2   -659.2929463  0.123405E+01  0.908E-01    0.11       1.0  T
   3   -660.5075538 -0.121461E+01  0.220E-01    0.21       1.0  T
   4   -660.5076076 -0.538540E-04  0.205E-01    0.22       1.0  T
   5   -660.5335018 -0.258942E-01  0.577E-02    0.14       1.0  T
   6   -660.5342679 -0.766034E-03  0.289E-02    0.14       1.0  T
   7   -660.5241726  0.100953E-01  0.811E-02    0.09       1.0  T
   8   -660.5347438 -0.105712E-01  0.170E-02    0.12       1.0  T
   9   -660.5351207 -0.376954E-03  0.885E-03    0.13       1.0  T
  10   -660.5350536  0.671056E-04  0.114E-02    0.13       1.0  T
  11   -660.5351324 -0.787975E-04  0.720E-03    0.13       1.0  T
  12   -660.5351487 -0.162837E-04  0.450E-03    0.13       1.1  T
  13   -660.5351644 -0.157495E-04  0.243E-03    0.13       2.1  T
  14   -660.5351684 -0.398521E-05  0.914E-04    0.13       5.7  T
  15   -660.5351687 -0.262804E-06  0.316E-04    0.13      16.4  T
  16   -660.5351688 -0.825040E-07  0.201E-04    0.13      25.7  T
     SCC iter.                  ...        0 min,  7.990 sec
     gradient                   ...        0 min,  0.730 sec
 * total energy  :  -647.3860174 Eh     change       -0.5427532E-01 Eh
   gradient norm :     0.0606713 Eh/α   predicted    -0.5318033E-01 (  -2.02%)
   displ. norm   :     0.9405917 α      lambda       -0.5297806E-01
   maximum displ.:     0.4202972 α      in ANC's #100, #143, #91, ...

........................................................................
.............................. CYCLE    9 ..............................
........................................................................
   1   -660.5004933 -0.660500E+03  0.158E-01    0.31       0.0  T
   2   -659.9577975  0.542696E+00  0.578E-01    0.00       1.0  T
   3   -660.4804445 -0.522647E+00  0.209E-01    0.41       1.0  T
   4   -660.4891794 -0.873486E-02  0.170E-01    0.34       1.0  T
   5   -660.5031151 -0.139357E-01  0.710E-02    0.36       1.0  T
   6   -660.5037798 -0.664770E-03  0.539E-02    0.32       1.0  T
   7   -660.5046574 -0.877624E-03  0.467E-02    0.30       1.0  T
   8   -660.5051109 -0.453463E-03  0.408E-02    0.28       1.0  T
   9   -660.5054927 -0.381771E-03  0.356E-02    0.26       1.0  T
  10   -660.5059630 -0.470324E-03  0.292E-02    0.24       1.0  T
  11   -660.5068191 -0.856044E-03  0.133E-02    0.18       1.0  T
  12   -660.5061321  0.686965E-03  0.223E-02    0.14       1.0  T
  13   -660.5069121 -0.780027E-03  0.797E-03    0.16       1.0  T
  14   -660.5070147 -0.102633E-03  0.160E-03    0.17       3.2  T
  15   -660.5070155 -0.724081E-06  0.102E-03    0.17       5.1  T
  16   -660.5070157 -0.202839E-06  0.760E-04    0.17       6.8  T
  17   -660.5070160 -0.366628E-06  0.359E-04    0.17      14.4  T
     SCC iter.                  ...        0 min,  8.504 sec
     gradient                   ...        0 min,  0.731 sec
 * total energy  :  -647.4371250 Eh     change       -0.5110752E-01 Eh
   gradient norm :     0.0596058 Eh/α   predicted    -0.4992426E-01 (  -2.32%)
   displ. norm   :     0.9722138 α      lambda       -0.5233804E-01
   maximum displ.:     0.4329629 α      in ANC's #100, #143, #91, ...

........................................................................
.............................. CYCLE   10 ..............................
........................................................................
   1   -660.4733887 -0.660473E+03  0.173E-01    0.44       0.0  T
   2   -660.4468355  0.265532E-01  0.241E-01    0.22       1.0  T
   3   -660.4709630 -0.241275E-01  0.139E-01    0.34       1.0  T
   4   -660.4750661 -0.410304E-02  0.755E-02    0.39       1.0  T
   5   -660.4778080 -0.274189E-02  0.413E-02    0.29       1.0  T
   6   -660.4784964 -0.688430E-03  0.743E-03    0.31       1.0  T
   7   -660.4785029 -0.656299E-05  0.597E-03    0.30       1.0  T
   8   -660.4785007  0.224808E-05  0.582E-03    0.30       1.0  T
   9   -660.4785145 -0.138329E-04  0.240E-03    0.31       2.2  T
  10   -660.4785166 -0.208826E-05  0.882E-04    0.31       5.9  T
  11   -660.4785169 -0.237345E-06  0.453E-04    0.31      11.4  T
  12   -660.4785169 -0.469247E-07  0.304E-04    0.31      17.0  T
     SCC iter.                  ...        0 min,  6.001 sec
     gradient                   ...        0 min,  0.732 sec
 * total energy  :  -647.4896533 Eh     change       -0.5252832E-01 Eh
   gradient norm :     0.0657507 Eh/α   predicted    -0.5090403E-01 (  -3.09%)
   displ. norm   :     0.9671090 α      lambda       -0.5345732E-01
   maximum displ.:     0.4151999 α      in ANC's #100, #143, #91, ...

........................................................................
.............................. CYCLE   11 ..............................
........................................................................
   1   -660.4483999 -0.660448E+03  0.168E-01    0.54       0.0  T
   2   -660.4394196  0.898028E-02  0.162E-01    0.54       1.0  T
   3   -660.4442426 -0.482305E-02  0.137E-01    0.54       1.0  T
   4   -660.4507411 -0.649844E-02  0.426E-02    0.54       1.0  T
   5   -660.4509444 -0.203281E-03  0.305E-02    0.54       1.0  T
   6   -660.4514442 -0.499815E-03  0.563E-03    0.54       1.0  T
   7   -660.4514557 -0.115196E-04  0.336E-03    0.54       1.5  T
   8   -660.4514585 -0.278229E-05  0.213E-03    0.54       2.4  T
   9   -660.4514595 -0.965889E-06  0.138E-03    0.54       3.7  T
  10   -660.4514603 -0.851918E-06  0.481E-04    0.54      10.8  T
  11   -660.4514604 -0.647449E-07  0.270E-04    0.54      19.1  T
     SCC iter.                  ...        0 min,  5.505 sec
     gradient                   ...        0 min,  0.731 sec
 * total energy  :  -647.5445751 Eh     change       -0.5492180E-01 Eh
   gradient norm :     0.0785579 Eh/α   predicted    -0.5172803E-01 (  -5.82%)
   displ. norm   :     0.9496850 α      lambda       -0.5722637E-01
   maximum displ.:     0.3800476 α      in ANC's #100, #41, #91, ...

........................................................................
.............................. CYCLE   12 ..............................
........................................................................
   1   -660.4261122 -0.660426E+03  0.157E-01    0.57       0.0  T
   2   -660.4230609  0.305129E-02  0.125E-01    0.57       1.0  T
   3   -660.4235307 -0.469805E-03  0.116E-01    0.57       1.0  T
   4   -660.4281098 -0.457905E-02  0.272E-02    0.57       1.0  T
   5   -660.4281736 -0.638337E-04  0.135E-02    0.57       1.0  T
   6   -660.4282642 -0.905562E-04  0.460E-03    0.57       1.1  T
   7   -660.4282737 -0.948517E-05  0.266E-03    0.57       1.9  T
   8   -660.4282758 -0.213102E-05  0.131E-03    0.57       3.9  T
   9   -660.4282762 -0.404910E-06  0.696E-04    0.57       7.4  T
  10   -660.4282763 -0.112189E-06  0.357E-04    0.57      14.5  T
     SCC iter.                  ...        0 min,  5.001 sec
     gradient                   ...        0 min,  0.733 sec
 * total energy  :  -647.6043421 Eh     change       -0.5976700E-01 Eh
   gradient norm :     0.0926227 Eh/α   predicted    -0.5441950E-01 (  -8.95%)
   displ. norm   :     0.9298961 α      lambda       -0.6260151E-01
   maximum displ.:     0.3405595 α      in ANC's #100, #41, #118, ...

........................................................................
.............................. CYCLE   13 ..............................
........................................................................
   1   -660.4118022 -0.660412E+03  0.134E-01    0.59       0.0  T
   2   -660.4104437  0.135850E-02  0.108E-01    0.58       1.0  T
   3   -660.4107285 -0.284815E-03  0.868E-02    0.58       1.0  T
   4   -660.4130796 -0.235103E-02  0.235E-02    0.59       1.0  T
   5   -660.4131285 -0.489397E-04  0.143E-02    0.58       1.0  T
   6   -660.4132636 -0.135092E-03  0.473E-03    0.58       1.1  T
   7   -660.4132707 -0.704885E-05  0.220E-03    0.58       2.3  T
   8   -660.4132716 -0.952279E-06  0.116E-03    0.58       4.5  T
   9   -660.4132718 -0.218867E-06  0.519E-04    0.58      10.0  T
  10   -660.4132719 -0.908033E-07  0.231E-04    0.58      22.4  T
     SCC iter.                  ...        0 min,  4.995 sec
     gradient                   ...        0 min,  0.732 sec
 * total energy  :  -647.6691481 Eh     change       -0.6480604E-01 Eh
   gradient norm :     0.1039968 Eh/α   predicted    -0.5836676E-01 (  -9.94%)
   displ. norm   :     0.9147743 α      lambda       -0.6722152E-01
   maximum displ.:     0.3096409 α      in ANC's #100, #41, #118, ...

........................................................................
.............................. CYCLE   14 ..............................
........................................................................
   1   -660.4071615 -0.660407E+03  0.107E-01    0.60       0.0  T
   2   -660.4060618  0.109974E-02  0.996E-02    0.60       1.0  T
   3   -660.4073746 -0.131280E-02  0.555E-02    0.60       1.0  T
   4   -660.4078831 -0.508561E-03  0.240E-02    0.60       1.0  T
   5   -660.4080928 -0.209719E-03  0.116E-02    0.60       1.0  T
   6   -660.4081754 -0.825238E-04  0.376E-03    0.60       1.4  T
   7   -660.4081781 -0.277358E-05  0.208E-03    0.60       2.5  T
   8   -660.4081790 -0.868072E-06  0.984E-04    0.60       5.3  T
   9   -660.4081792 -0.166917E-06  0.516E-04    0.60      10.0  T
     SCC iter.                  ...        0 min,  4.530 sec
     gradient                   ...        0 min,  0.731 sec
 * total energy  :  -647.7345186 Eh     change       -0.6537050E-01 Eh
   gradient norm :     0.0993823 Eh/α   predicted    -0.6173667E-01 (  -5.56%)
   displ. norm   :     0.9192165 α      lambda       -0.7093833E-01
   maximum displ.:     0.3115286 α      in ANC's #41, #118, #100, ...

........................................................................
.............................. CYCLE   15 ..............................
........................................................................
   1   -660.4683146 -0.660468E+03  0.127E-01    0.58       0.0  T
   2   -660.4660902  0.222437E-02  0.128E-01    0.58       1.0  T
   3   -660.4692160 -0.312582E-02  0.616E-02    0.58       1.0  T
   4   -660.4692735 -0.574627E-04  0.293E-02    0.58       1.0  T
   5   -660.4697125 -0.439064E-03  0.110E-02    0.58       1.0  T
   6   -660.4697776 -0.650807E-04  0.391E-03    0.58       1.3  T
   7   -660.4697804 -0.281739E-05  0.219E-03    0.58       2.4  T
   8   -660.4697812 -0.712770E-06  0.112E-03    0.58       4.6  T
   9   -660.4697816 -0.434862E-06  0.409E-04    0.58      12.6  T
  10   -660.4697817 -0.663078E-07  0.153E-04    0.58      33.7  T
     SCC iter.                  ...        0 min,  4.996 sec
     gradient                   ...        0 min,  0.731 sec
 * total energy  :  -647.7872230 Eh     change       -0.5270436E-01 Eh
   gradient norm :     0.0930563 Eh/α   predicted    -0.6543921E-01 (  24.16%)
   displ. norm   :     0.8047260 α      lambda       -0.4605279E-01
   maximum displ.:     0.3855625 α      in ANC's #100, #41, #91, ...

........................................................................
.............................. CYCLE   16 ..............................
........................................................................
   1   -660.5191494 -0.660519E+03  0.833E-02    0.59       0.0  T
   2   -660.5190520  0.973564E-04  0.560E-02    0.59       1.0  T
   3   -660.5169973  0.205469E-02  0.581E-02    0.59       1.0  T
   4   -660.5192051 -0.220778E-02  0.139E-02    0.59       1.0  T
   5   -660.5192877 -0.825883E-04  0.335E-03    0.59       1.5  T
   6   -660.5192913 -0.360883E-05  0.153E-03    0.59       3.4  T
   7   -660.5192919 -0.643053E-06  0.871E-04    0.59       5.9  T
   8   -660.5192920 -0.100446E-06  0.456E-04    0.59      11.3  T
     SCC iter.                  ...        0 min,  4.001 sec
     gradient                   ...        0 min,  0.732 sec
 * total energy  :  -647.8301913 Eh     change       -0.4296827E-01 Eh
   gradient norm :     0.0741157 Eh/α   predicted    -0.3793794E-01 ( -11.71%)
   displ. norm   :     0.8843659 α      lambda       -0.4934735E-01
   maximum displ.:     0.3901596 α      in ANC's #100, #41, #91, ...

........................................................................
.............................. CYCLE   17 ..............................
........................................................................
   1   -660.6302877 -0.660630E+03  0.103E-01    0.58       0.0  T
   2   -660.6302291  0.586556E-04  0.693E-02    0.58       1.0  T
   3   -660.6286881  0.154100E-02  0.599E-02    0.58       1.0  T
   4   -660.6304334 -0.174532E-02  0.180E-02    0.58       1.0  T
   5   -660.6305601 -0.126695E-03  0.504E-03    0.58       1.0  T
   6   -660.6305684 -0.828194E-05  0.225E-03    0.58       2.3  T
   7   -660.6305702 -0.178962E-05  0.114E-03    0.58       4.5  T
   8   -660.6305703 -0.864322E-07  0.685E-04    0.58       7.5  T
   9   -660.6305705 -0.218727E-06  0.261E-04    0.58      19.8  T
     SCC iter.                  ...        0 min,  4.502 sec
     gradient                   ...        0 min,  0.730 sec
 * total energy  :  -647.8730351 Eh     change       -0.4284389E-01 Eh
   gradient norm :     0.0568249 Eh/α   predicted    -0.4397109E-01 (   2.63%)
   displ. norm   :     0.9353607 α      lambda       -0.4174019E-01
   maximum displ.:     0.4419716 α      in ANC's #100, #41, #91, ...

........................................................................
.............................. CYCLE   18 ..............................
........................................................................
   1   -660.6835961 -0.660684E+03  0.877E-02    0.60       0.0  T
   2   -660.6833698  0.226373E-03  0.614E-02    0.60       1.0  T
   3   -660.6811987  0.217105E-02  0.648E-02    0.60       1.0  T
   4   -660.6837048 -0.250607E-02  0.932E-03    0.60       1.0  T
   5   -660.6837461 -0.412843E-04  0.299E-03    0.60       1.7  T
   6   -660.6837500 -0.389740E-05  0.147E-03    0.60       3.5  T
   7   -660.6837504 -0.455796E-06  0.887E-04    0.60       5.8  T
   8   -660.6837507 -0.232054E-06  0.462E-04    0.60      11.2  T
     SCC iter.                  ...        0 min,  4.038 sec
     gradient                   ...        0 min,  0.730 sec
 * total energy  :  -647.9114183 Eh     change       -0.3838318E-01 Eh
   gradient norm :     0.0484267 Eh/α   predicted    -0.3912936E-01 (   1.94%)
   displ. norm   :     0.9378193 α      lambda       -0.3703188E-01
   maximum displ.:     0.4705701 α      in ANC's #100, #41, #91, ...

........................................................................
.............................. CYCLE   19 ..............................
........................................................................
   1   -660.7426070 -0.660743E+03  0.966E-02    0.61       0.0  T
   2   -660.7425548  0.522553E-04  0.596E-02    0.61       1.0  T
   3   -660.7406745  0.188026E-02  0.563E-02    0.61       1.0  T
   4   -660.7426430 -0.196846E-02  0.865E-03    0.61       1.0  T
   5   -660.7426824 -0.394757E-04  0.268E-03    0.61       1.9  T
   6   -660.7426848 -0.237727E-05  0.128E-03    0.61       4.0  T
   7   -660.7426850 -0.211160E-06  0.755E-04    0.61       6.8  T
   8   -660.7426852 -0.131734E-06  0.387E-04    0.61      13.4  T
     SCC iter.                  ...        0 min,  4.050 sec
     gradient                   ...        0 min,  0.730 sec
 * total energy  :  -647.9453386 Eh     change       -0.3392026E-01 Eh
   gradient norm :     0.0473548 Eh/α   predicted    -0.3480081E-01 (   2.60%)
   displ. norm   :     0.9569105 α      lambda       -0.3544965E-01
   maximum displ.:     0.4860319 α      in ANC's #100, #41, #91, ...

........................................................................
.............................. CYCLE   20 ..............................
........................................................................
   1   -660.8179816 -0.660818E+03  0.112E-01    0.63       0.0  T
   2   -660.8179323  0.492748E-04  0.682E-02    0.63       1.0  T
   3   -660.8157674  0.216491E-02  0.617E-02    0.63       1.0  T
   4   -660.8180112 -0.224383E-02  0.109E-02    0.63       1.0  T
   5   -660.8180745 -0.632807E-04  0.342E-03    0.63       1.5  T
   6   -660.8180791 -0.459623E-05  0.152E-03    0.63       3.4  T
   7   -660.8180794 -0.273122E-06  0.878E-04    0.63       5.9  T
   8   -660.8180796 -0.217265E-06  0.450E-04    0.63      11.5  T
     SCC iter.                  ...        0 min,  3.996 sec
     gradient                   ...        0 min,  0.730 sec
 * total energy  :  -647.9760972 Eh     change       -0.3075867E-01 Eh
   gradient norm :     0.0482052 Eh/α   predicted    -0.3395509E-01 (  10.39%)
   displ. norm   :     0.9208895 α      lambda       -0.3095345E-01
   maximum displ.:     0.5039232 α      in ANC's #100, #41, #91, ...
 * RMSD in coord.:     0.7216484 α      energy gain  -0.2387010E+01 Eh

generating ANC from model Hessian ...
Using Lindh-Hessian (1995)
 Shifting diagonal of input Hessian by    1.0000298075112891E-002
 Lowest  eigenvalues of input Hessian
    0.010000    0.010000    0.010000    0.010000    0.000000    0.000000
    0.000000    0.000000    0.000000    0.000000    0.010001    0.010001
    0.010001    0.010002    0.010002    0.010003    0.010004    0.010005
 Highest eigenvalues
    3.072765    3.072773    3.076769    3.076772    3.076793    3.076801


........................................................................
.............................. CYCLE   21 ..............................
........................................................................
   1   -660.8610611 -0.660861E+03  0.932E-02    0.64       0.0  T
   2   -660.8609956  0.655107E-04  0.578E-02    0.64       1.0  T
   3   -660.8591802  0.181542E-02  0.554E-02    0.64       1.0  T
   4   -660.8611038 -0.192363E-02  0.821E-03    0.64       1.0  T
   5   -660.8611437 -0.398833E-04  0.227E-03    0.64       2.3  T
   6   -660.8611453 -0.159313E-05  0.122E-03    0.64       4.2  T
   7   -660.8611455 -0.214283E-06  0.735E-04    0.64       7.0  T
   8   -660.8611457 -0.187171E-06  0.327E-04    0.64      15.8  T
     SCC iter.                  ...        0 min,  3.992 sec
     gradient                   ...        0 min,  0.732 sec
 * total energy  :  -648.0045430 Eh     change       -0.2844571E-01 Eh
   gradient norm :     0.0411471 Eh/α   predicted     0.0000000E+00 (-100.00%)
   displ. norm   :     0.7656387 α      lambda       -0.2293549E-01
   maximum displ.:     0.3490915 α      in ANC's #97, #104, #96, ...

........................................................................
.............................. CYCLE   22 ..............................
........................................................................
   1   -660.9022881 -0.660902E+03  0.792E-02    0.64       0.0  T
   2   -660.9022413  0.467746E-04  0.488E-02    0.64       1.0  T
   3   -660.9007266  0.151470E-02  0.476E-02    0.64       1.0  T
   4   -660.9023170 -0.159038E-02  0.494E-03    0.64       1.0  T
   5   -660.9023297 -0.127642E-04  0.199E-03    0.64       2.6  T
   6   -660.9023314 -0.165822E-05  0.910E-04    0.64       5.7  T
   7   -660.9023315 -0.882216E-07  0.550E-04    0.64       9.4  T
   8   -660.9023316 -0.105781E-06  0.224E-04    0.64      23.0  T
     SCC iter.                  ...        0 min,  4.023 sec
     gradient                   ...        0 min,  0.730 sec
 * total energy  :  -648.0263026 Eh     change       -0.2175967E-01 Eh
   gradient norm :     0.0310077 Eh/α   predicted    -0.1819031E-01 ( -16.40%)
   displ. norm   :     0.9466798 α      lambda       -0.2575297E-01
   maximum displ.:     0.4309560 α      in ANC's #97, #104, #96, ...

........................................................................
.............................. CYCLE   23 ..............................
........................................................................
   1   -660.9416485 -0.660942E+03  0.942E-02    0.65       0.0  T
   2   -660.9415893  0.592281E-04  0.576E-02    0.65       1.0  T
   3   -660.9395766  0.201271E-02  0.543E-02    0.65       1.0  T
   4   -660.9416902 -0.211364E-02  0.625E-03    0.65       1.0  T
   5   -660.9417108 -0.206334E-04  0.242E-03    0.65       2.1  T
   6   -660.9417134 -0.252615E-05  0.109E-03    0.65       4.8  T
   7   -660.9417135 -0.174534E-06  0.658E-04    0.65       7.9  T
   8   -660.9417137 -0.139848E-06  0.271E-04    0.65      19.1  T
     SCC iter.                  ...        0 min,  4.028 sec
     gradient                   ...        0 min,  0.731 sec
 * total energy  :  -648.0504828 Eh     change       -0.2418023E-01 Eh
   gradient norm :     0.0277352 Eh/α   predicted    -0.2441765E-01 (   0.98%)
   displ. norm   :     0.9528091 α      lambda       -0.2354586E-01
   maximum displ.:     0.4406333 α      in ANC's #97, #104, #96, ...

........................................................................
.............................. CYCLE   24 ..............................
........................................................................
   1   -660.9701458 -0.660970E+03  0.106E-01    0.66       0.0  T
   2   -660.9701181  0.277307E-04  0.635E-02    0.66       1.0  T
   3   -660.9685350  0.158303E-02  0.470E-02    0.66       1.0  T
   4   -660.9701783 -0.164330E-02  0.631E-03    0.66       1.0  T
   5   -660.9701987 -0.203959E-04  0.245E-03    0.66       2.1  T
   6   -660.9702010 -0.229873E-05  0.122E-03    0.66       4.2  T
   7   -660.9702013 -0.254843E-06  0.728E-04    0.66       7.1  T
   8   -660.9702015 -0.180618E-06  0.302E-04    0.66      17.1  T
     SCC iter.                  ...        0 min,  4.020 sec
     gradient                   ...        0 min,  0.733 sec
 * total energy  :  -648.0723343 Eh     change       -0.2185142E-01 Eh
   gradient norm :     0.0273919 Eh/α   predicted    -0.2246094E-01 (   2.79%)
   displ. norm   :     0.9500629 α      lambda       -0.2146644E-01
   maximum displ.:     0.4438435 α      in ANC's #97, #104, #96, ...

........................................................................
.............................. CYCLE   25 ..............................
........................................................................
   1   -661.0006555 -0.661001E+03  0.103E-01    0.68       0.0  T
   2   -661.0006437  0.118100E-04  0.609E-02    0.67       1.0  T
   3   -660.9995043  0.113940E-02  0.399E-02    0.68       1.0  T
   4   -661.0006847 -0.118036E-02  0.638E-03    0.68       1.0  T
   5   -661.0007047 -0.199705E-04  0.226E-03    0.68       2.3  T
   6   -661.0007064 -0.175277E-05  0.113E-03    0.68       4.6  T
   7   -661.0007066 -0.214421E-06  0.648E-04    0.68       8.0  T
   8   -661.0007068 -0.129568E-06  0.320E-04    0.68      16.2  T
     SCC iter.                  ...        0 min,  3.993 sec
     gradient                   ...        0 min,  0.736 sec
 * total energy  :  -648.0922777 Eh     change       -0.1994340E-01 Eh
   gradient norm :     0.0236957 Eh/α   predicted    -0.2042123E-01 (   2.40%)
   displ. norm   :     0.9413119 α      lambda       -0.1895359E-01
   maximum displ.:     0.4444228 α      in ANC's #97, #96, #104, ...

........................................................................
.............................. CYCLE   26 ..............................
........................................................................
   1   -661.0294037 -0.661029E+03  0.958E-02    0.69       0.0  T
   2   -661.0293945  0.919875E-05  0.566E-02    0.69       1.0  T
   3   -661.0284009  0.993561E-03  0.379E-02    0.69       1.0  T
   4   -661.0294313 -0.103035E-02  0.639E-03    0.69       1.0  T
   5   -661.0294514 -0.201559E-04  0.205E-03    0.69       2.5  T
   6   -661.0294527 -0.126460E-05  0.109E-03    0.69       4.8  T
   7   -661.0294529 -0.181357E-06  0.627E-04    0.69       8.2  T
   8   -661.0294530 -0.130376E-06  0.284E-04    0.69      18.2  T
     SCC iter.                  ...        0 min,  3.995 sec
     gradient                   ...        0 min,  0.732 sec
 * total energy  :  -648.1099858 Eh     change       -0.1770816E-01 Eh
   gradient norm :     0.0202471 Eh/α   predicted    -0.1787388E-01 (   0.94%)
   displ. norm   :     0.9426823 α      lambda       -0.1695343E-01
   maximum displ.:     0.4516295 α      in ANC's #97, #104, #96, ...

........................................................................
.............................. CYCLE   27 ..............................
........................................................................
   1   -661.0484131 -0.661048E+03  0.107E-01    0.70       0.0  T
   2   -661.0484040  0.902894E-05  0.634E-02    0.70       1.0  T
   3   -661.0473880  0.101607E-02  0.379E-02    0.70       1.0  T
   4   -661.0484409 -0.105298E-02  0.585E-03    0.70       1.0  T
   5   -661.0484570 -0.160521E-04  0.210E-03    0.70       2.5  T
   6   -661.0484581 -0.107256E-05  0.123E-03    0.70       4.2  T
   7   -661.0484583 -0.233716E-06  0.667E-04    0.70       7.7  T
   8   -661.0484585 -0.171709E-06  0.279E-04    0.70      18.5  T
     SCC iter.                  ...        0 min,  4.014 sec
     gradient                   ...        0 min,  0.729 sec
 * total energy  :  -648.1255474 Eh     change       -0.1556152E-01 Eh
   gradient norm :     0.0203404 Eh/α   predicted    -0.1600956E-01 (   2.88%)
   displ. norm   :     0.9402611 α      lambda       -0.1524339E-01
   maximum displ.:     0.4506617 α      in ANC's #96, #97, #104, ...

........................................................................
.............................. CYCLE   28 ..............................
........................................................................
   1   -661.0777919 -0.661078E+03  0.101E-01    0.71       0.0  T
   2   -661.0777868  0.513397E-05  0.595E-02    0.71       1.0  T
   3   -661.0769550  0.831808E-03  0.337E-02    0.71       1.0  T
   4   -661.0778154 -0.860396E-03  0.549E-03    0.71       1.0  T
   5   -661.0778298 -0.144457E-04  0.202E-03    0.71       2.6  T
   6   -661.0778307 -0.870540E-06  0.123E-03    0.71       4.2  T
   7   -661.0778309 -0.239542E-06  0.668E-04    0.71       7.7  T
   8   -661.0778311 -0.194637E-06  0.248E-04    0.71      20.8  T
     SCC iter.                  ...        0 min,  4.027 sec
     gradient                   ...        0 min,  0.731 sec
 * total energy  :  -648.1392481 Eh     change       -0.1370069E-01 Eh
   gradient norm :     0.0194189 Eh/α   predicted    -0.1435997E-01 (   4.81%)
   displ. norm   :     0.9192815 α      lambda       -0.1295459E-01
   maximum displ.:     0.4455392 α      in ANC's #104, #97, #96, ...

........................................................................
.............................. CYCLE   29 ..............................
........................................................................
   1   -661.0907576 -0.661091E+03  0.100E-01    0.71       0.0  T
   2   -661.0907539  0.367536E-05  0.591E-02    0.71       1.0  T
   3   -661.0900836  0.670286E-03  0.298E-02    0.71       1.0  T
   4   -661.0907790 -0.695319E-03  0.434E-03    0.71       1.2  T
   5   -661.0907876 -0.863735E-05  0.172E-03    0.71       3.0  T
   6   -661.0907881 -0.550371E-06  0.109E-03    0.71       4.8  T
   7   -661.0907884 -0.238540E-06  0.540E-04    0.71       9.6  T
   8   -661.0907885 -0.125547E-06  0.206E-04    0.71      25.1  T
     SCC iter.                  ...        0 min,  4.020 sec
     gradient                   ...        0 min,  0.731 sec
 * total energy  :  -648.1511064 Eh     change       -0.1185837E-01 Eh
   gradient norm :     0.0160289 Eh/α   predicted    -0.1195113E-01 (   0.78%)
   displ. norm   :     0.9110241 α      lambda       -0.1105830E-01
   maximum displ.:     0.4400997 α      in ANC's #104, #97, #96, ...

........................................................................
.............................. CYCLE   30 ..............................
........................................................................
   1   -661.1083917 -0.661108E+03  0.932E-02    0.72       0.0  T
   2   -661.1083905  0.119203E-05  0.549E-02    0.72       1.0  T
   3   -661.1079057  0.484848E-03  0.253E-02    0.72       1.0  T
   4   -661.1084093 -0.503606E-03  0.358E-03    0.72       1.4  T
   5   -661.1084147 -0.542006E-05  0.158E-03    0.72       3.3  T
   6   -661.1084152 -0.461482E-06  0.977E-04    0.72       5.3  T
   7   -661.1084154 -0.208818E-06  0.472E-04    0.72      11.0  T
     SCC iter.                  ...        0 min,  3.492 sec
     gradient                   ...        0 min,  0.733 sec
 * total energy  :  -648.1611673 Eh     change       -0.1006085E-01 Eh
   gradient norm :     0.0146031 Eh/α   predicted    -0.1011815E-01 (   0.57%)
   displ. norm   :     0.9173316 α      lambda       -0.9817624E-02
   maximum displ.:     0.4409631 α      in ANC's #104, #97, #96, ...

........................................................................
.............................. CYCLE   31 ..............................
........................................................................
   1   -661.1258663 -0.661126E+03  0.103E-01    0.72       0.0  T
   2   -661.1258674 -0.100904E-05  0.611E-02    0.72       1.0  T
   3   -661.1254521  0.415225E-03  0.248E-02    0.72       1.0  T
   4   -661.1258843 -0.432180E-03  0.323E-03    0.72       1.6  T
   5   -661.1258883 -0.401702E-05  0.169E-03    0.72       3.1  T
   6   -661.1258888 -0.450984E-06  0.113E-03    0.72       4.6  T
   7   -661.1258891 -0.338543E-06  0.543E-04    0.72       9.5  T
   8   -661.1258892 -0.121224E-06  0.184E-04    0.72      28.1  T
     SCC iter.                  ...        0 min,  4.000 sec
     gradient                   ...        0 min,  0.734 sec
 * total energy  :  -648.1694556 Eh     change       -0.8288353E-02 Eh
   gradient norm :     0.0171125 Eh/α   predicted    -0.9039560E-02 (   9.06%)
   displ. norm   :     0.8863019 α      lambda       -0.8683756E-02
   maximum displ.:     0.4121861 α      in ANC's #104, #96, #97, ...

........................................................................
.............................. CYCLE   32 ..............................
........................................................................
   1   -661.1388389 -0.661139E+03  0.104E-01    0.72       0.0  T
   2   -661.1388416 -0.267006E-05  0.613E-02    0.72       1.0  T
   3   -661.1384955  0.346162E-03  0.227E-02    0.72       1.0  T
   4   -661.1388550 -0.359527E-03  0.324E-03    0.72       1.6  T
   5   -661.1388586 -0.365805E-05  0.177E-03    0.72       2.9  T
   6   -661.1388592 -0.576650E-06  0.112E-03    0.72       4.6  T
   7   -661.1388595 -0.305098E-06  0.497E-04    0.72      10.4  T
   8   -661.1388596 -0.101972E-06  0.187E-04    0.72      27.7  T
     SCC iter.                  ...        0 min,  4.000 sec
     gradient                   ...        0 min,  0.733 sec
 * total energy  :  -648.1766013 Eh     change       -0.7145712E-02 Eh
   gradient norm :     0.0139985 Eh/α   predicted    -0.7752563E-02 (   8.49%)
   displ. norm   :     0.8639556 α      lambda       -0.6619139E-02
   maximum displ.:     0.4047002 α      in ANC's #104, #97, #96, ...

........................................................................
.............................. CYCLE   33 ..............................
........................................................................
   1   -661.1510314 -0.661151E+03  0.931E-02    0.73       0.0  T
   2   -661.1510375 -0.605701E-05  0.548E-02    0.73       1.0  T
   3   -661.1508607  0.176767E-03  0.172E-02    0.73       1.0  T
   4   -661.1510451 -0.184363E-03  0.292E-03    0.73       1.8  T
   5   -661.1510483 -0.318037E-05  0.143E-03    0.73       3.6  T
   6   -661.1510485 -0.271318E-06  0.955E-04    0.73       5.4  T
   7   -661.1510488 -0.216942E-06  0.473E-04    0.73      10.9  T
     SCC iter.                  ...        0 min,  3.528 sec
     gradient                   ...        0 min,  0.733 sec
 * total energy  :  -648.1821052 Eh     change       -0.5503849E-02 Eh
   gradient norm :     0.0150427 Eh/α   predicted    -0.5779894E-02 (   5.02%)
   displ. norm   :     0.8699636 α      lambda       -0.5896877E-02
   maximum displ.:     0.3873133 α      in ANC's #104, #97, #96, ...

........................................................................
.............................. CYCLE   34 ..............................
........................................................................
   1   -661.1584776 -0.661158E+03  0.108E-01    0.73       0.0  T
   2   -661.1584832 -0.558912E-05  0.641E-02    0.73       1.0  T
   3   -661.1582474  0.235860E-03  0.212E-02    0.73       1.0  T
   4   -661.1584914 -0.244057E-03  0.342E-03    0.73       1.5  T
   5   -661.1584955 -0.410032E-05  0.193E-03    0.73       2.7  T
   6   -661.1584966 -0.109344E-05  0.114E-03    0.73       4.5  T
   7   -661.1584969 -0.323275E-06  0.562E-04    0.73       9.2  T
   8   -661.1584971 -0.122622E-06  0.179E-04    0.73      28.8  T
     SCC iter.                  ...        0 min,  4.015 sec
     gradient                   ...        0 min,  0.734 sec
 * total energy  :  -648.1862668 Eh     change       -0.4161653E-02 Eh
   gradient norm :     0.0206636 Eh/α   predicted    -0.5179929E-02 (  24.47%)
   displ. norm   :     0.7756141 α      lambda       -0.4693787E-02
   maximum displ.:     0.3105609 α      in ANC's #104, #96, #97, ...

........................................................................
.............................. CYCLE   35 ..............................
........................................................................
   1   -661.1761517 -0.661176E+03  0.911E-02    0.73       0.0  T
   2   -661.1761542 -0.248320E-05  0.541E-02    0.73       1.0  T
   3   -661.1759116  0.242628E-03  0.218E-02    0.73       1.0  T
   4   -661.1761640 -0.252473E-03  0.284E-03    0.73       1.8  T
   5   -661.1761663 -0.223069E-05  0.170E-03    0.73       3.0  T
   6   -661.1761672 -0.890172E-06  0.971E-04    0.73       5.3  T
   7   -661.1761674 -0.233440E-06  0.473E-04    0.73      10.9  T
     SCC iter.                  ...        0 min,  3.503 sec
     gradient                   ...        0 min,  0.731 sec
 * total energy  :  -648.1896920 Eh     change       -0.3425145E-02 Eh
   gradient norm :     0.0112146 Eh/α   predicted    -0.3758729E-02 (   9.74%)
   displ. norm   :     0.7737502 α      lambda       -0.3539381E-02
   maximum displ.:     0.2976722 α      in ANC's #104, #77, #97, ...

........................................................................
.............................. CYCLE   36 ..............................
........................................................................
   1   -661.1930180 -0.661193E+03  0.937E-02    0.73       0.0  T
   2   -661.1930216 -0.359683E-05  0.555E-02    0.73       1.0  T
   3   -661.1928563  0.165239E-03  0.176E-02    0.73       1.0  T
   4   -661.1930284 -0.172017E-03  0.277E-03    0.73       1.9  T
   5   -661.1930306 -0.220692E-05  0.156E-03    0.73       3.3  T
   6   -661.1930311 -0.564149E-06  0.900E-04    0.73       5.7  T
   7   -661.1930313 -0.174597E-06  0.439E-04    0.73      11.8  T
     SCC iter.                  ...        0 min,  3.500 sec
     gradient                   ...        0 min,  0.731 sec
 * total energy  :  -648.1920170 Eh     change       -0.2325013E-02 Eh
   gradient norm :     0.0155577 Eh/α   predicted    -0.2829189E-02 (  21.68%)
   displ. norm   :     0.7321169 α      lambda       -0.2972318E-02
   maximum displ.:     0.2682573 α      in ANC's #48, #77, #104, ...

........................................................................
.............................. CYCLE   37 ..............................
........................................................................
   1   -661.1993441 -0.661199E+03  0.849E-02    0.73       0.0  T
   2   -661.1993465 -0.241597E-05  0.505E-02    0.73       1.0  T
   3   -661.1991470  0.199470E-03  0.200E-02    0.73       1.0  T
   4   -661.1993525 -0.205434E-03  0.307E-03    0.73       1.7  T
   5   -661.1993558 -0.331591E-05  0.166E-03    0.73       3.1  T
   6   -661.1993567 -0.933924E-06  0.849E-04    0.73       6.1  T
   7   -661.1993568 -0.109493E-06  0.470E-04    0.73      11.0  T
     SCC iter.                  ...        0 min,  3.521 sec
     gradient                   ...        0 min,  0.729 sec
 * total energy  :  -648.1937868 Eh     change       -0.1769793E-02 Eh
   gradient norm :     0.0168145 Eh/α   predicted    -0.2282730E-02 (  28.98%)
   displ. norm   :     0.6498497 α      lambda       -0.2425920E-02
   maximum displ.:     0.2507366 α      in ANC's #48, #78, #77, ...

........................................................................
.............................. CYCLE   38 ..............................
........................................................................
   1   -661.2024003 -0.661202E+03  0.859E-02    0.73       0.0  T
   2   -661.2024024 -0.208898E-05  0.511E-02    0.73       1.0  T
   3   -661.2022142  0.188161E-03  0.194E-02    0.73       1.0  T
   4   -661.2024096 -0.195433E-03  0.269E-03    0.73       1.9  T
   5   -661.2024117 -0.207187E-05  0.151E-03    0.73       3.4  T
   6   -661.2024124 -0.662044E-06  0.807E-04    0.73       6.4  T
   7   -661.2024125 -0.100728E-06  0.430E-04    0.73      12.0  T
     SCC iter.                  ...        0 min,  3.522 sec
     gradient                   ...        0 min,  0.733 sec
 * total energy  :  -648.1951037 Eh     change       -0.1316873E-02 Eh
   gradient norm :     0.0194658 Eh/α   predicted    -0.1725201E-02 (  31.01%)
   displ. norm   :     0.5968331 α      lambda       -0.2107947E-02
   maximum displ.:     0.2132145 α      in ANC's #48, #78, #77, ...

........................................................................
.............................. CYCLE   39 ..............................
........................................................................
   1   -661.2217932 -0.661222E+03  0.842E-02    0.73       0.0  T
   2   -661.2217955 -0.235323E-05  0.503E-02    0.73       1.0  T
   3   -661.2216072  0.188332E-03  0.193E-02    0.73       1.0  T
   4   -661.2218018 -0.194543E-03  0.290E-03    0.73       1.8  T
   5   -661.2218047 -0.291679E-05  0.151E-03    0.73       3.4  T
   6   -661.2218054 -0.751166E-06  0.803E-04    0.73       6.4  T
   7   -661.2218055 -0.988994E-07  0.427E-04    0.73      12.1  T
     SCC iter.                  ...        0 min,  3.499 sec
     gradient                   ...        0 min,  0.731 sec
 * total energy  :  -648.1958251 Eh     change       -0.7214542E-03 Eh
   gradient norm :     0.0269622 Eh/α   predicted    -0.1429410E-02 (  98.13%)
   displ. norm   :     0.4892758 α      lambda       -0.2189392E-02
   maximum displ.:     0.1822378 α      in ANC's #48, #77, #28, ...

........................................................................
.............................. CYCLE   40 ..............................
........................................................................
   1   -661.2387618 -0.661239E+03  0.808E-02    0.73       0.0  T
   2   -661.2387642 -0.244952E-05  0.483E-02    0.73       1.0  T
   3   -661.2386355  0.128725E-03  0.154E-02    0.73       1.0  T
   4   -661.2387677 -0.132128E-03  0.277E-03    0.73       1.9  T
   5   -661.2387705 -0.281030E-05  0.133E-03    0.73       3.9  T
   6   -661.2387709 -0.432346E-06  0.767E-04    0.73       6.7  T
   7   -661.2387710 -0.828263E-07  0.387E-04    0.73      13.4  T
     SCC iter.                  ...        0 min,  3.527 sec
     gradient                   ...        0 min,  0.736 sec
 * total energy  :  -648.1966749 Eh     change       -0.8497709E-03 Eh
   gradient norm :     0.0243257 Eh/α   predicted    -0.1356760E-02 (  59.66%)
   displ. norm   :     0.4661762 α      lambda       -0.2102081E-02
   maximum displ.:     0.2011800 α      in ANC's #48, #28, #47, ...

........................................................................
.............................. CYCLE   41 ..............................
........................................................................
   1   -661.2285120 -0.661229E+03  0.952E-02    0.73       0.0  T
   2   -661.2285149 -0.291338E-05  0.567E-02    0.73       1.0  T
   3   -661.2283960  0.118861E-03  0.154E-02    0.73       1.0  T
   4   -661.2285166 -0.120572E-03  0.296E-03    0.73       1.7  T
   5   -661.2285206 -0.397302E-05  0.133E-03    0.73       3.9  T
   6   -661.2285211 -0.550533E-06  0.707E-04    0.73       7.3  T
   7   -661.2285212 -0.410255E-07  0.412E-04    0.73      12.5  T
     SCC iter.                  ...        0 min,  3.491 sec
     gradient                   ...        0 min,  0.735 sec
 * total energy  :  -648.1972202 Eh     change       -0.5452695E-03 Eh
   gradient norm :     0.0211767 Eh/α   predicted    -0.1279448E-02 ( 134.65%)
   displ. norm   :     0.3933780 α      lambda       -0.1672351E-02
   maximum displ.:     0.1576956 α      in ANC's #48, #28, #78, ...

........................................................................
.............................. CYCLE   42 ..............................
........................................................................
   1   -661.2310855 -0.661231E+03  0.649E-02    0.73       0.0  T
   2   -661.2310860 -0.444781E-06  0.386E-02    0.73       1.0  T
   3   -661.2309861  0.998631E-04  0.138E-02    0.73       1.0  T
   4   -661.2310894 -0.103251E-03  0.184E-03    0.73       2.8  T
   5   -661.2310906 -0.121645E-05  0.986E-04    0.73       5.2  T
   6   -661.2310909 -0.339031E-06  0.477E-04    0.73      10.8  T
   7   -661.2310909 -0.232686E-07  0.275E-04    0.73      18.8  T
     SCC iter.                  ...        0 min,  3.531 sec
     gradient                   ...        0 min,  0.733 sec
 * total energy  :  -648.1982947 Eh     change       -0.1074530E-02 Eh
   gradient norm :     0.0083659 Eh/α   predicted    -0.9655636E-03 ( -10.14%)
   displ. norm   :     0.5538920 α      lambda       -0.1095889E-02
   maximum displ.:     0.2485677 α      in ANC's #48, #28, #46, ...
 * RMSD in coord.:     0.7862533 α      energy gain  -0.2221974E+00 Eh

generating ANC from model Hessian ...
Using Lindh-Hessian (1995)
 Shifting diagonal of input Hessian by    1.0006685648768880E-002
 Lowest  eigenvalues of input Hessian
    0.010000    0.010000    0.010001    0.010001    0.000000    0.000000
    0.000000    0.000000    0.000000    0.000000    0.010007    0.010007
    0.010007    0.010008    0.010008    0.010009    0.010009    0.010010
 Highest eigenvalues
    3.041692    3.042658    3.055022    3.058333    3.058773    3.070788


........................................................................
.............................. CYCLE   43 ..............................
........................................................................
   1   -661.2413821 -0.661241E+03  0.481E-02    0.73       0.0  T
   2   -661.2413823 -0.197862E-06  0.288E-02    0.73       1.0  T
   3   -661.2412736  0.108683E-03  0.148E-02    0.73       1.0  T
   4   -661.2413867 -0.113049E-03  0.193E-03    0.73       2.7  T
   5   -661.2413878 -0.117956E-05  0.971E-04    0.73       5.3  T
   6   -661.2413881 -0.298944E-06  0.518E-04    0.73      10.0  T
   7   -661.2413882 -0.500179E-07  0.276E-04    0.73      18.7  T
     SCC iter.                  ...        0 min,  3.494 sec
     gradient                   ...        0 min,  0.733 sec
 * total energy  :  -648.1989550 Eh     change       -0.6602851E-03 Eh
   gradient norm :     0.0185081 Eh/α   predicted     0.0000000E+00 (-100.00%)
   displ. norm   :     0.1876699 α      lambda       -0.7123352E-03
   maximum displ.:     0.0545014 α      in ANC's #27, #71, #59, ...

........................................................................
.............................. CYCLE   44 ..............................
........................................................................
   1   -661.2313747 -0.661231E+03  0.479E-02    0.73       0.0  T
   2   -661.2313756 -0.863659E-06  0.286E-02    0.73       1.0  T
   3   -661.2313369  0.387051E-04  0.804E-03    0.73       1.0  T
   4   -661.2313768 -0.399573E-04  0.139E-03    0.73       3.7  T
   5   -661.2313776 -0.751748E-06  0.706E-04    0.73       7.3  T
   6   -661.2313777 -0.115934E-06  0.447E-04    0.73      11.6  T
     SCC iter.                  ...        0 min,  3.026 sec
     gradient                   ...        0 min,  0.733 sec
 * total energy  :  -648.1993231 Eh     change       -0.3681750E-03 Eh
   gradient norm :     0.0060346 Eh/α   predicted    -0.3688771E-03 (   0.19%)
   displ. norm   :     0.2677873 α      lambda       -0.6243059E-03
   maximum displ.:     0.1069545 α      in ANC's #27, #43, #59, ...

........................................................................
.............................. CYCLE   45 ..............................
........................................................................
   1   -661.2256498 -0.661226E+03  0.340E-02    0.73       0.0  T
   2   -661.2256504 -0.556512E-06  0.203E-02    0.73       1.0  T
   3   -661.2256103  0.401241E-04  0.774E-03    0.73       1.0  T
   4   -661.2256514 -0.411150E-04  0.155E-03    0.73       3.3  T
   5   -661.2256526 -0.119511E-05  0.630E-04    0.73       8.2  T
   6   -661.2256527 -0.791659E-07  0.403E-04    0.73      12.8  T
   7   -661.2256527 -0.392175E-07  0.185E-04    0.73      28.0  T
     SCC iter.                  ...        0 min,  3.501 sec
     gradient                   ...        0 min,  0.732 sec
 * total energy  :  -648.1997209 Eh     change       -0.3977134E-03 Eh
   gradient norm :     0.0139296 Eh/α   predicted    -0.3345866E-03 ( -15.87%)
   displ. norm   :     0.4398094 α      lambda       -0.7801504E-03
   maximum displ.:     0.1742782 α      in ANC's #27, #43, #41, ...

........................................................................
.............................. CYCLE   46 ..............................
........................................................................
   1   -661.2223625 -0.661222E+03  0.473E-02    0.74       0.0  T
   2   -661.2223625 -0.103057E-07  0.281E-02    0.74       1.0  T
   3   -661.2222786  0.839183E-04  0.112E-02    0.74       1.0  T
   4   -661.2223660 -0.873867E-04  0.149E-03    0.74       3.5  T
   5   -661.2223668 -0.833535E-06  0.787E-04    0.74       6.6  T
   6   -661.2223670 -0.121705E-06  0.488E-04    0.74      10.6  T
     SCC iter.                  ...        0 min,  3.027 sec
     gradient                   ...        0 min,  0.732 sec
 * total energy  :  -648.2002404 Eh     change       -0.5195420E-03 Eh
   gradient norm :     0.0165487 Eh/α   predicted    -0.4655295E-03 ( -10.40%)
   displ. norm   :     0.5539070 α      lambda       -0.9097913E-03
   maximum displ.:     0.2288891 α      in ANC's #27, #43, #59, ...

........................................................................
.............................. CYCLE   47 ..............................
........................................................................
   1   -661.2247623 -0.661225E+03  0.424E-02    0.74       0.0  T
   2   -661.2247619  0.364438E-06  0.252E-02    0.74       1.0  T
   3   -661.2246683  0.935960E-04  0.121E-02    0.74       1.0  T
   4   -661.2247661 -0.977803E-04  0.144E-03    0.74       3.6  T
   5   -661.2247667 -0.646967E-06  0.831E-04    0.74       6.2  T
   6   -661.2247669 -0.178381E-06  0.445E-04    0.74      11.6  T
     SCC iter.                  ...        0 min,  2.998 sec
     gradient                   ...        0 min,  0.733 sec
 * total energy  :  -648.2009213 Eh     change       -0.6809099E-03 Eh
   gradient norm :     0.0118607 Eh/α   predicted    -0.5944649E-03 ( -12.70%)
   displ. norm   :     0.6414079 α      lambda       -0.9880420E-03
   maximum displ.:     0.2793719 α      in ANC's #27, #43, #41, ...

........................................................................
.............................. CYCLE   48 ..............................
........................................................................
   1   -661.2338284 -0.661234E+03  0.523E-02    0.74       0.0  T
   2   -661.2338287 -0.289961E-06  0.310E-02    0.74       1.0  T
   3   -661.2337447  0.840410E-04  0.122E-02    0.74       1.0  T
   4   -661.2338324 -0.877013E-04  0.165E-03    0.74       3.1  T
   5   -661.2338332 -0.874859E-06  0.885E-04    0.74       5.8  T
   6   -661.2338334 -0.121955E-06  0.559E-04    0.74       9.3  T
     SCC iter.                  ...        0 min,  3.031 sec
     gradient                   ...        0 min,  0.733 sec
 * total energy  :  -648.2015416 Eh     change       -0.6202548E-03 Eh
   gradient norm :     0.0114649 Eh/α   predicted    -0.6972683E-03 (  12.42%)
   displ. norm   :     0.5934476 α      lambda       -0.8423337E-03
   maximum displ.:     0.2648566 α      in ANC's #27, #43, #41, ...

........................................................................
.............................. CYCLE   49 ..............................
........................................................................
   1   -661.2415076 -0.661242E+03  0.434E-02    0.74       0.0  T
   2   -661.2415075  0.543779E-07  0.257E-02    0.74       1.0  T
   3   -661.2414403  0.672338E-04  0.116E-02    0.74       1.0  T
   4   -661.2415108 -0.705316E-04  0.132E-03    0.74       3.9  T
   5   -661.2415113 -0.478901E-06  0.701E-04    0.74       7.4  T
   6   -661.2415114 -0.487101E-07  0.464E-04    0.74      11.1  T
     SCC iter.                  ...        0 min,  3.002 sec
     gradient                   ...        0 min,  0.736 sec
 * total energy  :  -648.2021424 Eh     change       -0.6007940E-03 Eh
   gradient norm :     0.0097978 Eh/α   predicted    -0.5695009E-03 (  -5.21%)
   displ. norm   :     0.6289095 α      lambda       -0.7626992E-03
   maximum displ.:     0.2900655 α      in ANC's #27, #43, #41, ...

........................................................................
.............................. CYCLE   50 ..............................
........................................................................
   1   -661.2429038 -0.661243E+03  0.449E-02    0.73       0.0  T
   2   -661.2429035  0.248175E-06  0.267E-02    0.73       1.0  T
   3   -661.2428319  0.716288E-04  0.119E-02    0.73       1.0  T
   4   -661.2429068 -0.749529E-04  0.127E-03    0.73       4.1  T
   5   -661.2429072 -0.403813E-06  0.754E-04    0.73       6.9  T
   6   -661.2429073 -0.110989E-06  0.424E-04    0.73      12.2  T
     SCC iter.                  ...        0 min,  3.034 sec
     gradient                   ...        0 min,  0.732 sec
[...]
1121:  0.001122:  0.00
 output can be read by thermo (or use thermo option).
 writing <g98.out> molden fake output.
 recommended (thermochemical) frequency scaling factor: 1.0
           -------------------------------------------------
          |             Thermodynamic Functions             |
           -------------------------------------------------
 symmetry recognition skipped because # atoms >         200
 inverting freq            1   7.5160842994743327     
 inverting freq            2   3.8834253015882769     
 inverting freq            3   3.6971493417415879     
 inverting freq            4   3.4469091195264561     
 inverting freq            5   3.0842743514776250     
 inverting freq            6   2.1112030677601519     

          ...................................................
          :                      SETUP                      :
          :.................................................:
          :  # frequencies                        1113      :
          :  # imaginary freq.                       0      :
          :  linear?                             false      :
          :  only rotor calc.                    false      :
          :  symmetry                               C1      :
          :  rotational number                       1      :
          :  scaling factor                  1.0000000      :
          :  rotor cutoff                   50.0000000 cm⁻¹ :
          :  imag. cutoff                  -20.0000000 cm⁻¹ :
          :.................................................:

    mode    ω/cm⁻¹     T·S(HO)/kcal·mol⁻¹    T·S(FR)/kcal·mol⁻¹   T·S(vib)
   ------------------------------------------------------------------------
       1      7.52    -2.55764 (  0.05%)    -1.61792 ( 99.95%)    -1.61840
       2      3.88    -2.94885 (  0.00%)    -1.81354 (100.00%)    -1.81358
       3      3.70    -2.97798 (  0.00%)    -1.82810 (100.00%)    -1.82814
       4      3.45    -3.01950 (  0.00%)    -1.84886 (100.00%)    -1.84889
       5      3.08    -3.08536 (  0.00%)    -1.88179 (100.00%)    -1.88181
       6      2.11    -3.30994 (  0.00%)    -1.99409 (100.00%)    -1.99409
       7      1.74    -3.42447 (  0.00%)    -2.05135 (100.00%)    -2.05135
       8      2.32    -3.25279 (  0.00%)    -1.96551 (100.00%)    -1.96552
       9      2.87    -3.12806 (  0.00%)    -1.90315 (100.00%)    -1.90316
      10      4.07    -2.92092 (  0.00%)    -1.79957 (100.00%)    -1.79962
      11      4.36    -2.87960 (  0.01%)    -1.77891 ( 99.99%)    -1.77897
      12      5.05    -2.79289 (  0.01%)    -1.73555 ( 99.99%)    -1.73566
      13      5.35    -2.75926 (  0.01%)    -1.71874 ( 99.99%)    -1.71888
      14      5.57    -2.73568 (  0.02%)    -1.70695 ( 99.98%)    -1.70711
      15      6.57    -2.63694 (  0.03%)    -1.65757 ( 99.97%)    -1.65787
      16      6.96    -2.60296 (  0.04%)    -1.64058 ( 99.96%)    -1.64095
      17      7.35    -2.57071 (  0.05%)    -1.62446 ( 99.95%)    -1.62490
      18      7.66    -2.54616 (  0.06%)    -1.61218 ( 99.94%)    -1.61270
      19      7.94    -2.52489 (  0.06%)    -1.60154 ( 99.94%)    -1.60213
      20      8.13    -2.51088 (  0.07%)    -1.59454 ( 99.93%)    -1.59518
      21      8.18    -2.50754 (  0.07%)    -1.59287 ( 99.93%)    -1.59352
      22      9.07    -2.44641 (  0.11%)    -1.56230 ( 99.89%)    -1.56325
      23      9.64    -2.41034 (  0.14%)    -1.54426 ( 99.86%)    -1.54545
      24     11.28    -2.31713 (  0.26%)    -1.49765 ( 99.74%)    -1.49976
      25     13.36    -2.21672 (  0.51%)    -1.44743 ( 99.49%)    -1.45133
      26     13.41    -2.21465 (  0.51%)    -1.44639 ( 99.49%)    -1.45035
      27     14.91    -2.15196 (  0.78%)    -1.41503 ( 99.22%)    -1.42081
      28     15.51    -2.12835 (  0.92%)    -1.40322 ( 99.08%)    -1.40988
      29     15.73    -2.12002 (  0.97%)    -1.39906 ( 99.03%)    -1.40606
      30     18.03    -2.03939 (  1.66%)    -1.35872 ( 98.34%)    -1.37003
      31     18.22    -2.03310 (  1.73%)    -1.35557 ( 98.27%)    -1.36732
      32     20.59    -1.96084 (  2.79%)    -1.31942 ( 97.21%)    -1.33734
      33     20.89    -1.95216 (  2.96%)    -1.31507 ( 97.04%)    -1.33391
      34     23.14    -1.89157 (  4.39%)    -1.28475 ( 95.61%)    -1.31138
      35     23.47    -1.88335 (  4.63%)    -1.28063 ( 95.37%)    -1.30853
      36     25.35    -1.83763 (  6.20%)    -1.25775 ( 93.80%)    -1.29370
      37     25.65    -1.83070 (  6.48%)    -1.25428 ( 93.52%)    -1.29162
      38     26.12    -1.81988 (  6.94%)    -1.24886 ( 93.06%)    -1.28846
      39     27.26    -1.79463 (  8.12%)    -1.23622 ( 91.88%)    -1.28157
      40     28.33    -1.77192 (  9.34%)    -1.22485 ( 90.66%)    -1.27596
      41     32.30    -1.69432 ( 14.84%)    -1.18598 ( 85.16%)    -1.26139
      42     34.56    -1.65440 ( 18.58%)    -1.16597 ( 81.42%)    -1.25673
      43     36.04    -1.62953 ( 21.26%)    -1.15351 ( 78.74%)    -1.25472
      44     37.61    -1.60436 ( 24.25%)    -1.14089 ( 75.75%)    -1.25330
      45     40.59    -1.55937 ( 30.28%)    -1.11833 ( 69.72%)    -1.25186
      46     41.25    -1.54981 ( 31.66%)    -1.11353 ( 68.34%)    -1.25166
      47     41.33    -1.54862 ( 31.84%)    -1.11294 ( 68.16%)    -1.25164
      48     41.38    -1.54802 ( 31.92%)    -1.11264 ( 68.08%)    -1.25163
      49     41.76    -1.54255 ( 32.73%)    -1.10989 ( 67.27%)    -1.25152
      50     41.87    -1.54105 ( 32.96%)    -1.10914 ( 67.04%)    -1.25149
      51     42.02    -1.53884 ( 33.29%)    -1.10803 ( 66.71%)    -1.25145
      52     42.19    -1.53658 ( 33.63%)    -1.10690 ( 66.37%)    -1.25140
      53     42.67    -1.52986 ( 34.65%)    -1.10352 ( 65.35%)    -1.25127
      54     42.84    -1.52752 ( 35.01%)    -1.10235 ( 64.99%)    -1.25122
      55     45.00    -1.49850 ( 39.61%)    -1.08779 ( 60.39%)    -1.25047
      56     45.26    -1.49512 ( 40.16%)    -1.08609 ( 59.84%)    -1.25035
      57     48.68    -1.45209 ( 47.32%)    -1.06448 ( 52.68%)    -1.24792
      58     52.57    -1.40677 ( 54.99%)    -1.04171 ( 45.01%)    -1.24247
      59     53.61    -1.39527 ( 56.92%)    -1.03593 ( 43.08%)    -1.24045
      60     56.57    -1.36351 ( 62.11%)    -1.01996 ( 37.89%)    -1.23333
      61     60.71    -1.32200 ( 68.49%)    -0.99906 ( 31.51%)    -1.22023
      62     61.84    -1.31118 ( 70.05%)    -0.99361 ( 29.95%)    -1.21608
      63     64.98    -1.28201 ( 74.05%)    -0.97891 ( 25.95%)    -1.20334
      64     66.02    -1.27273 ( 75.24%)    -0.97423 ( 24.76%)    -1.19882
      65     68.07    -1.25471 ( 77.46%)    -0.96515 ( 22.54%)    -1.18943
      66     69.19    -1.24516 ( 78.57%)    -0.96033 ( 21.43%)    -1.18413
      67     73.35    -1.21092 ( 82.24%)    -0.94304 ( 17.76%)    -1.16334
      68     77.36    -1.17968 ( 85.14%)    -0.92724 ( 14.86%)    -1.14218
      69     81.00    -1.15279 ( 87.32%)    -0.91363 ( 12.68%)    -1.12247
      70     83.77    -1.13313 ( 88.74%)    -0.90367 ( 11.26%)    -1.10729
      71     84.02    -1.13139 ( 88.86%)    -0.90279 ( 11.14%)    -1.10591
      72     84.73    -1.12649 ( 89.18%)    -0.90031 ( 10.82%)    -1.10203
      73     85.93    -1.11825 ( 89.72%)    -0.89613 ( 10.28%)    -1.09541
      74     86.12    -1.11694 ( 89.80%)    -0.89546 ( 10.20%)    -1.09434
      75     86.99    -1.11112 ( 90.16%)    -0.89251 (  9.84%)    -1.08960
      76     87.73    -1.10617 ( 90.46%)    -0.89000 (  9.54%)    -1.08553
      77     89.35    -1.09545 ( 91.07%)    -0.88456 (  8.93%)    -1.07662
      78     90.75    -1.08638 ( 91.56%)    -0.87995 (  8.44%)    -1.06896
      79     91.89    -1.07916 ( 91.94%)    -0.87628 (  8.06%)    -1.06280
      80     92.57    -1.07486 ( 92.15%)    -0.87410 (  7.85%)    -1.05911
      81     92.90    -1.07279 ( 92.26%)    -0.87304 (  7.74%)    -1.05732
      82     93.98    -1.06603 ( 92.58%)    -0.86961 (  7.42%)    -1.05146
      83     95.34    -1.05767 ( 92.97%)    -0.86535 (  7.03%)    -1.04414
      84     95.57    -1.05625 ( 93.03%)    -0.86463 (  6.97%)    -1.04290
      85     95.99    -1.05372 ( 93.14%)    -0.86334 (  6.86%)    -1.04066
      86     96.69    -1.04945 ( 93.33%)    -0.86117 (  6.67%)    -1.03688
      87     97.88    -1.04237 ( 93.62%)    -0.85756 (  6.38%)    -1.03059
      88     99.69    -1.03170 ( 94.05%)    -0.85213 (  5.95%)    -1.02102
      89    102.84    -1.01361 ( 94.71%)    -0.84290 (  5.29%)    -1.00458
      90    103.53    -1.00976 ( 94.84%)    -0.84093 (  5.16%)    -1.00104
      91    108.56    -0.98225 ( 95.69%)    -0.82688 (  4.31%)    -0.97556
      92    110.61    -0.97142 ( 95.99%)    -0.82133 (  4.01%)    -0.96540
      93    111.83    -0.96509 ( 96.16%)    -0.81809 (  3.84%)    -0.95944
      94    112.20    -0.96315 ( 96.21%)    -0.81710 (  3.79%)    -0.95761
      95    112.41    -0.96211 ( 96.23%)    -0.81657 (  3.77%)    -0.95663
      96    112.41    -0.96209 ( 96.23%)    -0.81656 (  3.77%)    -0.95661
      97    113.45    -0.95678 ( 96.36%)    -0.81384 (  3.64%)    -0.95158
      98    113.53    -0.95637 ( 96.37%)    -0.81363 (  3.63%)    -0.95120
      99    114.01    -0.95394 ( 96.43%)    -0.81238 (  3.57%)    -0.94889
     100    114.60    -0.95092 ( 96.50%)    -0.81083 (  3.50%)    -0.94603
     101    115.23    -0.94776 ( 96.58%)    -0.80921 (  3.42%)    -0.94302
     102    116.04    -0.94374 ( 96.67%)    -0.80715 (  3.33%)    -0.93919
     103    117.23    -0.93782 ( 96.80%)    -0.80411 (  3.20%)    -0.93354
     104    118.37    -0.93226 ( 96.91%)    -0.80125 (  3.09%)    -0.92822
     105    119.17    -0.92837 ( 96.99%)    -0.79926 (  3.01%)    -0.92449
     106    119.72    -0.92571 ( 97.05%)    -0.79788 (  2.95%)    -0.92193
     107    119.80    -0.92534 ( 97.05%)    -0.79770 (  2.95%)    -0.92158
     108    137.43    -0.84655 ( 98.28%)    -0.75702 (  1.72%)    -0.84500
     109    141.63    -0.82937 ( 98.47%)    -0.74810 (  1.53%)    -0.82812
     110    141.65    -0.82928 ( 98.47%)    -0.74806 (  1.53%)    -0.82804
     111    142.03    -0.82777 ( 98.49%)    -0.74727 (  1.51%)    -0.82655
     112    142.16    -0.82726 ( 98.49%)    -0.74701 (  1.51%)    -0.82605
     113    142.33    -0.82657 ( 98.50%)    -0.74665 (  1.50%)    -0.82537
     114    142.54    -0.82572 ( 98.51%)    -0.74620 (  1.49%)    -0.82453
     115    142.70    -0.82507 ( 98.52%)    -0.74587 (  1.48%)    -0.82389
     116    142.95    -0.82409 ( 98.53%)    -0.74536 (  1.47%)    -0.82292
     117    142.98    -0.82398 ( 98.53%)    -0.74530 (  1.47%)    -0.82282
     118    143.19    -0.82313 ( 98.54%)    -0.74486 (  1.46%)    -0.82199
     119    147.35    -0.80685 ( 98.69%)    -0.73638 (  1.31%)    -0.80593
     120    148.25    -0.80338 ( 98.72%)    -0.73457 (  1.28%)    -0.80250
     121    149.79    -0.79752 ( 98.77%)    -0.73151 (  1.23%)    -0.79671
     122    150.90    -0.79333 ( 98.81%)    -0.72932 (  1.19%)    -0.79257
     123    152.00    -0.78921 ( 98.84%)    -0.72717 (  1.16%)    -0.78849
     124    154.72    -0.77916 ( 98.92%)    -0.72191 (  1.08%)    -0.77855
     125    157.76    -0.76819 ( 99.00%)    -0.71616 (  1.00%)    -0.76767
     126    160.15    -0.75967 ( 99.06%)    -0.71169 (  0.94%)    -0.75922
     127    160.79    -0.75744 ( 99.07%)    -0.71051 (  0.93%)    -0.75700
     128    163.19    -0.74911 ( 99.13%)    -0.70613 (  0.87%)    -0.74873
     129    170.00    -0.72613 ( 99.26%)    -0.69401 (  0.74%)    -0.72589
     130    178.82    -0.69789 ( 99.39%)    -0.67904 (  0.61%)    -0.69777
     131    179.64    -0.69534 ( 99.40%)    -0.67769 (  0.60%)    -0.69524
     132    179.88    -0.69457 ( 99.41%)    -0.67727 (  0.59%)    -0.69447
     133    180.58    -0.69243 ( 99.42%)    -0.67613 (  0.58%)    -0.69233
     134    181.68    -0.68905 ( 99.43%)    -0.67433 (  0.57%)    -0.68897
     135    181.89    -0.68839 ( 99.43%)    -0.67398 (  0.57%)    -0.68831
     136    182.22    -0.68741 ( 99.44%)    -0.67346 (  0.56%)    -0.68733
     137    183.22    -0.68437 ( 99.45%)    -0.67184 (  0.55%)    -0.68430
     138    184.10    -0.68169 ( 99.46%)    -0.67041 (  0.54%)    -0.68163
     139    184.25    -0.68125 ( 99.46%)    -0.67017 (  0.54%)    -0.68119
     140    184.59    -0.68021 ( 99.46%)    -0.66962 (  0.54%)    -0.68015
     141    184.92    -0.67923 ( 99.47%)    -0.66909 (  0.53%)    -0.67917
     142    185.05    -0.67885 ( 99.47%)    -0.66889 (  0.53%)    -0.67880
     143    185.12    -0.67863 ( 99.47%)    -0.66877 (  0.53%)    -0.67858
     144    185.18    -0.67845 ( 99.47%)    -0.66868 (  0.53%)    -0.67840
     145    185.19    -0.67842 ( 99.47%)    -0.66866 (  0.53%)    -0.67837
     146    185.25    -0.67824 ( 99.47%)    -0.66856 (  0.53%)    -0.67818
     147    185.56    -0.67732 ( 99.48%)    -0.66808 (  0.52%)    -0.67727
     148    188.87    -0.66752 ( 99.51%)    -0.66283 (  0.49%)    -0.66750
     149    195.51    -0.64845 ( 99.57%)    -0.65259 (  0.43%)    -0.64846
     150    197.18    -0.64379 ( 99.59%)    -0.65008 (  0.41%)    -0.64381
     151    197.27    -0.64354 ( 99.59%)    -0.64995 (  0.41%)    -0.64357
     152    200.43    -0.63480 ( 99.61%)    -0.64523 (  0.39%)    -0.63484
     153    200.80    -0.63380 ( 99.62%)    -0.64470 (  0.38%)    -0.63385
     154    200.92    -0.63346 ( 99.62%)    -0.64451 (  0.38%)    -0.63350
     155    201.00    -0.63324 ( 99.62%)    -0.64439 (  0.38%)    -0.63328
     156    201.04    -0.63314 ( 99.62%)    -0.64434 (  0.38%)    -0.63319
     157    201.08    -0.63302 ( 99.62%)    -0.64427 (  0.38%)    -0.63306
     158    201.22    -0.63264 ( 99.62%)    -0.64406 (  0.38%)    -0.63268
     159    201.79    -0.63109 ( 99.62%)    -0.64323 (  0.38%)    -0.63113
     160    202.46    -0.62929 ( 99.63%)    -0.64225 (  0.37%)    -0.62934
     161    202.79    -0.62839 ( 99.63%)    -0.64177 (  0.37%)    -0.62844
     162    205.44    -0.62130 ( 99.65%)    -0.63793 (  0.35%)    -0.62136
     163    209.83    -0.60975 ( 99.68%)    -0.63165 (  0.32%)    -0.60982
     164    214.67    -0.59737 ( 99.71%)    -0.62490 (  0.29%)    -0.59745
     165    219.51    -0.58532 ( 99.73%)    -0.61830 (  0.27%)    -0.58541
     166    223.82    -0.57483 ( 99.75%)    -0.61254 (  0.25%)    -0.57493
     167    226.90    -0.56747 ( 99.76%)    -0.60848 (  0.24%)    -0.56756
     168    246.73    -0.52289 ( 99.83%)    -0.58366 (  0.17%)    -0.52300
     169    250.99    -0.51390 ( 99.84%)    -0.57860 (  0.16%)    -0.51400
     170    256.42    -0.50269 ( 99.86%)    -0.57226 (  0.14%)    -0.50279
     171    260.69    -0.49407 ( 99.86%)    -0.56736 (  0.14%)    -0.49417
     172    261.45    -0.49257 ( 99.87%)    -0.56650 (  0.13%)    -0.49267
     173    263.40    -0.48870 ( 99.87%)    -0.56430 (  0.13%)    -0.48880
     174    264.72    -0.48612 ( 99.87%)    -0.56282 (  0.13%)    -0.48621
     175    264.75    -0.48606 ( 99.87%)    -0.56279 (  0.13%)    -0.48615
     176    264.80    -0.48596 ( 99.87%)    -0.56273 (  0.13%)    -0.48606
     177    264.91    -0.48574 ( 99.87%)    -0.56260 (  0.13%)    -0.48583
     178    265.02    -0.48552 ( 99.87%)    -0.56248 (  0.13%)    -0.48562
     179    265.10    -0.48536 ( 99.87%)    -0.56239 (  0.13%)    -0.48546
     180    265.16    -0.48526 ( 99.87%)    -0.56233 (  0.13%)    -0.48536
     181    265.21    -0.48516 ( 99.87%)    -0.56228 (  0.13%)    -0.48526
     182    265.43    -0.48472 ( 99.87%)    -0.56202 (  0.13%)    -0.48481
     183    265.65    -0.48429 ( 99.87%)    -0.56178 (  0.13%)    -0.48439
     184    266.91    -0.48185 ( 99.88%)    -0.56038 (  0.12%)    -0.48194
     185    267.50    -0.48070 ( 99.88%)    -0.55972 (  0.12%)    -0.48080
     186    267.97    -0.47980 ( 99.88%)    -0.55920 (  0.12%)    -0.47989
     187    268.64    -0.47852 ( 99.88%)    -0.55847 (  0.12%)    -0.47862
     188    268.78    -0.47825 ( 99.88%)    -0.55831 (  0.12%)    -0.47834
     189    270.64    -0.47469 ( 99.88%)    -0.55627 (  0.12%)    -0.47478
     190    272.09    -0.47195 ( 99.89%)    -0.55469 (  0.11%)    -0.47204
     191    272.38    -0.47139 ( 99.89%)    -0.55437 (  0.11%)    -0.47148
     192    274.14    -0.46808 ( 99.89%)    -0.55246 (  0.11%)    -0.46818
     193    277.38    -0.46207 ( 99.89%)    -0.54898 (  0.11%)    -0.46216
     194    277.60    -0.46165 ( 99.89%)    -0.54874 (  0.11%)    -0.46175
     195    281.63    -0.45430 ( 99.90%)    -0.54447 (  0.10%)    -0.45439
     196    282.88    -0.45204 ( 99.90%)    -0.54316 (  0.10%)    -0.45213
     197    286.23    -0.44608 ( 99.91%)    -0.53968 (  0.09%)    -0.44617
     198    287.91    -0.44311 ( 99.91%)    -0.53794 (  0.09%)    -0.44320
     199    290.12    -0.43925 ( 99.91%)    -0.53567 (  0.09%)    -0.43933
     200    292.03    -0.43595 ( 99.91%)    -0.53373 (  0.09%)    -0.43603
     201    292.58    -0.43499 ( 99.91%)    -0.53317 (  0.09%)    -0.43508
     202    293.70    -0.43307 ( 99.92%)    -0.53204 (  0.08%)    -0.43315
     203    298.73    -0.42457 ( 99.92%)    -0.52701 (  0.08%)    -0.42465
     204    298.74    -0.42455 ( 99.92%)    -0.52700 (  0.08%)    -0.42463
   ------------------------------------------------------------------------

   temp. (K)  partition function   enthalpy   heat capacity  entropy
                                   cal/mol     cal/K/mol   cal/K/mol   J/K/mol
 298.15  VIB  0.346+125           137044.891    862.004    888.702
         ROT  0.556E+11              888.752      2.981     52.149
         INT  0.192+136           137933.644    864.985    940.851
         TR   0.188E+30             1481.254      4.968     50.166
         TOT                      139414.8975   869.9532   991.0165  4146.4130

       T/K    H(0)-H(T)+PV         H(T)/Eh          T*S/Eh         G(T)/Eh
   ------------------------------------------------------------------------
    298.15    0.222172E+00    0.285225E+01    0.470864E+00    0.238139E+01
   ------------------------------------------------------------------------

         :::::::::::::::::::::::::::::::::::::::::::::::::::::
         ::                  THERMODYNAMIC                  ::
         :::::::::::::::::::::::::::::::::::::::::::::::::::::
         :: total free energy        -645.836451703706 Eh   ::
         ::.................................................::
         :: total energy             -648.217841359379 Eh   ::
         :: zero point energy           2.630081792940 Eh   ::
         :: G(RRHO) w/o ZPVE           -0.248692137267 Eh   ::
         :: G(RRHO) contrib.            2.381389655673 Eh   ::
         :::::::::::::::::::::::::::::::::::::::::::::::::::::
imag cut-off (cm-1) :    5.00
 found            1  significant imaginary frequency
 writing imag mode distorted coords to xtbhess.xyz
 for further optimization.

optimized geometry written to: xtbopt.xyz


           -------------------------------------------------
          | TOTAL ENERGY             -648.217841359379 Eh   |
          | TOTAL ENTHALPY           -645.365587785412 Eh   |
          | TOTAL FREE ENERGY        -645.836451703706 Eh   |
          | GRADIENT NORM               0.000907451598 Eh/α |
          | HOMO-LUMO GAP               0.733420740558 eV   |
           -------------------------------------------------

------------------------------------------------------------------------
 * finished run on 2021/11/21 at 14:56:52.213     
------------------------------------------------------------------------
 total:
 * wall-time:     0 d,  2 h,  8 min, 17.614 sec
 *  cpu-time:     0 d,  2 h,  8 min, 17.697 sec
 * ratio c/w:     1.000 speedup
 SCF:
 * wall-time:     0 d,  0 h,  0 min, 23.200 sec
 *  cpu-time:     0 d,  0 h,  0 min, 23.200 sec
 * ratio c/w:     1.000 speedup
 ANC optimizer:
 * wall-time:     0 d,  0 h, 12 min,  9.142 sec
 *  cpu-time:     0 d,  0 h, 12 min,  9.152 sec
 * ratio c/w:     1.000 speedup
 analytical hessian:
 * wall-time:     0 d,  1 h, 55 min, 44.520 sec
 *  cpu-time:     0 d,  1 h, 55 min, 44.596 sec
 * ratio c/w:     1.000 speedup

