374
 energy: -645.589087080069 gnorm: 2.082411866559 xtb: 6.4.1 (bd6e46d)
C        56.03945700000000    3.50946800000000    0.78877300000000
C        56.92943500000000    2.56920900000000    0.59057700000000
C        56.26793300000000    1.30913400000000    0.28977000000000
C        56.62637200000001    0.00347200000000    0.00108900000000
C        55.80119300000000   -1.12760000000000   -0.08412700000000
C        56.25675900000000   -2.33632400000000    0.49718000000000
C        55.28406400000000   -3.26887100000000    0.29702500000000
C        54.25297100000001   -2.60117000000000   -0.40596300000000
N        54.58969600000000   -1.32031000000000   -0.62287700000000
C        53.09501000000000   -3.32728500000000   -0.73768000000000
C        51.77690900000001   -2.88458900000000   -0.62414500000000
C        50.46456300000001   -3.48672400000000   -0.72112400000000
C        49.54293500000001   -2.54007600000000   -0.51503900000000
C        50.23982100000000   -1.29424600000000   -0.27830800000000
N        51.56089400000000   -1.57399800000000   -0.35799400000000
C        49.84057900000001    0.00775200000000   -0.01030500000000
C        50.67319100000000    1.14442800000000    0.06560300000000
C        50.23904800000000    2.34641700000000   -0.54453700000000
C        51.23456100000001    3.26280600000000   -0.35258100000000
C        52.24871200000000    2.58956300000000    0.37135000000000
N        51.88351500000000    1.32174100000000    0.61017400000000
C        53.41835300000001    3.29651900000000    0.69284900000000
C        54.73360600000000    2.89299400000000    0.62283400000000
N        54.92322900000000    1.58189100000000    0.32643200000000
H        56.20672200000000    4.53801200000000    1.02736200000000
H        57.99969400000000    2.69254600000000    0.63959600000000
H        57.21728000000000   -2.52202700000000    1.01575600000000
H        55.32094600000000   -4.32548000000000    0.62235200000000
H        53.98641100000000   -0.55290000000000   -1.17039600000000
H        53.18340100000000   -4.36271200000000   -1.11602700000000
H        50.26588700000000   -4.54742400000000   -0.92986900000000
H        48.47352500000000   -2.73201000000000   -0.53427300000000
H        48.76563600000001    0.09702100000000    0.12743900000000
H        49.28539300000000    2.53797500000000   -1.07333500000000
H        51.22013900000000    4.31303500000000   -0.69902300000000
H        52.47683900000000    0.56429700000000    1.18217000000000
H        53.34984500000000    4.35392400000000    1.04956500000000
C       178.67515499999999   -3.49415500000000    0.82514300000000
C       177.78517700000000   -2.55600400000000    0.61719300000000
C       178.44667799999999   -1.29912200000000    0.30331500000000
C       178.08824000000001    0.00347200000000    0.00108900000000
C       178.91341800000001    1.13359800000000   -0.09587000000000
C       178.45785300000000    2.34829400000000    0.47285200000000
C       179.43054699999999    3.27871100000000    0.26302300000000
C       180.46164100000001    2.60374500000000   -0.43299200000000
N       180.12491600000004    1.32070200000000   -0.63659200000000
C       181.61960199999999    3.32637700000000   -0.77223300000000
C       182.93770300000003    2.88488400000000   -0.65410600000000
C       184.25004899999999    3.48597800000000   -0.75733400000000
C       185.17167699999999    2.54152200000000   -0.54142800000000
C       184.47479100000004    1.29821700000000   -0.29177100000000
N       183.15371800000000    1.57712700000000   -0.37435800000000
C       184.87403300000000   -0.00092600000000   -0.01026000000000
C       184.04142100000001   -1.13675300000000    0.07745000000000
C       184.47556400000002   -2.34501400000000   -0.52017400000000
C       183.48005100000000   -3.25936000000000   -0.31871100000000
C       182.46590000000000   -2.57863400000000    0.39818900000000
N       182.83109700000000   -1.30840000000000    0.62383200000000
C       181.29625899999999   -3.28221300000000    0.72701300000000
C       179.98100500000001   -2.87943800000000    0.65281000000000
N       179.79138300000000   -1.57148300000000    0.34280700000000
H       178.50789000000000   -4.52016500000000    1.07440200000000
H       176.71491800000001   -2.67882600000000    0.66749000000000
H       177.49733200000000    2.53937200000000    0.98947200000000
H       179.39366600000000    4.33864300000000    0.57735800000000
H       180.72820100000001    0.54764700000000   -1.17611100000000
H       181.53121100000001    4.35781800000000   -1.16131300000000
H       184.44872400000000    4.54445400000000   -0.97708400000000
H       186.24108699999999    2.73324600000000   -0.56265400000000
H       185.94897599999999   -0.08876000000000    0.12840400000000
H       185.42921799999999   -2.54205300000000   -1.04695400000000
H       183.49447200000000   -4.31313000000000   -0.65422600000000
H       182.23777200000001   -0.54505700000000    1.18793100000000
H       181.36476600000000   -4.33585600000000    1.09469200000000
C        59.54312800000000    0.01527200000000    0.00537300000000
C        60.75866100000000   -0.01007100000000   -0.00510600000000
C        62.18017800000000   -0.03149500000000   -0.00928200000000
C        63.38874000000001   -0.03370600000000   -0.00917700000000
C        64.80981500000000   -0.01474600000000   -0.00980400000000
C        66.02095700000000    0.01527200000000    0.00537300000000
C        75.13585500000002    0.01527200000000    0.00537300000000
C        76.35138800000000   -0.01007100000000   -0.00510600000000
C        77.77290500000001   -0.03149500000000   -0.00928200000000
C        78.98146600000000   -0.03370600000000   -0.00917700000000
C        80.40254200000000   -0.01474600000000   -0.00980400000000
C        81.61368400000001    0.01527200000000    0.00537300000000
C        90.72858100000001    0.01527200000000    0.00537300000000
C        91.94411400000000   -0.01007100000000   -0.00510600000000
C        93.36563099999999   -0.03149500000000   -0.00928200000000
C        94.57419299999999   -0.03370600000000   -0.00917700000000
C        95.99526800000000   -0.01474600000000   -0.00980400000000
C        97.20641000000001    0.01527200000000    0.00537300000000
C       106.32130800000002    0.01527200000000    0.00537300000000
C       107.53684100000000   -0.01007100000000   -0.00510600000000
C       108.95835800000000   -0.03149500000000   -0.00928200000000
C       110.16691899999999   -0.03370600000000   -0.00917700000000
C       111.58799500000001   -0.01474600000000   -0.00980400000000
C       112.79913700000002    0.01527200000000    0.00537300000000
C       121.91403400000000    0.01527200000000    0.00537300000000
C       123.12956700000001   -0.01007100000000   -0.00510600000000
C       124.55108400000000   -0.03149500000000   -0.00928200000000
C       125.75964600000002   -0.03370600000000   -0.00917700000000
C       127.18072100000001   -0.01474600000000   -0.00980400000000
C       128.39186300000000    0.01527200000000    0.00537300000000
C       137.50676100000001    0.01527200000000    0.00537300000000
C       138.72229400000001   -0.01007100000000   -0.00510600000000
C       140.14381100000000   -0.03149500000000   -0.00928200000000
C       141.35237200000003   -0.03370600000000   -0.00917700000000
C       142.77344800000000   -0.01474600000000   -0.00980400000000
C       143.98459000000000    0.01527200000000    0.00537300000000
C       153.09948800000004    0.01527200000000    0.00537300000000
C       154.31502000000000   -0.01007100000000   -0.00510600000000
C       155.73653700000000   -0.03149500000000   -0.00928200000000
C       156.94509900000000   -0.03370600000000   -0.00917700000000
C       158.36617400000003   -0.01474600000000   -0.00980400000000
C       159.57731700000002    0.01527200000000    0.00537300000000
C       168.69221400000004    0.01527200000000    0.00537300000000
C       169.90774700000000   -0.01007100000000   -0.00510600000000
C       171.32926400000002   -0.03149500000000   -0.00928200000000
C       172.53782600000000   -0.03370600000000   -0.00917700000000
C       173.95890100000000   -0.01474600000000   -0.00980400000000
C       175.17004299999999    0.01527200000000    0.00537300000000
C        67.78449100000000   -3.59320200000000    0.00054800000000
C        66.90994100000000   -2.59829700000000   -0.00975400000000
C        67.58140500000000   -1.31951400000000    0.00343500000000
C        67.18437400000001   -0.00392900000000   -0.00134300000000
C        67.99556600000000    1.14039500000000   -0.15547000000000
C        67.51654000000001    2.19291100000000   -0.96753500000000
C        68.50362500000001    3.13566400000000   -0.95900400000000
C        69.55089700000001    2.63386900000000   -0.14620100000000
N        69.21204400000002    1.42750200000000    0.32654500000000
C        70.71127400000000    3.41185200000000    0.00814900000000
C        72.03226300000000    2.95397900000000   -0.02124400000000
C        73.34483300000001    3.58211200000000   -0.08237200000000
C        74.25894500000000    2.62704800000000   -0.08495500000000
C        73.58539900000000    1.34017400000000   -0.02576600000000
N        72.27334000000000    1.62877300000000    0.00902400000000
C        73.98768200000001   -0.00392900000000   -0.00134300000000
C        73.15552800000000   -1.11771800000000    0.18093800000000
C        73.59548599999999   -2.14937500000000    1.04424900000000
C        72.59730399999999   -3.07271500000000    1.04887000000000
C        71.57438900000000   -2.59277700000000    0.19544000000000
N        71.94156599999999   -1.41153000000000   -0.31506800000000
C        70.41747900000000   -3.36818500000000    0.03837200000000
C        69.09670400000000   -2.94870700000000    0.02168600000000
N        68.92031299999999   -1.61050300000000    0.02258700000000
H        67.61597200000000   -4.65536900000000   -0.00485500000000
H        65.82211300000000   -2.78433300000000   -0.02678100000000
H        66.55246300000000    2.26828300000000   -1.50185100000000
H        68.46547900000000    4.10677900000000   -1.49144600000000
H        69.81972200000000    0.79040200000000    1.01517400000000
H        70.65617399999999    4.49811400000000    0.15226400000000
H        73.56326000000000    4.65010400000000   -0.12070200000000
H        75.33526000000001    2.77309200000000   -0.12458200000000
H        74.54949600000000   -2.21378700000000    1.60179700000000
H        72.62272300000001   -4.01803300000000    1.62418900000000
H        71.35449000000000   -0.79207400000000   -1.03871800000000
H        70.47819700000001   -4.47992500000000   -0.07575700000000
C        83.37721700000000   -3.59320200000000    0.00054800000000
C        82.50266700000000   -2.59829700000000   -0.00975400000000
C        83.17413100000002   -1.31951400000000    0.00343500000000
C        82.77710000000000   -0.00392900000000   -0.00134300000000
C        83.58829299999999    1.14039500000000   -0.15547000000000
C        83.10926700000002    2.19291100000000   -0.96753500000000
C        84.09635200000000    3.13566400000000   -0.95900400000000
C        85.14362300000001    2.63386900000000   -0.14620100000000
N        84.80477000000000    1.42750200000000    0.32654500000000
C        86.30400100000000    3.41185200000000    0.00814900000000
C        87.62499000000000    2.95397900000000   -0.02124400000000
C        88.93755899999999    3.58211200000000   -0.08237200000000
C        89.85167199999999    2.62704800000000   -0.08495500000000
C        89.17812500000001    1.34017400000000   -0.02576600000000
N        87.86606700000000    1.62877300000000    0.00902400000000
C        89.58040900000002   -0.00392900000000   -0.00134300000000
C        88.74825500000000   -1.11771800000000    0.18093800000000
C        89.18821300000000   -2.14937500000000    1.04424900000000
C        88.19003100000000   -3.07271500000000    1.04887000000000
C        87.16711500000000   -2.59277700000000    0.19544000000000
N        87.53429199999999   -1.41153000000000   -0.31506800000000
C        86.01020600000001   -3.36818500000000    0.03837200000000
C        84.68943100000000   -2.94870700000000    0.02168600000000
N        84.51304000000000   -1.61050300000000    0.02258700000000
H        83.20869800000000   -4.65536900000000   -0.00485500000000
H        81.41483900000000   -2.78433300000000   -0.02678100000000
H        82.14518900000000    2.26828300000000   -1.50185100000000
H        84.05820500000002    4.10677900000000   -1.49144600000000
H        85.41244900000001    0.79040200000000    1.01517400000000
H        86.24890100000000    4.49811400000000    0.15226400000000
H        89.15598600000000    4.65010400000000   -0.12070200000000
H        90.92798700000000    2.77309200000000   -0.12458200000000
H        90.14222300000000   -2.21378700000000    1.60179700000000
H        88.21544900000001   -4.01803300000000    1.62418900000000
H        86.94721600000000   -0.79207400000000   -1.03871800000000
H        86.07092400000001   -4.47992500000000   -0.07575700000000
C        98.96994400000000   -3.59320200000000    0.00054800000000
C        98.09539400000001   -2.59829700000000   -0.00975400000000
C        98.76685800000000   -1.31951400000000    0.00343500000000
C        98.36982700000000   -0.00392900000000   -0.00134300000000
C        99.18101900000002    1.14039500000000   -0.15547000000000
C        98.70199300000000    2.19291100000000   -0.96753500000000
C        99.68907900000002    3.13566400000000   -0.95900400000000
C       100.73635000000000    2.63386900000000   -0.14620100000000
N       100.39749700000000    1.42750200000000    0.32654500000000
C       101.89672700000000    3.41185200000000    0.00814900000000
C       103.21771600000000    2.95397900000000   -0.02124400000000
C       104.53028600000000    3.58211200000000   -0.08237200000000
C       105.44439900000002    2.62704800000000   -0.08495500000000
C       104.77085200000000    1.34017400000000   -0.02576600000000
N       103.45879400000000    1.62877300000000    0.00902400000000
C       105.17313500000000   -0.00392900000000   -0.00134300000000
C       104.34098100000000   -1.11771800000000    0.18093800000000
C       104.78094000000000   -2.14937500000000    1.04424900000000
C       103.78275700000000   -3.07271500000000    1.04887000000000
C       102.75984200000002   -2.59277700000000    0.19544000000000
N       103.12701900000000   -1.41153000000000   -0.31506800000000
C       101.60293200000000   -3.36818500000000    0.03837200000000
C       100.28215700000001   -2.94870700000000    0.02168600000000
N       100.10576600000000   -1.61050300000000    0.02258700000000
H        98.80142499999999   -4.65536900000000   -0.00485500000000
H        97.00756600000000   -2.78433300000000   -0.02678100000000
H        97.73791600000000    2.26828300000000   -1.50185100000000
H        99.65093200000000    4.10677900000000   -1.49144600000000
H       101.00517499999999    0.79040200000000    1.01517400000000
H       101.84162800000001    4.49811400000000    0.15226400000000
H       104.74871300000000    4.65010400000000   -0.12070200000000
H       106.52071300000001    2.77309200000000   -0.12458200000000
H       105.73494900000000   -2.21378700000000    1.60179700000000
H       103.80817600000002   -4.01803300000000    1.62418900000000
H       102.53994300000001   -0.79207400000000   -1.03871800000000
H       101.66365100000002   -4.47992500000000   -0.07575700000000
C       114.56267100000001   -3.59320200000000    0.00054800000000
C       113.68812100000000   -2.59829700000000   -0.00975400000000
C       114.35958400000001   -1.31951400000000    0.00343500000000
C       113.96255300000001   -0.00392900000000   -0.00134300000000
C       114.77374600000000    1.14039500000000   -0.15547000000000
C       114.29472000000001    2.19291100000000   -0.96753500000000
C       115.28180500000001    3.13566400000000   -0.95900400000000
C       116.32907600000001    2.63386900000000   -0.14620100000000
N       115.99022300000000    1.42750200000000    0.32654500000000
C       117.48945399999999    3.41185200000000    0.00814900000000
C       118.81044300000002    2.95397900000000   -0.02124400000000
C       120.12301300000000    3.58211200000000   -0.08237200000000
C       121.03712500000000    2.62704800000000   -0.08495500000000
C       120.36357800000002    1.34017400000000   -0.02576600000000
N       119.05152000000000    1.62877300000000    0.00902400000000
C       120.76586200000000   -0.00392900000000   -0.00134300000000
C       119.93370800000000   -1.11771800000000    0.18093800000000
C       120.37366600000001   -2.14937500000000    1.04424900000000
C       119.37548400000000   -3.07271500000000    1.04887000000000
C       118.35256800000001   -2.59277700000000    0.19544000000000
N       118.71974500000002   -1.41153000000000   -0.31506800000000
C       117.19565900000002   -3.36818500000000    0.03837200000000
C       115.87488399999999   -2.94870700000000    0.02168600000000
N       115.69849300000000   -1.61050300000000    0.02258700000000
H       114.39415100000001   -4.65536900000000   -0.00485500000000
H       112.60029300000001   -2.78433300000000   -0.02678100000000
H       113.33064200000000    2.26828300000000   -1.50185100000000
H       115.24365800000000    4.10677900000000   -1.49144600000000
H       116.59790200000000    0.79040200000000    1.01517400000000
H       117.43435400000000    4.49811400000000    0.15226400000000
H       120.34143900000001    4.65010400000000   -0.12070200000000
H       122.11344000000000    2.77309200000000   -0.12458200000000
H       121.32767600000001   -2.21378700000000    1.60179700000000
H       119.40090300000000   -4.01803300000000    1.62418900000000
H       118.13266900000001   -0.79207400000000   -1.03871800000000
H       117.25637700000000   -4.47992500000000   -0.07575700000000
C       130.15539699999999   -3.59320200000000    0.00054800000000
C       129.28084699999999   -2.59829700000000   -0.00975400000000
C       129.95231100000001   -1.31951400000000    0.00343500000000
C       129.55528000000001   -0.00392900000000   -0.00134300000000
C       130.36647199999999    1.14039500000000   -0.15547000000000
C       129.88744700000001    2.19291100000000   -0.96753500000000
C       130.87453199999999    3.13566400000000   -0.95900400000000
C       131.92180300000001    2.63386900000000   -0.14620100000000
N       131.58295000000001    1.42750200000000    0.32654500000000
C       133.08217999999999    3.41185200000000    0.00814900000000
C       134.40316899999999    2.95397900000000   -0.02124400000000
C       135.71573900000001    3.58211200000000   -0.08237200000000
C       136.62985200000000    2.62704800000000   -0.08495500000000
C       135.95630499999999    1.34017400000000   -0.02576600000000
N       134.64424700000001    1.62877300000000    0.00902400000000
C       136.35858800000000   -0.00392900000000   -0.00134300000000
C       135.52643400000002   -1.11771800000000    0.18093800000000
C       135.96639300000004   -2.14937500000000    1.04424900000000
C       134.96821100000000   -3.07271500000000    1.04887000000000
C       133.94529499999999   -2.59277700000000    0.19544000000000
N       134.31247200000001   -1.41153000000000   -0.31506800000000
C       132.78838600000000   -3.36818500000000    0.03837200000000
C       131.46761000000001   -2.94870700000000    0.02168600000000
N       131.29122000000001   -1.61050300000000    0.02258700000000
H       129.98687799999999   -4.65536900000000   -0.00485500000000
H       128.19301899999999   -2.78433300000000   -0.02678100000000
H       128.92336900000001    2.26828300000000   -1.50185100000000
H       130.83638500000001    4.10677900000000   -1.49144600000000
H       132.19062800000000    0.79040200000000    1.01517400000000
H       133.02708100000001    4.49811400000000    0.15226400000000
H       135.93416600000000    4.65010400000000   -0.12070200000000
H       137.70616699999999    2.77309200000000   -0.12458200000000
H       136.92040200000000   -2.21378700000000    1.60179700000000
H       134.99362900000000   -4.01803300000000    1.62418900000000
H       133.72539599999999   -0.79207400000000   -1.03871800000000
H       132.84910400000001   -4.47992500000000   -0.07575700000000
C       145.74812399999999   -3.59320200000000    0.00054800000000
C       144.87357399999999   -2.59829700000000   -0.00975400000000
C       145.54503700000001   -1.31951400000000    0.00343500000000
C       145.14800700000001   -0.00392900000000   -0.00134300000000
C       145.95919900000004    1.14039500000000   -0.15547000000000
C       145.48017300000001    2.19291100000000   -0.96753500000000
C       146.46725799999999    3.13566400000000   -0.95900400000000
C       147.51453000000001    2.63386900000000   -0.14620100000000
N       147.17567700000001    1.42750200000000    0.32654500000000
C       148.67490699999999    3.41185200000000    0.00814900000000
C       149.99589599999999    2.95397900000000   -0.02124400000000
C       151.30846600000001    3.58211200000000   -0.08237200000000
C       152.22257800000000    2.62704800000000   -0.08495500000000
C       151.54903200000001    1.34017400000000   -0.02576600000000
N       150.23697300000001    1.62877300000000    0.00902400000000
C       151.95131499999999   -0.00392900000000   -0.00134300000000
C       151.11916099999999   -1.11771800000000    0.18093800000000
C       151.55911900000001   -2.14937500000000    1.04424900000000
C       150.56093700000002   -3.07271500000000    1.04887000000000
C       149.53802099999999   -2.59277700000000    0.19544000000000
N       149.90519900000001   -1.41153000000000   -0.31506800000000
C       148.38111200000000   -3.36818500000000    0.03837200000000
C       147.06033700000003   -2.94870700000000    0.02168600000000
N       146.88394600000001   -1.61050300000000    0.02258700000000
H       145.57960399999999   -4.65536900000000   -0.00485500000000
H       143.78574599999999   -2.78433300000000   -0.02678100000000
H       144.51609500000001    2.26828300000000   -1.50185100000000
H       146.42911200000000    4.10677900000000   -1.49144600000000
H       147.78335500000000    0.79040200000000    1.01517400000000
H       148.61980700000001    4.49811400000000    0.15226400000000
H       151.52689300000000    4.65010400000000   -0.12070200000000
H       153.29889299999999    2.77309200000000   -0.12458200000000
H       152.51312899999999   -2.21378700000000    1.60179700000000
H       150.58635600000002   -4.01803300000000    1.62418900000000
H       149.31812199999999   -0.79207400000000   -1.03871800000000
H       148.44183000000001   -4.47992500000000   -0.07575700000000
C       161.34084999999999   -3.59320200000000    0.00054800000000
C       160.46629999999999   -2.59829700000000   -0.00975400000000
C       161.13776400000000   -1.31951400000000    0.00343500000000
C       160.74073300000003   -0.00392900000000   -0.00134300000000
C       161.55192500000001    1.14039500000000   -0.15547000000000
C       161.07290000000003    2.19291100000000   -0.96753500000000
C       162.05998500000001    3.13566400000000   -0.95900400000000
C       163.10725600000004    2.63386900000000   -0.14620100000000
N       162.76840300000001    1.42750200000000    0.32654500000000
C       164.26763400000002    3.41185200000000    0.00814900000000
C       165.58862300000004    2.95397900000000   -0.02124400000000
C       166.90119200000001    3.58211200000000   -0.08237200000000
C       167.81530500000002    2.62704800000000   -0.08495500000000
C       167.14175800000001    1.34017400000000   -0.02576600000000
N       165.82970000000000    1.62877300000000    0.00902400000000
C       167.54404199999999   -0.00392900000000   -0.00134300000000
C       166.71188799999999   -1.11771800000000    0.18093800000000
C       167.15184600000003   -2.14937500000000    1.04424900000000
C       166.15366399999999   -3.07271500000000    1.04887000000000
C       165.13074800000001   -2.59277700000000    0.19544000000000
N       165.49792500000004   -1.41153000000000   -0.31506800000000
C       163.97383900000003   -3.36818500000000    0.03837200000000
C       162.65306400000000   -2.94870700000000    0.02168600000000
N       162.47667300000003   -1.61050300000000    0.02258700000000
H       161.17233100000004   -4.65536900000000   -0.00485500000000
H       159.37847199999999   -2.78433300000000   -0.02678100000000
H       160.10882200000000    2.26828300000000   -1.50185100000000
H       162.02183800000003    4.10677900000000   -1.49144600000000
H       163.37608200000000    0.79040200000000    1.01517400000000
H       164.21253400000001    4.49811400000000    0.15226400000000
H       167.11961900000000    4.65010400000000   -0.12070200000000
H       168.89161999999999    2.77309200000000   -0.12458200000000
H       168.10585499999999   -2.21378700000000    1.60179700000000
H       166.17908199999999   -4.01803300000000    1.62418900000000
H       164.91084900000001   -0.79207400000000   -1.03871800000000
H       164.03455700000001   -4.47992500000000   -0.07575700000000
374
 energy: -646.501908037074 gnorm: 0.912531001468 xtb: 6.4.1 (bd6e46d)
C        56.03396251313717    3.51279488591103    0.79009940060542
C        56.93856209057151    2.56416372353651    0.58855712221260
C        56.26485203548755    1.30894884424630    0.28783396544675
C        56.62429451475785    0.01018068097844    0.00229275274660
C        55.81233828760339   -1.12102600080184   -0.08097995572993
C        56.26157942263958   -2.33899425237867    0.49886521954712
C        55.28710659119536   -3.27138827302808    0.29477241407387
C        54.24808928181091   -2.60798396413910   -0.40886032195511
N        54.58511202714613   -1.31483956984760   -0.62624130103329
C        53.08705529987773   -3.33038576061113   -0.74095743397707
C        51.77577781116251   -2.87567236776863   -0.62662083993653
C        50.46491646274002   -3.49322134906691   -0.72354039922672
C        49.53898788935630   -2.54188433961041   -0.51458403660211
C        50.24716828654801   -1.29671759584335   -0.27497247308784
N        51.56765180033521   -1.56823564666671   -0.35644290703032
C        49.83803471556573    0.00059740946450   -0.00909385198864
C        50.66524695962334    1.14059901273830    0.06429540973541
C        50.23533980739439    2.34842288543634   -0.54335145855651
C        51.23217630236953    3.26553000817688   -0.35073995682925
C        52.25313056401836    2.59749039472587    0.37272983336996
N        51.88937136551107    1.31589955493725    0.61029279830160
C        53.42346651924116    3.30409657539840    0.69763047077268
C        54.73410223913625    2.88284448589874    0.62346227818811
N        54.92179811307815    1.57615192335805    0.32637120591966
H        56.20584705163326    4.53992890349944    1.02792045056970
H        58.00188144538811    2.69109250263110    0.63922355039996
H        57.21300315241038   -2.51922181536101    1.01349411889044
H        55.31917198741762   -4.31972655972620    0.62007706323250
H        53.99471492509394   -0.56468868115077   -1.16039189252373
H        53.18482423800450   -4.36121389298997   -1.11016262322106
H        50.26714824236794   -4.54508077733929   -0.92948187483747
H        48.47413458830318   -2.72958991287064   -0.53367920908667
H        48.76566697631133    0.10015122048693    0.12377253964243
H        49.29025412028645    2.53509366966485   -1.07065124520246
H        51.22198605250033    4.30733783517493   -0.69682662944341
H        52.46828624851158    0.57553421583555    1.17132071493553
H        53.34692888530383    4.35193792407380    1.04452187075720
C       178.68065220492267   -3.49746702387209    0.82650472840171
C       177.77604278691166   -2.55097868864650    0.61512189448256
C       178.44973907814588   -1.29894165193938    0.30138091691630
C       178.09033728271200   -0.00314410952584    0.00234650868432
C       178.90229454482017    1.12705858646097   -0.09265667358162
C       178.45303586462560    2.35098424920684    0.47451249210947
C       179.42750169327564    3.28120455152365    0.26074631305657
C       180.46652666223989    2.61053056850407   -0.43596249220195
N       180.12950903729080    1.31520009171539   -0.63990041920029
C       181.62755502439870    3.32944348760474   -0.77554263715744
C       182.93883442989147    2.87594121833766   -0.65648986800425
C       184.24969545280152    3.49245043897329   -0.75981678965295
C       185.17562418824380    2.54333494014147   -0.54099191208680
C       184.46744360382627    1.30072366819608   -0.28846181642745
N       183.14696008575714    1.57138144938880   -0.37274648202379
C       184.87657750132635    0.00624072810218   -0.00912277479459
C       184.04936478008304   -1.13293780142946    0.07610219203186
C       184.47927184792107   -2.34700719384921   -0.51896775510956
C       183.48243531500401   -3.26206510024616   -0.31684142038233
C       182.46148078649458   -2.58654707141648    0.39965177013738
N       182.82524097097701   -1.30255727425017    0.62389047139664
C       181.29114443819415   -3.28973960645532    0.73187075756236
C       179.98050519757803   -2.86927859310857    0.65332840657763
N       179.79280246276886   -1.56574033789538    0.34268821846927
H       178.50876577041510   -4.52207648713006    1.07497953782927
H       176.71273430071389   -2.67738383057844    0.66710268589305
H       177.50161075301179    2.53654364261381    0.98723735145820
H       179.39543942262273    4.33286662997785    0.57514257645861
H       180.71989747022934    0.55953993971904   -1.16623092913413
H       181.52978784939435    4.35638168952056   -1.15543187159814
H       184.44746275736091    4.54211485673457   -0.97667227168519
H       186.24047735262027    2.73083222170378   -0.56203507942846
H       185.94894500695108   -0.09192820026579    0.12477029894125
H       185.42435680879413   -2.53914398122155   -1.04430061795763