      -----------------------------------------------------------      
     |                   =====================                   |     
     |                           x T B                           |     
     |                   =====================                   |     
     |                         S. Grimme                         |     
     |          Mulliken Center for Theoretical Chemistry        |     
     |                    University of Bonn                     |     
      -----------------------------------------------------------      

   * xtb version 6.4.1 (bd6e46d) compiled by 'conda@4901f00b25ba' on 2021-06-10

   xtb is free software: you can redistribute it and/or modify it under
   the terms of the GNU Lesser General Public License as published by
   the Free Software Foundation, either version 3 of the License, or
   (at your option) any later version.
   
   xtb is distributed in the hope that it will be useful,
   but WITHOUT ANY WARRANTY; without even the implied warranty of
   MERCHANTABILITY or FITNESS FOR A PARTICULAR PURPOSE.  See the
   GNU Lesser General Public License for more details.
   
   Cite this work as:
   * C. Bannwarth, E. Caldeweyher, S. Ehlert, A. Hansen, P. Pracht,
     J. Seibert, S. Spicher, S. Grimme, WIREs Comput. Mol. Sci., 2020, 11,
     e01493. DOI: 10.1002/wcms.1493
   
   for GFN2-xTB:
   * C. Bannwarth, S. Ehlert and S. Grimme., J. Chem. Theory Comput., 2019,
     15, 1652-1671. DOI: 10.1021/acs.jctc.8b01176
   for GFN1-xTB:
   * S. Grimme, C. Bannwarth, P. Shushkov, J. Chem. Theory Comput., 2017,
     13, 1989-2009. DOI: 10.1021/acs.jctc.7b00118
   for GFN0-xTB:
   * P. Pracht, E. Caldeweyher, S. Ehlert, S. Grimme, ChemRxiv, 2019, preprint.
     DOI: 10.26434/chemrxiv.8326202.v1
   for GFN-FF:
   * S. Spicher and S. Grimme, Angew. Chem. Int. Ed., 2020, 59, 15665-15673.
     DOI: 10.1002/anie.202004239
   
   for DFT-D4:
   * E. Caldeweyher, C. Bannwarth and S. Grimme, J. Chem. Phys., 2017,
     147, 034112. DOI: 10.1063/1.4993215
   * E. Caldeweyher, S. Ehlert, A. Hansen, H. Neugebauer, S. Spicher,
     C. Bannwarth and S. Grimme, J. Chem. Phys., 2019, 150, 154122.
     DOI: 10.1063/1.5090222
   * E. Caldeweyher, J.-M. Mewes, S. Ehlert and S. Grimme, Phys. Chem. Chem. Phys.
     2020, 22, 8499-8512. DOI: 10.1039/D0CP00502A
   
   for sTDA-xTB:
   * S. Grimme and C. Bannwarth, J. Chem. Phys., 2016, 145, 054103.
     DOI: 10.1063/1.4959605
   
   in the mass-spec context:
   * V. Asgeirsson, C. Bauer and S. Grimme, Chem. Sci., 2017, 8, 4879.
     DOI: 10.1039/c7sc00601b
   * J. Koopman and S. Grimme, ACS Omega 2019, 4, 12, 15120-15133.
     DOI: 10.1021/acsomega.9b02011
   
   for metadynamics refer to:
   * S. Grimme, J. Chem. Theory Comput., 2019, 155, 2847-2862
     DOI: 10.1021/acs.jctc.9b00143
   
   for SPH calculations refer to:
   * S. Spicher and S. Grimme, J. Chem. Theory Comput., 2021, 17, 1701-1714
     DOI: 10.1021/acs.jctc.0c01306
   
   with help from (in alphabetical order)
   P. Atkinson, C. Bannwarth, F. Bohle, G. Brandenburg, E. Caldeweyher
   M. Checinski, S. Dohm, S. Ehlert, S. Ehrlich, I. Gerasimov, J. Koopman
   C. Lavigne, S. Lehtola, F. März, M. Müller, F. Musil, H. Neugebauer
   J. Pisarek, C. Plett, P. Pracht, J. Seibert, P. Shushkov, S. Spicher
   M. Stahn, M. Steiner, T. Strunk, J. Stückrath, T. Rose, and J. Unsleber
   
 * started run on 2021/11/20 at 13:55:05.564     

           -------------------------------------------------
          |                Calculation Setup                |
           -------------------------------------------------

          program call               : /home/jeff/miniconda3/bin/xtb input_structure_1.xyz --gfn 2 --ohess normal --parallel 1 --etemp 300 --chrg 0 --uhf 0 -I det_control.in
          hostname                   : jelfscompute1
          coordinate file            : input_structure_1.xyz
          omp threads                :                     1
          number of atoms            :                   271
          number of electrons        :                   938
          charge                     :                     0
          spin                       :                   0.0
          first test random number   :      0.44950391127300

   ID    Z sym.   atoms
    1   28 Ni     1, 37, 97, 132, 167, 202, 237
    2    6 C      2-9, 11-15, 17-21, 23, 24, 38-45, 47-51, 53-57, 59, 60,
                  73-96, 98-105, 107-111, 113-117, 119, 120, 133-140,
                  142-146, 148-152, 154, 155, 168-175, 177-181, 183-187, 189,
                  190, 203-210, 212-216, 218-222, 224, 225, 238-245, 247-251,
                  253-257, 259, 260
    3    7 N      10, 16, 22, 25, 46, 52, 58, 61, 106, 112, 118, 121, 141,
                  147, 153, 156, 176, 182, 188, 191, 211, 217, 223, 226, 246,
                  252, 258, 261
    4    1 H      26-36, 62-72, 122-131, 157-166, 192-201, 227-236, 262-271

molecular fragmentation (1/2 indicates fragments):
111111111111111111111111111111111111222222222222222222222222222222222222
222222222222222222222222222222222222222222222222222222222222222222222222
222222222222222222222222222222222222222222222222222222222222222222222222
2222222222222222222222222222222222222222222222222222222
# atoms in fragment 1/2:    36   235
 fragment masses (1/2) :      366.02     2479.35
CMA distance (Bohr)    :  90.341
constraining FC (au)   :  0.0500

           -------------------------------------------------
          |                 G F N 2 - x T B                 |
           -------------------------------------------------

        Reference                      10.1021/acs.jctc.8b01176
      * Hamiltonian:
        H0-scaling (s, p, d)           1.850000    2.230000    2.230000
        zeta-weighting                 0.500000
      * Dispersion:
        s8                             2.700000
        a1                             0.520000
        a2                             5.000000
        s9                             5.000000
      * Repulsion:
        kExp                           1.500000    1.000000
        rExp                           1.000000
      * Coulomb:
        alpha                          2.000000
        third order                    shell-resolved
        anisotropic                    true
        a3                             3.000000
        a5                             4.000000
        cn-shift                       1.200000
        cn-exp                         4.000000
        max-rad                        5.000000


          ...................................................
          :                      SETUP                      :
          :.................................................:
          :  # basis functions                 910          :
          :  # atomic orbitals                 903          :
          :  # shells                          477          :
          :  # electrons                       938          :
          :  max. iterations                   250          :
          :  Hamiltonian                  GFN2-xTB          :
          :  restarted?                      false          :
          :  GBSA solvation                  false          :
          :  PC potential                    false          :
          :  electronic temp.          300.0000000     K    :
          :  accuracy                    1.0000000          :
          :  -> integral cutoff          0.2500000E+02      :
          :  -> integral neglect         0.1000000E-07      :
          :  -> SCF convergence          0.1000000E-05 Eh   :
          :  -> wf. convergence          0.1000000E-03 e    :
          :  Broyden damping             0.4000000          :
          ...................................................

 iter      E             dE          RMSdq      gap      omega  full diag
   1   -509.1954057 -0.509195E+03  0.902E+00    0.73       0.0  T
   2   -500.2076119  0.898779E+01  0.637E+00    0.03       1.0  T
   3   -232.3322402  0.267875E+03  0.147E+01    0.07       1.0  T
   4   -141.5754825  0.907568E+02  0.158E+01    0.02       1.0  T
   5   -450.6803245 -0.309105E+03  0.729E+00    0.01       1.0  T
   6   -426.5763799  0.241039E+02  0.703E+00    0.01       1.0  T
   7   -418.9367198  0.763966E+01  0.802E+00    0.08       1.0  T
   8   -477.0799998 -0.581433E+02  0.634E+00    0.02       1.0  T
   9   -498.2931320 -0.212131E+02  0.391E+00    0.06       1.0  T
  10   -456.8355857  0.414575E+02  0.536E+00    0.10       1.0  T
  11   -499.1048906 -0.422693E+02  0.492E+00    0.05       1.0  T
  12   -507.9498128 -0.884492E+01  0.289E+00    0.01       1.0  T
  13   -494.9309907  0.130188E+02  0.497E+00    0.04       1.0  T
  14   -495.0459589 -0.114968E+00  0.495E+00    0.04       1.0  T
  15   -494.1764388  0.869520E+00  0.494E+00    0.03       1.0  T
  16   -500.1872026 -0.601076E+01  0.449E+00    0.09       1.0  T
  17   -500.6843965 -0.497194E+00  0.449E+00    0.16       1.0  T
  18   -501.4902154 -0.805819E+00  0.435E+00    0.06       1.0  T
  19   -502.7024242 -0.121221E+01  0.411E+00    0.04       1.0  T
  20   -500.8682064  0.183422E+01  0.460E+00    0.17       1.0  T
  21   -501.4454388 -0.577232E+00  0.453E+00    0.05       1.0  T
  22   -501.1701453  0.275294E+00  0.453E+00    0.00       1.0  T
  23   -499.2588555  0.191129E+01  0.478E+00    0.01       1.0  T
  24   -503.0982438 -0.383939E+01  0.460E+00    0.09       1.0  T
  25   -494.2927098  0.880553E+01  0.550E+00    0.06       1.0  T
  26   -509.1260871 -0.148334E+02  0.241E+00    0.06       1.0  T
  27   -509.8411410 -0.715054E+00  0.200E+00    0.05       1.0  T
  28   -510.2544898 -0.413349E+00  0.166E+00    0.01       1.0  T
  29   -509.3576735  0.896816E+00  0.234E+00    0.09       1.0  T
  30   -508.8277332  0.529940E+00  0.258E+00    0.06       1.0  T
  31   -508.5712863  0.256447E+00  0.272E+00    0.05       1.0  T
  32   -509.6782937 -0.110701E+01  0.212E+00    0.08       1.0  T
  33   -509.6020690  0.762247E-01  0.192E+00    0.02       1.0  T
  34   -507.5033471  0.209872E+01  0.305E+00    0.01       1.0  T
  35   -506.5643518  0.938995E+00  0.335E+00    0.01       1.0  T
  36   -508.6801552 -0.211580E+01  0.265E+00    0.00       1.0  T
  37   -506.2030668  0.247709E+01  0.390E+00    0.01       1.0  T
  38   -506.0560432  0.147024E+00  0.392E+00    0.00       1.0  T
  39   -509.2616995 -0.320566E+01  0.236E+00    0.05       1.0  T
  40   -508.9425746  0.319125E+00  0.243E+00    0.01       1.0  T
  41   -509.3130137 -0.370439E+00  0.224E+00    0.08       1.0  T
  42   -509.4074016 -0.943879E-01  0.214E+00    0.07       1.0  T
  43   -507.7497965  0.165761E+01  0.296E+00    0.01       1.0  T
  44   -507.6196764  0.130120E+00  0.301E+00    0.01       1.0  T
  45   -507.5065111  0.113165E+00  0.299E+00    0.02       1.0  T
  46   -506.8271219  0.679389E+00  0.326E+00    0.00       1.0  T
  47   -507.9825759 -0.115545E+01  0.276E+00    0.01       1.0  T
  48   -505.8548144  0.212776E+01  0.319E+00    0.00       1.0  T
  49   -505.2994659  0.555349E+00  0.355E+00    0.02       1.0  T
  50   -506.1822291 -0.882763E+00  0.235E+00    0.01       1.0  T
  51   -506.8471915 -0.664962E+00  0.222E+00    0.05       1.0  T
  52   -506.0431875  0.804004E+00  0.239E+00    0.02       1.0  T
  53   -506.3430162 -0.299829E+00  0.232E+00    0.04       1.0  T
  54   -506.6964687 -0.353452E+00  0.223E+00    0.03       1.0  T
  55   -506.3952487  0.301220E+00  0.229E+00    0.04       1.0  T
  56   -505.8656917  0.529557E+00  0.245E+00    0.02       1.0  T
  57   -506.8492078 -0.983516E+00  0.219E+00    0.04       1.0  T
  58   -507.0595828 -0.210375E+00  0.219E+00    0.03       1.0  T
  59   -507.1865755 -0.126993E+00  0.208E+00    0.02       1.0  T
  60   -506.9639604  0.222615E+00  0.223E+00    0.02       1.0  T
  61   -506.2090815  0.754879E+00  0.247E+00    0.02       1.0  T
  62   -508.6806485 -0.247157E+01  0.168E+00    0.01       1.0  T
  63   -508.9053877 -0.224739E+00  0.164E+00    0.02       1.0  T
  64   -509.8105661 -0.905178E+00  0.129E+00    0.03       1.0  T
  65   -509.7689472  0.416189E-01  0.127E+00    0.01       1.0  T
  66   -509.9775377 -0.208590E+00  0.114E+00    0.02       1.0  T
  67   -510.3587449 -0.381207E+00  0.985E-01    0.03       1.0  T
  68   -510.2872735  0.714713E-01  0.106E+00    0.01       1.0  T
  69   -510.1830811  0.104192E+00  0.147E+00    0.06       1.0  T
  70   -510.4119658 -0.228885E+00  0.122E+00    0.02       1.0  T
  71   -510.3596097  0.523561E-01  0.129E+00    0.03       1.0  T
  72   -510.3270868  0.325229E-01  0.129E+00    0.04       1.0  T
  73   -510.5329892 -0.205902E+00  0.824E-01    0.00       1.0  T
  74   -510.4905253  0.424640E-01  0.779E-01    0.00       1.0  T
  75   -510.4495857  0.409396E-01  0.804E-01    0.00       1.0  T
  76   -510.5331700 -0.835843E-01  0.546E-01    0.00       1.0  T
  77   -510.3047507  0.228419E+00  0.644E-01    0.04       1.0  T
  78   -510.3814895 -0.767388E-01  0.633E-01    0.04       1.0  T
  79   -510.5677391 -0.186250E+00  0.469E-01    0.01       1.0  T
  80   -510.4640539  0.103685E+00  0.680E-01    0.02       1.0  T
  81   -510.4387376  0.253164E-01  0.789E-01    0.02       1.0  T
  82   -510.4777001 -0.389625E-01  0.771E-01    0.01       1.0  T
  83   -510.5040930 -0.263930E-01  0.744E-01    0.00       1.0  T
  84   -510.6488435 -0.144750E+00  0.530E-01    0.03       1.0  T
  85   -510.7089445 -0.601010E-01  0.451E-01    0.07       1.0  T
  86   -510.7225442 -0.135997E-01  0.460E-01    0.08       1.0  T
  87   -510.7259419 -0.339768E-02  0.467E-01    0.09       1.0  T
  88   -510.7290169 -0.307505E-02  0.472E-01    0.10       1.0  T
  89   -510.7285767  0.440190E-03  0.473E-01    0.10       1.0  T
  90   -510.7285870 -0.102640E-04  0.473E-01    0.10       1.0  T
  91   -510.7307851 -0.219815E-02  0.477E-01    0.12       1.0  T
  92   -510.7268029  0.398225E-02  0.489E-01    0.14       1.0  T
  93   -510.7281762 -0.137332E-02  0.490E-01    0.14       1.0  T
  94   -510.7303532 -0.217704E-02  0.487E-01    0.15       1.0  T
  95   -510.7285548  0.179843E-02  0.486E-01    0.14       1.0  T
  96   -510.7288723 -0.317493E-03  0.486E-01    0.12       1.0  T
  97   -510.7291324 -0.260080E-03  0.486E-01    0.12       1.0  T
  98   -510.7280673  0.106511E-02  0.489E-01    0.12       1.0  T
  99   -510.7275851  0.482150E-03  0.488E-01    0.12       1.0  T
 100   -510.7264164  0.116871E-02  0.482E-01    0.12       1.0  T
 101   -510.7250336  0.138279E-02  0.495E-01    0.13       1.0  T
 102   -510.7190488  0.598485E-02  0.510E-01    0.13       1.0  T
 103   -510.7180727  0.976056E-03  0.509E-01    0.13       1.0  T
 104   -510.6575450  0.605277E-01  0.639E-01    0.08       1.0  T
 105   -510.6641937 -0.664868E-02  0.640E-01    0.09       1.0  T
 106   -510.6622974  0.189630E-02  0.644E-01    0.08       1.0  T
 107   -510.6710423 -0.874489E-02  0.645E-01    0.09       1.0  T
 108   -510.7007566 -0.297143E-01  0.590E-01    0.12       1.0  T
 109   -510.6918905  0.886612E-02  0.613E-01    0.09       1.0  T
 110   -510.7057735 -0.138830E-01  0.564E-01    0.10       1.0  T
 111   -510.7146857 -0.891219E-02  0.483E-01    0.08       1.0  T
 112   -510.7068823  0.780342E-02  0.504E-01    0.06       1.0  T
 113   -510.7085598 -0.167755E-02  0.503E-01    0.06       1.0  T
 114   -510.7056492  0.291061E-02  0.518E-01    0.06       1.0  T
 115   -510.7127509 -0.710164E-02  0.494E-01    0.06       1.0  T
 116   -510.7306857 -0.179349E-01  0.435E-01    0.07       1.0  T
 117   -510.7301179  0.567783E-03  0.423E-01    0.07       1.0  T
 118   -510.7367628 -0.664486E-02  0.391E-01    0.08       1.0  T
 119   -510.7479653 -0.112025E-01  0.357E-01    0.10       1.0  T
 120   -510.7517447 -0.377945E-02  0.343E-01    0.11       1.0  T
 121   -510.7536404 -0.189564E-02  0.325E-01    0.12       1.0  T
 122   -510.7536610 -0.206443E-04  0.326E-01    0.12       1.0  T
 123   -510.7536459  0.150793E-04  0.329E-01    0.13       1.0  T
 124   -510.7543034 -0.657525E-03  0.329E-01    0.14       1.0  T
 125   -510.7540816  0.221880E-03  0.320E-01    0.14       1.0  T
 126   -510.7501899  0.389163E-02  0.316E-01    0.12       1.0  T
 127   -510.7543126 -0.412265E-02  0.320E-01    0.13       1.0  T
 128   -510.7543215 -0.893155E-05  0.319E-01    0.13       1.0  T
 129   -510.7498919  0.442957E-02  0.349E-01    0.10       1.0  T
 130   -510.7516827 -0.179080E-02  0.331E-01    0.10       1.0  T
 131   -510.7491537  0.252902E-02  0.324E-01    0.09       1.0  T
 132   -510.7499974 -0.843686E-03  0.301E-01    0.10       1.0  T
 133   -510.7528293 -0.283189E-02  0.296E-01    0.10       1.0  T
 134   -510.7553131 -0.248379E-02  0.287E-01    0.10       1.0  T
 135   -510.7568013 -0.148822E-02  0.276E-01    0.11       1.0  T
 136   -510.7586282 -0.182693E-02  0.264E-01    0.12       1.0  T
 137   -510.7578857  0.742495E-03  0.265E-01    0.12       1.0  T
 138   -510.7580530 -0.167301E-03  0.264E-01    0.12       1.0  T
 139   -510.7579529  0.100086E-03  0.265E-01    0.12       1.0  T
 140   -510.7576507  0.302241E-03  0.266E-01    0.12       1.0  T
 141   -510.7574762  0.174463E-03  0.267E-01    0.12       1.0  T
 142   -510.7578764 -0.400165E-03  0.264E-01    0.12       1.0  T
 143   -510.7590284 -0.115196E-02  0.251E-01    0.12       1.0  T
 144   -510.7598328 -0.804437E-03  0.243E-01    0.12       1.0  T
 145   -510.7604842 -0.651401E-03  0.230E-01    0.12       1.0  T
 146   -510.7622113 -0.172713E-02  0.212E-01    0.12       1.0  T
 147   -510.7631103 -0.898941E-03  0.199E-01    0.12       1.0  T
 148   -510.7655694 -0.245915E-02  0.163E-01    0.13       1.0  T
 149   -510.7674356 -0.186613E-02  0.139E-01    0.13       1.0  T
 150   -510.7679113 -0.475758E-03  0.137E-01    0.13       1.0  T
 151   -510.7686118 -0.700494E-03  0.130E-01    0.13       1.0  T
 152   -510.7689586 -0.346775E-03  0.129E-01    0.12       1.0  T
 153   -510.7694952 -0.536587E-03  0.120E-01    0.12       1.0  T
 154   -510.7696657 -0.170526E-03  0.115E-01    0.12       1.0  T
 155   -510.7699610 -0.295333E-03  0.107E-01    0.12       1.0  T
 156   -510.7702374 -0.276325E-03  0.101E-01    0.12       1.0  T
 157   -510.7704798 -0.242423E-03  0.961E-02    0.12       1.0  T
 158   -510.7707772 -0.297394E-03  0.898E-02    0.13       1.0  T
 159   -510.7708252 -0.480047E-04  0.893E-02    0.13       1.0  T
 160   -510.7708451 -0.199749E-04  0.897E-02    0.13       1.0  T
 161   -510.7709205 -0.753567E-04  0.883E-02    0.13       1.0  T
 162   -510.7710243 -0.103806E-03  0.862E-02    0.13       1.0  T
 163   -510.7709998  0.245428E-04  0.867E-02    0.13       1.0  T
 164   -510.7710253 -0.254954E-04  0.857E-02    0.13       1.0  T
 165   -510.7710988 -0.735403E-04  0.832E-02    0.13       1.0  T
 166   -510.7711846 -0.858027E-04  0.805E-02    0.13       1.0  T
 167   -510.7712448 -0.601692E-04  0.786E-02    0.13       1.0  T
 168   -510.7713670 -0.122263E-03  0.750E-02    0.13       1.0  T
 169   -510.7715329 -0.165900E-03  0.696E-02    0.14       1.0  T
 170   -510.7717042 -0.171275E-03  0.641E-02    0.13       1.0  T
 171   -510.7718436 -0.139411E-03  0.590E-02    0.13       1.0  T
 172   -510.7719968 -0.153173E-03  0.536E-02    0.13       1.0  T
 173   -510.7720855 -0.886812E-04  0.504E-02    0.13       1.0  T
 174   -510.7721673 -0.818654E-04  0.475E-02    0.13       1.0  T
 175   -510.7722324 -0.650990E-04  0.449E-02    0.13       1.0  T
 176   -510.7723228 -0.903360E-04  0.411E-02    0.13       1.0  T
 177   -510.7723986 -0.758411E-04  0.366E-02    0.13       1.0  T
 178   -510.7724772 -0.785896E-04  0.309E-02    0.13       1.0  T
 179   -510.7725236 -0.463719E-04  0.270E-02    0.13       1.0  T
 180   -510.7725545 -0.308731E-04  0.238E-02    0.13       1.0  T
 181   -510.7725824 -0.279047E-04  0.209E-02    0.13       1.0  T
 182   -510.7726006 -0.182267E-04  0.182E-02    0.13       1.0  T
 183   -510.7726154 -0.148502E-04  0.157E-02    0.13       1.0  T
 184   -510.7726243 -0.884399E-05  0.134E-02    0.13       1.0  T
 185   -510.7726287 -0.439365E-05  0.120E-02    0.13       1.0  T
 186   -510.7726318 -0.313306E-05  0.106E-02    0.13       1.0  T
 187   -510.7726341 -0.227079E-05  0.940E-03    0.13       1.0  T
 188   -510.7726337  0.374545E-06  0.875E-03    0.13       1.0  T
 189   -510.7726335  0.217751E-06  0.814E-03    0.13       1.0  T
 190   -510.7726326  0.935116E-06  0.740E-03    0.13       1.0  T
 191   -510.7726321  0.480220E-06  0.676E-03    0.13       1.0  T
 192   -510.7726336 -0.148221E-05  0.598E-03    0.13       1.0  T
 193   -510.7726350 -0.148565E-05  0.510E-03    0.13       1.2  T
 194   -510.7726374 -0.234222E-05  0.434E-03    0.13       1.4  T
 195   -510.7726386 -0.117310E-05  0.373E-03    0.13       1.6  T
 196   -510.7726399 -0.135852E-05  0.315E-03    0.13       1.9  T
 197   -510.7726405 -0.579544E-06  0.265E-03    0.13       2.3  T
 198   -510.7726410 -0.494229E-06  0.219E-03    0.13       2.8  T
 199   -510.7726414 -0.402562E-06  0.166E-03    0.13       3.7  T
 200   -510.7726416 -0.200903E-06  0.127E-03    0.13       4.8  T
 201   -510.7726417 -0.147844E-06  0.917E-04    0.13       6.6  T
 202   -510.7726418 -0.107202E-06  0.676E-04    0.13       9.0  T

   *** convergence criteria satisfied after 202 iterations ***

         #    Occupation            Energy/Eh            Energy/eV
      -------------------------------------------------------------
         1        2.0000           -0.6902334             -18.7822
       ...           ...                  ...                  ...
       463        1.9967           -0.3512450              -9.5579
       464        1.9950           -0.3508361              -9.5467
       465        1.9897           -0.3501446              -9.5279
       466        1.9843           -0.3497425              -9.5170
       467        1.9794           -0.3494861              -9.5100
       468        1.9042           -0.3479883              -9.4692
       469        1.8446           -0.3474983              -9.4559 (HOMO)
       470        0.1572           -0.3428089              -9.3283 (LUMO)
       471        0.1545           -0.3427912              -9.3278
       472        0.0000           -0.3322361              -9.0406
       473        0.0000           -0.3321687              -9.0388
       474        0.0000           -0.3299962              -8.9797
       ...           ...                  ...                  ...
       903                          1.6112103              43.8433
      -------------------------------------------------------------
                  HL-Gap            0.0046894 Eh            0.1276 eV
             Fermi-level           -0.3451477 Eh           -9.3919 eV

 SCC (total)                   0 d,  0 h,  0 min, 50.584 sec
 SCC setup                      ...        0 min,  0.013 sec (  0.027%)
 Dispersion                     ...        0 min,  0.028 sec (  0.055%)
 classical contributions        ...        0 min,  0.002 sec (  0.005%)
 integral evaluation            ...        0 min,  0.206 sec (  0.408%)
 iterations                     ...        0 min, 49.810 sec ( 98.469%)
 molecular gradient             ...        0 min,  0.492 sec (  0.972%)
 printout                       ...        0 min,  0.033 sec (  0.065%)

         :::::::::::::::::::::::::::::::::::::::::::::::::::::
         ::                     SUMMARY                     ::
         :::::::::::::::::::::::::::::::::::::::::::::::::::::
         :: total energy            -501.627839220773 Eh    ::
         :: gradient norm              1.007323528019 Eh/a0 ::
         :: HOMO-LUMO gap              0.127606289256 eV    ::
         ::.................................................::
         :: SCC energy              -510.772641844952 Eh    ::
         :: -> isotropic ES            0.245365740366 Eh    ::
         :: -> anisotropic ES          0.031718639629 Eh    ::
         :: -> anisotropic XC          0.256261242758 Eh    ::
         :: -> dispersion             -0.433426315594 Eh    ::
         :: repulsion energy           9.145388092694 Eh    ::
         :: add. restraining           0.000000000000 Eh    ::
         :: total charge               0.000000000011 e     ::
         :::::::::::::::::::::::::::::::::::::::::::::::::::::

      ----------------------------------------------------------- 
     |                   =====================                   |
     |                        A N C O P T                        |
     |                   =====================                   |
     |               Approximate Normal Coordinate               |
     |                Rational Function Optimizer                |
      ----------------------------------------------------------- 

          ...................................................
          :                      SETUP                      :
          :.................................................:
          :   optimization level            normal          :
          :   max. optcycles                   813          :
          :   ANC micro-cycles                  20          :
          :   degrees of freedom               807          :
          :.................................................:
          :   RF solver                   davidson          :
          :   write xtbopt.log                true          :
          :   linear?                        false          :
          :   energy convergence         0.5000000E-05 Eh   :
          :   grad. convergence          0.1000000E-02 Eh/α :
          :   maximium RF displ.         1.0000000          :
          :   Hlow (freq-cutoff)         0.1000000E-01      :
          :   Hmax (freq-cutoff)         5.0000000          :
          :   S6 in model hess.         20.0000000          :
          ...................................................

generating ANC from model Hessian ...
Using Lindh-Hessian (1995)
 Shifting diagonal of input Hessian by    1.0124451945995790E-002
 Lowest  eigenvalues of input Hessian
    0.010000    0.010039    0.010094    0.010096    0.010097    0.010097
    0.010097    0.010097    0.010103    0.010107    0.010109    0.010111
    0.010112    0.010115    0.010116    0.010117    0.010119    0.010121
 Highest eigenvalues
    2.785521    2.844620    2.909723    2.909723    2.909725    2.909725


........................................................................
.............................. CYCLE    1 ..............................
........................................................................
   1   -510.7726419 -0.510773E+03  0.508E-04    0.13       0.0  T
   2   -510.7726285  0.134109E-04  0.625E-03    0.13       1.0  T
   3   -510.7726402 -0.116373E-04  0.236E-03    0.13       2.6  T
   4   -510.7726396  0.526612E-06  0.309E-03    0.13       2.0  T
   5   -510.7726375  0.213800E-05  0.322E-03    0.13       1.9  T
   6   -510.7726405 -0.296785E-05  0.260E-03    0.13       2.3  T
   7   -510.7726401  0.309254E-06  0.248E-03    0.13       2.5  T
   8   -510.7726407 -0.563473E-06  0.214E-03    0.13       2.8  T
   9   -510.7726416 -0.866514E-06  0.119E-03    0.13       5.1  T
  10   -510.7726420 -0.421141E-06  0.419E-04    0.13      14.5  T
  11   -510.7726421 -0.576916E-07  0.952E-05    0.13      63.8  T
     SCC iter.                  ...        0 min,  2.705 sec
     gradient                   ...        0 min,  0.492 sec
 * total energy  :  -501.6278394 Eh     change       -0.2114766E-06 Eh
   gradient norm :     1.0073311 Eh/α   predicted     0.0000000E+00 (-100.00%)
   displ. norm   :     0.6140401 α      lambda       -0.5292619E+00
   maximum displ.:     0.1476509 α      in ANC's #787, #278, #575, ...

........................................................................
.............................. CYCLE    2 ..............................
........................................................................
   1   -510.7508856 -0.510751E+03  0.342E-01    0.11       0.0  T
   2   -510.6431590  0.107727E+00  0.531E-01    0.30       1.0  T
   3   -510.4362342  0.206925E+00  0.940E-01    0.01       1.0  T
   4   -510.6539838 -0.217750E+00  0.553E-01    0.17       1.0  T
   5   -510.5535131  0.100471E+00  0.814E-01    0.00       1.0  T
   6   -510.5691603 -0.156473E-01  0.738E-01    0.01       1.0  T
   7   -510.7196417 -0.150481E+00  0.372E-01    0.17       1.0  T
   8   -510.7452697 -0.256280E-01  0.263E-01    0.14       1.0  T
   9   -510.7570890 -0.118194E-01  0.217E-01    0.20       1.0  T
  10   -510.7624417 -0.535262E-02  0.187E-01    0.18       1.0  T
  11   -510.7632815 -0.839854E-03  0.184E-01    0.21       1.0  T
  12   -510.7664928 -0.321126E-02  0.166E-01    0.18       1.0  T
  13   -510.7662003  0.292434E-03  0.152E-01    0.17       1.0  T
  14   -510.7701534 -0.395306E-02  0.107E-01    0.14       1.0  T
  15   -510.7690997  0.105372E-02  0.981E-02    0.12       1.0  T
  16   -510.7710949 -0.199525E-02  0.820E-02    0.13       1.0  T
  17   -510.7719782 -0.883311E-03  0.675E-02    0.13       1.0  T
  18   -510.7710797  0.898526E-03  0.708E-02    0.12       1.0  T
  19   -510.7725587 -0.147897E-02  0.472E-02    0.13       1.0  T
  20   -510.7729640 -0.405326E-03  0.222E-02    0.13       1.0  T
  21   -510.7731016 -0.137549E-03  0.678E-03    0.13       1.0  T
  22   -510.7731262 -0.246124E-04  0.325E-03    0.13       1.9  T
  23   -510.7731230  0.322004E-05  0.291E-03    0.13       2.1  T
  24   -510.7731285 -0.553083E-05  0.146E-03    0.13       4.2  T
  25   -510.7731275  0.103501E-05  0.244E-03    0.13       2.5  T
  26   -510.7731286 -0.113216E-05  0.136E-03    0.13       4.5  T
  27   -510.7731290 -0.434002E-06  0.610E-04    0.13      10.0  T
  28   -510.7731292 -0.139253E-06  0.344E-04    0.13      17.7  T
     SCC iter.                  ...        0 min,  6.873 sec
     gradient                   ...        0 min,  0.491 sec
 * total energy  :  -502.0549862 Eh     change       -0.4271468E+00 Eh
   gradient norm :     0.5933053 Eh/α   predicted    -0.3644501E+00 ( -14.68%)
   displ. norm   :     0.6962060 α      lambda       -0.3534424E+00
   maximum displ.:     0.1838374 α      in ANC's #278, #277, #275, ...

........................................................................
.............................. CYCLE    3 ..............................
........................................................................
   1   -510.8048309 -0.510805E+03  0.371E-01    0.11       0.0  T
   2   -510.5488219  0.256009E+00  0.751E-01    0.35       1.0  T
   3   -510.6529147 -0.104093E+00  0.649E-01    0.13       1.0  T
   4   -508.9194210  0.173349E+01  0.245E+00    0.01       1.0  T
   5   -510.7342545 -0.181483E+01  0.603E-01    0.04       1.0  T
   6   -510.7972170 -0.629625E-01  0.327E-01    0.20       1.0  T
   7   -510.7907720  0.644508E-02  0.306E-01    0.08       1.0  T
   8   -510.7978719 -0.709990E-02  0.292E-01    0.11       1.0  T
   9   -510.8062045 -0.833265E-02  0.249E-01    0.22       1.0  T
  10   -510.8134598 -0.725528E-02  0.229E-01    0.22       1.0  T
  11   -510.8192999 -0.584013E-02  0.206E-01    0.20       1.0  T
  12   -510.8184110  0.888866E-03  0.200E-01    0.21       1.0  T
  13   -510.8227744 -0.436337E-02  0.175E-01    0.17       1.0  T
  14   -510.8239468 -0.117241E-02  0.160E-01    0.17       1.0  T
  15   -510.8247663 -0.819465E-03  0.149E-01    0.13       1.0  T
  16   -510.8252519 -0.485616E-03  0.148E-01    0.13       1.0  T
  17   -510.8256191 -0.367174E-03  0.145E-01    0.13       1.0  T
  18   -510.8254871  0.131940E-03  0.142E-01    0.13       1.0  T
  19   -510.8264189 -0.931749E-03  0.132E-01    0.14       1.0  T
  20   -510.8266434 -0.224470E-03  0.126E-01    0.14       1.0  T
  21   -510.8274246 -0.781201E-03  0.116E-01    0.14       1.0  T
  22   -510.8280285 -0.603949E-03  0.105E-01    0.13       1.0  T
  23   -510.8296740 -0.164549E-02  0.707E-02    0.13       1.0  T
  24   -510.8305602 -0.886173E-03  0.448E-02    0.14       1.0  T
  25   -510.8304790  0.811441E-04  0.483E-02    0.14       1.0  T
  26   -510.8297282  0.750829E-03  0.713E-02    0.14       1.0  T
  27   -510.8299585 -0.230262E-03  0.665E-02    0.14       1.0  T
  28   -510.8306390 -0.680570E-03  0.439E-02    0.13       1.0  T
  29   -510.8310844 -0.445394E-03  0.219E-02    0.13       1.0  T
  30   -510.8309446  0.139836E-03  0.319E-02    0.13       1.0  T
  31   -510.8310937 -0.149100E-03  0.205E-02    0.13       1.0  T
  32   -510.8311775 -0.837758E-04  0.832E-03    0.13       1.0  T
  33   -510.8311926 -0.151799E-04  0.275E-03    0.13       2.2  T
  34   -510.8311943 -0.164711E-05  0.221E-04    0.13      27.4  T
  35   -510.8311942  0.106835E-06  0.816E-04    0.13       7.4  T
  36   -510.8311942  0.248002E-07  0.674E-04    0.13       9.0  T
     SCC iter.                  ...        0 min,  8.840 sec
     gradient                   ...        0 min,  0.491 sec
 * total energy  :  -502.3254756 Eh     change       -0.2704894E+00 Eh
   gradient norm :     0.2824369 Eh/α   predicted    -0.2623784E+00 (  -3.00%)
   displ. norm   :     0.7747988 α      lambda       -0.1905787E+00
   maximum displ.:     0.2352522 α      in ANC's #278, #269, #277, ...

........................................................................
.............................. CYCLE    4 ..............................
........................................................................
   1   -510.9381704 -0.510938E+03  0.336E-01    0.11       0.0  T
   2   -510.5585922  0.379578E+00  0.874E-01    0.43       1.0  T
   3   -510.8013086 -0.242716E+00  0.634E-01    0.32       1.0  T
   4   -510.1130874  0.688221E+00  0.167E+00    0.03       1.0  T
   5   -510.9363427 -0.823255E+00  0.292E-01    0.21       1.0  T
   6   -510.9017955  0.345472E-01  0.368E-01    0.26       1.0  T
   7   -510.9249101 -0.231145E-01  0.302E-01    0.28       1.0  T
   8   -510.9477941 -0.228840E-01  0.215E-01    0.18       1.0  T
   9   -510.9465669  0.122717E-02  0.208E-01    0.25       1.0  T
  10   -510.9472358 -0.668883E-03  0.202E-01    0.24       1.0  T
  11   -510.9487064 -0.147058E-02  0.194E-01    0.21       1.0  T
  12   -510.9494757 -0.769340E-03  0.185E-01    0.21       1.0  T
  13   -510.9499401 -0.464397E-03  0.180E-01    0.22       1.0  T
  14   -510.9509407 -0.100064E-02  0.170E-01    0.22       1.0  T
  15   -510.9518685 -0.927795E-03  0.159E-01    0.21       1.0  T
  16   -510.9529189 -0.105033E-02  0.145E-01    0.20       1.0  T
  17   -510.9540998 -0.118088E-02  0.128E-01    0.19       1.0  T
  18   -510.9552914 -0.119164E-02  0.107E-01    0.18       1.0  T
  19   -510.9566741 -0.138272E-02  0.777E-02    0.17       1.0  T
  20   -510.9576554 -0.981264E-03  0.470E-02    0.15       1.0  T
  21   -510.9579513 -0.295872E-03  0.329E-02    0.15       1.0  T
  22   -510.9580412 -0.899347E-04  0.245E-02    0.14       1.0  T
  23   -510.9581970 -0.155791E-03  0.134E-02    0.14       1.0  T
  24   -510.9582409 -0.438818E-04  0.294E-03    0.14       2.1  T
  25   -510.9582447 -0.382396E-05  0.209E-03    0.14       2.9  T
  26   -510.9582455 -0.827252E-06  0.979E-04    0.14       6.2  T
  27   -510.9582456 -0.998405E-07  0.108E-03    0.14       5.6  T
  28   -510.9582458 -0.181899E-06  0.758E-04    0.14       8.0  T
     SCC iter.                  ...        0 min,  6.870 sec
     gradient                   ...        0 min,  0.491 sec
 * total energy  :  -502.4834349 Eh     change       -0.1579593E+00 Eh
   gradient norm :     0.1695183 Eh/α   predicted    -0.1524929E+00 (  -3.46%)
   displ. norm   :     0.8304454 α      lambda       -0.1344843E+00
   maximum displ.:     0.2654738 α      in ANC's #143, #278, #269, ...

........................................................................
.............................. CYCLE    5 ..............................
........................................................................
   1   -511.0738636 -0.511074E+03  0.322E-01    0.11       0.0  T
   2   -510.8198484  0.254015E+00  0.722E-01    0.36       1.0  T
   3   -510.9362167 -0.116368E+00  0.626E-01    0.29       1.0  T
   4   -510.6291369  0.307080E+00  0.117E+00    0.00       1.0  T
   5   -511.0699404 -0.440804E+00  0.268E-01    0.19       1.0  T
   6   -511.0411188  0.288217E-01  0.327E-01    0.22       1.0  T
   7   -511.0536165 -0.124977E-01  0.311E-01    0.26       1.0  T
   8   -511.0776957 -0.240793E-01  0.201E-01    0.16       1.0  T
   9   -511.0792807 -0.158492E-02  0.194E-01    0.25       1.0  T
  10   -511.0801637 -0.883049E-03  0.182E-01    0.21       1.0  T
  11   -511.0826603 -0.249661E-02  0.168E-01    0.18       1.0  T
  12   -511.0818195  0.840795E-03  0.170E-01    0.20       1.0  T
  13   -511.0835523 -0.173276E-02  0.152E-01    0.18       1.0  T
  14   -511.0839591 -0.406875E-03  0.147E-01    0.19       1.0  T
  15   -511.0843675 -0.408321E-03  0.140E-01    0.19       1.0  T
  16   -511.0847372 -0.369723E-03  0.135E-01    0.19       1.0  T
  17   -511.0861649 -0.142775E-02  0.110E-01    0.18       1.0  T
  18   -511.0875458 -0.138082E-02  0.828E-02    0.17       1.0  T
  19   -511.0887381 -0.119234E-02  0.445E-02    0.16       1.0  T
  20   -511.0888567 -0.118598E-03  0.412E-02    0.16       1.0  T
  21   -511.0891402 -0.283498E-03  0.206E-02    0.15       1.0  T
  22   -511.0891784 -0.381510E-04  0.192E-02    0.16       1.0  T
  23   -511.0891379  0.404615E-04  0.245E-02    0.16       1.0  T
  24   -511.0892143 -0.764204E-04  0.143E-02    0.15       1.0  T
  25   -511.0892557 -0.413928E-04  0.978E-03    0.15       1.0  T
  26   -511.0892795 -0.238364E-04  0.197E-03    0.15       3.1  T
  27   -511.0892757  0.385511E-05  0.462E-03    0.15       1.3  T
  28   -511.0892809 -0.518858E-05  0.345E-04    0.15      17.6  T
  29   -511.0892809 -0.166489E-07  0.282E-04    0.15      21.5  T
  30   -511.0892809  0.184701E-08  0.310E-04    0.15      19.6  T
     SCC iter.                  ...        0 min,  7.355 sec
     gradient                   ...        0 min,  0.492 sec
 * total energy  :  -502.6005087 Eh     change       -0.1170738E+00 Eh
   gradient norm :     0.1315929 Eh/α   predicted    -0.1136161E+00 (  -2.95%)
   displ. norm   :     0.8531231 α      lambda       -0.1047158E+00
   maximum displ.:     0.3319475 α      in ANC's #143, #278, #269, ...

........................................................................
.............................. CYCLE    6 ..............................
........................................................................
   1   -511.2034652 -0.511203E+03  0.306E-01    0.12       0.0  T
   2   -511.1229042  0.805610E-01  0.436E-01    0.27       1.0  T
   3   -511.0625339  0.603703E-01  0.606E-01    0.19       1.0  T
   4   -510.5999035  0.462630E+00  0.129E+00    0.01       1.0  T
   5   -511.2016579 -0.601754E+00  0.222E-01    0.22       1.0  T
   6   -511.1931020  0.855587E-02  0.238E-01    0.18       1.0  T
   7   -511.1849527  0.814937E-02  0.275E-01    0.23       1.0  T
   8   -511.2044585 -0.195058E-01  0.173E-01    0.22       1.0  T
   9   -511.2075694 -0.311088E-02  0.152E-01    0.20       1.0  T
  10   -511.2068387  0.730675E-03  0.152E-01    0.20       1.0  T
  11   -511.2078568 -0.101810E-02  0.144E-01    0.19       1.0  T
  12   -511.2076942  0.162557E-03  0.141E-01    0.22       1.0  T
  13   -511.2086294 -0.935201E-03  0.131E-01    0.19       1.0  T
  14   -511.2091786 -0.549173E-03  0.124E-01    0.19       1.0  T
  15   -511.2093588 -0.180183E-03  0.121E-01    0.19       1.0  T
  16   -511.2097805 -0.421659E-03  0.113E-01    0.19       1.0  T
  17   -511.2106789 -0.898429E-03  0.978E-02    0.18       1.0  T
  18   -511.2121327 -0.145379E-02  0.667E-02    0.17       1.0  T
  19   -511.2124174 -0.284753E-03  0.558E-02    0.16       1.0  T
  20   -511.2132222 -0.804747E-03  0.200E-02    0.15       1.0  T
  21   -511.2130663  0.155862E-03  0.335E-02    0.16       1.0  T
  22   -511.2133720 -0.305727E-03  0.238E-03    0.15       2.6  T
  23   -511.2133476  0.244650E-04  0.104E-02    0.15       1.0  T
  24   -511.2133737 -0.260966E-04  0.159E-03    0.15       3.8  T
  25   -511.2133719  0.181835E-05  0.212E-03    0.15       2.9  T
  26   -511.2133735 -0.166702E-05  0.136E-03    0.15       4.5  T
  27   -511.2133716  0.192338E-05  0.309E-03    0.15       2.0  T
  28   -511.2133745 -0.293956E-05  0.602E-04    0.15      10.1  T
  29   -511.2133745  0.274961E-07  0.770E-04    0.15       7.9  T
  30   -511.2133747 -0.160694E-06  0.448E-05    0.15     135.7  T
     SCC iter.                  ...        0 min,  7.366 sec
     gradient                   ...        0 min,  0.491 sec
 * total energy  :  -502.6927976 Eh     change       -0.9228886E-01 Eh
   gradient norm :     0.1054210 Eh/α   predicted    -0.9046678E-01 (  -1.97%)
   displ. norm   :     0.8590206 α      lambda       -0.8187707E-01
   maximum displ.:     0.3863539 α      in ANC's #143, #278, #269, ...

........................................................................
.............................. CYCLE    7 ..............................
........................................................................
   1   -511.3209311 -0.511321E+03  0.288E-01    0.14       0.0  T
   2   -511.3126307  0.830039E-02  0.224E-01    0.20       1.0  T
   3   -510.5008960  0.811735E+00  0.133E+00    0.02       1.0  T
   4   -511.2744390 -0.773543E+00  0.353E-01    0.10       1.0  T
   5   -511.2812085 -0.676954E-02  0.322E-01    0.26       1.0  T
   6   -511.2970256 -0.158171E-01  0.269E-01    0.36       1.0  T
   7   -511.3145248 -0.174992E-01  0.181E-01    0.19       1.0  T
   8   -511.3047596  0.976522E-02  0.184E-01    0.09       1.0  T
   9   -511.3183368 -0.135773E-01  0.154E-01    0.20       1.0  T
  10   -511.3205029 -0.216602E-02  0.126E-01    0.14       1.0  T
  11   -511.3217026 -0.119970E-02  0.120E-01    0.18       1.0  T
  12   -511.3221644 -0.461805E-03  0.113E-01    0.17       1.0  T
  13   -511.3222821 -0.117756E-03  0.111E-01    0.19       1.0  T
  14   -511.3226678 -0.385639E-03  0.105E-01    0.19       1.0  T
  15   -511.3232649 -0.597171E-03  0.963E-02    0.18       1.0  T
  16   -511.3238038 -0.538925E-03  0.876E-02    0.17       1.0  T
  17   -511.3239933 -0.189409E-03  0.839E-02    0.17       1.0  T
  18   -511.3243204 -0.327134E-03  0.778E-02    0.17       1.0  T
  19   -511.3247330 -0.412630E-03  0.696E-02    0.16       1.0  T
  20   -511.3252759 -0.542901E-03  0.570E-02    0.16       1.0  T
  21   -511.3258996 -0.623641E-03  0.373E-02    0.16       1.0  T
  22   -511.3263705 -0.470897E-03  0.117E-02    0.15       1.0  T
  23   -511.3263475  0.229960E-04  0.867E-03    0.15       1.0  T
  24   -511.3264033 -0.558554E-04  0.443E-03    0.15       1.4  T
  25   -511.3263996  0.376678E-05  0.575E-03    0.15       1.1  T
  26   -511.3264066 -0.708499E-05  0.402E-03    0.15       1.5  T
  27   -511.3264058  0.871081E-06  0.217E-03    0.15       2.8  T
  28   -511.3264035  0.226735E-05  0.434E-03    0.15       1.4  T
  29   -511.3264091 -0.559043E-05  0.728E-04    0.15       8.3  T
  30   -511.3264087  0.362637E-06  0.972E-04    0.15       6.2  T
  31   -511.3264093 -0.612264E-06  0.840E-05    0.15      72.3  T
     SCC iter.                  ...        0 min,  7.583 sec
     gradient                   ...        0 min,  0.493 sec
 * total energy  :  -502.7649521 Eh     change       -0.7215454E-01 Eh
   gradient norm :     0.0808892 Eh/α   predicted    -0.7114777E-01 (  -1.40%)
   displ. norm   :     0.8572974 α      lambda       -0.6288013E-01
   maximum displ.:     0.4225354 α      in ANC's #143, #145, #144, ...

........................................................................
.............................. CYCLE    8 ..............................
........................................................................
   1   -511.4159744 -0.511416E+03  0.276E-01    0.14       0.0  T
   2   -511.3987923  0.171821E-01  0.268E-01    0.16       1.0  T
   3   -511.0557289  0.343063E+00  0.748E-01    0.01       1.0  T
   4   -510.4822420  0.573487E+00  0.919E-01    0.09       1.0  T
   5   -511.3885269 -0.906285E+00  0.272E-01    0.34       1.0  T
   6   -511.3708748  0.176521E-01  0.336E-01    0.25       1.0  T
   7   -511.3931312 -0.222564E-01  0.239E-01    0.28       1.0  T
   8   -511.4071531 -0.140219E-01  0.135E-01    0.30       1.0  T
   9   -511.4121583 -0.500514E-02  0.113E-01    0.23       1.0  T
  10   -511.4157071 -0.354885E-02  0.746E-02    0.21       1.0  T
  11   -511.4163450 -0.637842E-03  0.658E-02    0.18       1.0  T
  12   -511.4171148 -0.769845E-03  0.460E-02    0.16       1.0  T
  13   -511.4173857 -0.270946E-03  0.389E-02    0.14       1.0  T
  14   -511.4184105 -0.102477E-02  0.265E-02    0.15       1.0  T
  15   -511.4183339  0.766294E-04  0.250E-02    0.14       1.0  T
  16   -511.4188387 -0.504867E-03  0.188E-02    0.16       1.0  T
  17   -511.4188591 -0.203015E-04  0.159E-02    0.15       1.0  T
  18   -511.4190074 -0.148313E-03  0.108E-02    0.16       1.0  T
  19   -511.4190231 -0.157268E-04  0.945E-03    0.16       1.0  T
  20   -511.4190537 -0.306247E-04  0.605E-03    0.16       1.0  T
  21   -511.4190643 -0.105802E-04  0.324E-03    0.15       1.9  T
  22   -511.4190751 -0.107843E-04  0.122E-03    0.15       5.0  T
  23   -511.4190757 -0.619847E-06  0.476E-04    0.15      12.8  T
  24   -511.4190757  0.247844E-07  0.355E-04    0.15      17.1  T
     SCC iter.                  ...        0 min,  5.865 sec
     gradient                   ...        0 min,  0.492 sec
 * total energy  :  -502.8200592 Eh     change       -0.5510705E-01 Eh
   gradient norm :     0.0599022 Eh/α   predicted    -0.5454724E-01 (  -1.02%)
   displ. norm   :     0.8505688 α      lambda       -0.4708603E-01
   maximum displ.:     0.4287106 α      in ANC's #143, #45, #145, ...

........................................................................
.............................. CYCLE    9 ..............................
........................................................................
   1   -511.4827912 -0.511483E+03  0.264E-01    0.15       0.0  T
   2   -511.4451652  0.376261E-01  0.325E-01    0.11       1.0  T
   3   -511.3127295  0.132436E+00  0.572E-01    0.06       1.0  T
   4   -511.4253140 -0.112585E+00  0.349E-01    0.21       1.0  T
   5   -511.4570924 -0.317784E-01  0.259E-01    0.16       1.0  T
   6   -511.3695752  0.875172E-01  0.303E-01    0.03       1.0  T
   7   -511.4627236 -0.931484E-01  0.220E-01    0.19       1.0  T
   8   -511.4768333 -0.141098E-01  0.122E-01    0.28       1.0  T
   9   -511.4819661 -0.513280E-02  0.713E-02    0.17       1.0  T
  10   -511.4835494 -0.158323E-02  0.438E-02    0.17       1.0  T
  11   -511.4841907 -0.641296E-03  0.334E-02    0.17       1.0  T
  12   -511.4849813 -0.790623E-03  0.154E-02    0.16       1.0  T
  13   -511.4848790  0.102295E-03  0.165E-02    0.14       1.0  T
  14   -511.4847875  0.914929E-04  0.175E-02    0.15       1.0  T
  15   -511.4850250 -0.237525E-03  0.102E-02    0.15       1.0  T
  16   -511.4850768 -0.517513E-04  0.509E-03    0.15       1.2  T
  17   -511.4850826 -0.582034E-05  0.268E-03    0.16       2.3  T
  18   -511.4850869 -0.435244E-05  0.224E-03    0.15       2.7  T
  19   -511.4850921 -0.520594E-05  0.603E-04    0.16      10.1  T
  20   -511.4850915  0.615128E-06  0.731E-04    0.16       8.3  T
  21   -511.4850922 -0.646282E-06  0.269E-04    0.16      22.6  T
     SCC iter.                  ...        0 min,  5.137 sec
     gradient                   ...        0 min,  0.492 sec
 * total energy  :  -502.8610066 Eh     change       -0.4094738E-01 Eh
   gradient norm :     0.0443959 Eh/α   predicted    -0.4057565E-01 (  -0.91%)
   displ. norm   :     0.8457358 α      lambda       -0.3464257E-01
   maximum displ.:     0.3951170 α      in ANC's #143, #45, #145, ...

........................................................................
.............................. CYCLE   10 ..............................
........................................................................
   1   -511.5258509 -0.511526E+03  0.243E-01    0.17       0.0  T
   2   -511.4667469  0.591040E-01  0.330E-01    0.07       1.0  T
   3   -511.3859922  0.807547E-01  0.436E-01    0.03       1.0  T
   4   -511.4614064 -0.754142E-01  0.344E-01    0.37       1.0  T
   5   -511.4897925 -0.283861E-01  0.282E-01    0.36       1.0  T
   6   -511.4991841 -0.939163E-02  0.250E-01    0.18       1.0  T
   7   -511.5190438 -0.198597E-01  0.115E-01    0.15       1.0  T
   8   -511.5199345 -0.890666E-03  0.792E-02    0.12       1.0  T
   9   -511.5233289 -0.339442E-02  0.908E-02    0.25       1.0  T
  10   -511.5258694 -0.254056E-02  0.582E-02    0.24       1.0  T
  11   -511.5261890 -0.319512E-03  0.533E-02    0.23       1.0  T
  12   -511.5268514 -0.662479E-03  0.429E-02    0.21       1.0  T
  13   -511.5274693 -0.617909E-03  0.215E-02    0.15       1.0  T
  14   -511.5278763 -0.406975E-03  0.130E-02    0.17       1.0  T
  15   -511.5277740  0.102316E-03  0.150E-02    0.15       1.0  T
  16   -511.5279510 -0.177005E-03  0.576E-03    0.16       1.1  T
  17   -511.5279786 -0.276190E-04  0.272E-03    0.16       2.2  T
  18   -511.5279816 -0.301747E-05  0.156E-03    0.16       3.9  T
  19   -511.5279820 -0.314738E-06  0.114E-03    0.16       5.3  T
  20   -511.5279827 -0.762223E-06  0.450E-04    0.16      13.5  T
  21   -511.5279827  0.374900E-07  0.371E-04    0.16      16.4  T
     SCC iter.                  ...        0 min,  5.132 sec
     gradient                   ...        0 min,  0.492 sec
 * total energy  :  -502.8911321 Eh     change       -0.3012553E-01 Eh
   gradient norm :     0.0342355 Eh/α   predicted    -0.2971067E-01 (  -1.38%)
   displ. norm   :     0.8605568 α      lambda       -0.2625856E-01
   maximum displ.:     0.3244120 α      in ANC's #143, #45, #21, ...

........................................................................
.............................. CYCLE   11 ..............................
........................................................................
   1   -511.5538024 -0.511554E+03  0.216E-01    0.21       0.0  T
   2   -511.5047793  0.490230E-01  0.300E-01    0.08       1.0  T
   3   -511.5229903 -0.182109E-01  0.282E-01    0.25       1.0  T
   4   -511.5094203  0.135700E-01  0.319E-01    0.30       1.0  T
   5   -511.5507373 -0.413170E-01  0.108E-01    0.18       1.0  T
   6   -511.5480899  0.264736E-02  0.133E-01    0.20       1.0  T
   7   -511.5534911 -0.540122E-02  0.728E-02    0.26       1.0  T
   8   -511.5550478 -0.155670E-02  0.440E-02    0.18       1.0  T
   9   -511.5555840 -0.536196E-03  0.342E-02    0.22       1.0  T
  10   -511.5560456 -0.461531E-03  0.152E-02    0.19       1.0  T
  11   -511.5560431  0.243481E-05  0.132E-02    0.19       1.0  T
  12   -511.5560384  0.478219E-05  0.107E-02    0.17       1.0  T
  13   -511.5560930 -0.546585E-04  0.558E-03    0.18       1.1  T
  14   -511.5560914  0.162953E-05  0.505E-03    0.18       1.2  T
  15   -511.5561197 -0.283524E-04  0.140E-03    0.18       4.4  T
  16   -511.5561206 -0.829775E-06  0.625E-04    0.18       9.7  T
  17   -511.5561207 -0.174099E-06  0.349E-04    0.18      17.4  T
     SCC iter.                  ...        0 min,  4.157 sec
     gradient                   ...        0 min,  0.492 sec
 * total energy  :  -502.9146739 Eh     change       -0.2354181E-01 Eh
   gradient norm :     0.0292089 Eh/α   predicted    -0.2285228E-01 (  -2.93%)
   displ. norm   :     0.9071063 α      lambda       -0.2274111E-01
   maximum displ.:     0.3520171 α      in ANC's #45, #21, #33, ...

........................................................................
.............................. CYCLE   12 ..............................
........................................................................
   1   -511.5731899 -0.511573E+03  0.199E-01    0.27       0.0  T
   2   -511.5393924  0.337975E-01  0.279E-01    0.12       1.0  T
   3   -511.5557035 -0.163112E-01  0.233E-01    0.27       1.0  T
   4   -511.5498584  0.584511E-02  0.243E-01    0.47       1.0  T
   5   -511.5723466 -0.224881E-01  0.839E-02    0.34       1.0  T
   6   -511.5736843 -0.133774E-02  0.758E-02    0.26       1.0  T
   7   -511.5754607 -0.177638E-02  0.293E-02    0.26       1.0  T
   8   -511.5752691  0.191563E-03  0.287E-02    0.19       1.0  T
   9   -511.5757203 -0.451154E-03  0.129E-02    0.22       1.0  T
  10   -511.5757088  0.114369E-04  0.113E-02    0.21       1.0  T
  11   -511.5757334 -0.245225E-04  0.603E-03    0.22       1.0  T
  12   -511.5757478 -0.144125E-04  0.286E-03    0.21       2.1  T
  13   -511.5757501 -0.231179E-05  0.177E-03    0.22       3.4  T
  14   -511.5757512 -0.111468E-05  0.577E-04    0.22      10.5  T
  15   -511.5757512 -0.484125E-07  0.267E-04    0.22      22.8  T
  16   -511.5757513 -0.174700E-07  0.191E-04    0.22      31.8  T
     SCC iter.                  ...        0 min,  3.916 sec
     gradient                   ...        0 min,  0.493 sec
 * total energy  :  -502.9365573 Eh     change       -0.2188336E-01 Eh
   gradient norm :     0.0302382 Eh/α   predicted    -0.2072672E-01 (  -5.29%)
   displ. norm   :     0.9674343 α      lambda       -0.2385905E-01
   maximum displ.:     0.3862174 α      in ANC's #21, #45, #33, ...

........................................................................
.............................. CYCLE   13 ..............................
........................................................................
   1   -511.5888016 -0.511589E+03  0.210E-01    0.37       0.0  T
   2   -511.5685790  0.202226E-01  0.253E-01    0.24       1.0  T
   3   -511.5732916 -0.471259E-02  0.235E-01    0.34       1.0  T
   4   -511.5745931 -0.130153E-02  0.203E-01    0.44       1.0  T
   5   -511.5901173 -0.155241E-01  0.620E-02    0.35       1.0  T
   6   -511.5908955 -0.778249E-03  0.404E-02    0.29       1.0  T
   7   -511.5915116 -0.616067E-03  0.158E-02    0.32       1.0  T
   8   -511.5914834  0.281802E-04  0.126E-02    0.30       1.0  T
   9   -511.5915211 -0.377130E-04  0.689E-03    0.32       1.0  T
  10   -511.5915384 -0.173149E-04  0.261E-03    0.31       2.3  T
  11   -511.5915402 -0.180145E-05  0.131E-03    0.31       4.6  T
  12   -511.5915404 -0.141244E-06  0.740E-04    0.31       8.2  T
  13   -511.5915405 -0.133548E-06  0.462E-04    0.31      13.1  T
     SCC iter.                  ...        0 min,  3.184 sec
     gradient                   ...        0 min,  0.492 sec
 * total energy  :  -502.9611052 Eh     change       -0.2454792E-01 Eh
   gradient norm :     0.0365764 Eh/α   predicted    -0.2309473E-01 (  -5.92%)
   displ. norm   :     0.9484510 α      lambda       -0.2588007E-01
   maximum displ.:     0.4039691 α      in ANC's #21, #33, #45, ...

........................................................................
.............................. CYCLE   14 ..............................
........................................................................
   1   -511.5890916 -0.511589E+03  0.204E-01    0.53       0.0  T
   2   -511.5804950  0.859659E-02  0.193E-01    0.45       1.0  T
   3   -511.5766703  0.382476E-02  0.214E-01    0.53       1.0  T
   4   -511.5837181 -0.704779E-02  0.138E-01    0.58       1.0  T
   5   -511.5906520 -0.693392E-02  0.421E-02    0.52       1.0  T
   6   -511.5909031 -0.251071E-03  0.237E-02    0.50       1.0  T
   7   -511.5910355 -0.132447E-03  0.158E-02    0.52       1.0  T
   8   -511.5910662 -0.307039E-04  0.724E-03    0.51       1.0  T
   9   -511.5910771 -0.109126E-04  0.337E-03    0.52       1.8  T
  10   -511.5910814 -0.426346E-05  0.152E-03    0.52       4.0  T
  11   -511.5910818 -0.383027E-06  0.923E-04    0.52       6.6  T
  12   -511.5910819 -0.114665E-06  0.574E-04    0.52      10.6  T
     SCC iter.                  ...        0 min,  2.941 sec
     gradient                   ...        0 min,  0.492 sec
 * total energy  :  -502.9888602 Eh     change       -0.2775498E-01 Eh
   gradient norm :     0.0503129 Eh/α   predicted    -0.2458037E-01 ( -11.44%)
   displ. norm   :     0.9112624 α      lambda       -0.3042125E-01
   maximum displ.:     0.4088944 α      in ANC's #21, #33, #45, ...

........................................................................
.............................. CYCLE   15 ..............................
........................................................................
   1   -511.5897410 -0.511590E+03  0.198E-01    0.82       0.0  T
   2   -511.5857522  0.398876E-02  0.161E-01    0.75       1.0  T
   3   -511.5815519  0.420031E-02  0.183E-01    0.83       1.0  T
   4   -511.5887853 -0.723336E-02  0.848E-02    0.85       1.0  T
   5   -511.5908997 -0.211445E-02  0.407E-02    0.81       1.0  T
   6   -511.5912944 -0.394642E-03  0.160E-02    0.81       1.0  T
   7   -511.5912732  0.211559E-04  0.121E-02    0.82       1.0  T
   8   -511.5913031 -0.298963E-04  0.651E-03    0.81       1.0  T
   9   -511.5913179 -0.148253E-04  0.224E-03    0.82       2.7  T
  10   -511.5913191 -0.117839E-05  0.119E-03    0.81       5.1  T
  11   -511.5913193 -0.195557E-06  0.670E-04    0.81       9.1  T
  12   -511.5913194 -0.796125E-07  0.459E-04    0.81      13.2  T
     SCC iter.                  ...        0 min,  2.939 sec
     gradient                   ...        0 min,  0.492 sec
 * total energy  :  -503.0219015 Eh     change       -0.3304130E-01 Eh
   gradient norm :     0.0639999 Eh/α   predicted    -0.2784152E-01 ( -15.74%)
   displ. norm   :     0.8801137 α      lambda       -0.3616730E-01
   maximum displ.:     0.4089453 α      in ANC's #21, #33, #45, ...

........................................................................
.............................. CYCLE   16 ..............................
........................................................................
   1   -511.5920082 -0.511592E+03  0.181E-01    1.16       0.0  T
   2   -511.5900739  0.193427E-02  0.142E-01    1.15       1.0  T
   3   -511.5875924  0.248156E-02  0.147E-01    1.16       1.0  T
   4   -511.5926492 -0.505676E-02  0.472E-02    1.16       1.0  T
   5   -511.5928425 -0.193326E-03  0.363E-02    1.16       1.0  T
   6   -511.5931923 -0.349855E-03  0.155E-02    1.16       1.0  T
   7   -511.5931876  0.473095E-05  0.938E-03    1.16       1.0  T
   8   -511.5932079 -0.203245E-04  0.517E-03    1.16       1.2  T
   9   -511.5932189 -0.109807E-04  0.175E-03    1.16       3.5  T
  10   -511.5932194 -0.541280E-06  0.104E-03    1.16       5.8  T
  11   -511.5932196 -0.142557E-06  0.647E-04    1.16       9.4  T
  12   -511.5932197 -0.675753E-07  0.347E-04    1.16      17.5  T
     SCC iter.                  ...        0 min,  2.940 sec
     gradient                   ...        0 min,  0.492 sec
 * total energy  :  -503.0605278 Eh     change       -0.3862635E-01 Eh
   gradient norm :     0.0749155 Eh/α   predicted    -0.3209147E-01 ( -16.92%)
   displ. norm   :     0.8604348 α      lambda       -0.4137110E-01
   maximum displ.:     0.4116110 α      in ANC's #21, #33, #62, ...

........................................................................
.............................. CYCLE   17 ..............................
........................................................................
   1   -511.5969989 -0.511597E+03  0.163E-01    1.16       0.0  T
   2   -511.5958378  0.116113E-02  0.132E-01    1.17       1.0  T
   3   -511.5946878  0.115001E-02  0.118E-01    1.17       1.0  T
   4   -511.5977914 -0.310361E-02  0.322E-02    1.17       1.0  T
   5   -511.5978629 -0.715356E-04  0.210E-02    1.17       1.0  T
   6   -511.5979098 -0.469036E-04  0.151E-02    1.17       1.0  T
   7   -511.5979385 -0.286205E-04  0.735E-03    1.17       1.0  T
   8   -511.5979475 -0.902237E-05  0.381E-03    1.17       1.6  T
   9   -511.5979530 -0.555648E-05  0.144E-03    1.17       4.2  T
  10   -511.5979534 -0.381027E-06  0.926E-04    1.17       6.6  T
  11   -511.5979535 -0.118404E-06  0.538E-04    1.17      11.3  T
     SCC iter.                  ...        0 min,  2.697 sec
     gradient                   ...        0 min,  0.493 sec
 * total energy  :  -503.1013649 Eh     change       -0.4083712E-01 Eh
   gradient norm :     0.0730480 Eh/α   predicted    -0.3600027E-01 ( -11.84%)
   displ. norm   :     0.9424554 α      lambda       -0.5501098E-01
   maximum displ.:     0.4196705 α      in ANC's #21, #33, #62, ...

........................................................................
.............................. CYCLE   18 ..............................
........................................................................
   1   -511.6261943 -0.511626E+03  0.237E-01    1.15       0.0  T
   2   -511.6241275  0.206682E-02  0.191E-01    1.15       1.0  T
   3   -511.6219944  0.213313E-02  0.156E-01    1.15       1.0  T
   4   -511.6276414 -0.564703E-02  0.459E-02    1.15       1.0  T
   5   -511.6280517 -0.410264E-03  0.243E-02    1.15       1.0  T
   6   -511.6281477 -0.960145E-04  0.167E-02    1.15       1.0  T
   7   -511.6281926 -0.449388E-04  0.986E-03    1.15       1.0  T
   8   -511.6282029 -0.102558E-04  0.511E-03    1.15       1.2  T
   9   -511.6282108 -0.789030E-05  0.219E-03    1.15       2.8  T
  10   -511.6282115 -0.754759E-06  0.138E-03    1.15       4.4  T
  11   -511.6282116 -0.917944E-07  0.873E-04    1.15       7.0  T
  12   -511.6282117 -0.132428E-06  0.493E-04    1.15      12.3  T
     SCC iter.                  ...        0 min,  2.939 sec
     gradient                   ...        0 min,  0.492 sec
 * total energy  :  -503.1426610 Eh     change       -0.4129606E-01 Eh
   gradient norm :     0.1038930 Eh/α   predicted    -0.5193650E-01 (  25.77%)
   displ. norm   :     0.7535240 α      lambda       -0.3929390E-01
   maximum displ.:     0.3520786 α      in ANC's #21, #33, #45, ...

........................................................................
.............................. CYCLE   19 ..............................
........................................................................
   1   -511.6335532 -0.511634E+03  0.120E-01    1.14       0.0  T
   2   -511.6329597  0.593499E-03  0.104E-01    1.14       1.0  T
   3   -511.6327238  0.235872E-03  0.751E-02    1.14       1.0  T
   4   -511.6338620 -0.113815E-02  0.250E-02    1.14       1.0  T
   5   -511.6340004 -0.138401E-03  0.137E-02    1.14       1.0  T
   6   -511.6340060 -0.558504E-05  0.954E-03    1.14       1.0  T
   7   -511.6340162 -0.102421E-04  0.584E-03    1.14       1.0  T
   8   -511.6340259 -0.970209E-05  0.202E-03    1.14       3.0  T
   9   -511.6340268 -0.930825E-06  0.106E-03    1.14       5.8  T
  10   -511.6340270 -0.133060E-06  0.736E-04    1.14       8.3  T
  11   -511.6340271 -0.868504E-07  0.344E-04    1.14      17.7  T
     SCC iter.                  ...        0 min,  2.694 sec
     gradient                   ...        0 min,  0.491 sec
 * total energy  :  -503.1772693 Eh     change       -0.3460827E-01 Eh
   gradient norm :     0.0799114 Eh/α   predicted    -0.3080248E-01 ( -11.00%)
   displ. norm   :     0.7677128 α      lambda       -0.3973648E-01
   maximum displ.:     0.3913671 α      in ANC's #21, #33, #22, ...

........................................................................
.............................. CYCLE   20 ..............................
........................................................................
   1   -511.6869058 -0.511687E+03  0.134E-01    1.14       0.0  T
   2   -511.6864440  0.461764E-03  0.103E-01    1.14       1.0  T
   3   -511.6851483  0.129576E-02  0.844E-02    1.14       1.0  T
   4   -511.6871614 -0.201316E-02  0.257E-02    1.14       1.0  T
   5   -511.6873470 -0.185568E-03  0.127E-02    1.14       1.0  T
   6   -511.6873652 -0.181976E-04  0.854E-03    1.14       1.0  T
   7   -511.6873685 -0.332965E-05  0.429E-03    1.14       1.4  T
   8   -511.6873729 -0.442119E-05  0.203E-03    1.14       3.0  T
   9   -511.6873741 -0.113653E-05  0.113E-03    1.14       5.4  T
  10   -511.6873742 -0.126907E-06  0.796E-04    1.14       7.6  T
  11   -511.6873743 -0.810986E-07  0.478E-04    1.14      12.7  T
     SCC iter.                  ...        0 min,  2.693 sec
     gradient                   ...        0 min,  0.492 sec
 * total energy  :  -503.2059054 Eh     change       -0.2863612E-01 Eh
   gradient norm :     0.0617918 Eh/α   predicted    -0.3157825E-01 (  10.27%)
   displ. norm   :     0.8815935 α      lambda       -0.2923072E-01
   maximum displ.:     0.5091836 α      in ANC's #21, #33, #22, ...
 * RMSD in coord.:     0.7722592 α      energy gain  -0.1578066E+01 Eh

generating ANC from model Hessian ...
Using Lindh-Hessian (1995)
 Shifting diagonal of input Hessian by    1.0014887562664847E-002
 Lowest  eigenvalues of input Hessian
    0.010000    0.010001    0.010004    0.010006    0.010008    0.010011
    0.010012    0.010013    0.010013    0.010014    0.010014    0.010014
    0.010015    0.000000    0.000000    0.000000    0.000000    0.000000
 Highest eigenvalues
    2.446106    2.517818    2.854132    2.861465    2.903669    2.903985


........................................................................
.............................. CYCLE   21 ..............................
........................................................................
   1   -511.7192516 -0.511719E+03  0.100E-01    1.13       0.0  T
   2   -511.7190300  0.221602E-03  0.763E-02    1.13       1.0  T
   3   -511.7177958  0.123424E-02  0.675E-02    1.13       1.0  T
   4   -511.7193831 -0.158735E-02  0.158E-02    1.13       1.0  T
   5   -511.7194349 -0.517199E-04  0.908E-03    1.13       1.0  T
   6   -511.7194248  0.100307E-04  0.740E-03    1.13       1.0  T
   7   -511.7194401 -0.152913E-04  0.312E-03    1.13       1.9  T
   8   -511.7194435 -0.337951E-05  0.108E-03    1.13       5.6  T
   9   -511.7194438 -0.274527E-06  0.628E-04    1.13       9.7  T
  10   -511.7194438 -0.549738E-07  0.360E-04    1.13      16.9  T
     SCC iter.                  ...        0 min,  2.449 sec
     gradient                   ...        0 min,  0.492 sec
 * total energy  :  -503.2314959 Eh     change       -0.2559050E-01 Eh
   gradient norm :     0.0573058 Eh/α   predicted     0.0000000E+00 (-100.00%)
   displ. norm   :     0.7582016 α      lambda       -0.2405680E-01
   maximum displ.:     0.4865122 α      in ANC's #45, #64, #46, ...

........................................................................
.............................. CYCLE   22 ..............................
........................................................................
   1   -511.7718279 -0.511772E+03  0.743E-02    1.12       0.0  T
   2   -511.7717971  0.307233E-04  0.496E-02    1.12       1.0  T
   3   -511.7708379  0.959192E-03  0.457E-02    1.12       1.0  T
   4   -511.7718497 -0.101179E-02  0.102E-02    1.12       1.0  T
   5   -511.7718741 -0.243642E-04  0.612E-03    1.12       1.0  T
   6   -511.7718741  0.322498E-07  0.468E-03    1.12       1.3  T
   7   -511.7718784 -0.429187E-05  0.184E-03    1.12       3.3  T
   8   -511.7718792 -0.852414E-06  0.784E-04    1.12       7.8  T
   9   -511.7718793 -0.955119E-07  0.502E-04    1.12      12.1  T
     SCC iter.                  ...        0 min,  2.207 sec
     gradient                   ...        0 min,  0.511 sec
 * total energy  :  -503.2541581 Eh     change       -0.2266220E-01 Eh
   gradient norm :     0.0405108 Eh/α   predicted    -0.1894379E-01 ( -16.41%)
   displ. norm   :     0.9223158 α      lambda       -0.2607499E-01
   maximum displ.:     0.6019188 α      in ANC's #45, #64, #46, ...

........................................................................
.............................. CYCLE   23 ..............................
........................................................................
   1   -511.8214294 -0.511821E+03  0.894E-02    1.11       0.0  T
   2   -511.8213920  0.374513E-04  0.596E-02    1.11       1.0  T
   3   -511.8200992  0.129282E-02  0.538E-02    1.11       1.0  T
   4   -511.8214545 -0.135531E-02  0.128E-02    1.11       1.0  T
   5   -511.8214961 -0.416684E-04  0.757E-03    1.11       1.0  T
   6   -511.8214980 -0.189707E-05  0.562E-03    1.11       1.1  T
   7   -511.8215030 -0.501250E-05  0.240E-03    1.11       2.5  T
   8   -511.8215048 -0.172077E-05  0.922E-04    1.11       6.6  T
   9   -511.8215049 -0.141335E-06  0.590E-04    1.11      10.3  T
  10   -511.8215049 -0.346423E-07  0.368E-04    1.11      16.5  T
     SCC iter.                  ...        0 min,  2.452 sec
     gradient                   ...        0 min,  0.492 sec
 * total energy  :  -503.2782662 Eh     change       -0.2410811E-01 Eh
   gradient norm :     0.0266529 Eh/α   predicted    -0.2412805E-01 (   0.08%)
   displ. norm   :     0.9475055 α      lambda       -0.2360855E-01
   maximum displ.:     0.6134382 α      in ANC's #45, #64, #46, ...

........................................................................
.............................. CYCLE   24 ..............................
........................................................................
   1   -511.8600360 -0.511860E+03  0.108E-01    1.09       0.0  T
   2   -511.8600124  0.236781E-04  0.688E-02    1.09       1.0  T
   3   -511.8585641  0.144826E-02  0.536E-02    1.09       1.0  T
   4   -511.8600525 -0.148841E-02  0.121E-02    1.09       1.0  T
   5   -511.8600871 -0.346242E-04  0.760E-03    1.09       1.0  T
   6   -511.8600868  0.304496E-06  0.572E-03    1.09       1.1  T
   7   -511.8600928 -0.598128E-05  0.233E-03    1.09       2.6  T
   8   -511.8600947 -0.185148E-05  0.832E-04    1.09       7.3  T
   9   -511.8600948 -0.956707E-07  0.536E-04    1.09      11.3  T
  10   -511.8600948 -0.246473E-07  0.345E-04    1.09      17.6  T
     SCC iter.                  ...        0 min,  2.453 sec
     gradient                   ...        0 min,  0.492 sec
 * total energy  :  -503.2995173 Eh     change       -0.2125116E-01 Eh
   gradient norm :     0.0328227 Eh/α   predicted    -0.2240176E-01 (   5.41%)
   displ. norm   :     0.9317105 α      lambda       -0.2190124E-01
   maximum displ.:     0.6354816 α      in ANC's #45, #64, #46, ...

........................................................................
.............................. CYCLE   25 ..............................
........................................................................
   1   -511.8968615 -0.511897E+03  0.990E-02    1.08       0.0  T
   2   -511.8968480  0.134614E-04  0.631E-02    1.08       1.0  T
   3   -511.8957851  0.106291E-02  0.446E-02    1.08       1.0  T
   4   -511.8968760 -0.109088E-02  0.110E-02    1.08       1.0  T
   5   -511.8969006 -0.245956E-04  0.729E-03    1.08       1.0  T
   6   -511.8968994  0.114729E-05  0.529E-03    1.08       1.1  T
   7   -511.8969056 -0.617160E-05  0.200E-03    1.08       3.0  T
   8   -511.8969068 -0.116948E-05  0.775E-04    1.08       7.8  T
   9   -511.8969069 -0.104093E-06  0.449E-04    1.08      13.5  T
  10   -511.8969069 -0.126357E-07  0.320E-04    1.08      19.0  T
     SCC iter.                  ...        0 min,  2.452 sec
     gradient                   ...        0 min,  0.491 sec
 * total energy  :  -503.3197107 Eh     change       -0.2019339E-01 Eh
   gradient norm :     0.0322303 Eh/α   predicted    -0.2045677E-01 (   1.30%)
   displ. norm   :     0.9229287 α      lambda       -0.1955625E-01
   maximum displ.:     0.6377538 α      in ANC's #45, #64, #46, ...

........................................................................
.............................. CYCLE   26 ..............................
........................................................................
   1   -511.9305865 -0.511931E+03  0.836E-02    1.08       0.0  T
   2   -511.9305672  0.193812E-04  0.558E-02    1.08       1.0  T
   3   -511.9296173  0.949895E-03  0.471E-02    1.08       1.0  T
   4   -511.9306135 -0.996227E-03  0.112E-02    1.08       1.0  T
   5   -511.9306290 -0.155296E-04  0.784E-03    1.08       1.0  T
   6   -511.9306282  0.838394E-06  0.531E-03    1.08       1.1  T
   7   -511.9306360 -0.785449E-05  0.174E-03    1.08       3.5  T
   8   -511.9306368 -0.739311E-06  0.717E-04    1.08       8.5  T
   9   -511.9306368 -0.779216E-07  0.393E-04    1.08      15.5  T
     SCC iter.                  ...        0 min,  2.208 sec
     gradient                   ...        0 min,  0.515 sec
 * total energy  :  -503.3384145 Eh     change       -0.1870374E-01 Eh
   gradient norm :     0.0256505 Eh/α   predicted    -0.1810711E-01 (  -3.19%)
   displ. norm   :     0.9323144 α      lambda       -0.1840213E-01
   maximum displ.:     0.6597713 α      in ANC's #45, #46, #64, ...

........................................................................
.............................. CYCLE   27 ..............................
........................................................................
   1   -511.9634033 -0.511963E+03  0.902E-02    1.08       0.0  T
   2   -511.9633879  0.153431E-04  0.601E-02    1.08       1.0  T
   3   -511.9624332  0.954763E-03  0.499E-02    1.08       1.0  T
   4   -511.9634299 -0.996754E-03  0.126E-02    1.08       1.0  T
   5   -511.9634475 -0.175633E-04  0.889E-03    1.08       1.0  T
   6   -511.9634470  0.461953E-06  0.607E-03    1.08       1.0  T
   7   -511.9634568 -0.973368E-05  0.207E-03    1.08       2.9  T
   8   -511.9634581 -0.130831E-05  0.769E-04    1.08       7.9  T
   9   -511.9634582 -0.112560E-06  0.450E-04    1.08      13.5  T
  10   -511.9634582 -0.200116E-07  0.294E-04    1.08      20.7  T
     SCC iter.                  ...        0 min,  2.451 sec
     gradient                   ...        0 min,  0.492 sec
 * total energy  :  -503.3559063 Eh     change       -0.1749179E-01 Eh
   gradient norm :     0.0194170 Eh/α   predicted    -0.1719872E-01 (  -1.68%)
   displ. norm   :     0.9405342 α      lambda       -0.1697270E-01
   maximum displ.:     0.6737679 α      in ANC's #45, #46, #64, ...

........................................................................
.............................. CYCLE   28 ..............................
........................................................................
   1   -511.9945599 -0.511995E+03  0.964E-02    1.07       0.0  T
   2   -511.9945551  0.475999E-05  0.632E-02    1.07       1.0  T
   3   -511.9937430  0.812186E-03  0.453E-02    1.07       1.0  T
   4   -511.9945794 -0.836431E-03  0.130E-02    1.07       1.0  T
   5   -511.9945966 -0.172099E-04  0.919E-03    1.07       1.0  T
   6   -511.9945965  0.132869E-06  0.605E-03    1.07       1.0  T
   7   -511.9946063 -0.979650E-05  0.198E-03    1.07       3.1  T
   8   -511.9946075 -0.124184E-05  0.770E-04    1.07       7.9  T
   9   -511.9946076 -0.114845E-06  0.430E-04    1.07      14.1  T
  10   -511.9946076 -0.125045E-07  0.287E-04    1.07      21.1  T
     SCC iter.                  ...        0 min,  2.455 sec
     gradient                   ...        0 min,  0.492 sec
 * total energy  :  -503.3719765 Eh     change       -0.1607026E-01 Eh
   gradient norm :     0.0186957 Eh/α   predicted    -0.1599341E-01 (  -0.48%)
   displ. norm   :     0.9390818 α      lambda       -0.1573905E-01
   maximum displ.:     0.6854234 α      in ANC's #45, #46, #49, ...

........................................................................
.............................. CYCLE   29 ..............................
........................................................................
   1   -512.0244543 -0.512024E+03  0.104E-01    1.07       0.0  T
   2   -512.0244544 -0.217756E-07  0.669E-02    1.07       1.0  T
   3   -512.0237813  0.673042E-03  0.404E-02    1.07       1.0  T
   4   -512.0244739 -0.692595E-03  0.126E-02    1.07       1.0  T
   5   -512.0244868 -0.128325E-04  0.893E-03    1.07       1.0  T
   6   -512.0244883 -0.152241E-05  0.499E-03    1.07       1.2  T
   7   -512.0244957 -0.741483E-05  0.150E-03    1.07       4.0  T
   8   -512.0244962 -0.524561E-06  0.812E-04    1.07       7.5  T
   9   -512.0244964 -0.136442E-06  0.406E-04    1.07      15.0  T
     SCC iter.                  ...        0 min,  2.211 sec
     gradient                   ...        0 min,  0.492 sec
 * total energy  :  -503.3865984 Eh     change       -0.1462189E-01 Eh
   gradient norm :     0.0183935 Eh/α   predicted    -0.1480947E-01 (   1.28%)
   displ. norm   :     0.9377597 α      lambda       -0.1472141E-01
   maximum displ.:     0.6784406 α      in ANC's #45, #46, #49, ...

........................................................................
.............................. CYCLE   30 ..............................
........................................................................
   1   -512.0546013 -0.512055E+03  0.107E-01    1.06       0.0  T
   2   -512.0546011  0.194130E-06  0.687E-02    1.07       1.0  T
   3   -512.0539641  0.637012E-03  0.389E-02    1.07       1.0  T
   4   -512.0546208 -0.656706E-03  0.122E-02    1.07       1.0  T
   5   -512.0546295 -0.864778E-05  0.880E-03    1.07       1.0  T
   6   -512.0546323 -0.284764E-05  0.448E-03    1.07       1.4  T
   7   -512.0546394 -0.701470E-05  0.135E-03    1.07       4.5  T
   8   -512.0546398 -0.432474E-06  0.796E-04    1.07       7.6  T
   9   -512.0546399 -0.153090E-06  0.390E-04    1.07      15.6  T
     SCC iter.                  ...        0 min,  2.210 sec
     gradient                   ...        0 min,  0.493 sec
 * total energy  :  -503.4001652 Eh     change       -0.1356673E-01 Eh
   gradient norm :     0.0159912 Eh/α   predicted    -0.1383366E-01 (   1.97%)
   displ. norm   :     0.9282192 α      lambda       -0.1315937E-01
   maximum displ.:     0.6941918 α      in ANC's #45, #46, #49, ...

........................................................................
.............................. CYCLE   31 ..............................
........................................................................
   1   -512.0849788 -0.512085E+03  0.963E-02    1.06       0.0  T
   2   -512.0849759  0.289002E-05  0.624E-02    1.06       1.0  T
   3   -512.0843424  0.633558E-03  0.390E-02    1.06       1.0  T
   4   -512.0850003 -0.657903E-03  0.115E-02    1.06       1.0  T
   5   -512.0850051 -0.486048E-05  0.838E-03    1.06       1.0  T
   6   -512.0850086 -0.349648E-05  0.416E-03    1.06       1.5  T
   7   -512.0850144 -0.576022E-05  0.120E-03    1.06       5.1  T
   8   -512.0850147 -0.318627E-06  0.714E-04    1.06       8.5  T
   9   -512.0850148 -0.113608E-06  0.341E-04    1.06      17.8  T
     SCC iter.                  ...        0 min,  2.212 sec
     gradient                   ...        0 min,  0.492 sec
 * total energy  :  -503.4125549 Eh     change       -0.1238973E-01 Eh
   gradient norm :     0.0136374 Eh/α   predicted    -0.1224869E-01 (  -1.14%)
   displ. norm   :     0.9231488 α      lambda       -0.1180722E-01
   maximum displ.:     0.6934751 α      in ANC's #45, #46, #49, ...

........................................................................
.............................. CYCLE   32 ..............................
........................................................................
   1   -512.1132556 -0.512113E+03  0.898E-02    1.06       0.0  T
   2   -512.1132514  0.428854E-05  0.586E-02    1.06       1.0  T
   3   -512.1126373  0.614069E-03  0.383E-02    1.06       1.0  T
   4   -512.1132775 -0.640194E-03  0.108E-02    1.06       1.0  T
   5   -512.1132797 -0.220096E-05  0.797E-03    1.06       1.0  T
   6   -512.1132833 -0.363582E-05  0.395E-03    1.06       1.5  T
   7   -512.1132890 -0.570167E-05  0.115E-03    1.06       5.3  T
   8   -512.1132893 -0.301043E-06  0.684E-04    1.06       8.9  T
   9   -512.1132894 -0.109766E-06  0.305E-04    1.06      19.9  T
     SCC iter.                  ...        0 min,  2.208 sec
     gradient                   ...        0 min,  0.493 sec
 * total energy  :  -503.4237766 Eh     change       -0.1122170E-01 Eh
   gradient norm :     0.0122065 Eh/α   predicted    -0.1093469E-01 (  -2.56%)
[...]
 481:  0.00 482:  0.00 483:  0.00 484:  0.00 485:  0.00 486:  0.00 487:  0.00 488:  0.00
 489:  0.00 490:  0.00 491:  0.00 492:  0.00 493:  0.00 494:  0.00 495:  0.00 496:  0.00
 497:  0.00 498:  0.00 499:  0.00 500:  0.00 501:  0.00 502:  0.00 503:  0.00 504:  0.00
 505:  0.00 506:  0.00 507:  0.00 508:  0.00 509:  0.00 510:  0.00 511:  0.00 512:  0.00
 513:  0.00 514:  0.00 515:  0.00 516:  0.00 517:  0.00 518:  0.00 519:  0.00 520:  0.00
 521:  0.00 522:  0.00 523:  0.00 524:  0.00 525:  0.00 526:  0.00 527:  0.00 528:  0.00
 529:  0.00 530:  0.00 531:  0.00 532:  0.00 533:  0.00 534:  0.00 535:  0.00 536:  0.00
 537:  0.00 538:  0.00 539:  0.00 540:  0.00 541:  0.00 542:  0.00 543:  0.00 544:  0.00
 545:  0.00 546:  0.00 547:  0.00 548:  0.00 549:  0.00 550:  0.00 551:  0.00 552:  0.00
 553:  0.00 554:  0.00 555:  0.00 556:  0.00 557:  0.00 558:  0.00 559:  0.00 560:  0.00
 561:  0.00 562:  0.00 563:  0.00 564:  0.00 565:  0.00 566:  0.00 567:  0.00 568:  0.00
 569:  0.00 570:  0.00 571:  0.00 572:  0.00 573:  0.00 574:  0.00 575:  0.00 576:  0.00
 577:  0.00 578:  0.00 579:  0.00 580:  0.00 581:  0.00 582:  0.00 583:  0.00 584:  0.00
 585:  0.00 586:  0.00 587:  0.00 588:  0.00 589:  0.00 590:  0.00 591:  0.00 592:  0.00
 593:  0.00 594:  0.00 595:  0.00 596:  0.00 597:  0.00 598:  0.00 599:  0.00 600:  0.00
 601:  0.00 602:  0.00 603:  0.00 604:  0.00 605:  0.00 606:  0.00 607:  0.00 608:  0.00
 609:  0.00 610:  0.00 611:  0.00 612:  0.00 613:  0.00 614:  0.00 615:  0.00 616:  0.00
 617:  0.00 618:  0.00 619:  0.00 620:  0.00 621:  0.00 622:  0.00 623:  0.00 624:  0.00
 625:  0.00 626:  0.00 627:  0.00 628:  0.00 629:  0.00 630:  0.00 631:  0.00 632:  0.00
 633:  0.00 634:  0.00 635:  0.00 636:  0.00 637:  0.00 638:  0.00 639:  0.00 640:  0.00
 641:  0.00 642:  0.00 643:  0.00 644:  0.00 645:  0.00 646:  0.00 647:  0.00 648:  0.00
 649:  0.00 650:  0.00 651:  0.00 652:  0.00 653:  0.00 654:  0.00 655:  0.00 656:  0.00
 657:  0.00 658:  0.00 659:  0.00 660:  0.00 661:  0.00 662:  0.00 663:  0.00 664:  0.00
 665:  0.00 666:  0.00 667:  0.00 668:  0.00 669:  0.00 670:  0.00 671:  0.00 672:  0.00
 673:  0.00 674:  0.00 675:  0.00 676:  0.00 677:  0.00 678:  0.00 679:  0.00 680:  0.00
 681:  0.00 682:  0.00 683:  0.00 684:  0.00 685:  0.00 686:  0.00 687:  0.00 688:  0.00
 689:  0.00 690:  0.00 691:  0.00 692:  0.00 693:  0.00 694:  0.00 695:  0.00 696:  0.00
 697:  0.00 698:  0.00 699:  0.00 700:  0.00 701:  0.00 702:  0.00 703:  0.00 704:  0.00
 705:  0.00 706:  0.00 707:  0.00 708:  0.00 709:  0.00 710:  0.00 711:  0.00 712:  0.00
 713:  0.00 714:  0.00 715:  0.00 716:  0.00 717:  0.00 718:  0.00 719:  0.00 720:  0.00
 721:  0.00 722:  0.00 723:  0.00 724:  0.00 725:  0.00 726:  0.00 727:  0.00 728:  0.00
 729:  0.00 730:  0.00 731:  0.00 732:  0.00 733:  0.00 734:  0.00 735:  0.00 736:  0.00
 737:  0.00 738:  0.00 739:  0.00 740:  0.00 741:  0.00 742:  0.00 743:  0.00 744:  0.00
 745:  0.00 746:  0.00 747:  0.00 748:  0.00 749:  0.00 750:  0.00 751:  0.00 752:  0.00
 753:  0.00 754:  0.00 755:  0.00 756:  0.00 757:  0.00 758:  0.00 759:  0.00 760:  0.00
 761:  0.00 762:  0.00 763:  0.00 764:  0.00 765:  0.00 766:  0.00 767:  0.00 768:  0.00
 769:  0.00 770:  0.00 771:  0.00 772:  0.00 773:  0.00 774:  0.00 775:  0.00 776:  0.00
 777:  0.00 778:  0.00 779:  0.00 780:  0.00 781:  0.00 782:  0.00 783:  0.00 784:  0.00
 785:  0.00 786:  0.00 787:  0.00 788:  0.00 789:  0.00 790:  0.00 791:  0.00 792:  0.00
 793:  0.00 794:  0.00 795:  0.00 796:  0.00 797:  0.00 798:  0.00 799:  0.00 800:  0.00
 801:  0.00 802:  0.00 803:  0.00 804:  0.00 805:  0.00 806:  0.00 807:  0.00 808:  0.00
 809:  0.00 810:  0.00 811:  0.00 812:  0.00 813:  0.00
 output can be read by thermo (or use thermo option).
 writing <g98.out> molden fake output.
 recommended (thermochemical) frequency scaling factor: 1.0
           -------------------------------------------------
          |             Thermodynamic Functions             |
           -------------------------------------------------
 symmetry recognition skipped because # atoms >         200
 inverting freq            1   9.3482627896761787     
 inverting freq            2   7.5842267744989886     
 inverting freq            3   7.2611086860673142     
 inverting freq            4   6.9864124433092805     
 inverting freq            5   6.4366883066883860     
 inverting freq            6   5.7097727192882113     
 inverting freq            7   4.7847490256579741     
 inverting freq            8   3.6547113810030227     
 inverting freq            9   2.4595916074734774     
 inverting freq           10   1.4780166816179041     

          ...................................................
          :                      SETUP                      :
          :.................................................:
          :  # frequencies                         807      :
          :  # imaginary freq.                       0      :
          :  linear?                             false      :
          :  only rotor calc.                    false      :
          :  symmetry                               C1      :
          :  rotational number                       1      :
          :  scaling factor                  1.0000000      :
          :  rotor cutoff                   50.0000000 cm⁻¹ :
          :  imag. cutoff                  -20.0000000 cm⁻¹ :
          :.................................................:

    mode    ω/cm⁻¹     T·S(HO)/kcal·mol⁻¹    T·S(FR)/kcal·mol⁻¹   T·S(vib)
   ------------------------------------------------------------------------
       1      9.35    -2.42841 (  0.12%)    -1.55330 ( 99.88%)    -1.55437
       2      7.58    -2.55230 (  0.05%)    -1.61525 ( 99.95%)    -1.61574
       3      7.26    -2.57809 (  0.04%)    -1.62815 ( 99.96%)    -1.62857
       4      6.99    -2.60094 (  0.04%)    -1.63957 ( 99.96%)    -1.63994
       5      6.44    -2.64949 (  0.03%)    -1.66385 ( 99.97%)    -1.66412
       6      5.71    -2.72048 (  0.02%)    -1.69935 ( 99.98%)    -1.69952
       7      4.78    -2.82520 (  0.01%)    -1.75171 ( 99.99%)    -1.75180
       8      3.65    -2.98482 (  0.00%)    -1.83152 (100.00%)    -1.83155
       9      2.46    -3.21945 (  0.00%)    -1.94884 (100.00%)    -1.94885
      10      1.48    -3.52120 (  0.00%)    -2.09971 (100.00%)    -2.09971
      11      3.39    -3.03004 (  0.00%)    -1.85413 (100.00%)    -1.85416
      12      4.11    -2.91579 (  0.00%)    -1.79701 (100.00%)    -1.79706
      13      6.47    -2.64662 (  0.03%)    -1.66242 ( 99.97%)    -1.66269
      14      6.58    -2.63615 (  0.03%)    -1.65718 ( 99.97%)    -1.65747
      15      7.09    -2.59257 (  0.04%)    -1.63539 ( 99.96%)    -1.63577
      16      7.70    -2.54365 (  0.06%)    -1.61093 ( 99.94%)    -1.61145
      17      8.07    -2.51556 (  0.07%)    -1.59688 ( 99.93%)    -1.59750
      18      8.36    -2.49444 (  0.08%)    -1.58632 ( 99.92%)    -1.58703
      19      8.57    -2.47997 (  0.09%)    -1.57908 ( 99.91%)    -1.57986
      20     10.10    -2.38245 (  0.17%)    -1.53031 ( 99.83%)    -1.53173
      21     11.24    -2.31917 (  0.25%)    -1.49867 ( 99.75%)    -1.50076
      22     12.38    -2.26207 (  0.37%)    -1.47011 ( 99.63%)    -1.47307
      23     13.69    -2.20229 (  0.56%)    -1.44021 ( 99.44%)    -1.44447
      24     16.30    -2.09915 (  1.12%)    -1.38861 ( 98.88%)    -1.39655
      25     16.67    -2.08599 (  1.22%)    -1.38203 ( 98.78%)    -1.39062
      26     21.05    -1.94760 (  3.05%)    -1.31279 ( 96.95%)    -1.33214
      27     22.02    -1.92091 (  3.63%)    -1.29944 ( 96.37%)    -1.32198
      28     22.14    -1.91769 (  3.71%)    -1.29782 ( 96.29%)    -1.32079
      29     22.47    -1.90905 (  3.92%)    -1.29350 ( 96.08%)    -1.31762
      30     22.89    -1.89814 (  4.21%)    -1.28804 ( 95.79%)    -1.31370
      31     23.30    -1.88751 (  4.51%)    -1.28272 ( 95.49%)    -1.30996
      32     23.47    -1.88323 (  4.63%)    -1.28057 ( 95.37%)    -1.30849
      33     25.00    -1.84594 (  5.88%)    -1.26191 ( 94.12%)    -1.29625
      34     25.84    -1.82645 (  6.65%)    -1.25215 ( 93.35%)    -1.29036
      35     26.78    -1.80523 (  7.60%)    -1.24153 ( 92.40%)    -1.28438
      36     31.75    -1.70450 ( 13.99%)    -1.19108 ( 86.01%)    -1.26289
      37     32.47    -1.69121 ( 15.10%)    -1.18442 ( 84.90%)    -1.26096
      38     36.15    -1.62786 ( 21.45%)    -1.15267 ( 78.55%)    -1.25461
      39     36.67    -1.61931 ( 22.44%)    -1.14838 ( 77.56%)    -1.25408
      40     40.45    -1.56145 ( 29.98%)    -1.11937 ( 70.02%)    -1.25191
      41     41.30    -1.54911 ( 31.76%)    -1.11318 ( 68.24%)    -1.25165
      42     42.84    -1.52755 ( 35.01%)    -1.10236 ( 64.99%)    -1.25122
      43     43.42    -1.51950 ( 36.26%)    -1.09833 ( 63.74%)    -1.25105
      44     46.65    -1.47725 ( 43.10%)    -1.07712 ( 56.90%)    -1.24958
      45     52.11    -1.41193 ( 54.13%)    -1.04430 ( 45.87%)    -1.24328
      46     56.29    -1.36651 ( 61.63%)    -1.02146 ( 38.37%)    -1.23411
      47     65.29    -1.27922 ( 74.41%)    -0.97751 ( 25.59%)    -1.20201
      48     76.75    -1.18433 ( 84.74%)    -0.92959 ( 15.26%)    -1.14545
      49     82.32    -1.14333 ( 88.02%)    -0.90884 ( 11.98%)    -1.11524
      50     86.70    -1.11306 ( 90.04%)    -0.89349 (  9.96%)    -1.09119
      51     88.44    -1.10143 ( 90.73%)    -0.88759 (  9.27%)    -1.08161
      52     93.87    -1.06671 ( 92.55%)    -0.86995 (  7.45%)    -1.05205
      53     96.76    -1.04905 ( 93.34%)    -0.86097 (  6.66%)    -1.03653
      54     97.71    -1.04336 ( 93.58%)    -0.85807 (  6.42%)    -1.03147
      55     99.67    -1.03184 ( 94.04%)    -0.85220 (  5.96%)    -1.02114
      56     99.79    -1.03114 ( 94.07%)    -0.85184 (  5.93%)    -1.02051
      57    101.94    -1.01875 ( 94.53%)    -0.84552 (  5.47%)    -1.00927
      58    102.82    -1.01374 ( 94.70%)    -0.84297 (  5.30%)    -1.00470
      59    105.20    -1.00048 ( 95.14%)    -0.83620 (  4.86%)    -0.99251
      60    107.15    -0.98981 ( 95.47%)    -0.83074 (  4.53%)    -0.98261
      61    110.30    -0.97307 ( 95.95%)    -0.82218 (  4.05%)    -0.96696
      62    117.32    -0.93739 ( 96.81%)    -0.80389 (  3.19%)    -0.93313
      63    118.32    -0.93251 ( 96.91%)    -0.80138 (  3.09%)    -0.92845
      64    118.36    -0.93230 ( 96.91%)    -0.80128 (  3.09%)    -0.92826
      65    118.42    -0.93200 ( 96.92%)    -0.80112 (  3.08%)    -0.92797
      66    118.54    -0.93145 ( 96.93%)    -0.80083 (  3.07%)    -0.92744
      67    118.57    -0.93130 ( 96.93%)    -0.80076 (  3.07%)    -0.92729
      68    120.17    -0.92354 ( 97.09%)    -0.79677 (  2.91%)    -0.91985
      69    120.66    -0.92123 ( 97.14%)    -0.79558 (  2.86%)    -0.91763
      70    123.73    -0.90674 ( 97.40%)    -0.78812 (  2.60%)    -0.90366
      71    124.98    -0.90099 ( 97.50%)    -0.78516 (  2.50%)    -0.89810
      72    133.77    -0.86199 ( 98.09%)    -0.76502 (  1.91%)    -0.86013
      73    141.86    -0.82844 ( 98.48%)    -0.74762 (  1.52%)    -0.82721
      74    144.54    -0.81779 ( 98.59%)    -0.74208 (  1.41%)    -0.81672
      75    146.50    -0.81011 ( 98.66%)    -0.73808 (  1.34%)    -0.80915
      76    148.44    -0.80265 ( 98.73%)    -0.73419 (  1.27%)    -0.80178
      77    149.80    -0.79749 ( 98.77%)    -0.73150 (  1.23%)    -0.79668
      78    151.04    -0.79281 ( 98.81%)    -0.72905 (  1.19%)    -0.79205
      79    153.06    -0.78528 ( 98.87%)    -0.72511 (  1.13%)    -0.78460
      80    154.07    -0.78157 ( 98.90%)    -0.72317 (  1.10%)    -0.78093
      81    156.39    -0.77309 ( 98.97%)    -0.71873 (  1.03%)    -0.77253
      82    161.87    -0.75365 ( 99.10%)    -0.70853 (  0.90%)    -0.75325
      83    165.11    -0.74250 ( 99.17%)    -0.70265 (  0.83%)    -0.74217
      84    173.91    -0.71342 ( 99.32%)    -0.68728 (  0.68%)    -0.71324
      85    176.98    -0.70366 ( 99.37%)    -0.68210 (  0.63%)    -0.70352
      86    177.02    -0.70350 ( 99.37%)    -0.68202 (  0.63%)    -0.70337
      87    177.12    -0.70319 ( 99.37%)    -0.68186 (  0.63%)    -0.70306
      88    177.32    -0.70258 ( 99.37%)    -0.68153 (  0.63%)    -0.70245
      89    177.51    -0.70197 ( 99.37%)    -0.68121 (  0.63%)    -0.70184
      90    177.76    -0.70118 ( 99.38%)    -0.68079 (  0.62%)    -0.70106
      91    177.92    -0.70070 ( 99.38%)    -0.68053 (  0.62%)    -0.70058
      92    185.44    -0.67767 ( 99.47%)    -0.66826 (  0.53%)    -0.67762
      93    202.92    -0.62804 ( 99.63%)    -0.64158 (  0.37%)    -0.62809
      94    220.02    -0.58404 ( 99.73%)    -0.61760 (  0.27%)    -0.58413
      95    222.00    -0.57922 ( 99.74%)    -0.61496 (  0.26%)    -0.57931
      96    222.13    -0.57890 ( 99.74%)    -0.61478 (  0.26%)    -0.57899
      97    224.01    -0.57437 ( 99.75%)    -0.61229 (  0.25%)    -0.57446
      98    225.51    -0.57079 ( 99.76%)    -0.61031 (  0.24%)    -0.57088
      99    226.33    -0.56884 ( 99.76%)    -0.60924 (  0.24%)    -0.56894
     100    226.41    -0.56863 ( 99.76%)    -0.60913 (  0.24%)    -0.56873
     101    226.44    -0.56856 ( 99.76%)    -0.60908 (  0.24%)    -0.56865
     102    226.61    -0.56815 ( 99.76%)    -0.60886 (  0.24%)    -0.56825
     103    226.64    -0.56809 ( 99.76%)    -0.60882 (  0.24%)    -0.56818
     104    226.85    -0.56760 ( 99.76%)    -0.60856 (  0.24%)    -0.56770
     105    227.01    -0.56722 ( 99.77%)    -0.60834 (  0.23%)    -0.56731
     106    227.15    -0.56689 ( 99.77%)    -0.60816 (  0.23%)    -0.56698
     107    227.22    -0.56672 ( 99.77%)    -0.60807 (  0.23%)    -0.56682
     108    230.90    -0.55811 ( 99.78%)    -0.60331 (  0.22%)    -0.55821
     109    231.22    -0.55738 ( 99.78%)    -0.60291 (  0.22%)    -0.55748
     110    233.88    -0.55127 ( 99.79%)    -0.59951 (  0.21%)    -0.55137
     111    234.00    -0.55098 ( 99.79%)    -0.59935 (  0.21%)    -0.55108
     112    234.13    -0.55070 ( 99.79%)    -0.59919 (  0.21%)    -0.55080
     113    234.25    -0.55042 ( 99.79%)    -0.59904 (  0.21%)    -0.55052
     114    234.30    -0.55030 ( 99.79%)    -0.59898 (  0.21%)    -0.55040
     115    237.22    -0.54371 ( 99.80%)    -0.59531 (  0.20%)    -0.54381
     116    237.45    -0.54319 ( 99.80%)    -0.59502 (  0.20%)    -0.54329
     117    238.96    -0.53983 ( 99.81%)    -0.59315 (  0.19%)    -0.53993
     118    240.22    -0.53704 ( 99.81%)    -0.59159 (  0.19%)    -0.53714
     119    241.38    -0.53448 ( 99.82%)    -0.59016 (  0.18%)    -0.53459
     120    241.95    -0.53325 ( 99.82%)    -0.58947 (  0.18%)    -0.53335
     121    243.76    -0.52929 ( 99.82%)    -0.58725 (  0.18%)    -0.52940
     122    245.23    -0.52612 ( 99.83%)    -0.58547 (  0.17%)    -0.52622
     123    245.60    -0.52533 ( 99.83%)    -0.58503 (  0.17%)    -0.52543
     124    245.96    -0.52456 ( 99.83%)    -0.58460 (  0.17%)    -0.52466
     125    246.25    -0.52394 ( 99.83%)    -0.58425 (  0.17%)    -0.52404
     126    246.38    -0.52365 ( 99.83%)    -0.58409 (  0.17%)    -0.52375
     127    246.63    -0.52312 ( 99.83%)    -0.58379 (  0.17%)    -0.52322
     128    246.92    -0.52251 ( 99.83%)    -0.58345 (  0.17%)    -0.52261
     129    247.19    -0.52191 ( 99.83%)    -0.58311 (  0.17%)    -0.52201
     130    247.38    -0.52152 ( 99.83%)    -0.58289 (  0.17%)    -0.52162
     131    259.97    -0.49551 ( 99.86%)    -0.56818 (  0.14%)    -0.49561
     132    268.84    -0.47813 ( 99.88%)    -0.55825 (  0.12%)    -0.47823
     133    269.56    -0.47674 ( 99.88%)    -0.55745 (  0.12%)    -0.47684
     134    269.68    -0.47651 ( 99.88%)    -0.55731 (  0.12%)    -0.47661
     135    270.03    -0.47585 ( 99.88%)    -0.55694 (  0.12%)    -0.47595
     136    270.27    -0.47539 ( 99.88%)    -0.55667 (  0.12%)    -0.47548
     137    270.33    -0.47527 ( 99.88%)    -0.55660 (  0.12%)    -0.47537
     138    270.41    -0.47512 ( 99.88%)    -0.55651 (  0.12%)    -0.47522
     139    270.55    -0.47486 ( 99.88%)    -0.55636 (  0.12%)    -0.47495
     140    270.71    -0.47456 ( 99.88%)    -0.55619 (  0.12%)    -0.47465
     141    270.79    -0.47441 ( 99.88%)    -0.55610 (  0.12%)    -0.47450
     142    271.03    -0.47394 ( 99.88%)    -0.55584 (  0.12%)    -0.47404
     143    271.24    -0.47354 ( 99.88%)    -0.55561 (  0.12%)    -0.47364
     144    271.93    -0.47223 ( 99.89%)    -0.55485 (  0.11%)    -0.47233
     145    272.00    -0.47211 ( 99.89%)    -0.55478 (  0.11%)    -0.47221
     146    277.42    -0.46199 ( 99.89%)    -0.54894 (  0.11%)    -0.46209
     147    282.90    -0.45202 ( 99.90%)    -0.54314 (  0.10%)    -0.45211
     148    284.27    -0.44956 ( 99.90%)    -0.54171 (  0.10%)    -0.44965
     149    286.03    -0.44643 ( 99.91%)    -0.53988 (  0.09%)    -0.44652
     150    288.13    -0.44274 ( 99.91%)    -0.53772 (  0.09%)    -0.44282
     151    290.88    -0.43793 ( 99.91%)    -0.53490 (  0.09%)    -0.43801
     152    292.63    -0.43491 ( 99.91%)    -0.53312 (  0.09%)    -0.43500
   ------------------------------------------------------------------------

   temp. (K)  partition function   enthalpy   heat capacity  entropy
                                   cal/mol     cal/K/mol   cal/K/mol   J/K/mol
 298.15  VIB  0.697E+91            99552.929    633.971    637.248
         ROT  0.175E+11              888.752      2.981     49.847
         INT  0.122+102           100441.682    636.952    687.095
         TR   0.147E+30             1481.254      4.968     49.676
         TOT                      101922.9356   641.9199   736.7713  3082.6510

       T/K    H(0)-H(T)+PV         H(T)/Eh          T*S/Eh         G(T)/Eh
   ------------------------------------------------------------------------
    298.15    0.162425E+00    0.201555E+01    0.350064E+00    0.166549E+01
   ------------------------------------------------------------------------

         :::::::::::::::::::::::::::::::::::::::::::::::::::::
         ::                  THERMODYNAMIC                  ::
         :::::::::::::::::::::::::::::::::::::::::::::::::::::
         :: total free energy        -501.853487098553 Eh   ::
         ::.................................................::
         :: total energy             -503.518976841736 Eh   ::
         :: zero point energy           1.853129014023 Eh   ::
         :: G(RRHO) w/o ZPVE           -0.187639270840 Eh   ::
         :: G(RRHO) contrib.            1.665489743183 Eh   ::
         :::::::::::::::::::::::::::::::::::::::::::::::::::::
imag cut-off (cm-1) :    5.00
 found            6  significant imaginary frequencies
 writing imag mode distorted coords to xtbhess.xyz
 for further optimization.

optimized geometry written to: xtbopt.xyz


           -------------------------------------------------
          | TOTAL ENERGY             -503.518976841736 Eh   |
          | TOTAL ENTHALPY           -501.503423290990 Eh   |
          | TOTAL FREE ENERGY        -501.853487098553 Eh   |
          | GRADIENT NORM               0.000739941241 Eh/α |
          | HOMO-LUMO GAP               0.920874200200 eV   |
           -------------------------------------------------

------------------------------------------------------------------------
 * finished run on 2021/11/20 at 14:48:33.731     
------------------------------------------------------------------------
 total:
 * wall-time:     0 d,  0 h, 53 min, 28.167 sec
 *  cpu-time:     0 d,  0 h, 53 min, 28.198 sec
 * ratio c/w:     1.000 speedup
 SCF:
 * wall-time:     0 d,  0 h,  0 min, 50.589 sec
 *  cpu-time:     0 d,  0 h,  0 min, 50.590 sec
 * ratio c/w:     1.000 speedup
 ANC optimizer:
 * wall-time:     0 d,  0 h,  4 min,  5.776 sec
 *  cpu-time:     0 d,  0 h,  4 min,  5.779 sec
 * ratio c/w:     1.000 speedup
 analytical hessian:
 * wall-time:     0 d,  0 h, 48 min, 31.348 sec
 *  cpu-time:     0 d,  0 h, 48 min, 31.375 sec
 * ratio c/w:     1.000 speedup

