271
 energy: -501.627839432250 gnorm: 1.007331066902 xtb: 6.4.1 (bd6e46d)
Ni       42.10772900000000    0.04415900000000   -0.01372200000000
C        44.43672000000000   -3.10263400000000    1.30896700000000
C        45.35282700000000   -2.15842600000000    1.25868400000000
C        44.94164800000000   -1.10452200000000    0.33739300000000
C        45.56051800000000    0.01982400000000   -0.00901700000000
C        44.85647600000000    1.23977200000000   -0.37312300000000
C        45.18458700000000    2.19982700000000   -1.22059600000000
C        44.14980700000001    3.21611200000000   -1.23749400000000
C        43.21353900000000    2.83965000000000   -0.39060200000000
N        43.61552900000000    1.60663900000000    0.17321500000000
C        41.95246500000000    3.48465000000000   -0.01145100000000
C        40.85724700000000    2.84986700000000    0.33931000000000
C        39.78362200000000    3.16782300000000    1.30833800000000
C        38.94605900000001    2.17106900000000    1.23117100000000
C        39.38435700000000    1.16738600000000    0.25071900000000
N        40.48929500000000    1.60623900000000   -0.23357300000000
C        38.77352200000000   -0.08588500000000   -0.16282900000000
C        39.43768200000001   -1.19039100000000   -0.41725300000000
C        39.06383400000000   -2.25333300000000   -1.37478000000000
C        40.01258100000000   -3.14708900000000   -1.28576100000000
C        40.99830500000000   -2.70963900000000   -0.30288300000000
N        40.64525900000000   -1.56383400000000    0.19391400000000
C        42.22919300000000   -3.36570900000000    0.14283800000000
C        43.35223400000000   -2.71984800000000    0.40995900000000
N        43.68083400000000   -1.47240700000000   -0.18844500000000
H        44.49698200000000   -4.01241400000000    1.92651300000000
H        46.26915500000000   -2.19837600000000    1.83673300000000
H        46.11195200000001    2.21662300000000   -1.82174000000000
H        44.16670600000000    4.12080100000000   -1.85011500000000
H        41.90474200000001    4.57945200000000   -0.01522800000000
H        39.73080000000001    4.04654800000000    1.93333000000000
H        38.03442900000000    2.13539900000000    1.84849600000000
H        37.67527100000000   -0.08297400000000   -0.26209900000000
H        38.19497800000001   -2.30579800000000   -2.02373100000000
H        40.00973500000000   -4.06339700000000   -1.88452100000000
H        42.19371000000001   -4.46151100000000    0.25476300000000
Ni      125.39376200000001   -0.00321700000000   -0.01815500000000
C       123.06477099999999    2.84357500000000    1.86534900000000
C       122.14866400000000    1.92508600000000    1.64077600000000
C       122.55984300000000    1.06038900000000    0.53996200000000
C       121.94097300000000    0.01982400000000   -0.00901700000000
C       122.64501500000000   -1.11140100000000   -0.59312000000000
C       122.31690400000001   -1.89757300000000   -1.60398700000000
C       123.35168400000001   -2.89308200000000   -1.80912700000000
C       124.28795200000000   -2.68026600000000   -0.90709700000000
N       123.88596200000001   -1.57325400000000   -0.12432600000000
C       125.54902700000001   -3.38440700000000   -0.65418400000000
C       126.64424400000000   -2.82571400000000   -0.19175100000000
C       127.71786899999999   -3.31791900000000    0.70147100000000
C       128.55543200000000   -2.32415200000000    0.81055700000000
C       128.11713499999999   -1.15600400000000    0.03332200000000
N       127.01219700000001   -1.49739600000000   -0.52397800000000
C       128.72796900000000    0.15223200000000   -0.14054800000000
C       128.06380899999999    1.28476500000000   -0.18565400000000
C       128.43765800000000    2.50689100000000   -0.92936900000000
C       127.48891000000000    3.36861800000000   -0.67609100000000
C       126.50318700000000    2.75642300000000    0.20857200000000
N       126.85623200000001    1.53834500000000    0.48418300000000
C       125.27229900000000    3.31841800000000    0.76826700000000
C       124.14925700000002    2.63421300000000    0.91093500000000
N       123.82065700000000    1.51943800000000    0.09150000000000
H       123.00450900000001    3.62300000000000    2.64095400000000
H       121.23233600000000    1.85710500000000    2.21620100000000
H       121.38953900000000   -1.80255600000000   -2.19781100000000
H       123.33478500000000   -3.66841600000000   -2.57894700000000
H       125.59674900000000   -4.45950500000000   -0.86099700000000
H       127.77069100000000   -4.29733600000000    1.15259800000000
H       129.46706300000000   -2.40362400000000    1.42378200000000
H       129.82622000000001    0.16778800000000   -0.23863600000000
H       129.30651300000000    2.67883500000000   -1.55732200000000
H       127.49175600000001    4.38009900000000   -1.09446800000000
H       125.30778100000001    4.37443400000000    1.08153600000000
C        48.45522200000000    0.01778800000000   -0.01012900000000
C        49.66319900000001    0.02524300000000   -0.00843400000000
C        51.08196700000000    0.02594000000000   -0.00329700000000
C        52.29748300000000    0.01778800000000   -0.01012900000000
C        61.80537300000000    0.01778800000000   -0.01012900000000
C        63.01335000000000    0.02524300000000   -0.00843400000000
C        64.43211700000001    0.02594000000000   -0.00329700000000
C        65.64763400000000    0.01778800000000   -0.01012900000000
C        75.15552300000000    0.01778800000000   -0.01012900000000
C        76.36350000000000    0.02524300000000   -0.00843400000000
C        77.78226800000002    0.02594000000000   -0.00329700000000
C        78.99778400000001    0.01778800000000   -0.01012900000000
C        88.50567400000000    0.01778800000000   -0.01012900000000
C        89.71365000000000    0.02524300000000   -0.00843400000000
C        91.13241800000002    0.02594000000000   -0.00329700000000
C        92.34793500000001    0.01778800000000   -0.01012900000000
C       101.85582400000000    0.01778800000000   -0.01012900000000
C       103.06380100000001    0.02524300000000   -0.00843400000000
C       104.48256900000000    0.02594000000000   -0.00329700000000
C       105.69808500000001    0.01778800000000   -0.01012900000000
C       115.20597500000000    0.01778800000000   -0.01012900000000
C       116.41395100000001    0.02524300000000   -0.00843400000000
C       117.83271900000000    0.02594000000000   -0.00329700000000
C       119.04823600000000    0.01778800000000   -0.01012900000000
Ni       57.08606500000000    0.03792400000000    0.00200900000000
C        54.80625400000000   -3.22352300000000   -0.90765700000000
C        53.85004500000000   -2.32417300000000   -1.00968300000000
C        54.24241900000000   -1.16186800000000   -0.20716700000000
C        53.60730200000000   -0.01059600000000    0.00509900000000
C        54.29275900000000    1.26400400000000    0.23132800000000
C        53.95746900000000    2.34260400000000    0.93556900000000
C        54.98201000000001    3.36192100000000    0.84498700000000
C        55.93260800000001    2.86499600000000    0.07162200000000
N        55.55561400000001    1.54839100000000   -0.34452000000000
C        57.17974700000001    3.47669800000000   -0.34524300000000
C        58.28129900000000    2.80944100000000   -0.67701500000000
C        59.27484500000000    3.06142500000000   -1.71118400000000
C        60.16872900000000    2.10056600000000   -1.60970000000000
C        59.78903000000000    1.18868200000000   -0.50572300000000
N        58.69411500000000    1.63800100000000    0.00164300000000
C        60.44623700000001   -0.01059600000000    0.00509900000000
C        59.82282600000000   -1.07977800000000    0.46661600000000
C        60.20153900000000   -2.01189300000000    1.54209100000000
C        59.26087000000000   -2.92603900000000    1.62795800000000
C        58.25256900000000   -2.63026000000000    0.63053000000000
N        58.59034300000000   -1.57688300000000   -0.01876500000000
C        57.00017500000000   -3.33726700000000    0.29933700000000
C        55.88629900000000   -2.74057100000000   -0.04800400000000
N        55.50418700000001   -1.45781400000000    0.36967900000000
H        54.80659900000000   -4.21459700000000   -1.39889100000000
H        52.94151000000001   -2.44586700000000   -1.59083100000000
H        53.03261700000000    2.46095500000000    1.51249500000000
H        55.00930500000000    4.35108500000000    1.30163800000000
H        57.26568700000000    4.57407500000000   -0.40726600000000
H        59.30751800000000    3.86764100000000   -2.43800800000000
H        61.06179000000000    1.98759800000000   -2.24347500000000
H        61.11628900000000   -1.93748700000000    2.15226100000000
H        59.27991600000001   -3.73964700000000    2.33622500000000
H        57.03866000000001   -4.43722700000000    0.35837300000000
Ni       70.43621500000002    0.03792400000000    0.00200900000000
C        68.15640399999999   -3.22352300000000   -0.90765700000000
C        67.20019499999999   -2.32417300000000   -1.00968300000000
C        67.59256900000000   -1.16186800000000   -0.20716700000000
C        66.95745300000000   -0.01059600000000    0.00509900000000
C        67.64291000000000    1.26400400000000    0.23132800000000
C        67.30762000000000    2.34260400000000    0.93556900000000
C        68.33216100000001    3.36192100000000    0.84498700000000
C        69.28275800000000    2.86499600000000    0.07162200000000
N        68.90576400000000    1.54839100000000   -0.34452000000000
C        70.52989800000000    3.47669800000000   -0.34524300000000
C        71.63144900000000    2.80944100000000   -0.67701500000000
C        72.62499600000000    3.06142500000000   -1.71118400000000
C        73.51887900000001    2.10056600000000   -1.60970000000000
C        73.13918099999999    1.18868200000000   -0.50572300000000
N        72.04426599999999    1.63800100000000    0.00164300000000
C        73.79638799999999   -0.01059600000000    0.00509900000000
C        73.17297600000002   -1.07977800000000    0.46661600000000
C        73.55168900000000   -2.01189300000000    1.54209100000000
C        72.61102000000000   -2.92603900000000    1.62795800000000
C        71.60271899999999   -2.63026000000000    0.63053000000000
N        71.94049400000000   -1.57688300000000   -0.01876500000000
C        70.35032600000000   -3.33726700000000    0.29933700000000
C        69.23644899999999   -2.74057100000000   -0.04800400000000
N        68.85433700000000   -1.45781400000000    0.36967900000000
H        68.15674900000000   -4.21459700000000   -1.39889100000000
H        66.29166100000000   -2.44586700000000   -1.59083100000000
H        66.38276700000000    2.46095500000000    1.51249500000000
H        68.35945599999999    4.35108500000000    1.30163800000000
H        70.61583800000000    4.57407500000000   -0.40726600000000
H        72.65766800000000    3.86764100000000   -2.43800800000000
H        74.41194000000002    1.98759800000000   -2.24347500000000
H        74.46643899999999   -1.93748700000000    2.15226100000000
H        72.63006700000000   -3.73964700000000    2.33622500000000
H        70.38881000000001   -4.43722700000000    0.35837300000000
Ni       83.78636600000000    0.03792400000000    0.00200900000000
C        81.50655500000001   -3.22352300000000   -0.90765700000000
C        80.55034600000000   -2.32417300000000   -1.00968300000000
C        80.94271999999999   -1.16186800000000   -0.20716700000000
C        80.30760300000001   -0.01059600000000    0.00509900000000
C        80.99306000000000    1.26400400000000    0.23132800000000
C        80.65777000000001    2.34260400000000    0.93556900000000
C        81.68231100000001    3.36192100000000    0.84498700000000
C        82.63290900000000    2.86499600000000    0.07162200000000
N        82.25591400000000    1.54839100000000   -0.34452000000000
C        83.88004800000000    3.47669800000000   -0.34524300000000
C        84.98160000000000    2.80944100000000   -0.67701500000000
C        85.97514600000000    3.06142500000000   -1.71118400000000
C        86.86902900000001    2.10056600000000   -1.60970000000000
C        86.48933100000001    1.18868200000000   -0.50572300000000
N        85.39441600000001    1.63800100000000    0.00164300000000
C        87.14653800000001   -0.01059600000000    0.00509900000000
C        86.52312700000000   -1.07977800000000    0.46661600000000
C        86.90183900000001   -2.01189300000000    1.54209100000000
C        85.96117100000001   -2.92603900000000    1.62795800000000
C        84.95286900000001   -2.63026000000000    0.63053000000000
N        85.29064400000000   -1.57688300000000   -0.01876500000000
C        83.70047600000001   -3.33726700000000    0.29933700000000
C        82.58660000000002   -2.74057100000000   -0.04800400000000
N        82.20448700000000   -1.45781400000000    0.36967900000000
H        81.50689900000000   -4.21459700000000   -1.39889100000000
H        79.64181100000000   -2.44586700000000   -1.59083100000000
H        79.73291800000000    2.46095500000000    1.51249500000000
H        81.70960599999999    4.35108500000000    1.30163800000000
H        83.96598800000000    4.57407500000000   -0.40726600000000
H        86.00781900000001    3.86764100000000   -2.43800800000000
H        87.76209100000000    1.98759800000000   -2.24347500000000
H        87.81659000000002   -1.93748700000000    2.15226100000000
H        85.98021700000000   -3.73964700000000    2.33622500000000
H        83.73896100000002   -4.43722700000000    0.35837300000000
Ni       97.13651600000000    0.03792400000000    0.00200900000000
C        94.85670500000001   -3.22352300000000   -0.90765700000000
C        93.90049600000000   -2.32417300000000   -1.00968300000000
C        94.29286999999999   -1.16186800000000   -0.20716700000000
C        93.65775400000000   -0.01059600000000    0.00509900000000
C        94.34321100000000    1.26400400000000    0.23132800000000
C        94.00792000000001    2.34260400000000    0.93556900000000
C        95.03246200000001    3.36192100000000    0.84498700000000
C        95.98305900000000    2.86499600000000    0.07162200000000
N        95.60606500000000    1.54839100000000   -0.34452000000000
C        97.23019900000000    3.47669800000000   -0.34524300000000
C        98.33175000000000    2.80944100000000   -0.67701500000000
C        99.32529700000002    3.06142500000000   -1.71118400000000
C       100.21917999999999    2.10056600000000   -1.60970000000000
C        99.83948200000000    1.18868200000000   -0.50572300000000
N        98.74456700000000    1.63800100000000    0.00164300000000
C       100.49668900000000   -0.01059600000000    0.00509900000000
C        99.87327700000002   -1.07977800000000    0.46661600000000
C       100.25199000000001   -2.01189300000000    1.54209100000000
C        99.31132100000002   -2.92603900000000    1.62795800000000
C        98.30302000000000   -2.63026000000000    0.63053000000000
N        98.64079500000000   -1.57688300000000   -0.01876500000000
C        97.05062700000001   -3.33726700000000    0.29933700000000
C        95.93675000000002   -2.74057100000000   -0.04800400000000
N        95.55463800000000   -1.45781400000000    0.36967900000000
H        94.85705000000000   -4.21459700000000   -1.39889100000000
H        92.99196200000000   -2.44586700000000   -1.59083100000000
H        93.08306800000001    2.46095500000000    1.51249500000000
H        95.05975700000000    4.35108500000000    1.30163800000000
H        97.31613900000001    4.57407500000000   -0.40726600000000
H        99.35796900000001    3.86764100000000   -2.43800800000000
H       101.11224100000000    1.98759800000000   -2.24347500000000
H       101.16674000000002   -1.93748700000000    2.15226100000000
H        99.33036800000001   -3.73964700000000    2.33622500000000
H        97.08911100000000   -4.43722700000000    0.35837300000000
Ni      110.48666700000000    0.03792400000000    0.00200900000000
C       108.20685600000000   -3.22352300000000   -0.90765700000000
C       107.25064700000000   -2.32417300000000   -1.00968300000000
C       107.64302100000000   -1.16186800000000   -0.20716700000000
C       107.00790400000000   -0.01059600000000    0.00509900000000
C       107.69336100000000    1.26400400000000    0.23132800000000
C       107.35807100000000    2.34260400000000    0.93556900000000
C       108.38261200000001    3.36192100000000    0.84498700000000
C       109.33320999999999    2.86499600000000    0.07162200000000
N       108.95621500000000    1.54839100000000   -0.34452000000000
C       110.58034900000000    3.47669800000000   -0.34524300000000
C       111.68190100000000    2.80944100000000   -0.67701500000000
C       112.67544700000001    3.06142500000000   -1.71118400000000
C       113.56932999999999    2.10056600000000   -1.60970000000000
C       113.18963200000000    1.18868200000000   -0.50572300000000
N       112.09471700000000    1.63800100000000    0.00164300000000
C       113.84683900000000   -0.01059600000000    0.00509900000000
C       113.22342800000000   -1.07977800000000    0.46661600000000
C       113.60214000000001   -2.01189300000000    1.54209100000000
C       112.66147200000000   -2.92603900000000    1.62795800000000
C       111.65317000000000   -2.63026000000000    0.63053000000000
N       111.99094500000000   -1.57688300000000   -0.01876500000000
C       110.40077700000001   -3.33726700000000    0.29933700000000
C       109.28690100000000   -2.74057100000000   -0.04800400000000
N       108.90478800000000   -1.45781400000000    0.36967900000000
H       108.20720000000000   -4.21459700000000   -1.39889100000000
H       106.34211200000000   -2.44586700000000   -1.59083100000000
H       106.43321899999999    2.46095500000000    1.51249500000000
H       108.40990700000000    4.35108500000000    1.30163800000000
H       110.66628900000001    4.57407500000000   -0.40726600000000
H       112.70812000000001    3.86764100000000   -2.43800800000000
H       114.46239199999999    1.98759800000000   -2.24347500000000
H       114.51689100000000   -1.93748700000000    2.15226100000000
H       112.68051800000001   -3.73964700000000    2.33622500000000
H       110.43926200000001   -4.43722700000000    0.35837300000000
271
 energy: -502.054986240683 gnorm: 0.593305273069 xtb: 6.4.1 (bd6e46d)
Ni       42.11485848030232    0.04287384319212   -0.01277795222657
C        44.43661735487486   -3.11112774208722    1.30242205333743
C        45.36515297992248   -2.15752745445285    1.25679108276967
C        44.93706178870902   -1.10797435706305    0.34174820111485
C        45.54468475262223    0.03865132264787   -0.01097162217647
C        44.84561669761375    1.23286695871197   -0.36537697403717
C        45.19532330383954    2.22565875761960   -1.23714964074987
C        44.17761330694758    3.21795902376631   -1.25036416705534
C        43.20595037904516    2.81819946399634   -0.38306380547004
N        43.59061255916689    1.58558005465624    0.17314427639899
C        41.96917165854218    3.48544169836779   -0.01219165382557
C        40.84735223669364    2.83601213943403    0.34024043251424
C        39.78561449384725    3.17527923381388    1.29456942425209
C        38.92350608201432    2.16416074349607    1.23437951404193
C        39.37967330502194    1.16747895740967    0.26435281896480
N        40.52289225332344    1.58576777577141   -0.21789581771801
C        38.76206492762315   -0.06667589220053   -0.15713711695549
C        39.44159998942431   -1.19446088139506   -0.42148174483993
C        39.05589514707547   -2.25234607489810   -1.36369826890513
C        40.01924135997784   -3.16560316531361   -1.28427715024883
C        41.00733309032725   -2.71758802081592   -0.30916439809275
N        40.65876266104666   -1.53985683608800    0.17228664665868
C        42.21273509139029   -3.37280653835699    0.13644679351370
C        43.35808568702598   -2.70544083395037    0.41207346862832
N        43.67141621648474   -1.46366798218968   -0.16421303389928
H        44.49046871935912   -4.00773578850862    1.92010625135062
H        46.27244429887668   -2.19105716610030    1.83465105961819
H        46.10936979362294    2.22324833399849   -1.82282183794313
H        44.17195729313686    4.11782396437481   -1.85082769202684
H        41.91670800382877    4.57665376982504   -0.01015958848571
H        39.73613082567186    4.04523195335097    1.92883315507414
H        38.03158617728685    2.12824126273330    1.84732348800563
H        37.67644503709080   -0.07693329596577   -0.26650265015495
H        38.19665820335190   -2.29851707698755   -2.01803447895177
H        40.01812318971972   -4.06599506425578   -1.88172152550350
H        42.19024830127432   -4.45841137734264    0.25518846116057
Ni      125.38663600225887   -0.00212305596586   -0.01699417750591
C       123.06488520446854    2.85313431141213    1.86049685569748
C       122.13635498555635    1.92455357760108    1.63873846006727
C       122.56442539430533    1.06297758878487    0.54488065779810
C       121.95661389976027    0.00165762777654   -0.01430354532991
C       122.65588250774486   -1.10606279517789   -0.58424197575254
C       122.30617382174773   -1.91987783952119   -1.62500628915082
C       123.32390177194318   -2.89251845540910   -1.82210254382746
C       124.29554568949220   -2.66060459184934   -0.89572538038621
N       123.91086427415621   -1.55252464843154   -0.12051994428141
C       125.53231414203645   -3.38505828301116   -0.65505875149453
C       126.65413858042555   -2.81226847923166   -0.18825971875667
C       127.71587067398839   -3.32268888412099    0.68655275248612
C       128.57798226885055   -2.31795005173078    0.81499026976383
C       128.12182155058204   -1.15862589846801    0.04670204948799
N       126.97860088873806   -1.48019782718067   -0.50477929298494
C       128.73942514760432    0.13229889718960   -0.13851701946424
C       128.05988878813847    1.28954829786490   -0.18905465948546
C       128.44559410984021    2.50386372534933   -0.91866177304776
C       127.48224820065778    3.38653583962218   -0.67119794187601
C       126.49415654678889    2.76539869828716    0.20387576670389
N       126.84273069409403    1.51879868216151    0.45848871438667
C       125.28875522742123    3.32658354175387    0.76330151164409
C       124.14340018381498    2.61966536145749    0.91033335931743
N       123.83007704806893    1.50633365084780    0.11371307607733
H       123.01101961680692    3.61959239921844    2.63378970476285
H       121.22904968530686    1.85031642580094    2.21279737666281
H       121.39212976160242   -1.80885071750213   -2.20011024085317
H       123.32954230826775   -3.66536375546724   -2.57910297584669
H       125.58478955105360   -4.45770511771843   -0.85550504295174
H       127.76536067893726   -4.29521029149088    1.14842270078939
H       129.46990731216738   -2.39637256724220    1.42395737801383
H       129.82504593534921    0.16266979420461   -0.24408337811567
H       129.30483231783396    2.67062338061769   -1.55307451820426
H       127.48336625746825    4.38213307683280   -1.09123431550140
H       125.31124068517710    4.37131237263320    1.08137934750046
C        48.44653698585847    0.01799863800235   -0.00922110092264
C        49.66732706694538    0.02541669380545   -0.00848173575503
C        51.05581606389340    0.02640109051149   -0.00338047941790
C        52.27306104301885    0.02451249068553   -0.01229471152442
C        61.82059912055355    0.02370079053635   -0.00743749718500
C        63.03516079600790    0.02556590333702   -0.00715487241433
C        64.40872664530191    0.02630715864160   -0.00384412411025
C        65.62437233432011    0.02441216709662   -0.01303070522873
C        75.17071205913932    0.02374841185629   -0.00727708400826
C        76.38527437636431    0.02557854713101   -0.00711449322805
C        77.75889910962681    0.02630465399582   -0.00386587987656
C        78.97449771912180    0.02439993492337   -0.01307820295201
C        88.52084733632125    0.02375239798373   -0.00725966172785
C        89.73543701967979    0.02558341134892   -0.00709928494976
C        91.10904083159812    0.02630402933807   -0.00386741367366
C        92.32464885343397    0.02439347251546   -0.01309711370514
C       101.87095238951275    0.02374565018878   -0.00727139896742
C       103.08564765899182    0.02559275124551   -0.00707220746840
C       104.45912864724744    0.02630134714783   -0.00386116973715
C       105.67480664574188    0.02437068531878   -0.01313160142760
C       115.22322612769838    0.02390081516789   -0.00728405500860
C       116.43915570456269    0.02548481735139   -0.00741590340838
C       117.83111245308925    0.02540984323912   -0.00363404780499
C       119.05247445447851    0.01753428644688   -0.00981303942541
Ni       57.08022146338749    0.03936827805240    0.00111826687174
C        54.80760015559905   -3.24010051116290   -0.90223777478218
C        53.84488393035014   -2.32293827094436   -1.00326032785734
C        54.26778901283831   -1.17653536761830   -0.20949494624987
C        53.62202965625509    0.00713349957121    0.00507022568431
C        54.31951331595830    1.26586591899031    0.22790278726188
C        53.94927108702635    2.36721334524029    0.94591707329590
C        54.95926063534099    3.36338821939459    0.85235566745407
C        55.94378028533133    2.84597894522122    0.06640192832971
N        55.58035833460740    1.53342279840380   -0.33246940020624
C        57.16668728319665    3.47798867402306   -0.34611739475724
C        58.28933832699597    2.79831422039676   -0.67762393822608
C        59.27958820425690    3.06850323843958   -1.70104954350251
C        60.18695705857148    2.09012452426665   -1.60873248127546
C        59.78954520691750    1.18830729993634   -0.51994156033118
N        58.66053562175115    1.61946688567564   -0.01312757232082
C        60.44929710672304    0.00504248470185   -0.00287760446548
C        59.80751650750921   -1.09241835019440    0.47392621603767
C        60.21304743520866   -2.01036725446078    1.53394815176898
C        59.25729476209489   -2.94019727729906    1.62805888801579
C        58.24229904695042   -2.63709694127524    0.63783584074138
N        58.57363739627408   -1.54353495177061   -0.00903955199432
C        57.01907581051817   -3.34499013563060    0.30780184095893
C        55.87497217614577   -2.72852217991391   -0.05464853407054
N        55.51833467831301   -1.44293840516154    0.34198766735831
H        54.81055434686400   -4.21130842198887   -1.39582580418659
H        52.94249224752249   -2.43795246261113   -1.58726569444812
H        53.03268939116951    2.46409467782289    1.51334604843649
H        55.00088709409759    4.34618892514997    1.30334289851807
H        57.25256487258137    4.56961464231846   -0.41155547793946
H        59.30174104705918    3.86617816848628   -2.43182724232009
H        61.06159821535123    1.98258858509905   -2.24075610885595
H        61.11152071664848   -1.93347638764693    2.14583732923145
H        59.27412878558278   -3.74423570826734    2.33691538302954
H        57.04304301179349   -4.43535360411016    0.35647223687119
Ni       70.42970489691909    0.03918790363895    0.00112497740153
C        68.15743189479150   -3.23992152617031   -0.90249788765011
C        67.19469847329528   -2.32349111557645   -1.00285809034344
C        67.61789509659727   -1.17621118510752   -0.20891734838444
C        66.97318051026534    0.00679641995477    0.00494445725881
C        67.66974025037220    1.26608865267106    0.22783812476057
C        67.29937127258000    2.36726047716164    0.94587229378088
C        68.30933370462664    3.36330448595052    0.85237715299509
C        69.29414008884848    2.84567150863813    0.06631870334360
N        68.93112043365051    1.53311262914932   -0.33203859971542
C        70.51677984524933    3.47786541952518   -0.34602047152980
C        71.63953123679242    2.79814366813549   -0.67760983388320
C        72.62976110698304    3.06852001630759   -1.70108270747623
C        73.53713120606329    2.09017828867527   -1.60874999372544
C        73.13936813395539    1.18832188095670   -0.52004610603446
N        72.01053637841632    1.61927665388958   -0.01341436288508
C        73.79932411068241    0.00488210997202   -0.00283400974905
C        73.15762778680696   -1.09238587284746    0.47374706147761
C        73.56322739633148   -2.01047413279626    1.53404938147521
C        72.60766603426566   -2.94025073534405    1.62801833650731
C        71.59242834919618   -2.63660866436859    0.63790733997431
N        71.92355098658913   -1.54330000662671   -0.00876047890494
C        70.36904136025878   -3.34485460232316    0.30770361774342
C        69.22556371986985   -2.72812363086575   -0.05453557373656
N        68.86949260463645   -1.44272520289990    0.34167190732857
H        68.16061634768172   -4.21127146832515   -1.39581642888886
H        66.29262578552364   -2.43804606769646   -1.58735331499938
H        66.38285001536651    2.46414165795943    1.51340507672149
H        68.35097180785299    4.34619233718866    1.30323137467410
H        70.60270868740156    4.56955235458526   -0.41150946027232
H        72.65190161249345    3.86619201331422   -2.43181829280503
H        74.41174876376242    1.98259775794328   -2.24073336061666
H        74.46168733426592   -1.93350539483101    2.14584812181486
H        72.62427607820135   -3.74421289232079    2.33692001721632
H        70.39318743764967   -4.43525870937688    0.35635712657070
Ni       83.77978515769125    0.03916895811958    0.00111803742791
C        81.50755283510929   -3.23990611601000   -0.90252040391192
C        80.54482561224800   -2.32354127910096   -1.00283090287607
C        80.96803405356782   -1.17615976648703   -0.20890478313700
C        80.32336709894111    0.00677180676150    0.00492588413761
C        81.01987045094906    1.26610217472084    0.22787187170974
C        80.64951340726236    2.36725090150814    0.94587322649946
C        81.65948702097110    3.36329071887221    0.85238043734467