271
 energy: -503.518976832209 gnorm: 0.000739964392 xtb: 6.4.1 (bd6e46d)
Ni       43.48689638894466    0.00765591156549   -0.01040536028722
C        45.99035058498168   -3.40171755820352    0.05030444928833
C        46.94052188340819   -2.43976986806741    0.04413375558112
C        46.24904712512326   -1.18603218804077    0.01918606062887
C        46.91310454954779    0.04403780856890    0.00272342814606
C        46.22337775256799    1.25983188384452   -0.00862627222456
C        46.88827504969628    2.52808943388206   -0.01313753967911
C        45.91797820232318    3.46973554970449   -0.00657115140359
C        44.66845141677881    2.76966792435531   -0.00097499544885
N        44.87077672352971    1.41517622108483   -0.00401925986269
C        43.44693961263734    3.41055677598604    0.00664705216519
C        42.24075086298863    2.74115081652457   -0.00156339696289
C        40.97196746431436    3.41084137794337   -0.00489544061338
C        40.02712959897053    2.44617146352545   -0.02918972063588
C        40.72284949534367    1.19113430786920   -0.03796299151683
N        42.07437940850389    1.38543649437350   -0.01907653762035
C        40.07779794599913   -0.02852483262283   -0.06298542284707
C        40.74886985489568   -1.23430863368239   -0.05895622798280
C        40.08028179941547   -2.50394656315733   -0.07460456665387
C        41.04528317271843   -3.44842017371406   -0.04950967562215
C        42.29917973928225   -2.75184416685318   -0.02105232378918
N        42.10401796390962   -1.39989414388095   -0.02917843249203
C        43.51898690281144   -3.39532472527927    0.01111592147474
C        44.72641931140470   -2.72845086988531    0.02671300086702
N        44.90007627369455   -1.37004919075518    0.01075897639877
H        46.11089713428940   -4.46742370963681    0.06731763466590
H        48.00808077437220   -2.54291849250399    0.05540090584743
H        47.95347951675494    2.65380374708040   -0.01839611876554
H        46.01595563410959    4.53789329129610   -0.00623971717796
H        43.43556774920877    4.48974164077830    0.01489178590271
H        40.84924215210375    4.47656973174367    0.00820140019359
H        38.95909583865335    2.54691495581913   -0.03979095249831
H        38.99890312739374   -0.03993762247731   -0.08244172910324
H        39.01487797207994   -2.62737372795360   -0.09984724345945
H        40.94540486923605   -4.51660893349910   -0.05021940432727
H        43.53053398215724   -4.47449719251070    0.02054547950772
Ni      124.04203924961148    0.04127713979648   -0.01063883999430
C       121.54705917721819    3.39658039723386    0.63159766975015
C       120.59447794178077    2.45441088273971    0.44987085233539
C       121.28293020941732    1.22097938346111    0.21450821646948
C       120.61596769165899    0.01252057009685   -0.00618619646774
C       121.30240126427870   -1.18660065735010   -0.21740991309684
C       120.63412008085312   -2.43450379806135   -0.43383681744760
C       121.60195895987218   -3.36468103513071   -0.59584860578908
C       122.85334995778456   -2.67764178292688   -0.47957538312998
N       122.65463763592736   -1.34272939901235   -0.24709296025851
C       124.07316018563552   -3.31084057976659   -0.59796469884606
C       125.28094478791606   -2.65165852649867   -0.49914588703069
C       126.54784342087595   -3.31105234948428   -0.63505303492809
C       127.49509072128070   -2.35958849353072   -0.48905983500529
C       126.80274760968902   -1.12337427703970   -0.26177110967570
N       125.45081490351680   -1.31563882549566   -0.27079259264979
C       127.45108054949722    0.07790135880414   -0.05961413939087
C       126.78336115960450    1.26321437051468    0.17157601642781
C       127.45549858810148    2.51111506781893    0.39564749549656
C       126.49298640163907    3.43787918952157    0.59201922088164
C       125.23703797660806    2.75289582569587    0.48392356760004
N       125.42856521315875    1.42495659340177    0.22735791431871
C       124.01873211756745    3.38542884268295    0.62049897153127
C       122.80942657762556    2.73224076880525    0.50313381273247
N       122.63241601707297    1.39833673120582    0.24830306279884
H       121.42913318466523    4.44356378849177    0.83275057648292
H       119.52712930059711    2.55835379590875    0.47048799669283
H       119.56855664232413   -2.55569034082757   -0.45441582631077
H       121.50118535899502   -4.41680138734321   -0.77872698101513
H       124.08175900503440   -4.37433796537455   -0.78162394895006
H       126.66776118140542   -4.36129080111892   -0.81843165317036
H       128.56274506964203   -2.45818270010616   -0.52571522305932
H       128.52997833578439    0.09008856374613   -0.07842129961732
H       128.52134769719302    2.63324175611258    0.39836572851359
H       126.59578800492322    4.48717868165660    0.79055536692531
H       124.00998372805269    4.44524844662520    0.82430295921112
C        48.31026418134845    0.05762088623685    0.00182971396825
C        49.52773796882830    0.06724112278168   -0.00224727498517
C        50.86962304196629    0.07284345278857   -0.00363865742420
C        52.08723878158913    0.07461586195499   -0.00638576966192
C        61.74042648614004    0.05160585512401   -0.01600651972243
C        62.95806854707379    0.04905982019371   -0.01873646142297
C        64.29923731772243    0.04859327103126   -0.01601094340764
C        65.51688368383587    0.04535156198608   -0.01962967454531
C        75.16560985774855    0.04176074676697   -0.01596795463227
C        76.38315827880665    0.04668780634389   -0.01906547116187
C        77.72406470558953    0.04568937818121   -0.01993595104615
C        78.94160324917854    0.04662629692193   -0.01375594609552
C        88.58832135580711    0.04380024594476   -0.02214033447095
C        89.80586981147901    0.04471715325197   -0.02295060852868
C        91.14676287429330    0.04558692691782   -0.02234103011299
C        92.36431217236908    0.04564367254236   -0.01999489423292
C       102.01265862240741    0.04643575345588   -0.02283002937285
C       103.23028657618843    0.04450400401800   -0.02259895345672
C       104.57142132958502    0.04145366831651   -0.02212002648789
C       105.78903354528714    0.03644241291561   -0.02135707066060
C       115.44163208854692   -0.00520290240250   -0.01870216491805
C       116.65916124926210   -0.00512922113127   -0.01671859383088
C       118.00118018702959   -0.00313149414298   -0.01272668982266
C       119.21859630387632    0.00271081360754   -0.00951122154980
Ni       56.91442465841634    0.06294579438376   -0.01762960612355
C        54.43594718292638   -3.34511704040165    0.36823748317009
C        53.47769100001700   -2.39687504825382    0.26223826679884
C        54.15885502815551   -1.14527256974201    0.12252140741974
C        53.48386546639703    0.07207109439492   -0.00999698102252
C        54.16456079345192    1.28555986029383   -0.14733469065771
C        53.48938576398243    2.54035796730658   -0.28726055211026
C        54.45216538550824    3.48306765445703   -0.40156298781550
C        55.70646346463367    2.79649499400360   -0.32976710047095
N        55.51539583316174    1.44934754032553   -0.17316638207541
C        56.92263043996965    3.44155548354891   -0.41211427383636
C        58.13568296549592    2.78985498919620   -0.34046491254030
C        59.39348714092467    3.46877649568580   -0.42409310078187
C        60.35148457948561    2.52097423248418   -0.31232697182437
C        59.66985163335838    1.27084722282147   -0.16171048242151
N        58.32009514536819    1.44205898277912   -0.18055948780026
C        60.34439796930281    0.05476287753696   -0.01652158264159
C        59.66409387219133   -1.15835624031435    0.12610131542902
C        60.33974702258480   -2.41212009782414    0.27321714681169
C        59.37720740016660   -3.35586208390141    0.38046072098033
C        58.12270044287163   -2.67071676162657    0.29810952397384
N        58.31352776609813   -1.32330461136265    0.14264715243266
C        56.90652127757350   -3.31664742083646    0.36892630745473
C        55.69350949754578   -2.66500304024280    0.29257645611322
N        55.50887275825905   -1.31636547644448    0.14101070689497
H        54.32473836128066   -4.40531821207429    0.48697833410183
H        52.41102203125432   -2.50807405576992    0.27490317446543
H        52.42324650597696    2.65716508554956   -0.29474281668017
H        54.34603729053417    4.54347101271935   -0.52313907497964
H        56.92504295520758    4.51348344528273   -0.53825035114830
H        59.50508762522799    4.52802354910925   -0.55070510932356
H        61.41821658004266    2.63159785910606   -0.32716947225481
H        61.40594195980714   -2.52776193708353    0.28895963200521
H        59.48369684606458   -4.41604014262577    0.50368744954415
H        56.90371843095468   -4.38901579513843    0.49122366872870
Ni       70.34165892576370    0.04323908239718   -0.02162858504653
C        67.86990294615819   -3.36760516224836    0.38796670667607
C        66.91022312862771   -2.42120093382558    0.27816341805213
C        67.58964323711591   -1.17013126790274    0.12593472855482
C        66.91288385026267    0.04446843978787   -0.02111848951613
C        67.59050098530869    1.25846588324600   -0.16960721685256
C        66.91196760880918    2.50987054122718   -0.32324764814944
C        67.87230999116265    3.45521531879025   -0.43594772978526
C        69.12832352611247    2.77354465701520   -0.34968301827614
N        68.94065215788203    1.42649238369638   -0.18733070042875
C        70.34289968749280    3.42254779749500   -0.42170117790226
C        71.55705989520700    2.77410847578009   -0.33956992751966
C        72.81364115375068    3.45620525526060   -0.41406552130315
C        73.77321508258464    2.51012672259782   -0.30084432452546
C        73.09355266316132    1.25801811346015   -0.15830258373584
N        71.74360495308802    1.42633920419145   -0.18191872684727
C        73.76985111369484    0.04234772902483   -0.01863587127516
C        73.09249805478773   -1.17297590233802    0.11842386685558
C        73.77141706742522   -2.42565997672027    0.25960758670990
C        72.81127498018782   -3.37162304500141    0.36864759479959
C        71.55509382453259   -2.68883844324985    0.29344976913385
N        71.74246159526818   -1.34079701177865    0.13893526037556
C        70.34050494893440   -3.33669658491791    0.37344611187906
C        69.12638168459111   -2.68668866122334    0.30248583096625
N        68.93971937343659   -1.33917293143495    0.14286634879487
H        67.76031467320247   -4.42704205162632    0.51471810601304
H        65.84371448988588   -2.53350781971065    0.29487139534053
H        65.84555169934227    2.62296381828850   -0.33975311237944
H        67.76349611232733    4.51443213526794   -0.56518950179505
H        70.34321556627313    4.49436095756916   -0.54867468930800
H        72.92346019514805    4.51611108111010   -0.53668097834495
H        74.83972780733107    2.62317194109236   -0.31036412889311
H        74.83790476746428   -2.53907416774356    0.27058239547590
H        72.92043133631275   -4.43186512952750    0.48887241406764
H        70.34005495623019   -4.40872043550425    0.49861992532028
Ni       83.76497396171457    0.04497844886258   -0.02051087220944
C        81.29355015333985   -3.36619985577374    0.38801685656075
C        80.33411569807065   -2.41938824046939    0.28009281081224
C        81.01395049748641   -1.16829909861129    0.12958832946073
C        80.33735388213157    0.04652310900268   -0.01587883872147
C        81.01414548458662    1.26078962660191   -0.16460701470523
C        80.33501901413914    2.51186471797116   -0.31830592954731
C        81.29500219243835    3.45727538289192   -0.43370590411997
C        82.55126222155735    2.77586523446614   -0.34870466350398
N        82.36416584059205    1.42890708169315   -0.18490976516176
C        83.76573748441996    3.42484206282268   -0.42192685581495
C        84.97975278957747    2.77607126571844   -0.33988255739566
C        86.23636784476565    3.45795521433699   -0.41543240379521
C        87.19585121771473    2.51162268985306   -0.30372020774534
C        86.51609773614425    1.25959328419561   -0.16083285258253
N        85.16615087787019    1.42821146183333   -0.18264240788715
C        87.19257667186956    0.04398741493706   -0.02163909197847
C        86.51570054585638   -1.17131088133331    0.11806918129478
C        87.19493036435965   -2.42356374280943    0.26135372870279
C        86.23499649184618   -3.36949610944421    0.37276391844281
C        84.97869428707021   -2.68716153128024    0.29655128068858
N        85.16573387484044   -1.33932435348714    0.13991147162636
C        83.76421199738508   -3.33540609868152    0.37543381001532
C        82.55019969707669   -2.68550239306330    0.30332990262721
N        82.36384605478905   -1.33770992855336    0.14521766281017
H        81.18366422035025   -4.42580341477524    0.51301157417341
H        79.26757479662891   -2.53134133947289    0.29741747260919
H        79.26855237173197    2.62476903844866   -0.33275241043315
H        81.18570089755590    4.51632202214815   -0.56402531819585
H        83.76617134184816    4.49653864551168   -0.54976428717557
H        86.34621748040084    4.51792724177159   -0.53741870137237
H        88.26237079402165    2.62442871054432   -0.31428731840978
H        88.26142420444145   -2.53683198807274    0.27209073785835
H        86.34434349556709   -4.42944466523245    0.49535978394786
H        83.76377613314929   -4.40744023919067    0.50048775864325
Ni       97.18809191230908    0.04624161067966   -0.02188203883677
C        94.71770004132810   -3.36506067584535    0.39351876976391
C        93.75780516786784   -2.41908493989652    0.28246800291563
C        94.43705161013354   -1.16808515060020    0.12847602946726
C        93.76005748660054    0.04612720861768   -0.02000109116347
C        94.43662917751637    1.26047643841761   -0.16909608943569
C        93.75721080925443    2.51134255998785   -0.32323287921660
C        94.71697118406919    3.45724019818601   -0.43637552808719
C        95.97342547467358    2.77623438072880   -0.35040139107557
N        95.78663038998650    1.42911380410293   -0.18756384920672
C        97.18769694226430    3.42561631727324   -0.42287847046339
C        98.40212209795239    2.77752253129934   -0.34079639466860
C        99.65833535845394    3.46018235028771   -0.41577055404314
C       100.61839992070563    2.51448677699989   -0.30347032252249
C        99.93947427738189    1.26198534925808   -0.16098807175308
N        98.58936443698808    1.42981484475709   -0.18350042329324
C       100.61668392710384    0.04664972482857   -0.02250261873694
C        99.93969167712515   -1.16886860620405    0.11586712889432
C       100.61889089479708   -2.42134814812266    0.25721964307217
C        99.65903965833985   -3.36733978969509    0.36887619817075
C        98.40269430866314   -2.68486294635951    0.29486917451404
N        98.58961800219866   -1.33698537819913    0.13861302558400
C        97.18845057009148   -3.33330100930382    0.37701336531046
C        95.97404236713240   -2.68403501043388    0.30633936507080
N        95.78701167338195   -1.33675767094927    0.14486380907504
H        94.60828365570949   -4.42429318872406    0.52214127991477
H        92.69131316241393   -2.53148017042525    0.30005123070976
H        92.69069965356454    2.62381881787071   -0.33907288150707
H        94.60738046556855    4.51637239743982   -0.56567034730752
H        97.18758316816775    4.49736587858576   -0.55037441272150
H        99.76749885862047    4.52019588518364   -0.53800160624701
H       101.68486154194360    2.62802040224666   -0.31339857896638
H       101.68536677518337   -2.53470845870948    0.26676104259618
H        99.76841485024147   -4.42743613598339    0.49017338239378
H        97.18865972297777   -4.40519355856015    0.50329818041657
Ni      110.61462474167291    0.01531198734344   -0.01982110668661
C       108.12849406551203   -3.38649030327814    0.37801497423702
C       107.17255270707231   -2.43612829206398    0.27052278415770
C       107.85690047839499   -1.18717383657066    0.12248555492646
C       107.18503133409068    0.03057549092134   -0.02070925183941
C       107.86778820769540    1.24232298826158   -0.16311282603643
C       107.19468419421658    2.49734368011544   -0.31127123681917
C       108.15913116714668    3.43920498267757   -0.41780046601914
C       109.41224666340563    2.75171827146863   -0.33377742209964
N       109.21868158315351    1.40463814591680   -0.17881241702917
C       110.62970294680278    3.39564101487235   -0.40077415402431
C       111.84131122118687    2.74184099865949   -0.32072924154392
C       113.10036760529242    3.41986293799710   -0.39031610800212
C       114.05655625845321    2.46979557964530   -0.28255984690959
C       113.37264720416739    1.21913857267589   -0.14749887916157
N       112.02300167803753    1.39264645078857   -0.17092518628045
C       114.04482325715871    0.00004127842227   -0.01841851804336
C       113.36176823846820   -1.21296501702768    0.11022997001594
C       114.03447916772518   -2.46960868292275    0.24579070581506
C       113.06979974165925   -3.41107457195846    0.35426974189672
C       111.81685438105968   -2.72190379995872    0.28331478126340
N       112.01055036563983   -1.37447123192792    0.13264498502422
C       110.59938958996774   -3.36488219028547    0.36287011658003
C       109.38775721423397   -2.71021891635005    0.29465748392743
N       109.20627244865219   -1.36151708313435    0.13908639322019
H       108.01461795969435   -4.44583475084868    0.50180702712955
H       106.10558195496745   -2.54427607297252    0.28679216739620
H       106.12873550605718    2.61501673788869   -0.32806527113962
H       108.05480521734739    4.49955911695331   -0.54133982805404
H       110.63472284135295    4.46810600289072   -0.52212272472446
H       113.21390225735773    4.48007456612162   -0.50664615628427
H       115.12344231428509    2.57910753236132   -0.29170252424691
H       115.10042339174326   -2.58828489736261    0.25562863731877
H       113.17379059165030   -4.47213112882478    0.47195903870833
H       110.59474871396638   -4.43728795969761    0.48477446425892
