      -----------------------------------------------------------      
     |                   =====================                   |     
     |                           x T B                           |     
     |                   =====================                   |     
     |                         S. Grimme                         |     
     |          Mulliken Center for Theoretical Chemistry        |     
     |                    University of Bonn                     |     
      -----------------------------------------------------------      

   * xtb version 6.4.1 (bd6e46d) compiled by 'conda@4901f00b25ba' on 2021-06-10

   xtb is free software: you can redistribute it and/or modify it under
   the terms of the GNU Lesser General Public License as published by
   the Free Software Foundation, either version 3 of the License, or
   (at your option) any later version.
   
   xtb is distributed in the hope that it will be useful,
   but WITHOUT ANY WARRANTY; without even the implied warranty of
   MERCHANTABILITY or FITNESS FOR A PARTICULAR PURPOSE.  See the
   GNU Lesser General Public License for more details.
   
   Cite this work as:
   * C. Bannwarth, E. Caldeweyher, S. Ehlert, A. Hansen, P. Pracht,
     J. Seibert, S. Spicher, S. Grimme, WIREs Comput. Mol. Sci., 2020, 11,
     e01493. DOI: 10.1002/wcms.1493
   
   for GFN2-xTB:
   * C. Bannwarth, S. Ehlert and S. Grimme., J. Chem. Theory Comput., 2019,
     15, 1652-1671. DOI: 10.1021/acs.jctc.8b01176
   for GFN1-xTB:
   * S. Grimme, C. Bannwarth, P. Shushkov, J. Chem. Theory Comput., 2017,
     13, 1989-2009. DOI: 10.1021/acs.jctc.7b00118
   for GFN0-xTB:
   * P. Pracht, E. Caldeweyher, S. Ehlert, S. Grimme, ChemRxiv, 2019, preprint.
     DOI: 10.26434/chemrxiv.8326202.v1
   for GFN-FF:
   * S. Spicher and S. Grimme, Angew. Chem. Int. Ed., 2020, 59, 15665-15673.
     DOI: 10.1002/anie.202004239
   
   for DFT-D4:
   * E. Caldeweyher, C. Bannwarth and S. Grimme, J. Chem. Phys., 2017,
     147, 034112. DOI: 10.1063/1.4993215
   * E. Caldeweyher, S. Ehlert, A. Hansen, H. Neugebauer, S. Spicher,
     C. Bannwarth and S. Grimme, J. Chem. Phys., 2019, 150, 154122.
     DOI: 10.1063/1.5090222
   * E. Caldeweyher, J.-M. Mewes, S. Ehlert and S. Grimme, Phys. Chem. Chem. Phys.
     2020, 22, 8499-8512. DOI: 10.1039/D0CP00502A
   
   for sTDA-xTB:
   * S. Grimme and C. Bannwarth, J. Chem. Phys., 2016, 145, 054103.
     DOI: 10.1063/1.4959605
   
   in the mass-spec context:
   * V. Asgeirsson, C. Bauer and S. Grimme, Chem. Sci., 2017, 8, 4879.
     DOI: 10.1039/c7sc00601b
   * J. Koopman and S. Grimme, ACS Omega 2019, 4, 12, 15120-15133.
     DOI: 10.1021/acsomega.9b02011
   
   for metadynamics refer to:
   * S. Grimme, J. Chem. Theory Comput., 2019, 155, 2847-2862
     DOI: 10.1021/acs.jctc.9b00143
   
   for SPH calculations refer to:
   * S. Spicher and S. Grimme, J. Chem. Theory Comput., 2021, 17, 1701-1714
     DOI: 10.1021/acs.jctc.0c01306
   
   with help from (in alphabetical order)
   P. Atkinson, C. Bannwarth, F. Bohle, G. Brandenburg, E. Caldeweyher
   M. Checinski, S. Dohm, S. Ehlert, S. Ehrlich, I. Gerasimov, J. Koopman
   C. Lavigne, S. Lehtola, F. März, M. Müller, F. Musil, H. Neugebauer
   J. Pisarek, C. Plett, P. Pracht, J. Seibert, P. Shushkov, S. Spicher
   M. Stahn, M. Steiner, T. Strunk, J. Stückrath, T. Rose, and J. Unsleber
   
 * started run on 2021/11/21 at 19:21:38.530     

           -------------------------------------------------
          |                Calculation Setup                |
           -------------------------------------------------

          program call               : /home/jeff/miniconda3/bin/xtb /home/jeff/chem/final-year-proejct/free_base/_2_8_outenergy/input_structure.xyz --gfn 2 --parallel 1 --etemp 300 --chrg 0 --uhf 0 -I det_control.in
          coordinate file            : /home/jeff/chem/final-year-proejct/free_base/_2_8_outenergy/input_structure.xyz
          omp threads                :                     1
          number of atoms            :                   304
          number of electrons        :                   954
          charge                     :                     0
          spin                       :                   0.0
          first test random number   :      0.79271993362247

   ID    Z sym.   atoms
    1    6 C      1-8, 10-14, 16-20, 22, 23, 38-45, 47-51, 53-57, 59, 60,
                  75-96, 98-102, 104-108, 110, 111, 125-132, 134-138,
                  140-144, 146, 147, 161-168, 170-174, 176-180, 182, 183,
                  197-204, 206-210, 212-216, 218, 219, 233-240, 242-246,
                  248-252, 254, 255, 269-276, 278-282, 284-288, 290, 291
    2    7 N      9, 15, 21, 24, 46, 52, 58, 61, 97, 103, 109, 112, 133, 139,
                  145, 148, 169, 175, 181, 184, 205, 211, 217, 220, 241, 247,
                  253, 256, 277, 283, 289, 292
    3    1 H      25-37, 62-74, 113-124, 149-160, 185-196, 221-232, 257-268,
                  293-304

           -------------------------------------------------
          |                 G F N 2 - x T B                 |
           -------------------------------------------------

        Reference                      10.1021/acs.jctc.8b01176
      * Hamiltonian:
        H0-scaling (s, p, d)           1.850000    2.230000    2.230000
        zeta-weighting                 0.500000
      * Dispersion:
        s8                             2.700000
        a1                             0.520000
        a2                             5.000000
        s9                             5.000000
      * Repulsion:
        kExp                           1.500000    1.000000
        rExp                           1.000000
      * Coulomb:
        alpha                          2.000000
        third order                    shell-resolved
        anisotropic                    true
        a3                             3.000000
        a5                             4.000000
        cn-shift                       1.200000
        cn-exp                         4.000000
        max-rad                        5.000000


          ...................................................
          :                      SETUP                      :
          :.................................................:
          :  # basis functions                 922          :
          :  # atomic orbitals                 922          :
          :  # shells                          510          :
          :  # electrons                       954          :
          :  max. iterations                   250          :
          :  Hamiltonian                  GFN2-xTB          :
          :  restarted?                      false          :
          :  GBSA solvation                  false          :
          :  PC potential                    false          :
          :  electronic temp.          300.0000000     K    :
          :  accuracy                    1.0000000          :
          :  -> integral cutoff          0.2500000E+02      :
          :  -> integral neglect         0.1000000E-07      :
          :  -> SCF convergence          0.1000000E-05 Eh   :
          :  -> wf. convergence          0.1000000E-03 e    :
          :  Broyden damping             0.4000000          :
          ...................................................

 iter      E             dE          RMSdq      gap      omega  full diag
   1   -524.2427824 -0.524243E+03  0.494E+00    0.46       0.0  T
   2   -525.0448185 -0.802036E+00  0.325E+00    0.76       1.0  T
   3   -524.9454504  0.993681E-01  0.149E+00    0.57       1.0  T
   4   -525.0365713 -0.911209E-01  0.642E-01    0.74       1.0  T
   5   -525.1985076 -0.161936E+00  0.207E-01    0.71       1.0  T
   6   -525.2152690 -0.167615E-01  0.775E-02    0.71       1.0  T
   7   -525.2159287 -0.659679E-03  0.521E-02    0.71       1.0  T
   8   -525.2170636 -0.113484E-02  0.206E-02    0.71       1.0  T
   9   -525.2171814 -0.117841E-03  0.107E-02    0.71       1.0  T
  10   -525.2171883 -0.691908E-05  0.712E-03    0.71       1.0  T
  11   -525.2172177 -0.293883E-04  0.153E-03    0.71       3.8  T
  12   -525.2172185 -0.838151E-06  0.635E-04    0.71       9.0  T
  13   -525.2172186 -0.991400E-07  0.362E-04    0.71      15.8  T

   *** convergence criteria satisfied after 13 iterations ***

         #    Occupation            Energy/Eh            Energy/eV
      -------------------------------------------------------------
         1        2.0000           -0.6847560             -18.6332
       ...           ...                  ...                  ...
       471        2.0000           -0.3665682              -9.9748
       472        2.0000           -0.3631250              -9.8811
       473        2.0000           -0.3592447              -9.7755
       474        2.0000           -0.3547131              -9.6522
       475        2.0000           -0.3503886              -9.5346
       476        2.0000           -0.3461609              -9.4195
       477        2.0000           -0.3433493              -9.3430 (HOMO)
       478        0.0000           -0.3171837              -8.6310 (LUMO)
       479                         -0.3138341              -8.5399
       480                         -0.3092134              -8.4141
       481                         -0.3045537              -8.2873
       482                         -0.2999424              -8.1618
       ...                                ...                  ...
       922                          1.4103427              38.3774
      -------------------------------------------------------------
                  HL-Gap            0.0261656 Eh            0.7120 eV
             Fermi-level           -0.3302561 Eh           -8.9867 eV

 SCC (total)                   0 d,  0 h,  0 min,  4.598 sec
 SCC setup                      ...        0 min,  0.015 sec (  0.333%)
 Dispersion                     ...        0 min,  0.033 sec (  0.721%)
 classical contributions        ...        0 min,  0.003 sec (  0.066%)
 integral evaluation            ...        0 min,  0.227 sec (  4.939%)
 iterations                     ...        0 min,  3.636 sec ( 79.078%)
 molecular gradient             ...        0 min,  0.647 sec ( 14.067%)
 printout                       ...        0 min,  0.037 sec (  0.796%)

         :::::::::::::::::::::::::::::::::::::::::::::::::::::
         ::                     SUMMARY                     ::
         :::::::::::::::::::::::::::::::::::::::::::::::::::::
         :: total energy            -515.736801979254 Eh    ::
         :: gradient norm              0.000476229055 Eh/a0 ::
         :: HOMO-LUMO gap              0.712003351964 eV    ::
         ::.................................................::
         :: SCC energy              -525.217218643089 Eh    ::
         :: -> isotropic ES            0.271987547826 Eh    ::
         :: -> anisotropic ES         -0.024458804971 Eh    ::
         :: -> anisotropic XC          0.333284809538 Eh    ::
         :: -> dispersion             -0.455785072297 Eh    ::
         :: repulsion energy           9.488936350054 Eh    ::
         :: add. restraining           0.000000000000 Eh    ::
         :: total charge               0.000000000002 e     ::
         :::::::::::::::::::::::::::::::::::::::::::::::::::::

           -------------------------------------------------
          |                Property Printout                |
           -------------------------------------------------

    * Orbital Energies and Occupations

         #    Occupation            Energy/Eh            Energy/eV
      -------------------------------------------------------------
         1        2.0000           -0.6847560             -18.6332
       ...           ...                  ...                  ...
       465        2.0000           -0.3697914             -10.0625
       466        2.0000           -0.3695939             -10.0572
       467        2.0000           -0.3695790             -10.0568
       468        2.0000           -0.3688661             -10.0374
       469        2.0000           -0.3685737             -10.0294
       470        2.0000           -0.3683221             -10.0226
       471        2.0000           -0.3665682              -9.9748
       472        2.0000           -0.3631250              -9.8811
       473        2.0000           -0.3592447              -9.7755
       474        2.0000           -0.3547131              -9.6522
       475        2.0000           -0.3503886              -9.5346
       476        2.0000           -0.3461609              -9.4195
       477        2.0000           -0.3433493              -9.3430 (HOMO)
       478        0.0000           -0.3171837              -8.6310 (LUMO)
       479                         -0.3138341              -8.5399
       480                         -0.3092134              -8.4141
       481                         -0.3045537              -8.2873
       482                         -0.2999424              -8.1618
       483                         -0.2986835              -8.1276
       484                         -0.2983871              -8.1195
       485                         -0.2983426              -8.1183
       486                         -0.2983270              -8.1179
       487                         -0.2982366              -8.1154
       488                         -0.2980010              -8.1090
       ...                                ...                  ...
       922                          1.4103427              38.3774
      -------------------------------------------------------------
                  HL-Gap            0.0261656 Eh            0.7120 eV
             Fermi-level           -0.3302561 Eh           -8.9867 eV

     #   Z          covCN         q      C6AA      α(0)
     1   6 C        3.016    -0.055    29.343     8.886
     2   6 C        3.010    -0.053    29.308     8.880
     3   6 C        3.193     0.086    25.600     8.250
     4   6 C        2.952     0.013    27.726     8.636
     5   6 C        3.095     0.064    26.460     8.430
     6   6 C        3.027    -0.050    29.201     8.864
     7   6 C        3.033    -0.052    29.253     8.871
     8   6 C        3.073     0.064    26.484     8.438
     9   7 N        2.786    -0.081    22.813     7.094
    10   6 C        2.899    -0.055    29.370     8.886
    11   6 C        3.171     0.087    25.717     8.284
    12   6 C        3.012    -0.054    29.316     8.882
    13   6 C        3.010    -0.054    29.319     8.882
    14   6 C        3.174     0.086    25.706     8.281
    15   7 N        1.870    -0.321    29.175     8.007
    16   6 C        2.899    -0.057    29.413     8.892
    17   6 C        3.074     0.065    26.470     8.435
    18   6 C        3.026    -0.051    29.241     8.870
    19   6 C        3.031    -0.051    29.232     8.868
    20   6 C        3.069     0.066    26.465     8.435
    21   7 N        2.787    -0.081    22.815     7.094
    22   6 C        2.899    -0.055    29.370     8.886
    23   6 C        3.174     0.085    25.731     8.285
    24   7 N        1.870    -0.324    29.260     8.018
    25   1 H        0.926     0.019     2.756     2.596
    26   1 H        0.926     0.019     2.744     2.590
    27   1 H        0.926     0.043     2.406     2.426
    28   1 H        0.926     0.042     2.428     2.437
    29   1 H        0.860     0.214     1.037     1.595
    30   1 H        0.925     0.047     2.358     2.401
    31   1 H        0.926     0.019     2.742     2.590
    32   1 H        0.926     0.019     2.742     2.589
    33   1 H        0.926     0.046     2.370     2.407
    34   1 H        0.926     0.042     2.425     2.435
    35   1 H        0.926     0.042     2.426     2.435
    36   1 H        0.860     0.214     1.036     1.594
    37   1 H        0.925     0.047     2.359     2.402
    38   6 C        3.016    -0.055    29.342     8.886
    39   6 C        3.010    -0.053    29.308     8.881
    40   6 C        3.194     0.086    25.598     8.250
    41   6 C        2.952     0.013    27.726     8.636
    42   6 C        3.095     0.064    26.460     8.430
    43   6 C        3.027    -0.050    29.200     8.864
    44   6 C        3.033    -0.052    29.253     8.871
    45   6 C        3.073     0.064    26.484     8.438
    46   7 N        2.786    -0.081    22.813     7.094
    47   6 C        2.899    -0.055    29.371     8.886
    48   6 C        3.171     0.087    25.717     8.284
    49   6 C        3.012    -0.054    29.316     8.882
    50   6 C        3.010    -0.054    29.319     8.882
    51   6 C        3.174     0.086    25.707     8.281
    52   7 N        1.870    -0.321    29.176     8.007
    53   6 C        2.899    -0.057    29.413     8.892
    54   6 C        3.074     0.065    26.470     8.436
    55   6 C        3.026    -0.051    29.241     8.870
    56   6 C        3.031    -0.051    29.232     8.868
    57   6 C        3.069     0.066    26.464     8.435
    58   7 N        2.787    -0.081    22.815     7.094
    59   6 C        2.899    -0.055    29.370     8.886
    60   6 C        3.174     0.085    25.730     8.284
    61   7 N        1.870    -0.324    29.260     8.018
    62   1 H        0.926     0.019     2.755     2.596
    63   1 H        0.926     0.019     2.742     2.589
    64   1 H        0.926     0.043     2.407     2.426
    65   1 H        0.926     0.042     2.428     2.437
    66   1 H        0.860     0.214     1.037     1.595
    67   1 H        0.925     0.047     2.359     2.402
    68   1 H        0.926     0.019     2.742     2.590
    69   1 H        0.926     0.019     2.742     2.589
    70   1 H        0.926     0.046     2.370     2.407
    71   1 H        0.926     0.042     2.424     2.435
    72   1 H        0.926     0.042     2.426     2.435
    73   1 H        0.860     0.214     1.036     1.594
    74   1 H        0.925     0.047     2.359     2.402
    75   6 C        1.993    -0.030    31.836     9.112
    76   6 C        1.992    -0.031    31.865     9.116
    77   6 C        1.992    -0.030    31.840     9.113
    78   6 C        1.992    -0.030    31.849     9.114
    79   6 C        1.992    -0.030    31.843     9.113
    80   6 C        1.992    -0.030    31.845     9.113
    81   6 C        1.992    -0.030    31.842     9.113
    82   6 C        1.992    -0.030    31.841     9.113
    83   6 C        1.992    -0.030    31.844     9.113
    84   6 C        1.992    -0.030    31.843     9.113
    85   6 C        1.991    -0.030    31.849     9.114
    86   6 C        1.992    -0.030    31.841     9.113
    87   6 C        1.992    -0.031    31.864     9.116
    88   6 C        1.993    -0.030    31.834     9.112
    89   6 C        3.017    -0.055    29.337     8.885
    90   6 C        3.009    -0.053    29.306     8.880
    91   6 C        3.194     0.086    25.601     8.250
    92   6 C        2.952     0.013    27.716     8.635
    93   6 C        3.098     0.063    26.466     8.431
    94   6 C        3.025    -0.050    29.206     8.865
    95   6 C        3.036    -0.052    29.252     8.871
    96   6 C        3.072     0.064    26.490     8.439
    97   7 N        2.786    -0.081    22.820     7.095
    98   6 C        2.899    -0.053    29.319     8.878
    99   6 C        3.173     0.085    25.743     8.287
   100   6 C        3.017    -0.055    29.337     8.885
   101   6 C        3.009    -0.053    29.306     8.880
   102   6 C        3.194     0.086    25.597     8.249
   103   7 N        1.870    -0.323    29.239     8.015
   104   6 C        2.952     0.013    27.727     8.637
   105   6 C        3.098     0.063    26.464     8.431
   106   6 C        3.026    -0.050    29.208     8.865
   107   6 C        3.036    -0.052    29.251     8.871
   108   6 C        3.072     0.064    26.493     8.439
   109   7 N        2.786    -0.081    22.820     7.095
   110   6 C        2.899    -0.053    29.317     8.878
   111   6 C        3.173     0.085    25.743     8.287
   112   7 N        1.870    -0.323    29.237     8.015
   113   1 H        0.926     0.019     2.752     2.594
   114   1 H        0.926     0.019     2.742     2.590
   115   1 H        0.926     0.043     2.409     2.427
   116   1 H        0.926     0.041     2.430     2.438
   117   1 H        0.860     0.215     1.035     1.593
   118   1 H        0.925     0.048     2.349     2.397
   119   1 H        0.926     0.019     2.753     2.594
   120   1 H        0.926     0.019     2.746     2.591
   121   1 H        0.926     0.043     2.412     2.429
   122   1 H        0.926     0.041     2.430     2.438
   123   1 H        0.860     0.215     1.035     1.594
   124   1 H        0.925     0.048     2.349     2.396
   125   6 C        3.017    -0.055    29.337     8.885
   126   6 C        3.009    -0.053    29.307     8.880
   127   6 C        3.194     0.086    25.599     8.250
   128   6 C        2.952     0.013    27.720     8.635
   129   6 C        3.098     0.063    26.465     8.431
   130   6 C        3.025    -0.050    29.206     8.865
   131   6 C        3.036    -0.052    29.252     8.871
   132   6 C        3.072     0.064    26.492     8.439
   133   7 N        2.786    -0.081    22.820     7.095
   134   6 C        2.899    -0.053    29.314     8.877
   135   6 C        3.173     0.085    25.746     8.288
   136   6 C        3.017    -0.055    29.337     8.885
   137   6 C        3.009    -0.053    29.307     8.880
   138   6 C        3.194     0.086    25.601     8.250
   139   7 N        1.871    -0.323    29.233     8.015
   140   6 C        2.952     0.013    27.723     8.636
   141   6 C        3.098     0.063    26.464     8.431
   142   6 C        3.026    -0.050    29.208     8.865
   143   6 C        3.036    -0.052    29.252     8.871
   144   6 C        3.072     0.064    26.493     8.439
   145   7 N        2.786    -0.081    22.820     7.095
   146   6 C        2.899    -0.053    29.313     8.877
   147   6 C        3.173     0.085    25.744     8.288
   148   7 N        1.871    -0.323    29.232     8.014
   149   1 H        0.926     0.019     2.752     2.594
   150   1 H        0.926     0.019     2.743     2.590
   151   1 H        0.926     0.043     2.412     2.429
   152   1 H        0.926     0.041     2.430     2.438
   153   1 H        0.860     0.215     1.034     1.593
   154   1 H        0.925     0.048     2.347     2.396
   155   1 H        0.926     0.019     2.752     2.594
   156   1 H        0.926     0.019     2.746     2.591
   157   1 H        0.926     0.043     2.413     2.429
   158   1 H        0.926     0.041     2.430     2.438
   159   1 H        0.860     0.215     1.034     1.593
   160   1 H        0.925     0.048     2.347     2.396
   161   6 C        3.017    -0.055    29.337     8.885
   162   6 C        3.010    -0.053    29.306     8.880
   163   6 C        3.194     0.086    25.600     8.250
   164   6 C        2.952     0.013    27.721     8.636
   165   6 C        3.098     0.063    26.463     8.431
   166   6 C        3.026    -0.050    29.208     8.865
   167   6 C        3.036    -0.052    29.252     8.871
   168   6 C        3.073     0.064    26.493     8.439
   169   7 N        2.786    -0.081    22.816     7.094
   170   6 C        2.899    -0.053    29.313     8.877
   171   6 C        3.173     0.085    25.742     8.287
   172   6 C        3.017    -0.055    29.336     8.885
   173   6 C        3.009    -0.053    29.306     8.880
   174   6 C        3.195     0.086    25.595     8.249
   175   7 N        1.870    -0.323    29.236     8.015
   176   6 C        2.952     0.013    27.722     8.636
   177   6 C        3.098     0.063    26.463     8.430
   178   6 C        3.025    -0.050    29.209     8.865
   179   6 C        3.036    -0.052    29.250     8.871
   180   6 C        3.072     0.064    26.492     8.439
   181   7 N        2.786    -0.081    22.817     7.094
   182   6 C        2.899    -0.053    29.314     8.877
   183   6 C        3.173     0.085    25.745     8.288
   184   7 N        1.871    -0.323    29.235     8.015
   185   1 H        0.926     0.019     2.752     2.594
   186   1 H        0.926     0.019     2.745     2.591
   187   1 H        0.926     0.043     2.411     2.428
   188   1 H        0.926     0.041     2.429     2.437
   189   1 H        0.860     0.214     1.035     1.594
   190   1 H        0.925     0.048     2.347     2.396
   191   1 H        0.926     0.019     2.751     2.594
   192   1 H        0.926     0.019     2.743     2.590
   193   1 H        0.926     0.043     2.410     2.427
   194   1 H        0.926     0.041     2.429     2.437
   195   1 H        0.860     0.215     1.035     1.593
   196   1 H        0.925     0.048     2.347     2.396
   197   6 C        3.017    -0.055    29.336     8.885
   198   6 C        3.009    -0.053    29.307     8.880
   199   6 C        3.195     0.086    25.594     8.249
   200   6 C        2.952     0.013    27.722     8.636
   201   6 C        3.098     0.063    26.463     8.430
   202   6 C        3.026    -0.050    29.208     8.865
   203   6 C        3.036    -0.052    29.250     8.871
   204   6 C        3.073     0.064    26.492     8.439
   205   7 N        2.786    -0.081    22.816     7.094
   206   6 C        2.899    -0.053    29.314     8.877
   207   6 C        3.173     0.085    25.743     8.287
   208   6 C        3.017    -0.055    29.338     8.885
   209   6 C        3.010    -0.053    29.306     8.880
   210   6 C        3.194     0.086    25.599     8.250
   211   7 N        1.871    -0.323    29.236     8.015
   212   6 C        2.952     0.013    27.721     8.636
   213   6 C        3.098     0.063    26.464     8.431
   214   6 C        3.026    -0.050    29.208     8.865
   215   6 C        3.036    -0.052    29.252     8.871
   216   6 C        3.072     0.064    26.493     8.439
   217   7 N        2.786    -0.081    22.816     7.094
   218   6 C        2.899    -0.053    29.313     8.877
   219   6 C        3.173     0.085    25.742     8.287
   220   7 N        1.870    -0.323    29.235     8.015
   221   1 H        0.926     0.019     2.751     2.594
   222   1 H        0.926     0.019     2.742     2.589
   223   1 H        0.926     0.043     2.410     2.428
   224   1 H        0.926     0.041     2.429     2.437
   225   1 H        0.860     0.215     1.035     1.593
   226   1 H        0.925     0.048     2.347     2.396
   227   1 H        0.926     0.019     2.752     2.594
   228   1 H        0.926     0.019     2.746     2.591
   229   1 H        0.926     0.043     2.411     2.428
   230   1 H        0.926     0.041     2.429     2.437
   231   1 H        0.860     0.214     1.035     1.594
   232   1 H        0.925     0.048     2.347     2.396
   233   6 C        3.017    -0.055    29.337     8.885
   234   6 C        3.010    -0.053    29.306     8.880
   235   6 C        3.194     0.086    25.600     8.250
   236   6 C        2.952     0.013    27.723     8.636
   237   6 C        3.098     0.063    26.464     8.431
   238   6 C        3.026    -0.050    29.209     8.865
   239   6 C        3.036    -0.052    29.252     8.871
   240   6 C        3.072     0.064    26.493     8.439
   241   7 N        2.786    -0.081    22.819     7.095
   242   6 C        2.899    -0.053    29.312     8.877
   243   6 C        3.173     0.085    25.745     8.288
   244   6 C        3.017    -0.055    29.338     8.885
   245   6 C        3.010    -0.053    29.306     8.880
   246   6 C        3.194     0.086    25.601     8.250
   247   7 N        1.871    -0.323    29.231     8.014
   248   6 C        2.952     0.013    27.719     8.635
   249   6 C        3.098     0.063    26.465     8.431
   250   6 C        3.026    -0.050    29.206     8.865
   251   6 C        3.036    -0.052    29.253     8.871
   252   6 C        3.072     0.064    26.493     8.439
   253   7 N        2.786    -0.081    22.819     7.095
   254   6 C        2.899    -0.053    29.312     8.877
   255   6 C        3.173     0.085    25.746     8.288
   256   7 N        1.871    -0.323    29.232     8.014
   257   1 H        0.926     0.019     2.752     2.594
   258   1 H        0.926     0.019     2.747     2.592
   259   1 H        0.926     0.043     2.412     2.429
   260   1 H        0.926     0.041     2.430     2.438
   261   1 H        0.860     0.215     1.034     1.593
   262   1 H        0.925     0.048     2.347     2.396
   263   1 H        0.926     0.019     2.752     2.594
   264   1 H        0.926     0.019     2.745     2.591
   265   1 H        0.926     0.043     2.413     2.429
   266   1 H        0.926     0.041     2.430     2.438
   267   1 H        0.860     0.215     1.034     1.593
   268   1 H        0.925     0.048     2.347     2.396
   269   6 C        3.017    -0.055    29.338     8.885
   270   6 C        3.010    -0.053    29.306     8.880
   271   6 C        3.194     0.086    25.600     8.250
   272   6 C        2.952     0.013    27.726     8.636
   273   6 C        3.097     0.063    26.464     8.431
   274   6 C        3.026    -0.050    29.208     8.865
   275   6 C        3.036    -0.052    29.252     8.871
   276   6 C        3.072     0.064    26.494     8.440
   277   7 N        2.786    -0.081    22.820     7.095
   278   6 C        2.899    -0.053    29.317     8.878
   279   6 C        3.173     0.085    25.742     8.287
   280   6 C        3.017    -0.055    29.336     8.885
   281   6 C        3.009    -0.053    29.307     8.880
   282   6 C        3.195     0.086    25.599     8.249
   283   7 N        1.870    -0.323    29.235     8.015
   284   6 C        2.952     0.013    27.716     8.635
   285   6 C        3.098     0.063    26.466     8.431
   286   6 C        3.025    -0.050    29.205     8.865
   287   6 C        3.036    -0.052    29.252     8.871
   288   6 C        3.072     0.064    26.490     8.439
   289   7 N        2.786    -0.081    22.821     7.095
   290   6 C        2.899    -0.053    29.319     8.878
   291   6 C        3.173     0.085    25.744     8.288
   292   7 N        1.871    -0.323    29.239     8.015
   293   1 H        0.926     0.019     2.753     2.595
   294   1 H        0.926     0.019     2.747     2.592
   295   1 H        0.926     0.043     2.413     2.429
   296   1 H        0.926     0.041     2.430     2.438
   297   1 H        0.860     0.215     1.035     1.594
   298   1 H        0.925     0.048     2.348     2.396
   299   1 H        0.926     0.019     2.752     2.594
   300   1 H        0.926     0.020     2.740     2.588
   301   1 H        0.926     0.043     2.409     2.427
   302   1 H        0.926     0.041     2.431     2.438
   303   1 H        0.860     0.215     1.034     1.593
   304   1 H        0.925     0.048     2.349     2.397

 Mol. C6AA /au·bohr⁶  :    1518246.242808
 Mol. C8AA /au·bohr⁸  :   38904024.417513
 Mol. α(0) /au        :       1982.139380


Wiberg/Mayer (AO) data.
largest (>0.10) Wiberg bond orders for each atom

 ---------------------------------------------------------------------------
     #   Z sym  total        # sym  WBO       # sym  WBO       # sym  WBO
 ---------------------------------------------------------------------------
     1   6 C    3.960 --     2 C    1.716    23 C    1.115    25 H    0.973
     2   6 C    3.961 --     1 C    1.716     3 C    1.121    26 H    0.970
     3   6 C    3.922 --    24 N    1.360     4 C    1.250     2 C    1.121
     4   6 C    3.940 --     5 C    1.254     3 C    1.250    75 C    1.177
     5   6 C    3.907 --     4 C    1.254     6 C    1.236     9 N    1.225
     6   6 C    3.956 --     7 C    1.593     5 C    1.236    27 H    0.970
     7   6 C    3.949 --     6 C    1.593     8 C    1.223    28 H    0.973
     8   6 C    3.918 --    10 C    1.344     7 C    1.223     9 N    1.203
     9   7 N    3.590 --     5 C    1.225     8 C    1.203    29 H    0.900
    10   6 C    3.921 --    11 C    1.357     8 C    1.344    30 H    0.964
    11   6 C    3.939 --    10 C    1.357    15 N    1.324    12 C    1.107
    12   6 C    3.963 --    13 C    1.731    11 C    1.107    31 H    0.973
    13   6 C    3.962 --    12 C    1.731    14 C    1.109    32 H    0.973
    14   6 C    3.938 --    16 C    1.354    15 N    1.325    13 C    1.109
    15   7 N    3.002 --    14 C    1.325    11 C    1.324
    16   6 C    3.923 --    14 C    1.354    17 C    1.347    33 H    0.965
    17   6 C    3.921 --    16 C    1.347    18 C    1.216    21 N    1.210
    18   6 C    3.949 --    19 C    1.608    17 C    1.216    34 H    0.973
    19   6 C    3.953 --    18 C    1.608    20 C    1.215    35 H    0.973
    20   6 C    3.916 --    22 C    1.343    19 C    1.215    21 N    1.211
    21   7 N    3.586 --    20 C    1.211    17 C    1.210    36 H    0.900
    22   6 C    3.937 --    23 C    1.365    20 C    1.343    37 H    0.964
    23   6 C    3.925 --    22 C    1.365    24 N    1.301     1 C    1.115
    24   7 N    3.009 --     3 C    1.360    23 C    1.301
    25   1 H    0.999 --     1 C    0.973
    26   1 H    0.999 --     2 C    0.970
    27   1 H    0.998 --     6 C    0.970
    28   1 H    0.998 --     7 C    0.973
    29   1 H    0.954 --     9 N    0.900
    30   1 H    0.997 --    10 C    0.964
    31   1 H    0.999 --    12 C    0.973
    32   1 H    0.999 --    13 C    0.973
    33   1 H    0.997 --    16 C    0.965
    34   1 H    0.998 --    18 C    0.973
    35   1 H    0.998 --    19 C    0.973
    36   1 H    0.954 --    21 N    0.900
    37   1 H    0.997 --    22 C    0.964
    38   6 C    3.960 --    39 C    1.717    60 C    1.115    62 H    0.973
    39   6 C    3.961 --    38 C    1.717    40 C    1.121    63 H    0.970
    40   6 C    3.922 --    61 N    1.359    41 C    1.250    39 C    1.121
    41   6 C    3.940 --    42 C    1.254    40 C    1.250    88 C    1.175
    42   6 C    3.908 --    41 C    1.254    43 C    1.236    46 N    1.225
    43   6 C    3.956 --    44 C    1.594    42 C    1.236    64 H    0.970
    44   6 C    3.949 --    43 C    1.594    45 C    1.223    65 H    0.973
    45   6 C    3.918 --    47 C    1.344    44 C    1.223    46 N    1.203
    46   7 N    3.590 --    42 C    1.225    45 C    1.203    66 H    0.900
    47   6 C    3.922 --    48 C    1.357    45 C    1.344    67 H    0.964
    48   6 C    3.939 --    47 C    1.357    52 N    1.324    49 C    1.107
    49   6 C    3.963 --    50 C    1.731    48 C    1.107    68 H    0.973
    50   6 C    3.962 --    49 C    1.731    51 C    1.109    69 H    0.973
    51   6 C    3.938 --    53 C    1.354    52 N    1.325    50 C    1.109
    52   7 N    3.002 --    51 C    1.325    48 C    1.324
    53   6 C    3.923 --    51 C    1.354    54 C    1.347    70 H    0.965
    54   6 C    3.921 --    53 C    1.347    55 C    1.215    58 N    1.210
    55   6 C    3.949 --    56 C    1.608    54 C    1.215    71 H    0.973
    56   6 C    3.953 --    55 C    1.608    57 C    1.215    72 H    0.973
    57   6 C    3.916 --    59 C    1.343    56 C    1.215    58 N    1.211
    58   7 N    3.586 --    57 C    1.211    54 C    1.210    73 H    0.900
    59   6 C    3.937 --    60 C    1.365    57 C    1.343    74 H    0.964
    60   6 C    3.925 --    59 C    1.365    61 N    1.301    38 C    1.115
    61   7 N    3.009 --    40 C    1.359    60 C    1.301
    62   1 H    0.999 --    38 C    0.973
    63   1 H    0.999 --    39 C    0.970
    64   1 H    0.998 --    43 C    0.970
    65   1 H    0.998 --    44 C    0.973
    66   1 H    0.954 --    46 N    0.900
    67   1 H    0.997 --    47 C    0.964
    68   1 H    0.999 --    49 C    0.973
    69   1 H    0.999 --    50 C    0.973
    70   1 H    0.997 --    53 C    0.965
    71   1 H    0.998 --    55 C    0.973
    72   1 H    0.998 --    56 C    0.973
    73   1 H    0.954 --    58 N    0.900
    74   1 H    0.997 --    59 C    0.964
    75   6 C    3.920 --    76 C    2.566     4 C    1.177
    76   6 C    3.924 --    75 C    2.566    92 C    1.179
    77   6 C    3.920 --    78 C    2.559   104 C    1.184
    78   6 C    3.921 --    77 C    2.559   128 C    1.184
    79   6 C    3.920 --    80 C    2.559   140 C    1.185
    80   6 C    3.920 --    79 C    2.559   164 C    1.185
    81   6 C    3.920 --    82 C    2.560   176 C    1.182
    82   6 C    3.920 --    81 C    2.560   200 C    1.182
    83   6 C    3.920 --    84 C    2.558   212 C    1.186
    84   6 C    3.920 --    83 C    2.558   236 C    1.186
    85   6 C    3.921 --    86 C    2.558   248 C    1.186
    86   6 C    3.920 --    85 C    2.558   272 C    1.186
    87   6 C    3.923 --    88 C    2.567   284 C    1.178
    88   6 C    3.919 --    87 C    2.567    41 C    1.175
    89   6 C    3.961 --    90 C    1.716   111 C    1.115   113 H    0.973
    90   6 C    3.961 --    89 C    1.716    91 C    1.123   114 H    0.970
    91   6 C    3.923 --   112 N    1.360    92 C    1.248    90 C    1.123
    92   6 C    3.926 --    93 C    1.250    91 C    1.248    76 C    1.179
    93   6 C    3.909 --    92 C    1.250    94 C    1.240    97 N    1.225
    94   6 C    3.953 --    95 C    1.589    93 C    1.240   115 H    0.970
    95   6 C    3.949 --    94 C    1.589    96 C    1.227   116 H    0.973
    96   6 C    3.914 --    98 C    1.336    95 C    1.227    97 N    1.204
    97   7 N    3.586 --    93 C    1.225    96 C    1.204   117 H    0.897
    98   6 C    3.923 --    99 C    1.371    96 C    1.336   118 H    0.963
    99   6 C    3.927 --    98 C    1.371   103 N    1.296   100 C    1.115
   100   6 C    3.961 --   101 C    1.716    99 C    1.115   119 H    0.973
   101   6 C    3.961 --   100 C    1.716   102 C    1.123   120 H    0.969
   102   6 C    3.922 --   103 N    1.362   104 C    1.246   101 C    1.123
   103   7 N    3.001 --   102 C    1.362    99 C    1.296
   104   6 C    3.927 --   105 C    1.248   102 C    1.246    77 C    1.184
   105   6 C    3.908 --   104 C    1.248   106 C    1.240   109 N    1.226
   106   6 C    3.953 --   107 C    1.588   105 C    1.240   121 H    0.970
   107   6 C    3.949 --   106 C    1.588   108 C    1.227   122 H    0.973
   108   6 C    3.915 --   110 C    1.337   107 C    1.227   109 N    1.203
   109   7 N    3.586 --   105 C    1.226   108 C    1.203   123 H    0.898
   110   6 C    3.922 --   111 C    1.370   108 C    1.337   124 H    0.963
   111   6 C    3.928 --   110 C    1.370   112 N    1.298    89 C    1.115
   112   7 N    3.000 --    91 C    1.360   111 C    1.298
   113   1 H    0.999 --    89 C    0.973
   114   1 H    0.999 --    90 C    0.970
   115   1 H    0.998 --    94 C    0.970
   116   1 H    0.998 --    95 C    0.973
   117   1 H    0.954 --    97 N    0.897
   118   1 H    0.997 --    98 C    0.963
   119   1 H    0.999 --   100 C    0.973
   120   1 H    0.999 --   101 C    0.969
   121   1 H    0.998 --   106 C    0.970
   122   1 H    0.998 --   107 C    0.973
   123   1 H    0.954 --   109 N    0.898
   124   1 H    0.997 --   110 C    0.963
   125   6 C    3.961 --   126 C    1.715   147 C    1.115   149 H    0.973
   126   6 C    3.961 --   125 C    1.715   127 C    1.123   150 H    0.969
   127   6 C    3.922 --   148 N    1.362   128 C    1.245   126 C    1.123
   128   6 C    3.925 --   129 C    1.248   127 C    1.245    78 C    1.184
   129   6 C    3.908 --   128 C    1.248   130 C    1.240   133 N    1.226
   130   6 C    3.952 --   131 C    1.588   129 C    1.240   151 H    0.970
   131   6 C    3.949 --   130 C    1.588   132 C    1.227   152 H    0.973
   132   6 C    3.914 --   134 C    1.336   131 C    1.227   133 N    1.204
   133   7 N    3.585 --   129 C    1.226   132 C    1.204   153 H    0.897
   134   6 C    3.922 --   135 C    1.371   132 C    1.336   154 H    0.963
   135   6 C    3.927 --   134 C    1.371   139 N    1.296   136 C    1.115
   136   6 C    3.961 --   137 C    1.715   135 C    1.115   155 H    0.973
   137   6 C    3.961 --   136 C    1.715   138 C    1.124   156 H    0.969
   138   6 C    3.922 --   139 N    1.362   140 C    1.245   137 C    1.124
   139   7 N    3.000 --   138 C    1.362   135 C    1.296
   140   6 C    3.926 --   141 C    1.248   138 C    1.245    79 C    1.185
   141   6 C    3.908 --   140 C    1.248   142 C    1.241   145 N    1.226
   142   6 C    3.952 --   143 C    1.588   141 C    1.241   157 H    0.970
   143   6 C    3.949 --   142 C    1.588   144 C    1.227   158 H    0.973
   144   6 C    3.914 --   146 C    1.336   143 C    1.227   145 N    1.204
   145   7 N    3.585 --   141 C    1.226   144 C    1.204   159 H    0.897
   146   6 C    3.922 --   147 C    1.371   144 C    1.336   160 H    0.963
   147   6 C    3.927 --   146 C    1.371   148 N    1.296   125 C    1.115
   148   7 N    3.000 --   127 C    1.362   147 C    1.296
   149   1 H    0.999 --   125 C    0.973
   150   1 H    0.999 --   126 C    0.969
   151   1 H    0.998 --   130 C    0.970
   152   1 H    0.998 --   131 C    0.973
   153   1 H    0.954 --   133 N    0.897
   154   1 H    0.997 --   134 C    0.963
   155   1 H    0.999 --   136 C    0.973
   156   1 H    0.999 --   137 C    0.969
   157   1 H    0.998 --   142 C    0.970
   158   1 H    0.998 --   143 C    0.973
   159   1 H    0.954 --   145 N    0.897
   160   1 H    0.997 --   146 C    0.963
   161   6 C    3.960 --   162 C    1.715   183 C    1.115   185 H    0.973
   162   6 C    3.961 --   161 C    1.715   163 C    1.123   186 H    0.969
   163   6 C    3.922 --   184 N    1.362   164 C    1.245   162 C    1.123
   164   6 C    3.926 --   165 C    1.248   163 C    1.245    80 C    1.185
   165   6 C    3.908 --   164 C    1.248   166 C    1.240   169 N    1.226
   166   6 C    3.952 --   167 C    1.588   165 C    1.240   187 H    0.969
   167   6 C    3.949 --   166 C    1.588   168 C    1.227   188 H    0.973
   168   6 C    3.914 --   170 C    1.336   167 C    1.227   169 N    1.204
   169   7 N    3.586 --   165 C    1.226   168 C    1.204   189 H    0.897
   170   6 C    3.922 --   171 C    1.371   168 C    1.336   190 H    0.963
   171   6 C    3.927 --   170 C    1.371   175 N    1.296   172 C    1.115
   172   6 C    3.961 --   173 C    1.716   171 C    1.115   191 H    0.973
   173   6 C    3.961 --   172 C    1.716   174 C    1.123   192 H    0.970
   174   6 C    3.922 --   175 N    1.361   176 C    1.246   173 C    1.123
   175   7 N    3.000 --   174 C    1.361   171 C    1.296
   176   6 C    3.925 --   177 C    1.249   174 C    1.246    81 C    1.182
   177   6 C    3.908 --   176 C    1.249   178 C    1.240   181 N    1.226
   178   6 C    3.952 --   179 C    1.588   177 C    1.240   193 H    0.970
   179   6 C    3.949 --   178 C    1.588   180 C    1.227   194 H    0.973
   180   6 C    3.914 --   182 C    1.336   179 C    1.227   181 N    1.204
   181   7 N    3.585 --   177 C    1.226   180 C    1.204   195 H    0.897
   182   6 C    3.922 --   183 C    1.371   180 C    1.336   196 H    0.963
   183   6 C    3.927 --   182 C    1.371   184 N    1.296   161 C    1.115
   184   7 N    3.000 --   163 C    1.362   183 C    1.296
   185   1 H    0.999 --   161 C    0.973
   186   1 H    0.999 --   162 C    0.969
   187   1 H    0.998 --   166 C    0.969
   188   1 H    0.998 --   167 C    0.973
   189   1 H    0.954 --   169 N    0.897
   190   1 H    0.997 --   170 C    0.963
   191   1 H    0.999 --   172 C    0.973
   192   1 H    0.999 --   173 C    0.970
   193   1 H    0.998 --   178 C    0.970
   194   1 H    0.998 --   179 C    0.973
   195   1 H    0.954 --   181 N    0.897
   196   1 H    0.997 --   182 C    0.963
   197   6 C    3.961 --   198 C    1.716   219 C    1.115   221 H    0.973
   198   6 C    3.961 --   197 C    1.716   199 C    1.123   222 H    0.970
   199   6 C    3.922 --   220 N    1.362   200 C    1.246   198 C    1.123
   200   6 C    3.925 --   201 C    1.249   199 C    1.246    82 C    1.182
   201   6 C    3.908 --   200 C    1.249   202 C    1.240   205 N    1.226
   202   6 C    3.952 --   203 C    1.588   201 C    1.240   223 H    0.970
   203   6 C    3.949 --   202 C    1.588   204 C    1.227   224 H    0.973
   204   6 C    3.914 --   206 C    1.336   203 C    1.227   205 N    1.204
   205   7 N    3.585 --   201 C    1.226   204 C    1.204   225 H    0.898
   206   6 C    3.922 --   207 C    1.371   204 C    1.336   226 H    0.963
   207   6 C    3.927 --   206 C    1.371   211 N    1.296   208 C    1.115
   208   6 C    3.961 --   209 C    1.715   207 C    1.115   227 H    0.973
   209   6 C    3.961 --   208 C    1.715   210 C    1.123   228 H    0.969
   210   6 C    3.921 --   211 N    1.363   212 C    1.245   209 C    1.123
   211   7 N    3.000 --   210 C    1.363   207 C    1.296
   212   6 C    3.926 --   213 C    1.247   210 C    1.245    83 C    1.186
   213   6 C    3.907 --   212 C    1.247   214 C    1.241   217 N    1.226
   214   6 C    3.953 --   215 C    1.588   213 C    1.241   229 H    0.969
   215   6 C    3.949 --   214 C    1.588   216 C    1.228   230 H    0.973
   216   6 C    3.914 --   218 C    1.336   215 C    1.228   217 N    1.204
   217   7 N    3.586 --   213 C    1.226   216 C    1.204   231 H    0.898
   218   6 C    3.922 --   219 C    1.371   216 C    1.336   232 H    0.963
   219   6 C    3.927 --   218 C    1.371   220 N    1.296   197 C    1.115
   220   7 N    2.999 --   199 C    1.362   219 C    1.296
   221   1 H    0.999 --   197 C    0.973
   222   1 H    0.999 --   198 C    0.970
   223   1 H    0.998 --   202 C    0.970
   224   1 H    0.998 --   203 C    0.973
   225   1 H    0.954 --   205 N    0.898
   226   1 H    0.997 --   206 C    0.963
   227   1 H    0.999 --   208 C    0.973
   228   1 H    0.999 --   209 C    0.969
   229   1 H    0.998 --   214 C    0.969
   230   1 H    0.998 --   215 C    0.973
   231   1 H    0.954 --   217 N    0.898
   232   1 H    0.997 --   218 C    0.963
   233   6 C    3.961 --   234 C    1.715   255 C    1.115   257 H    0.973
   234   6 C    3.961 --   233 C    1.715   235 C    1.124   258 H    0.969
   235   6 C    3.922 --   256 N    1.363   236 C    1.244   234 C    1.124
   236   6 C    3.925 --   237 C    1.247   235 C    1.244    84 C    1.186
   237   6 C    3.908 --   236 C    1.247   238 C    1.241   241 N    1.226
   238   6 C    3.952 --   239 C    1.588   237 C    1.241   259 H    0.969
   239   6 C    3.949 --   238 C    1.588   240 C    1.227   260 H    0.973
   240   6 C    3.914 --   242 C    1.336   239 C    1.227   241 N    1.204
   241   7 N    3.585 --   237 C    1.226   240 C    1.204   261 H    0.897
   242   6 C    3.922 --   243 C    1.371   240 C    1.336   262 H    0.963
   243   6 C    3.927 --   242 C    1.371   247 N    1.296   244 C    1.115
   244   6 C    3.961 --   245 C    1.715   243 C    1.115   263 H    0.973
   245   6 C    3.961 --   244 C    1.715   246 C    1.124   264 H    0.969
   246   6 C    3.921 --   247 N    1.362   248 C    1.245   245 C    1.124
   247   7 N    3.000 --   246 C    1.362   243 C    1.296
   248   6 C    3.925 --   249 C    1.247   246 C    1.245    85 C    1.186
   249   6 C    3.908 --   248 C    1.247   250 C    1.241   253 N    1.226
   250   6 C    3.952 --   251 C    1.587   249 C    1.241   265 H    0.969
   251   6 C    3.949 --   250 C    1.587   252 C    1.228   266 H    0.973
   252   6 C    3.914 --   254 C    1.335   251 C    1.228   253 N    1.204
   253   7 N    3.585 --   249 C    1.226   252 C    1.204   267 H    0.897
   254   6 C    3.922 --   255 C    1.372   252 C    1.335   268 H    0.963
   255   6 C    3.927 --   254 C    1.372   256 N    1.295   233 C    1.115
   256   7 N    3.000 --   235 C    1.363   255 C    1.295
   257   1 H    0.999 --   233 C    0.973
   258   1 H    0.999 --   234 C    0.969
   259   1 H    0.998 --   238 C    0.969
   260   1 H    0.998 --   239 C    0.973
   261   1 H    0.954 --   241 N    0.897
   262   1 H    0.997 --   242 C    0.963
   263   1 H    0.999 --   244 C    0.973
   264   1 H    0.999 --   245 C    0.969
   265   1 H    0.998 --   250 C    0.969
   266   1 H    0.998 --   251 C    0.973
   267   1 H    0.954 --   253 N    0.897
   268   1 H    0.997 --   254 C    0.963
   269   6 C    3.961 --   270 C    1.715   291 C    1.115   293 H    0.973
   270   6 C    3.961 --   269 C    1.715   271 C    1.123   294 H    0.969
   271   6 C    3.921 --   292 N    1.363   272 C    1.245   270 C    1.123
   272   6 C    3.927 --   273 C    1.248   271 C    1.245    86 C    1.186
   273   6 C    3.907 --   272 C    1.248   274 C    1.240   277 N    1.226
   274   6 C    3.953 --   275 C    1.588   273 C    1.240   295 H    0.969
   275   6 C    3.949 --   274 C    1.588   276 C    1.227   296 H    0.973
   276   6 C    3.915 --   278 C    1.337   275 C    1.227   277 N    1.203
   277   7 N    3.586 --   273 C    1.226   276 C    1.203   297 H    0.897
   278   6 C    3.922 --   279 C    1.369   276 C    1.337   298 H    0.963
   279   6 C    3.928 --   278 C    1.369   283 N    1.298   280 C    1.115
   280   6 C    3.961 --   281 C    1.716   279 C    1.115   299 H    0.973
   281   6 C    3.961 --   280 C    1.716   282 C    1.123   300 H    0.970
   282   6 C    3.923 --   283 N    1.360   284 C    1.248   281 C    1.123
   283   7 N    3.000 --   282 C    1.360   279 C    1.298
   284   6 C    3.926 --   285 C    1.251   282 C    1.248    87 C    1.178
   285   6 C    3.909 --   284 C    1.251   286 C    1.240   289 N    1.225
   286   6 C    3.952 --   287 C    1.589   285 C    1.240   301 H    0.970
   287   6 C    3.950 --   286 C    1.589   288 C    1.227   302 H    0.973
   288   6 C    3.914 --   290 C    1.336   287 C    1.227   289 N    1.204
   289   7 N    3.586 --   285 C    1.225   288 C    1.204   303 H    0.897
   290   6 C    3.923 --   291 C    1.371   288 C    1.336   304 H    0.963
   291   6 C    3.927 --   290 C    1.371   292 N    1.296   269 C    1.115
   292   7 N    3.001 --   271 C    1.363   291 C    1.296
   293   1 H    0.999 --   269 C    0.973
   294   1 H    0.999 --   270 C    0.969
   295   1 H    0.998 --   274 C    0.969
   296   1 H    0.998 --   275 C    0.973
   297   1 H    0.954 --   277 N    0.897
   298   1 H    0.997 --   278 C    0.963
   299   1 H    0.999 --   280 C    0.973
   300   1 H    0.999 --   281 C    0.970
   301   1 H    0.998 --   286 C    0.970
   302   1 H    0.998 --   287 C    0.973
   303   1 H    0.954 --   289 N    0.897
   304   1 H    0.997 --   290 C    0.963
 ---------------------------------------------------------------------------

Topologies differ in total number of bonds
Writing topology from bond orders to xtbtopo.mol

molecular dipole:
                 x           y           z       tot (Debye)
 q only:        0.003      -0.004      -0.039
   full:        0.003       0.003       0.021       0.055
molecular quadrupole (traceless):
                xx          xy          yy          xz          yz          zz
 q only:       90.844     -83.293     -17.230      -4.123      -5.105     -73.614
  q+dip:      170.307     -40.158      13.976      10.672     -17.391    -184.283
   full:      123.696     -38.139      -4.885      10.283     -10.026    -118.811


           -------------------------------------------------
          | TOTAL ENERGY             -515.736801979254 Eh   |
          | GRADIENT NORM               0.000476229055 Eh/α |
          | HOMO-LUMO GAP               0.712003351964 eV   |
           -------------------------------------------------

------------------------------------------------------------------------
 * finished run on 2021/11/21 at 19:21:43.313     
------------------------------------------------------------------------
 total:
 * wall-time:     0 d,  0 h,  0 min,  4.783 sec
 *  cpu-time:     0 d,  0 h,  0 min,  4.783 sec
 * ratio c/w:     1.000 speedup
 SCF:
 * wall-time:     0 d,  0 h,  0 min,  4.603 sec
 *  cpu-time:     0 d,  0 h,  0 min,  4.603 sec
 * ratio c/w:     1.000 speedup

