      -----------------------------------------------------------      
     |                   =====================                   |     
     |                           x T B                           |     
     |                   =====================                   |     
     |                         S. Grimme                         |     
     |          Mulliken Center for Theoretical Chemistry        |     
     |                    University of Bonn                     |     
      -----------------------------------------------------------      

   * xtb version 6.4.1 (bd6e46d) compiled by 'conda@4901f00b25ba' on 2021-06-10

   xtb is free software: you can redistribute it and/or modify it under
   the terms of the GNU Lesser General Public License as published by
   the Free Software Foundation, either version 3 of the License, or
   (at your option) any later version.
   
   xtb is distributed in the hope that it will be useful,
   but WITHOUT ANY WARRANTY; without even the implied warranty of
   MERCHANTABILITY or FITNESS FOR A PARTICULAR PURPOSE.  See the
   GNU Lesser General Public License for more details.
   
   Cite this work as:
   * C. Bannwarth, E. Caldeweyher, S. Ehlert, A. Hansen, P. Pracht,
     J. Seibert, S. Spicher, S. Grimme, WIREs Comput. Mol. Sci., 2020, 11,
     e01493. DOI: 10.1002/wcms.1493
   
   for GFN2-xTB:
   * C. Bannwarth, S. Ehlert and S. Grimme., J. Chem. Theory Comput., 2019,
     15, 1652-1671. DOI: 10.1021/acs.jctc.8b01176
   for GFN1-xTB:
   * S. Grimme, C. Bannwarth, P. Shushkov, J. Chem. Theory Comput., 2017,
     13, 1989-2009. DOI: 10.1021/acs.jctc.7b00118
   for GFN0-xTB:
   * P. Pracht, E. Caldeweyher, S. Ehlert, S. Grimme, ChemRxiv, 2019, preprint.
     DOI: 10.26434/chemrxiv.8326202.v1
   for GFN-FF:
   * S. Spicher and S. Grimme, Angew. Chem. Int. Ed., 2020, 59, 15665-15673.
     DOI: 10.1002/anie.202004239
   
   for DFT-D4:
   * E. Caldeweyher, C. Bannwarth and S. Grimme, J. Chem. Phys., 2017,
     147, 034112. DOI: 10.1063/1.4993215
   * E. Caldeweyher, S. Ehlert, A. Hansen, H. Neugebauer, S. Spicher,
     C. Bannwarth and S. Grimme, J. Chem. Phys., 2019, 150, 154122.
     DOI: 10.1063/1.5090222
   * E. Caldeweyher, J.-M. Mewes, S. Ehlert and S. Grimme, Phys. Chem. Chem. Phys.
     2020, 22, 8499-8512. DOI: 10.1039/D0CP00502A
   
   for sTDA-xTB:
   * S. Grimme and C. Bannwarth, J. Chem. Phys., 2016, 145, 054103.
     DOI: 10.1063/1.4959605
   
   in the mass-spec context:
   * V. Asgeirsson, C. Bauer and S. Grimme, Chem. Sci., 2017, 8, 4879.
     DOI: 10.1039/c7sc00601b
   * J. Koopman and S. Grimme, ACS Omega 2019, 4, 12, 15120-15133.
     DOI: 10.1021/acsomega.9b02011
   
   for metadynamics refer to:
   * S. Grimme, J. Chem. Theory Comput., 2019, 155, 2847-2862
     DOI: 10.1021/acs.jctc.9b00143
   
   for SPH calculations refer to:
   * S. Spicher and S. Grimme, J. Chem. Theory Comput., 2021, 17, 1701-1714
     DOI: 10.1021/acs.jctc.0c01306
   
   with help from (in alphabetical order)
   P. Atkinson, C. Bannwarth, F. Bohle, G. Brandenburg, E. Caldeweyher
   M. Checinski, S. Dohm, S. Ehlert, S. Ehrlich, I. Gerasimov, J. Koopman
   C. Lavigne, S. Lehtola, F. März, M. Müller, F. Musil, H. Neugebauer
   J. Pisarek, C. Plett, P. Pracht, J. Seibert, P. Shushkov, S. Spicher
   M. Stahn, M. Steiner, T. Strunk, J. Stückrath, T. Rose, and J. Unsleber
   
 * started run on 2021/11/21 at 19:25:57.093     

           -------------------------------------------------
          |                Calculation Setup                |
           -------------------------------------------------

          program call               : /home/jeff/miniconda3/bin/xtb /home/jeff/chem/final-year-proejct/Zn+2_4_9_outenergy/input_structure.xyz --gfn 2 --parallel 1 --etemp 300 --chrg 0 --uhf 0 -I det_control.in
          coordinate file            : /home/jeff/chem/final-year-proejct/Zn+2_4_9_outenergy/input_structure.xyz
          omp threads                :                     1
          number of atoms            :                   349
          number of electrons        :                  1138
          charge                     :                     0
          spin                       :                   0.0
          first test random number   :      0.87620705535944

   ID    Z sym.   atoms
    1   30 Zn     1, 37, 105, 140, 175, 210, 245, 280, 315
    2    6 C      2-9, 11-15, 17-21, 23, 24, 38-45, 47-51, 53-57, 59, 60,
                  73-104, 106-113, 115-119, 121-125, 127, 128, 141-148,
                  150-154, 156-160, 162, 163, 176-183, 185-189, 191-195, 197,
                  198, 211-218, 220-224, 226-230, 232, 233, 246-253, 255-259,
                  261-265, 267, 268, 281-288, 290-294, 296-300, 302, 303,
                  316-323, 325-329, 331-335, 337, 338
    3    7 N      10, 16, 22, 25, 46, 52, 58, 61, 114, 120, 126, 129, 149,
                  155, 161, 164, 184, 190, 196, 199, 219, 225, 231, 234, 254,
                  260, 266, 269, 289, 295, 301, 304, 324, 330, 336, 339
    4    1 H      26-36, 62-72, 130-139, 165-174, 200-209, 235-244, 270-279,
                  305-314, 340-349

           -------------------------------------------------
          |                 G F N 2 - x T B                 |
           -------------------------------------------------

        Reference                      10.1021/acs.jctc.8b01176
      * Hamiltonian:
        H0-scaling (s, p, d)           1.850000    2.230000    2.230000
        zeta-weighting                 0.500000
      * Dispersion:
        s8                             2.700000
        a1                             0.520000
        a2                             5.000000
        s9                             5.000000
      * Repulsion:
        kExp                           1.500000    1.000000
        rExp                           1.000000
      * Coulomb:
        alpha                          2.000000
        third order                    shell-resolved
        anisotropic                    true
        a3                             3.000000
        a5                             4.000000
        cn-shift                       1.200000
        cn-exp                         4.000000
        max-rad                        5.000000


          ...................................................
          :                      SETUP                      :
          :.................................................:
          :  # basis functions                1120          :
          :  # atomic orbitals                1120          :
          :  # shells                          606          :
          :  # electrons                      1138          :
          :  max. iterations                   250          :
          :  Hamiltonian                  GFN2-xTB          :
          :  restarted?                      false          :
          :  GBSA solvation                  false          :
          :  PC potential                    false          :
          :  electronic temp.          300.0000000     K    :
          :  accuracy                    1.0000000          :
          :  -> integral cutoff          0.2500000E+02      :
          :  -> integral neglect         0.1000000E-07      :
          :  -> SCF convergence          0.1000000E-05 Eh   :
          :  -> wf. convergence          0.1000000E-03 e    :
          :  Broyden damping             0.4000000          :
          ...................................................

 iter      E             dE          RMSdq      gap      omega  full diag
   1   -620.4490365 -0.620449E+03  0.708E+00    0.82       0.0  T
   2   -621.6755517 -0.122652E+01  0.372E+00    0.77       1.0  T
   3   -621.3303460  0.345206E+00  0.249E+00    0.88       1.0  T
   4   -622.6615807 -0.133123E+01  0.399E-01    0.80       1.0  T
   5   -622.6702807 -0.869999E-02  0.269E-01    0.83       1.0  T
   6   -622.6737234 -0.344270E-02  0.164E-01    0.82       1.0  T
   7   -622.6768042 -0.308083E-02  0.925E-02    0.81       1.0  T
   8   -622.6803442 -0.353996E-02  0.330E-02    0.82       1.0  T
   9   -622.6807103 -0.366090E-03  0.144E-02    0.82       1.0  T
  10   -622.6807470 -0.366812E-04  0.644E-03    0.82       1.0  T
  11   -622.6807543 -0.731376E-05  0.242E-03    0.82       2.2  T
  12   -622.6807554 -0.113358E-05  0.110E-03    0.82       4.9  T
  13   -622.6807554 -0.100137E-07  0.650E-04    0.82       8.2  T
  14   -622.6807556 -0.152024E-06  0.193E-04    0.82      27.7  T

   *** convergence criteria satisfied after 14 iterations ***

         #    Occupation            Energy/Eh            Energy/eV
      -------------------------------------------------------------
         1        2.0000           -0.6687773             -18.1984
       ...           ...                  ...                  ...
       563        2.0000           -0.3674848              -9.9998
       564        2.0000           -0.3638658              -9.9013
       565        2.0000           -0.3600865              -9.7985
       566        2.0000           -0.3563593              -9.6970
       567        2.0000           -0.3529103              -9.6032
       568        2.0000           -0.3500557              -9.5255
       569        2.0000           -0.3482921              -9.4775 (HOMO)
       570        0.0000           -0.3182321              -8.6595 (LUMO)
       571                         -0.3159238              -8.5967
       572                         -0.3127888              -8.5114
       573                         -0.3091352              -8.4120
       574                         -0.3052285              -8.3057
       ...                                ...                  ...
      1120                          1.6314513              44.3940
      -------------------------------------------------------------
                  HL-Gap            0.0300601 Eh            0.8180 eV
             Fermi-level           -0.3332314 Eh           -9.0677 eV

 SCC (total)                   0 d,  0 h,  0 min,  7.906 sec
 SCC setup                      ...        0 min,  0.022 sec (  0.274%)
 Dispersion                     ...        0 min,  0.044 sec (  0.555%)
 classical contributions        ...        0 min,  0.003 sec (  0.041%)
 integral evaluation            ...        0 min,  0.313 sec (  3.959%)
 iterations                     ...        0 min,  6.712 sec ( 84.895%)
 molecular gradient             ...        0 min,  0.750 sec (  9.482%)
 printout                       ...        0 min,  0.063 sec (  0.794%)

         :::::::::::::::::::::::::::::::::::::::::::::::::::::
         ::                     SUMMARY                     ::
         :::::::::::::::::::::::::::::::::::::::::::::::::::::
         :: total energy            -611.155166703030 Eh    ::
         :: gradient norm              0.000410921959 Eh/a0 ::
         :: HOMO-LUMO gap              0.817976162735 eV    ::
         ::.................................................::
         :: SCC energy              -622.680755570888 Eh    ::
         :: -> isotropic ES            0.585800908641 Eh    ::
         :: -> anisotropic ES          0.076961147202 Eh    ::
         :: -> anisotropic XC          0.353866731524 Eh    ::
         :: -> dispersion             -0.570564314182 Eh    ::
         :: repulsion energy          11.536172200522 Eh    ::
         :: add. restraining           0.000000000000 Eh    ::
         :: total charge               0.000000000007 e     ::
         :::::::::::::::::::::::::::::::::::::::::::::::::::::

           -------------------------------------------------
          |                Property Printout                |
           -------------------------------------------------

    * Orbital Energies and Occupations

         #    Occupation            Energy/Eh            Energy/eV
      -------------------------------------------------------------
         1        2.0000           -0.6687773             -18.1984
       ...           ...                  ...                  ...
       557        2.0000           -0.3710028             -10.0955
       558        2.0000           -0.3707039             -10.0874
       559        2.0000           -0.3706968             -10.0872
       560        2.0000           -0.3706544             -10.0860
       561        2.0000           -0.3693998             -10.0519
       562        2.0000           -0.3693863             -10.0515
       563        2.0000           -0.3674848              -9.9998
       564        2.0000           -0.3638658              -9.9013
       565        2.0000           -0.3600865              -9.7985
       566        2.0000           -0.3563593              -9.6970
       567        2.0000           -0.3529103              -9.6032
       568        2.0000           -0.3500557              -9.5255
       569        2.0000           -0.3482921              -9.4775 (HOMO)
       570        0.0000           -0.3182321              -8.6595 (LUMO)
       571                         -0.3159238              -8.5967
       572                         -0.3127888              -8.5114
       573                         -0.3091352              -8.4120
       574                         -0.3052285              -8.3057
       575                         -0.3012907              -8.1985
       576                         -0.3003990              -8.1743
       577                         -0.3003655              -8.1734
       578                         -0.3003627              -8.1733
       579                         -0.3002389              -8.1699
       580                         -0.3002354              -8.1698
       ...                                ...                  ...
      1120                          1.6314513              44.3940
      -------------------------------------------------------------
                  HL-Gap            0.0300601 Eh            0.8180 eV
             Fermi-level           -0.3332314 Eh           -9.0677 eV

     #   Z          covCN         q      C6AA      α(0)
     1  30 Zn       3.042     0.245   122.298    21.603
     2   6 C        3.020    -0.052    29.266     8.874
     3   6 C        3.018    -0.050    29.228     8.868
     4   6 C        3.166     0.077    25.943     8.323
     5   6 C        2.953     0.017    27.631     8.622
     6   6 C        3.166     0.077    25.943     8.323
     7   6 C        3.018    -0.050    29.227     8.868
     8   6 C        3.020    -0.052    29.266     8.874
     9   6 C        3.149     0.076    26.051     8.349
    10   7 N        2.632    -0.177    24.836     7.402
    11   6 C        2.901    -0.050    29.234     8.865
    12   6 C        3.145     0.077    26.038     8.348
    13   6 C        3.017    -0.051    29.244     8.871
    14   6 C        3.018    -0.051    29.247     8.871
    15   6 C        3.145     0.077    26.028     8.347
    16   7 N        2.635    -0.175    24.790     7.395
    17   6 C        2.901    -0.051    29.278     8.872
    18   6 C        3.145     0.077    26.028     8.347
    19   6 C        3.018    -0.051    29.247     8.871
    20   6 C        3.017    -0.051    29.244     8.871
    21   6 C        3.145     0.077    26.038     8.348
    22   7 N        2.635    -0.175    24.791     7.395
    23   6 C        2.901    -0.050    29.234     8.865
    24   6 C        3.149     0.076    26.051     8.349
    25   7 N        2.632    -0.177    24.835     7.401
    26   1 H        0.926     0.034     2.534     2.489
    27   1 H        0.926     0.035     2.510     2.478
    28   1 H        0.926     0.035     2.510     2.477
    29   1 H        0.926     0.034     2.534     2.489
    30   1 H        0.926     0.049     2.329     2.387
    31   1 H        0.926     0.034     2.526     2.485
    32   1 H        0.926     0.034     2.527     2.486
    33   1 H        0.926     0.049     2.337     2.391
    34   1 H        0.926     0.034     2.527     2.486
    35   1 H        0.926     0.034     2.526     2.485
    36   1 H        0.926     0.049     2.329     2.387
    37  30 Zn       3.042     0.245   122.298    21.603
    38   6 C        3.020    -0.052    29.266     8.874
    39   6 C        3.018    -0.050    29.228     8.868
    40   6 C        3.166     0.077    25.943     8.323
    41   6 C        2.953     0.017    27.631     8.622
    42   6 C        3.166     0.077    25.943     8.323
    43   6 C        3.018    -0.050    29.227     8.868
    44   6 C        3.020    -0.052    29.266     8.874
    45   6 C        3.149     0.076    26.051     8.349
    46   7 N        2.632    -0.177    24.837     7.402
    47   6 C        2.901    -0.050    29.235     8.865
    48   6 C        3.145     0.077    26.038     8.348
    49   6 C        3.017    -0.051    29.244     8.871
    50   6 C        3.018    -0.051    29.247     8.871
    51   6 C        3.145     0.077    26.028     8.347
    52   7 N        2.635    -0.175    24.791     7.395
    53   6 C        2.901    -0.052    29.278     8.872
    54   6 C        3.145     0.077    26.028     8.347
    55   6 C        3.018    -0.051    29.247     8.871
    56   6 C        3.017    -0.051    29.244     8.871
    57   6 C        3.145     0.077    26.038     8.348
    58   7 N        2.635    -0.175    24.791     7.395
    59   6 C        2.901    -0.050    29.235     8.865
    60   6 C        3.149     0.076    26.051     8.349
    61   7 N        2.632    -0.177    24.836     7.401
    62   1 H        0.926     0.034     2.534     2.489
    63   1 H        0.926     0.035     2.510     2.477
    64   1 H        0.926     0.035     2.509     2.477
    65   1 H        0.926     0.034     2.534     2.489
    66   1 H        0.926     0.049     2.329     2.387
    67   1 H        0.926     0.034     2.526     2.485
    68   1 H        0.926     0.034     2.527     2.486
    69   1 H        0.926     0.049     2.337     2.391
    70   1 H        0.926     0.034     2.527     2.486
    71   1 H        0.926     0.034     2.526     2.485
    72   1 H        0.926     0.049     2.329     2.387
    73   6 C        1.996    -0.020    31.582     9.076
    74   6 C        1.963    -0.010    31.336     9.040
    75   6 C        1.963    -0.009    31.316     9.037
    76   6 C        1.996    -0.021    31.604     9.079
    77   6 C        1.996    -0.020    31.586     9.076
    78   6 C        1.963    -0.010    31.325     9.038
    79   6 C        1.963    -0.009    31.318     9.037
    80   6 C        1.996    -0.021    31.593     9.077
    81   6 C        1.996    -0.021    31.587     9.076
    82   6 C        1.963    -0.009    31.321     9.038
    83   6 C        1.963    -0.009    31.318     9.037
    84   6 C        1.996    -0.021    31.590     9.077
    85   6 C        1.996    -0.021    31.588     9.077
    86   6 C        1.963    -0.009    31.320     9.038
    87   6 C        1.963    -0.009    31.319     9.038
    88   6 C        1.996    -0.021    31.589     9.077
    89   6 C        1.996    -0.021    31.589     9.077
    90   6 C        1.963    -0.009    31.319     9.038
    91   6 C        1.963    -0.009    31.320     9.038
    92   6 C        1.996    -0.021    31.588     9.077
    93   6 C        1.996    -0.021    31.590     9.077
    94   6 C        1.963    -0.009    31.318     9.037
    95   6 C        1.963    -0.009    31.321     9.038
    96   6 C        1.996    -0.021    31.587     9.076
    97   6 C        1.996    -0.021    31.594     9.077
    98   6 C        1.963    -0.009    31.318     9.037
    99   6 C        1.963    -0.010    31.325     9.038
   100   6 C        1.996    -0.020    31.586     9.076
   101   6 C        1.996    -0.021    31.603     9.079
   102   6 C        1.963    -0.009    31.315     9.037
   103   6 C        1.963    -0.010    31.335     9.040
   104   6 C        1.996    -0.020    31.581     9.075
   105  30 Zn       3.038     0.246   122.275    21.601
   106   6 C        3.021    -0.052    29.262     8.873
   107   6 C        3.019    -0.050    29.227     8.868
   108   6 C        3.167     0.077    25.934     8.321
   109   6 C        2.953     0.017    27.620     8.620
   110   6 C        3.167     0.077    25.934     8.321
   111   6 C        3.019    -0.050    29.226     8.868
   112   6 C        3.021    -0.052    29.262     8.873
   113   6 C        3.151     0.075    26.055     8.349
   114   7 N        2.632    -0.177    24.837     7.402
   115   6 C        2.901    -0.048    29.181     8.857
   116   6 C        3.150     0.075    26.057     8.349
   117   6 C        3.021    -0.052    29.261     8.873
   118   6 C        3.019    -0.050    29.229     8.868
   119   6 C        3.167     0.078    25.933     8.321
   120   7 N        2.632    -0.177    24.838     7.402
   121   6 C        2.953     0.017    27.629     8.621
   122   6 C        3.167     0.078    25.933     8.321
   123   6 C        3.019    -0.050    29.229     8.868
   124   6 C        3.020    -0.052    29.261     8.873
   125   6 C        3.151     0.075    26.057     8.349
   126   7 N        2.632    -0.177    24.838     7.402
   127   6 C        2.901    -0.048    29.181     8.857
   128   6 C        3.151     0.075    26.055     8.349
   129   7 N        2.632    -0.177    24.837     7.402
   130   1 H        0.926     0.034     2.532     2.488
   131   1 H        0.926     0.036     2.508     2.477
   132   1 H        0.926     0.036     2.508     2.476
   133   1 H        0.926     0.034     2.532     2.488
   134   1 H        0.925     0.050     2.320     2.382
   135   1 H        0.926     0.034     2.532     2.488
   136   1 H        0.926     0.035     2.510     2.478
   137   1 H        0.926     0.035     2.510     2.478
   138   1 H        0.926     0.034     2.532     2.488
   139   1 H        0.925     0.050     2.320     2.382
   140  30 Zn       3.038     0.246   122.275    21.601
   141   6 C        3.021    -0.052    29.260     8.873
   142   6 C        3.019    -0.050    29.227     8.868
   143   6 C        3.167     0.078    25.933     8.321
   144   6 C        2.953     0.017    27.623     8.620
   145   6 C        3.167     0.078    25.933     8.321
   146   6 C        3.019    -0.050    29.227     8.868
   147   6 C        3.021    -0.052    29.260     8.873
   148   6 C        3.151     0.075    26.056     8.349
   149   7 N        2.632    -0.177    24.835     7.401
   150   6 C        2.901    -0.047    29.178     8.857
   151   6 C        3.150     0.075    26.057     8.349
   152   6 C        3.020    -0.052    29.260     8.873
   153   6 C        3.019    -0.050    29.228     8.868
   154   6 C        3.167     0.078    25.933     8.321
   155   7 N        2.632    -0.177    24.836     7.402
   156   6 C        2.953     0.017    27.626     8.621
   157   6 C        3.167     0.078    25.933     8.321
   158   6 C        3.019    -0.050    29.228     8.868
   159   6 C        3.020    -0.052    29.260     8.873
   160   6 C        3.150     0.075    26.057     8.349
   161   7 N        2.632    -0.177    24.836     7.402
   162   6 C        2.901    -0.047    29.178     8.857
   163   6 C        3.151     0.075    26.056     8.349
   164   7 N        2.632    -0.177    24.836     7.401
   165   1 H        0.926     0.034     2.531     2.488
   166   1 H        0.926     0.036     2.509     2.477
   167   1 H        0.926     0.036     2.509     2.477
   168   1 H        0.926     0.034     2.531     2.488
   169   1 H        0.925     0.050     2.319     2.381
   170   1 H        0.926     0.034     2.531     2.488
   171   1 H        0.926     0.035     2.509     2.477
   172   1 H        0.926     0.035     2.509     2.477
   173   1 H        0.926     0.034     2.531     2.488
   174   1 H        0.925     0.050     2.319     2.381
   175  30 Zn       3.038     0.246   122.275    21.601
   176   6 C        3.021    -0.052    29.260     8.873
   177   6 C        3.019    -0.050    29.227     8.868
   178   6 C        3.167     0.078    25.934     8.321
   179   6 C        2.953     0.017    27.623     8.620
   180   6 C        3.167     0.078    25.934     8.322
   181   6 C        3.019    -0.050    29.227     8.868
   182   6 C        3.020    -0.052    29.260     8.873
   183   6 C        3.150     0.075    26.057     8.349
   184   7 N        2.632    -0.177    24.835     7.401
   185   6 C        2.901    -0.047    29.178     8.857
   186   6 C        3.150     0.075    26.057     8.349
   187   6 C        3.020    -0.052    29.260     8.873
   188   6 C        3.019    -0.050    29.227     8.868
   189   6 C        3.167     0.078    25.934     8.322
   190   7 N        2.632    -0.177    24.836     7.401
   191   6 C        2.953     0.017    27.625     8.621
   192   6 C        3.167     0.078    25.934     8.322
   193   6 C        3.019    -0.050    29.227     8.868
   194   6 C        3.020    -0.052    29.260     8.873
   195   6 C        3.150     0.075    26.057     8.349
   196   7 N        2.632    -0.177    24.835     7.401
   197   6 C        2.901    -0.047    29.178     8.857
   198   6 C        3.150     0.075    26.057     8.349
   199   7 N        2.632    -0.177    24.836     7.401
   200   1 H        0.926     0.034     2.531     2.488
   201   1 H        0.926     0.036     2.509     2.477
   202   1 H        0.926     0.036     2.509     2.477
   203   1 H        0.926     0.034     2.531     2.488
   204   1 H        0.925     0.050     2.319     2.381
   205   1 H        0.926     0.034     2.531     2.488
   206   1 H        0.926     0.036     2.509     2.477
   207   1 H        0.926     0.036     2.509     2.477
   208   1 H        0.926     0.034     2.531     2.488
   209   1 H        0.925     0.050     2.319     2.381
   210  30 Zn       3.038     0.246   122.275    21.601
   211   6 C        3.020    -0.052    29.260     8.873
   212   6 C        3.019    -0.050    29.227     8.868
   213   6 C        3.167     0.078    25.934     8.322
   214   6 C        2.953     0.017    27.624     8.621
   215   6 C        3.167     0.078    25.934     8.322
   216   6 C        3.019    -0.050    29.227     8.868
   217   6 C        3.020    -0.052    29.260     8.873
   218   6 C        3.150     0.075    26.057     8.349
   219   7 N        2.632    -0.177    24.836     7.401
   220   6 C        2.901    -0.047    29.178     8.857
   221   6 C        3.150     0.075    26.057     8.349
   222   6 C        3.020    -0.052    29.260     8.873
   223   6 C        3.019    -0.050    29.227     8.868
   224   6 C        3.167     0.078    25.934     8.322
   225   7 N        2.632    -0.177    24.835     7.401
   226   6 C        2.953     0.017    27.624     8.621
   227   6 C        3.167     0.078    25.934     8.322
   228   6 C        3.019    -0.050    29.227     8.868
   229   6 C        3.020    -0.052    29.260     8.873
   230   6 C        3.150     0.075    26.057     8.349
   231   7 N        2.632    -0.177    24.836     7.401
   232   6 C        2.901    -0.047    29.178     8.857
   233   6 C        3.150     0.075    26.057     8.349
   234   7 N        2.632    -0.177    24.835     7.401
   235   1 H        0.926     0.034     2.531     2.488
   236   1 H        0.926     0.036     2.509     2.477
   237   1 H        0.926     0.036     2.509     2.477
   238   1 H        0.926     0.034     2.531     2.488
   239   1 H        0.925     0.050     2.318     2.381
   240   1 H        0.926     0.034     2.531     2.488
   241   1 H        0.926     0.036     2.509     2.477
   242   1 H        0.926     0.036     2.509     2.477
   243   1 H        0.926     0.034     2.531     2.488
   244   1 H        0.925     0.050     2.319     2.381
   245  30 Zn       3.038     0.246   122.275    21.601
   246   6 C        3.020    -0.052    29.260     8.873
   247   6 C        3.019    -0.050    29.227     8.868
   248   6 C        3.167     0.078    25.934     8.322
   249   6 C        2.953     0.017    27.625     8.621
   250   6 C        3.167     0.078    25.934     8.322
   251   6 C        3.019    -0.050    29.228     8.868
   252   6 C        3.020    -0.052    29.260     8.873
   253   6 C        3.150     0.075    26.057     8.349
   254   7 N        2.632    -0.177    24.836     7.401
   255   6 C        2.901    -0.047    29.178     8.857
   256   6 C        3.150     0.075    26.057     8.349
   257   6 C        3.020    -0.052    29.260     8.873
   258   6 C        3.019    -0.050    29.227     8.868
   259   6 C        3.167     0.078    25.933     8.321
   260   7 N        2.632    -0.177    24.835     7.401
   261   6 C        2.953     0.017    27.623     8.620
   262   6 C        3.167     0.078    25.934     8.322
   263   6 C        3.019    -0.050    29.227     8.868
   264   6 C        3.020    -0.052    29.260     8.873
   265   6 C        3.150     0.075    26.057     8.349
   266   7 N        2.632    -0.177    24.836     7.401
   267   6 C        2.901    -0.047    29.178     8.857
   268   6 C        3.150     0.075    26.057     8.349
   269   7 N        2.632    -0.177    24.836     7.401
   270   1 H        0.926     0.034     2.531     2.488
   271   1 H        0.926     0.036     2.509     2.477
   272   1 H        0.926     0.036     2.509     2.477
   273   1 H        0.926     0.034     2.531     2.488
   274   1 H        0.925     0.050     2.319     2.381
   275   1 H        0.926     0.034     2.531     2.488
   276   1 H        0.926     0.036     2.509     2.477
   277   1 H        0.926     0.036     2.509     2.477
   278   1 H        0.926     0.034     2.531     2.488
   279   1 H        0.925     0.050     2.319     2.381
   280  30 Zn       3.038     0.246   122.275    21.601
   281   6 C        3.020    -0.052    29.260     8.873
   282   6 C        3.019    -0.050    29.228     8.868
   283   6 C        3.167     0.078    25.933     8.321
   284   6 C        2.953     0.017    27.626     8.621
   285   6 C        3.167     0.078    25.934     8.322
   286   6 C        3.019    -0.050    29.228     8.868
   287   6 C        3.020    -0.052    29.260     8.873
   288   6 C        3.150     0.075    26.057     8.349
   289   7 N        2.632    -0.177    24.836     7.402
   290   6 C        2.901    -0.047    29.179     8.857
   291   6 C        3.151     0.075    26.056     8.349
   292   6 C        3.021    -0.052    29.260     8.873
   293   6 C        3.019    -0.050    29.227     8.868
   294   6 C        3.167     0.078    25.933     8.321
   295   7 N        2.632    -0.177    24.836     7.401
   296   6 C        2.953     0.017    27.623     8.620
   297   6 C        3.167     0.078    25.933     8.321
   298   6 C        3.019    -0.050    29.228     8.868
   299   6 C        3.021    -0.052    29.260     8.873
   300   6 C        3.151     0.075    26.056     8.349
   301   7 N        2.632    -0.177    24.835     7.401
   302   6 C        2.901    -0.047    29.178     8.857
   303   6 C        3.150     0.075    26.057     8.349
   304   7 N        2.632    -0.177    24.836     7.402
   305   1 H        0.926     0.034     2.531     2.488
   306   1 H        0.926     0.035     2.509     2.477
   307   1 H        0.926     0.035     2.509     2.477
   308   1 H        0.926     0.034     2.531     2.488
   309   1 H        0.925     0.050     2.319     2.381
   310   1 H        0.926     0.034     2.531     2.488
   311   1 H        0.926     0.036     2.509     2.477
   312   1 H        0.926     0.036     2.509     2.477
   313   1 H        0.926     0.034     2.531     2.488
   314   1 H        0.925     0.050     2.319     2.381
   315  30 Zn       3.038     0.246   122.275    21.601
   316   6 C        3.020    -0.052    29.261     8.873
   317   6 C        3.019    -0.050    29.229     8.868
   318   6 C        3.167     0.078    25.933     8.321
   319   6 C        2.953     0.017    27.630     8.621
   320   6 C        3.167     0.078    25.933     8.321
   321   6 C        3.019    -0.050    29.229     8.868
   322   6 C        3.020    -0.052    29.261     8.873
   323   6 C        3.150     0.075    26.057     8.349
   324   7 N        2.632    -0.177    24.838     7.402
   325   6 C        2.901    -0.048    29.182     8.857
   326   6 C        3.151     0.075    26.055     8.349
   327   6 C        3.021    -0.052    29.261     8.873
   328   6 C        3.019    -0.050    29.227     8.868
   329   6 C        3.167     0.077    25.934     8.321
   330   7 N        2.632    -0.177    24.837     7.402
   331   6 C        2.953     0.017    27.620     8.620
   332   6 C        3.167     0.077    25.934     8.321
   333   6 C        3.019    -0.050    29.226     8.868
   334   6 C        3.021    -0.052    29.261     8.873
   335   6 C        3.151     0.075    26.055     8.349
   336   7 N        2.632    -0.177    24.838     7.402
   337   6 C        2.901    -0.048    29.182     8.857
   338   6 C        3.150     0.075    26.057     8.349
   339   7 N        2.632    -0.177    24.838     7.402
   340   1 H        0.926     0.034     2.532     2.488
   341   1 H        0.926     0.035     2.510     2.478
   342   1 H        0.926     0.035     2.510     2.478
   343   1 H        0.926     0.034     2.532     2.488
   344   1 H        0.925     0.050     2.320     2.382
   345   1 H        0.926     0.034     2.532     2.488
   346   1 H        0.926     0.036     2.508     2.476
   347   1 H        0.926     0.036     2.507     2.476
   348   1 H        0.926     0.034     2.532     2.488
   349   1 H        0.925     0.050     2.320     2.382

 Mol. C6AA /au·bohr⁶  :    2399908.162447
 Mol. C8AA /au·bohr⁸  :   68441034.101535
 Mol. α(0) /au        :       2531.178528


Wiberg/Mayer (AO) data.
largest (>0.10) Wiberg bond orders for each atom

 ---------------------------------------------------------------------------
     #   Z sym  total        # sym  WBO       # sym  WBO       # sym  WBO
 ---------------------------------------------------------------------------
     1  30 Zn   2.081 --    16 N    0.491    22 N    0.491    25 N    0.489
                            10 N    0.489
     2   6 C    3.953 --     3 C    1.650    24 C    1.171    26 H    0.972
     3   6 C    3.957 --     2 C    1.650     4 C    1.179    27 H    0.971
     4   6 C    3.912 --    25 N    1.286     5 C    1.252     3 C    1.179
     5   6 C    3.941 --     6 C    1.252     4 C    1.252    73 C    1.185
     6   6 C    3.912 --    10 N    1.286     5 C    1.252     7 C    1.179
     7   6 C    3.957 --     8 C    1.650     6 C    1.179    28 H    0.971
     8   6 C    3.953 --     7 C    1.650     9 C    1.171    29 H    0.972
     9   6 C    3.924 --    11 C    1.358    10 N    1.247     8 C    1.171
    10   7 N    3.467 --     6 C    1.286     9 C    1.247     1 Zn   0.489
    11   6 C    3.931 --     9 C    1.358    12 C    1.354    30 H    0.964
    12   6 C    3.929 --    11 C    1.354    16 N    1.261    13 C    1.163
    13   6 C    3.957 --    14 C    1.666    12 C    1.163    31 H    0.972
    14   6 C    3.955 --    13 C    1.666    15 C    1.162    32 H    0.972
    15   6 C    3.932 --    17 C    1.354    16 N    1.263    14 C    1.162
    16   7 N    3.464 --    15 C    1.263    12 C    1.261     1 Zn   0.491
    17   6 C    3.926 --    15 C    1.354    18 C    1.354    33 H    0.964
    18   6 C    3.932 --    17 C    1.354    22 N    1.263    19 C    1.162
    19   6 C    3.955 --    20 C    1.666    18 C    1.162    34 H    0.972
    20   6 C    3.957 --    19 C    1.666    21 C    1.163    35 H    0.972
    21   6 C    3.929 --    23 C    1.354    22 N    1.261    20 C    1.163
    22   7 N    3.464 --    18 C    1.263    21 C    1.261     1 Zn   0.491
    23   6 C    3.931 --    24 C    1.358    21 C    1.354    36 H    0.964
    24   6 C    3.924 --    23 C    1.358    25 N    1.247     2 C    1.171
    25   7 N    3.467 --     4 C    1.286    24 C    1.247     1 Zn   0.489
    26   1 H    0.998 --     2 C    0.972
    27   1 H    0.998 --     3 C    0.971
    28   1 H    0.998 --     7 C    0.971
    29   1 H    0.998 --     8 C    0.972
    30   1 H    0.996 --    11 C    0.964
    31   1 H    0.998 --    13 C    0.972
    32   1 H    0.998 --    14 C    0.972
    33   1 H    0.996 --    17 C    0.964
    34   1 H    0.998 --    19 C    0.972
    35   1 H    0.998 --    20 C    0.972
    36   1 H    0.996 --    23 C    0.964
    37  30 Zn   2.081 --    52 N    0.491    58 N    0.491    46 N    0.489
                            61 N    0.489
    38   6 C    3.953 --    39 C    1.651    60 C    1.171    62 H    0.972
    39   6 C    3.957 --    38 C    1.651    40 C    1.179    63 H    0.971
    40   6 C    3.912 --    61 N    1.286    41 C    1.252    39 C    1.179
    41   6 C    3.941 --    42 C    1.252    40 C    1.252   104 C    1.184
    42   6 C    3.912 --    46 N    1.286    41 C    1.252    43 C    1.179
    43   6 C    3.957 --    44 C    1.651    42 C    1.179    64 H    0.971
    44   6 C    3.953 --    43 C    1.651    45 C    1.171    65 H    0.972
    45   6 C    3.924 --    47 C    1.358    46 N    1.247    44 C    1.171
    46   7 N    3.467 --    42 C    1.286    45 C    1.247    37 Zn   0.489
    47   6 C    3.931 --    45 C    1.358    48 C    1.354    66 H    0.964
    48   6 C    3.929 --    47 C    1.354    52 N    1.261    49 C    1.163
    49   6 C    3.957 --    50 C    1.666    48 C    1.163    67 H    0.972
    50   6 C    3.955 --    49 C    1.666    51 C    1.162    68 H    0.972
    51   6 C    3.932 --    53 C    1.354    52 N    1.263    50 C    1.162
    52   7 N    3.464 --    51 C    1.263    48 C    1.261    37 Zn   0.491
    53   6 C    3.926 --    51 C    1.354    54 C    1.354    69 H    0.964
    54   6 C    3.932 --    53 C    1.354    58 N    1.263    55 C    1.162
    55   6 C    3.955 --    56 C    1.666    54 C    1.162    70 H    0.972
    56   6 C    3.957 --    55 C    1.666    57 C    1.163    71 H    0.972
    57   6 C    3.929 --    59 C    1.354    58 N    1.261    56 C    1.163
    58   7 N    3.464 --    54 C    1.263    57 C    1.261    37 Zn   0.491
    59   6 C    3.931 --    60 C    1.358    57 C    1.354    72 H    0.964
    60   6 C    3.924 --    59 C    1.358    61 N    1.247    38 C    1.171
    61   7 N    3.467 --    40 C    1.286    60 C    1.247    37 Zn   0.489
    62   1 H    0.998 --    38 C    0.972
    63   1 H    0.998 --    39 C    0.971
    64   1 H    0.998 --    43 C    0.971
    65   1 H    0.998 --    44 C    0.972
    66   1 H    0.996 --    47 C    0.964
    67   1 H    0.998 --    49 C    0.972
    68   1 H    0.998 --    50 C    0.972
    69   1 H    0.996 --    53 C    0.964
    70   1 H    0.998 --    55 C    0.972
    71   1 H    0.998 --    56 C    0.972
    72   1 H    0.996 --    59 C    0.964
    73   6 C    3.918 --    74 C    2.470     5 C    1.185    76 C    0.203
    74   6 C    3.928 --    73 C    2.470    75 C    1.305
    75   6 C    3.925 --    76 C    2.469    74 C    1.305
    76   6 C    3.919 --    75 C    2.469   109 C    1.187    73 C    0.203
    77   6 C    3.918 --    78 C    2.466   121 C    1.188    80 C    0.202
    78   6 C    3.925 --    77 C    2.466    79 C    1.307
    79   6 C    3.925 --    80 C    2.466    78 C    1.307
    80   6 C    3.918 --    79 C    2.466   144 C    1.188    77 C    0.202
    81   6 C    3.918 --    82 C    2.466   156 C    1.188    84 C    0.202
    82   6 C    3.925 --    81 C    2.466    83 C    1.307
    83   6 C    3.925 --    84 C    2.466    82 C    1.307
    84   6 C    3.918 --    83 C    2.466   179 C    1.188    81 C    0.202
    85   6 C    3.918 --    86 C    2.466   191 C    1.188    88 C    0.202
    86   6 C    3.925 --    85 C    2.466    87 C    1.307
    87   6 C    3.925 --    88 C    2.466    86 C    1.307
    88   6 C    3.918 --    87 C    2.466   214 C    1.188    85 C    0.202
    89   6 C    3.918 --    90 C    2.466   226 C    1.188    92 C    0.202
    90   6 C    3.925 --    89 C    2.466    91 C    1.307
    91   6 C    3.925 --    92 C    2.466    90 C    1.307
    92   6 C    3.918 --    91 C    2.466   249 C    1.188    89 C    0.202
    93   6 C    3.918 --    94 C    2.466   261 C    1.188    96 C    0.202
    94   6 C    3.925 --    93 C    2.466    95 C    1.307
    95   6 C    3.925 --    96 C    2.466    94 C    1.307
    96   6 C    3.918 --    95 C    2.466   284 C    1.188    93 C    0.202
    97   6 C    3.918 --    98 C    2.466   296 C    1.188   100 C    0.202
    98   6 C    3.925 --    97 C    2.466    99 C    1.307
    99   6 C    3.925 --   100 C    2.466    98 C    1.307
   100   6 C    3.918 --    99 C    2.466   319 C    1.188    97 C    0.202
   101   6 C    3.919 --   102 C    2.469   331 C    1.186   104 C    0.203
   102   6 C    3.925 --   101 C    2.469   103 C    1.304
   103   6 C    3.928 --   104 C    2.471   102 C    1.304
   104   6 C    3.917 --   103 C    2.471    41 C    1.184   101 C    0.203
   105  30 Zn   2.076 --   126 N    0.489   120 N    0.489   114 N    0.489
                           129 N    0.489
   106   6 C    3.954 --   107 C    1.648   128 C    1.173   130 H    0.972
   107   6 C    3.955 --   106 C    1.648   108 C    1.181   131 H    0.971
   108   6 C    3.912 --   129 N    1.287   109 C    1.249   107 C    1.181
   109   6 C    3.929 --   110 C    1.250   108 C    1.249    76 C    1.187
   110   6 C    3.912 --   114 N    1.287   109 C    1.250   111 C    1.181
   111   6 C    3.955 --   112 C    1.648   110 C    1.181   132 H    0.971
   112   6 C    3.954 --   111 C    1.648   113 C    1.173   133 H    0.972
   113   6 C    3.923 --   115 C    1.356   114 N    1.245   112 C    1.173
   114   7 N    3.460 --   110 C    1.287   113 C    1.245   105 Zn   0.489
   115   6 C    3.925 --   116 C    1.357   113 C    1.356   134 H    0.964
   116   6 C    3.923 --   115 C    1.357   120 N    1.244   117 C    1.173
   117   6 C    3.954 --   118 C    1.648   116 C    1.173   135 H    0.972
   118   6 C    3.955 --   117 C    1.648   119 C    1.181   136 H    0.971
   119   6 C    3.912 --   120 N    1.288   121 C    1.249   118 C    1.181
   120   7 N    3.460 --   119 C    1.288   116 C    1.244   105 Zn   0.489
   121   6 C    3.929 --   119 C    1.249   122 C    1.249    77 C    1.188
   122   6 C    3.912 --   126 N    1.288   121 C    1.249   123 C    1.181
   123   6 C    3.955 --   124 C    1.648   122 C    1.181   137 H    0.971
   124   6 C    3.954 --   123 C    1.648   125 C    1.173   138 H    0.972
   125   6 C    3.923 --   127 C    1.357   126 N    1.244   124 C    1.173
   126   7 N    3.460 --   122 C    1.288   125 C    1.244   105 Zn   0.489
   127   6 C    3.925 --   125 C    1.357   128 C    1.356   139 H    0.964
   128   6 C    3.923 --   127 C    1.356   129 N    1.245   106 C    1.173
   129   7 N    3.460 --   108 C    1.287   128 C    1.245   105 Zn   0.489
   130   1 H    0.998 --   106 C    0.972
   131   1 H    0.998 --   107 C    0.971
   132   1 H    0.998 --   111 C    0.971
   133   1 H    0.998 --   112 C    0.972
   134   1 H    0.996 --   115 C    0.964
   135   1 H    0.998 --   117 C    0.972
   136   1 H    0.998 --   118 C    0.971
   137   1 H    0.998 --   123 C    0.971
   138   1 H    0.998 --   124 C    0.972
   139   1 H    0.996 --   127 C    0.964
   140  30 Zn   2.076 --   161 N    0.489   149 N    0.489   155 N    0.489
                           164 N    0.489
   141   6 C    3.953 --   142 C    1.648   163 C    1.173   165 H    0.972
   142   6 C    3.955 --   141 C    1.648   143 C    1.181   166 H    0.971
   143   6 C    3.912 --   164 N    1.288   144 C    1.249   142 C    1.181
   144   6 C    3.929 --   143 C    1.249   145 C    1.249    80 C    1.188
   145   6 C    3.912 --   149 N    1.288   144 C    1.249   146 C    1.181
   146   6 C    3.955 --   147 C    1.648   145 C    1.181   167 H    0.971
   147   6 C    3.953 --   146 C    1.648   148 C    1.173   168 H    0.972
   148   6 C    3.923 --   150 C    1.356   149 N    1.245   147 C    1.173
   149   7 N    3.460 --   145 C    1.288   148 C    1.245   140 Zn   0.489
   150   6 C    3.925 --   151 C    1.356   148 C    1.356   169 H    0.964
   151   6 C    3.923 --   150 C    1.356   155 N    1.244   152 C    1.173
   152   6 C    3.954 --   153 C    1.648   151 C    1.173   170 H    0.972
   153   6 C    3.955 --   152 C    1.648   154 C    1.181   171 H    0.971
   154   6 C    3.912 --   155 N    1.288   156 C    1.249   153 C    1.181
   155   7 N    3.460 --   154 C    1.288   151 C    1.244   140 Zn   0.489
   156   6 C    3.929 --   154 C    1.249   157 C    1.249    81 C    1.188
   157   6 C    3.912 --   161 N    1.288   156 C    1.249   158 C    1.181
   158   6 C    3.955 --   159 C    1.648   157 C    1.181   172 H    0.971
   159   6 C    3.954 --   158 C    1.648   160 C    1.173   173 H    0.972
   160   6 C    3.923 --   162 C    1.356   161 N    1.244   159 C    1.173
   161   7 N    3.460 --   157 C    1.288   160 C    1.244   140 Zn   0.489
   162   6 C    3.925 --   160 C    1.356   163 C    1.356   174 H    0.964
   163   6 C    3.923 --   162 C    1.356   164 N    1.245   141 C    1.173
   164   7 N    3.460 --   143 C    1.288   163 C    1.245   140 Zn   0.489
   165   1 H    0.998 --   141 C    0.972
   166   1 H    0.998 --   142 C    0.971
   167   1 H    0.998 --   146 C    0.971
   168   1 H    0.998 --   147 C    0.972
   169   1 H    0.996 --   150 C    0.964
   170   1 H    0.998 --   152 C    0.972
   171   1 H    0.998 --   153 C    0.971
   172   1 H    0.998 --   158 C    0.971
   173   1 H    0.998 --   159 C    0.972
   174   1 H    0.996 --   162 C    0.964
   175  30 Zn   2.076 --   184 N    0.489   196 N    0.489   190 N    0.489
                           199 N    0.489
   176   6 C    3.953 --   177 C    1.648   198 C    1.173   200 H    0.972
   177   6 C    3.955 --   176 C    1.648   178 C    1.181   201 H    0.971
   178   6 C    3.912 --   199 N    1.288   179 C    1.249   177 C    1.181
   179   6 C    3.929 --   180 C    1.249   178 C    1.249    84 C    1.188
   180   6 C    3.912 --   184 N    1.288   179 C    1.249   181 C    1.181
   181   6 C    3.955 --   182 C    1.648   180 C    1.181   202 H    0.971
   182   6 C    3.953 --   181 C    1.648   183 C    1.173   203 H    0.972
   183   6 C    3.923 --   185 C    1.356   184 N    1.245   182 C    1.173
   184   7 N    3.460 --   180 C    1.288   183 C    1.245   175 Zn   0.489
   185   6 C    3.925 --   186 C    1.356   183 C    1.356   204 H    0.964
   186   6 C    3.923 --   185 C    1.356   190 N    1.245   187 C    1.173
   187   6 C    3.954 --   188 C    1.648   186 C    1.173   205 H    0.972
   188   6 C    3.955 --   187 C    1.648   189 C    1.181   206 H    0.971
   189   6 C    3.912 --   190 N    1.288   191 C    1.249   188 C    1.181
   190   7 N    3.460 --   189 C    1.288   186 C    1.245   175 Zn   0.489
   191   6 C    3.929 --   192 C    1.249   189 C    1.249    85 C    1.188
   192   6 C    3.912 --   196 N    1.288   191 C    1.249   193 C    1.181
   193   6 C    3.955 --   194 C    1.648   192 C    1.181   207 H    0.971
   194   6 C    3.954 --   193 C    1.648   195 C    1.173   208 H    0.972
   195   6 C    3.923 --   197 C    1.356   196 N    1.245   194 C    1.173
   196   7 N    3.460 --   192 C    1.288   195 C    1.245   175 Zn   0.489
   197   6 C    3.925 --   195 C    1.356   198 C    1.356   209 H    0.964
   198   6 C    3.923 --   197 C    1.356   199 N    1.245   176 C    1.173
   199   7 N    3.460 --   178 C    1.288   198 C    1.245   175 Zn   0.489
   200   1 H    0.998 --   176 C    0.972
   201   1 H    0.998 --   177 C    0.971
   202   1 H    0.998 --   181 C    0.971
   203   1 H    0.998 --   182 C    0.972
   204   1 H    0.996 --   185 C    0.964
   205   1 H    0.998 --   187 C    0.972
   206   1 H    0.998 --   188 C    0.971
   207   1 H    0.998 --   193 C    0.971
   208   1 H    0.998 --   194 C    0.972
   209   1 H    0.996 --   197 C    0.964
   210  30 Zn   2.076 --   234 N    0.489   231 N    0.489   225 N    0.489
                           219 N    0.489
   211   6 C    3.954 --   212 C    1.648   233 C    1.173   235 H    0.972
   212   6 C    3.955 --   211 C    1.648   213 C    1.181   236 H    0.971
   213   6 C    3.912 --   234 N    1.288   214 C    1.249   212 C    1.181
   214   6 C    3.929 --   215 C    1.249   213 C    1.249    88 C    1.188
   215   6 C    3.912 --   219 N    1.288   214 C    1.249   216 C    1.181
   216   6 C    3.955 --   217 C    1.648   215 C    1.181   237 H    0.971
   217   6 C    3.954 --   216 C    1.648   218 C    1.173   238 H    0.972
   218   6 C    3.923 --   220 C    1.356   219 N    1.245   217 C    1.173
   219   7 N    3.460 --   215 C    1.288   218 C    1.245   210 Zn   0.489
   220   6 C    3.925 --   221 C    1.356   218 C    1.356   239 H    0.964
   221   6 C    3.923 --   220 C    1.356   225 N    1.245   222 C    1.173
   222   6 C    3.954 --   223 C    1.648   221 C    1.173   240 H    0.972
   223   6 C    3.955 --   222 C    1.648   224 C    1.181   241 H    0.971
   224   6 C    3.912 --   225 N    1.288   226 C    1.249   223 C    1.181
   225   7 N    3.460 --   224 C    1.288   221 C    1.245   210 Zn   0.489
   226   6 C    3.929 --   227 C    1.249   224 C    1.249    89 C    1.188
   227   6 C    3.912 --   231 N    1.288   226 C    1.249   228 C    1.181
   228   6 C    3.955 --   229 C    1.648   227 C    1.181   242 H    0.971
   229   6 C    3.954 --   228 C    1.648   230 C    1.173   243 H    0.972
   230   6 C    3.923 --   232 C    1.356   231 N    1.245   229 C    1.173
   231   7 N    3.460 --   227 C    1.288   230 C    1.245   210 Zn   0.489
   232   6 C    3.925 --   233 C    1.356   230 C    1.356   244 H    0.964
   233   6 C    3.923 --   232 C    1.356   234 N    1.245   211 C    1.173
   234   7 N    3.460 --   213 C    1.288   233 C    1.245   210 Zn   0.489
   235   1 H    0.998 --   211 C    0.972
   236   1 H    0.998 --   212 C    0.971
   237   1 H    0.998 --   216 C    0.971
   238   1 H    0.998 --   217 C    0.972
   239   1 H    0.996 --   220 C    0.964
   240   1 H    0.998 --   222 C    0.972
   241   1 H    0.998 --   223 C    0.971
   242   1 H    0.998 --   228 C    0.971
   243   1 H    0.998 --   229 C    0.972
   244   1 H    0.996 --   232 C    0.964
   245  30 Zn   2.076 --   269 N    0.489   260 N    0.489   266 N    0.489
                           254 N    0.489
   246   6 C    3.954 --   247 C    1.648   268 C    1.173   270 H    0.972
   247   6 C    3.955 --   246 C    1.648   248 C    1.181   271 H    0.971
   248   6 C    3.912 --   269 N    1.288   249 C    1.249   247 C    1.181
   249   6 C    3.929 --   248 C    1.249   250 C    1.249    92 C    1.188
   250   6 C    3.912 --   254 N    1.288   249 C    1.249   251 C    1.181
   251   6 C    3.955 --   252 C    1.648   250 C    1.181   272 H    0.971
   252   6 C    3.954 --   251 C    1.648   253 C    1.173   273 H    0.972
   253   6 C    3.923 --   255 C    1.356   254 N    1.245   252 C    1.173
   254   7 N    3.460 --   250 C    1.288   253 C    1.245   245 Zn   0.489
   255   6 C    3.925 --   253 C    1.356   256 C    1.356   274 H    0.964
   256   6 C    3.923 --   255 C    1.356   260 N    1.245   257 C    1.173
   257   6 C    3.953 --   258 C    1.648   256 C    1.173   275 H    0.972
   258   6 C    3.955 --   257 C    1.648   259 C    1.181   276 H    0.971
   259   6 C    3.912 --   260 N    1.288   261 C    1.249   258 C    1.181
   260   7 N    3.460 --   259 C    1.288   256 C    1.245   245 Zn   0.489
   261   6 C    3.929 --   262 C    1.249   259 C    1.249    93 C    1.188
   262   6 C    3.912 --   266 N    1.288   261 C    1.249   263 C    1.181
   263   6 C    3.955 --   264 C    1.648   262 C    1.181   277 H    0.971
   264   6 C    3.953 --   263 C    1.648   265 C    1.173   278 H    0.972
   265   6 C    3.923 --   267 C    1.356   266 N    1.245   264 C    1.173
   266   7 N    3.460 --   262 C    1.288   265 C    1.245   245 Zn   0.489
   267   6 C    3.925 --   268 C    1.356   265 C    1.356   279 H    0.964
   268   6 C    3.923 --   267 C    1.356   269 N    1.245   246 C    1.173
   269   7 N    3.460 --   248 C    1.288   268 C    1.245   245 Zn   0.489
   270   1 H    0.998 --   246 C    0.972
   271   1 H    0.998 --   247 C    0.971
   272   1 H    0.998 --   251 C    0.971
   273   1 H    0.998 --   252 C    0.972
   274   1 H    0.996 --   255 C    0.964
   275   1 H    0.998 --   257 C    0.972
   276   1 H    0.998 --   258 C    0.971
   277   1 H    0.998 --   263 C    0.971
   278   1 H    0.998 --   264 C    0.972
   279   1 H    0.996 --   267 C    0.964
   280  30 Zn   2.076 --   289 N    0.489   295 N    0.489   301 N    0.489
                           304 N    0.489
   281   6 C    3.954 --   282 C    1.648   303 C    1.173   305 H    0.972
   282   6 C    3.955 --   281 C    1.648   283 C    1.181   306 H    0.971
   283   6 C    3.912 --   304 N    1.288   284 C    1.249   282 C    1.181
   284   6 C    3.929 --   285 C    1.249   283 C    1.249    96 C    1.188
   285   6 C    3.912 --   289 N    1.288   284 C    1.249   286 C    1.181
   286   6 C    3.955 --   287 C    1.648   285 C    1.181   307 H    0.971
   287   6 C    3.954 --   286 C    1.648   288 C    1.173   308 H    0.972
   288   6 C    3.923 --   290 C    1.356   289 N    1.244   287 C    1.173
   289   7 N    3.460 --   285 C    1.288   288 C    1.244   280 Zn   0.489
   290   6 C    3.925 --   288 C    1.356   291 C    1.356   309 H    0.964
   291   6 C    3.923 --   290 C    1.356   295 N    1.245   292 C    1.173
   292   6 C    3.953 --   293 C    1.648   291 C    1.173   310 H    0.972
   293   6 C    3.955 --   292 C    1.648   294 C    1.181   311 H    0.971
   294   6 C    3.912 --   295 N    1.288   296 C    1.249   293 C    1.181
   295   7 N    3.460 --   294 C    1.288   291 C    1.245   280 Zn   0.489
   296   6 C    3.929 --   294 C    1.249   297 C    1.249    97 C    1.188
   297   6 C    3.912 --   301 N    1.288   296 C    1.249   298 C    1.181
   298   6 C    3.955 --   299 C    1.648   297 C    1.181   312 H    0.971
   299   6 C    3.953 --   298 C    1.648   300 C    1.173   313 H    0.972
   300   6 C    3.923 --   302 C    1.356   301 N    1.245   299 C    1.173
   301   7 N    3.460 --   297 C    1.288   300 C    1.245   280 Zn   0.489
   302   6 C    3.925 --   303 C    1.356   300 C    1.356   314 H    0.964
   303   6 C    3.923 --   302 C    1.356   304 N    1.244   281 C    1.173
   304   7 N    3.460 --   283 C    1.288   303 C    1.244   280 Zn   0.489
   305   1 H    0.998 --   281 C    0.972
   306   1 H    0.998 --   282 C    0.971
   307   1 H    0.998 --   286 C    0.971
   308   1 H    0.998 --   287 C    0.972
   309   1 H    0.996 --   290 C    0.964
   310   1 H    0.998 --   292 C    0.972
   311   1 H    0.998 --   293 C    0.971
   312   1 H    0.998 --   298 C    0.971
   313   1 H    0.998 --   299 C    0.972
   314   1 H    0.996 --   302 C    0.964
   315  30 Zn   2.076 --   339 N    0.489   324 N    0.489   330 N    0.489
                           336 N    0.489
   316   6 C    3.954 --   317 C    1.648   338 C    1.173   340 H    0.972
   317   6 C    3.955 --   316 C    1.648   318 C    1.181   341 H    0.971
   318   6 C    3.912 --   339 N    1.288   319 C    1.249   317 C    1.181
   319   6 C    3.929 --   320 C    1.249   318 C    1.249   100 C    1.188
   320   6 C    3.912 --   324 N    1.288   319 C    1.249   321 C    1.181
   321   6 C    3.955 --   322 C    1.648   320 C    1.181   342 H    0.971
   322   6 C    3.954 --   321 C    1.648   323 C    1.173   343 H    0.972
   323   6 C    3.923 --   325 C    1.357   324 N    1.244   322 C    1.173
   324   7 N    3.460 --   320 C    1.288   323 C    1.244   315 Zn   0.489
   325   6 C    3.925 --   323 C    1.357   326 C    1.356   344 H    0.964
   326   6 C    3.923 --   325 C    1.356   330 N    1.245   327 C    1.173
   327   6 C    3.954 --   328 C    1.648   326 C    1.173   345 H    0.972
   328   6 C    3.955 --   327 C    1.648   329 C    1.181   346 H    0.971
   329   6 C    3.912 --   330 N    1.287   331 C    1.250   328 C    1.181
   330   7 N    3.460 --   329 C    1.287   326 C    1.245   315 Zn   0.489
   331   6 C    3.929 --   332 C    1.250   329 C    1.250   101 C    1.186
   332   6 C    3.912 --   336 N    1.287   331 C    1.250   333 C    1.181
   333   6 C    3.955 --   334 C    1.648   332 C    1.181   347 H    0.971
   334   6 C    3.954 --   333 C    1.648   335 C    1.173   348 H    0.972
   335   6 C    3.923 --   337 C    1.356   336 N    1.245   334 C    1.173
   336   7 N    3.460 --   332 C    1.287   335 C    1.245   315 Zn   0.489
   337   6 C    3.925 --   338 C    1.357   335 C    1.356   349 H    0.964
   338   6 C    3.923 --   337 C    1.357   339 N    1.244   316 C    1.173
   339   7 N    3.460 --   318 C    1.288   338 C    1.244   315 Zn   0.489
   340   1 H    0.998 --   316 C    0.972
   341   1 H    0.998 --   317 C    0.971
   342   1 H    0.998 --   321 C    0.971
   343   1 H    0.998 --   322 C    0.972
   344   1 H    0.996 --   325 C    0.964
   345   1 H    0.998 --   327 C    0.972
   346   1 H    0.998 --   328 C    0.971
   347   1 H    0.998 --   333 C    0.971
   348   1 H    0.998 --   334 C    0.972
   349   1 H    0.996 --   337 C    0.964
 ---------------------------------------------------------------------------

Topologies differ in total number of bonds
Writing topology from bond orders to xtbtopo.mol

molecular dipole:
                 x           y           z       tot (Debye)
 q only:       -0.000      -0.001      -0.001
   full:       -0.000      -0.001      -0.002       0.005
molecular quadrupole (traceless):
                xx          xy          yy          xz          yz          zz
 q only:      159.529       0.545     -26.576      -0.309      -7.776    -132.953
  q+dip:      278.702       0.798      -3.336      -0.422     -19.726    -275.366
   full:      201.879       0.777     -27.209      -0.402     -10.764    -174.669


           -------------------------------------------------
          | TOTAL ENERGY             -611.155166703030 Eh   |
          | GRADIENT NORM               0.000410921959 Eh/α |
          | HOMO-LUMO GAP               0.817976162735 eV   |
           -------------------------------------------------

------------------------------------------------------------------------
 * finished run on 2021/11/21 at 19:26:05.233     
------------------------------------------------------------------------
 total:
 * wall-time:     0 d,  0 h,  0 min,  8.140 sec
 *  cpu-time:     0 d,  0 h,  0 min,  8.140 sec
 * ratio c/w:     1.000 speedup
 SCF:
 * wall-time:     0 d,  0 h,  0 min,  7.912 sec
 *  cpu-time:     0 d,  0 h,  0 min,  7.912 sec
 * ratio c/w:     1.000 speedup

