 Entering Gaussian System
 *********************************************
 Gaussian 98:
 frequency output generated by the xtb code
 *********************************************
                         Standard orientation:
 --------------------------------------------------------------------
  Center     Atomic     Atomic              Coordinates (Angstroms)
  Number     Number      Type              X           Y           Z
 --------------------------------------------------------------------
    1         30             0       42.565001    0.046529    0.005432
    2          6             0       45.053281   -3.384644    0.500590
    3          6             0       46.018548   -2.445834    0.351095
    4          6             0       45.346398   -1.188552    0.184138
    5          6             0       46.000273    0.038396   -0.003893
    6          6             0       45.351441    1.269231   -0.184096
    7          6             0       46.028865    2.523945   -0.349311
    8          6             0       45.067330    3.468517   -0.486077
    9          6             0       43.805299    2.789495   -0.401023
   10          7             0       44.009783    1.455424   -0.215416
   11          6             0       42.572148    3.413171   -0.493742
   12          6             0       41.337232    2.792714   -0.405808
   13          6             0       40.072594    3.469246   -0.508475
   14          6             0       39.113302    2.524610   -0.370916
   15          6             0       39.791056    1.270134   -0.182749
   16          7             0       41.135601    1.463305   -0.208930
   17          6             0       39.156306    0.052292   -0.000526
   18          6             0       39.785884   -1.167397    0.187135
   19          6             0       39.103179   -2.418872    0.377546
   20          6             0       40.058748   -3.365765    0.525109
   21          6             0       41.326048   -2.693858    0.424591
   22          7             0       41.129631   -1.364797    0.220506
   23          6             0       42.558658   -3.318093    0.517693
   24          6             0       43.794130   -2.699958    0.418934
   25          7             0       44.004002   -1.367862    0.225067
   26          1             0       45.168093   -4.441222    0.648165
   27          1             0       47.083252   -2.576496    0.339841
   28          1             0       47.094319    2.649115   -0.345021
   29          1             0       45.186430    4.525420   -0.627778
   30          1             0       42.575107    4.483378   -0.647406
   31          1             0       39.954230    4.524332   -0.665030
   32          1             0       38.047287    2.646587   -0.391298
   33          1             0       38.075299    0.054170   -0.003718
   34          1             0       38.036691   -2.537419    0.392964
   35          1             0       39.936194   -4.419636    0.686554
   36          1             0       42.557733   -4.387381    0.677718
   37         30             0       97.053781    0.035496   -0.013675
   38          6             0       94.559336    2.515068    2.401746
   39          6             0       93.595842    1.820813    1.749740
   40          6             0       94.269403    0.928635    0.849558
   41          6             0       93.616776    0.038887   -0.017843
   42          6             0       94.269528   -0.852066   -0.883823
   43          6             0       93.596450   -1.742835   -1.785729
   44          6             0       94.560200   -2.438913   -2.435399
   45          6             0       95.819832   -1.967121   -1.934113
   46          7             0       95.611538   -1.000740   -0.996494
   47          6             0       97.054068   -2.434825   -2.353708
   48          6             0       98.287815   -1.989026   -1.910107
   49          6             0       99.553672   -2.492710   -2.369914
   50          6             0      100.511142   -1.798480   -1.712020
   51          6             0       99.830986   -0.869920   -0.849664
   52          7             0       98.486826   -1.009767   -0.989208
   53          6             0      100.463181    0.032227   -0.009598
   54          6             0       99.830791    0.935624    0.828980
   55          6             0      100.510733    1.862772    1.693031
   56          6             0       99.553065    2.558869    2.348661
   57          6             0       98.287317    2.057859    1.885635
   58          7             0       98.486599    1.078131    0.965314
   59          6             0       97.053371    2.506187    2.326134
   60          6             0       95.819266    2.040905    1.903481
   61          7             0       95.611399    1.074762    0.965504
   62          1             0       94.442731    3.273523    3.151714
   63          1             0       92.531492    1.884168    1.866110
   64          1             0       92.532257   -1.804069   -1.904670
   65          1             0       94.443997   -3.197096   -3.185710
   66          1             0       97.053044   -3.217175   -3.099985
   67          1             0       99.674086   -3.271788   -3.098114
   68          1             0      101.577381   -1.891502   -1.790566
   69          1             0      101.544191    0.031131   -0.008280
   70          1             0      101.576962    1.953655    1.774141
   71          1             0       99.673211    3.337681    3.077181
   72          1             0       97.052015    3.288454    3.072491
   73          6             0       47.404252    0.034683   -0.011493
   74          6             0       48.616828    0.029896   -0.018095
   75          6             0       58.300728    0.020723   -0.032813
   76          6             0       59.514157    0.025613   -0.030695
   77          6             0       69.200556    0.036306   -0.029334
   78          6             0       70.414215    0.035634   -0.026304
   79          6             0       80.101037    0.048542   -0.008403
   80          6             0       81.314542    0.051146   -0.012840
   81          6             0       91.000155    0.041365   -0.021300
   82          6             0       92.213149    0.040590   -0.019372
   83         30             0       53.458244    0.014978   -0.036192
   84          6             0       50.964296   -2.500890    2.341330
   85          6             0       49.999828   -1.804782    1.692308
   86          6             0       50.673333   -0.889726    0.815663
   87          6             0       50.020399    0.024681   -0.024701
   88          6             0       50.672979    0.932838   -0.872117
   89          6             0       49.998713    1.848195   -1.747899
   90          6             0       50.962742    2.534142   -2.408330
   91          6             0       52.222223    2.033566   -1.936949
   92          7             0       52.015019    1.062965   -1.003467
   93          6             0       53.457008    2.469386   -2.386485
   94          6             0       54.691757    2.002785   -1.969413
   95          6             0       55.949685    2.466049   -2.480827
   96          6             0       56.914240    1.774877   -1.826765
   97          6             0       56.242879    0.895983   -0.912718
   98          7             0       54.901040    1.044791   -1.022919
   99          6             0       56.898018    0.016828   -0.035576
  100          6             0       56.243433   -0.866448    0.837766
  101          6             0       56.915184   -1.749406    1.747555
  102          6             0       55.951171   -2.446812    2.395736
  103          6             0       54.693018   -1.981747    1.886629
  104          7             0       54.901652   -1.017977    0.945867
  105          6             0       53.458620   -2.449135    2.303843
  106          6             0       52.223375   -2.005821    1.863111
  107          7             0       52.015448   -1.029396    0.935918
  108          1             0       50.848511   -3.273003    3.077321
  109          1             0       48.934837   -1.881083    1.795592
  110          1             0       48.933428    1.931638   -1.842581
  111          1             0       50.846420    3.303191   -3.147427
  112          1             0       53.456835    3.244295   -3.140577
  113          1             0       56.064819    3.215559   -3.239921
  114          1             0       57.977854    1.831046   -1.951652
  115          1             0       57.978690   -1.804619    1.873446
  116          1             0       56.066773   -3.201239    3.149865
  117          1             0       53.459137   -3.228675    3.053144
  118         30             0       64.356991    0.032433   -0.028866
  119          6             0       61.869826   -3.233042    1.124564
  120          6             0       60.904501   -2.351195    0.768815
  121          6             0       61.573611   -1.143545    0.378666
  122          6             0       60.916775    0.028600   -0.029051
  123          6             0       61.570594    1.202705   -0.435943
  124          6             0       60.898855    2.408922   -0.826090
  125          6             0       61.862383    3.292815   -1.181804
  126          6             0       63.120052    2.626838   -1.000088
  127          7             0       62.911988    1.362728   -0.535551
  128          6             0       64.353490    3.190138   -1.279125
  129          6             0       65.587865    2.590032   -1.098367
  130          6             0       66.843760    3.201013   -1.426266
  131          6             0       67.809212    2.314276   -1.083230
  132          6             0       67.140836    1.167843   -0.538206
  133          7             0       65.799079    1.351104   -0.571285
  134          6             0       67.798004    0.035537   -0.030005
  135          6             0       67.143203   -1.098202    0.478153
  136          6             0       67.814310   -2.243834    1.021621
  137          6             0       66.850942   -3.132831    1.364504
  138          6             0       65.593621   -2.523850    1.038435
  139          7             0       65.801924   -1.284071    0.512226
  140          6             0       64.360504   -3.126061    1.220185
  141          6             0       63.126011   -2.564453    0.942628
  142          7             0       62.915322   -1.300625    0.478435
  143          1             0       61.756204   -4.241207    1.473716
  144          1             0       59.841863   -2.494257    0.752471
  145          1             0       59.835839    2.549681   -0.809930
  146          1             0       61.746600    4.300760   -1.530922
  147          1             0       64.352719    4.195410   -1.677371
  148          1             0       66.957110    4.174488   -1.862981
  149          1             0       68.871501    2.406513   -1.196423
  150          1             0       68.876838   -2.333925    1.133920
  151          1             0       66.966566   -4.106637    1.799875
  152          1             0       64.361627   -4.131664    1.617559
  153         30             0       75.257725    0.042297   -0.010541
  154          6             0       72.772513   -3.421741    0.050693
  155          6             0       71.806764   -2.473641   -0.016340
  156          6             0       72.474316   -1.203869   -0.003410
  157          6             0       71.816752    0.036922   -0.021853
  158          6             0       72.471203    1.279442   -0.034876
  159          6             0       71.799393    2.547003   -0.024825
  160          6             0       72.762532    3.498330   -0.082759
  161          6             0       74.020338    2.809417   -0.118880
  162          7             0       73.812576    1.463115   -0.077117
  163          6             0       75.253362    3.433026   -0.203246
  164          6             0       76.488311    2.807621   -0.217425
  165          6             0       77.744313    3.491400   -0.331684
  166          6             0       78.709997    2.542065   -0.283724
  167          6             0       78.041365    1.281916   -0.131125
  168          7             0       76.699578    1.465800   -0.107966
  169          6             0       78.698443    0.047174   -0.006473
  170          6             0       78.044363   -1.188916    0.120067
  171          6             0       78.716060   -2.446701    0.278546
  172          6             0       77.752796   -3.398460    0.327599
  173          6             0       76.495233   -2.718608    0.207114
  174          7             0       76.703066   -1.376516    0.094167
  175          6             0       75.262348   -3.347996    0.188413
  176          6             0       74.027822   -2.728658    0.094639
  177          7             0       73.815989   -1.383201    0.048770
  178          1             0       72.659681   -4.488645    0.065408
  179          1             0       70.744823   -2.605735   -0.084098
  180          1             0       70.736531    2.675276    0.035132
  181          1             0       72.646402    4.564883   -0.096354
  182          1             0       75.251634    4.512577   -0.264230
  183          1             0       77.857588    4.553068   -0.437746
  184          1             0       79.772610    2.665616   -0.357781
  185          1             0       79.778840   -2.566955    0.356171
  186          1             0       77.868641   -4.459406    0.438039
  187          1             0       75.263835   -4.427396    0.252116
  188         30             0       86.157512    0.046788   -0.019327
  189          6             0       83.661796   -3.223196   -1.143069
  190          6             0       82.698548   -2.311281   -0.866434
  191          6             0       83.370931   -1.123141   -0.425155
  192          6             0       82.717198    0.050138   -0.015596
  193          6             0       83.374093    1.222465    0.391717
  194          6             0       82.704898    2.412059    0.833844
  195          6             0       83.670400    3.322179    1.108456
  196          6             0       84.926944    2.683234    0.841647
  197          7             0       84.715968    1.405798    0.416240
  198          6             0       86.161886    3.291326    0.987967
  199          6             0       87.395568    2.704119    0.764699
  200          6             0       88.654305    3.376890    0.911479
  201          6             0       89.617518    2.467931    0.625012
  202          6             0       88.944146    1.240511    0.310518
  203          7             0       87.602555    1.410248    0.390895
  204          6             0       89.596963    0.043063   -0.021456
  205          6             0       88.941255   -1.152800   -0.353311
  206          6             0       89.611507   -2.381751   -0.668474
  207          6             0       88.645936   -3.288512   -0.954002
  208          6             0       87.388850   -2.612962   -0.805562
  209          7             0       87.599185   -1.319580   -0.431960
  210          6             0       86.153536   -3.197461   -1.026944
  211          6             0       84.920102   -2.586804   -0.878488
  212          7             0       84.712438   -1.309037   -0.452339
  213          1             0       83.545531   -4.229677   -1.496232
  214          1             0       81.635244   -2.412793   -0.961476
  215          1             0       81.641991    2.515857    0.930666
  216          1             0       83.556766    4.328972    1.461550
  217          1             0       86.163096    4.323909    1.308756
  218          1             0       88.770790    4.405832    1.192429
  219          1             0       90.681393    2.603095    0.609974
  220          1             0       90.675115   -2.519202   -0.654963
  221          1             0       88.759832   -4.317699   -1.235174
  222          1             0       86.152026   -4.230143   -1.347450
 --------------------------------------------------------------------
     1 basis functions        1 primitive gaussians
     1 alpha electrons        1 beta electrons

 Harmonic frequencies (cm**-1), IR intensities (km*mol⁻¹),
 Raman scattering activities (A**4/amu), Raman depolarization ratios,
 reduced masses (AMU), force constants (mDyne/A) and normal coordinates:
                      1                      2                      3
                        a                      a                      a 
 Frequencies --    -3.6860                -1.9383                 1.8663
 Red. masses --    20.1779                20.1709                19.3677
 Frc consts  --     0.0000                 0.0000                 0.0000
 IR Inten    --    63.1135                 8.6820                 5.3352
 Raman Activ --     0.0000                 0.0000                 0.0000
 Depolar     --     0.0000                 0.0000                 0.0000
 Atom AN      X      Y      Z        X      Y      Z        X      Y      Z
   1  30    -0.00  -0.14  -0.13     0.00   0.04  -0.16    -0.00  -0.16   0.10
   2   6     0.01  -0.05  -0.05    -0.01   0.02  -0.05     0.04  -0.04   0.02
   3   6     0.01  -0.05  -0.04    -0.00   0.01  -0.05     0.03  -0.03   0.01
   4   6     0.00  -0.05  -0.04    -0.00   0.01  -0.05     0.02  -0.04   0.02
   5   6    -0.00  -0.05  -0.04    -0.00   0.01  -0.05    -0.00  -0.03   0.01
   6   6    -0.00  -0.05  -0.04     0.00   0.01  -0.05    -0.02  -0.04   0.02
   7   6    -0.01  -0.05  -0.04     0.00   0.01  -0.04    -0.03  -0.03   0.01
   8   6    -0.01  -0.05  -0.04     0.01   0.02  -0.05    -0.04  -0.04   0.02
   9   6    -0.01  -0.06  -0.05     0.01   0.02  -0.06    -0.03  -0.06   0.03
  10   7    -0.00  -0.06  -0.05     0.00   0.02  -0.06    -0.02  -0.06   0.03
  11   6    -0.01  -0.06  -0.05     0.01   0.02  -0.06    -0.04  -0.07   0.04
  12   6    -0.01  -0.07  -0.06     0.01   0.02  -0.07    -0.03  -0.08   0.05
  13   6    -0.01  -0.07  -0.06     0.01   0.02  -0.08    -0.04  -0.10   0.06
  14   6    -0.01  -0.07  -0.07     0.00   0.02  -0.09    -0.03  -0.11   0.07
  15   6    -0.00  -0.07  -0.07     0.00   0.02  -0.09    -0.02  -0.10   0.07
  16   7    -0.01  -0.07  -0.06     0.00   0.02  -0.08    -0.02  -0.09   0.06
  17   6    -0.00  -0.07  -0.07    -0.00   0.02  -0.09    -0.00  -0.11   0.07
  18   6     0.00  -0.07  -0.07    -0.00   0.02  -0.09     0.02  -0.10   0.07
  19   6     0.01  -0.07  -0.07    -0.01   0.02  -0.09     0.03  -0.11   0.07
  20   6     0.01  -0.07  -0.07    -0.01   0.02  -0.08     0.04  -0.10   0.06
  21   6     0.01  -0.07  -0.06    -0.01   0.02  -0.07     0.03  -0.08   0.05
  22   7     0.00  -0.07  -0.07    -0.00   0.02  -0.08     0.02  -0.09   0.06
  23   6     0.01  -0.06  -0.06    -0.01   0.02  -0.07     0.04  -0.07   0.04
  24   6     0.01  -0.06  -0.05    -0.01   0.02  -0.06     0.03  -0.06   0.03
  25   7     0.00  -0.06  -0.05    -0.00   0.02  -0.06     0.02  -0.06   0.03
  26   1     0.00  -0.02  -0.01    -0.00   0.00  -0.01     0.02  -0.01   0.01
  27   1     0.00  -0.01  -0.01    -0.00   0.00  -0.01     0.01  -0.01   0.00
  28   1    -0.00  -0.01  -0.01     0.00   0.00  -0.01    -0.01  -0.01   0.00
  29   1    -0.00  -0.01  -0.01     0.00   0.00  -0.01    -0.02  -0.01   0.00
  30   1    -0.00  -0.02  -0.01     0.00   0.01  -0.02    -0.02  -0.02   0.01
  31   1    -0.00  -0.02  -0.02     0.00   0.01  -0.02    -0.02  -0.03   0.02
  32   1    -0.00  -0.02  -0.02     0.00   0.01  -0.03    -0.01  -0.03   0.02
  33   1    -0.00  -0.02  -0.02    -0.00   0.01  -0.03    -0.00  -0.03   0.02
  34   1     0.00  -0.02  -0.02    -0.00   0.01  -0.03     0.01  -0.03   0.02
  35   1     0.00  -0.02  -0.02    -0.00   0.01  -0.02     0.02  -0.03   0.02
  36   1     0.00  -0.02  -0.02    -0.00   0.01  -0.02     0.02  -0.02   0.01
  37  30     0.00  -0.16  -0.02     0.00   0.09  -0.24     0.00  -0.07  -0.08
  38   6     0.01  -0.05  -0.02     0.02   0.02  -0.06     0.04  -0.03   0.00
  39   6     0.01  -0.04  -0.02     0.02   0.02  -0.04     0.03  -0.03   0.02
  40   6     0.00  -0.05  -0.02     0.01   0.02  -0.06     0.01  -0.03   0.01
  41   6     0.00  -0.04  -0.02     0.00   0.02  -0.05     0.00  -0.03   0.02
  42   6    -0.00  -0.05  -0.02    -0.01   0.02  -0.06    -0.01  -0.03   0.01
  43   6    -0.01  -0.04  -0.02    -0.02   0.02  -0.05    -0.03  -0.03   0.02
  44   6    -0.01  -0.05  -0.02    -0.02   0.02  -0.06    -0.04  -0.03   0.00
  45   6    -0.01  -0.06  -0.01    -0.02   0.03  -0.08    -0.03  -0.03  -0.02
  46   7    -0.00  -0.06  -0.01    -0.01   0.03  -0.09    -0.02  -0.03  -0.01
  47   6    -0.01  -0.07  -0.01    -0.02   0.04  -0.10    -0.04  -0.03  -0.04
  48   6    -0.01  -0.07  -0.00    -0.02   0.05  -0.12    -0.03  -0.03  -0.05
  49   6    -0.01  -0.08  -0.00    -0.02   0.06  -0.15    -0.04  -0.03  -0.07
  50   6    -0.01  -0.09   0.00    -0.02   0.07  -0.16    -0.03  -0.03  -0.09
  51   6    -0.00  -0.09   0.00    -0.01   0.06  -0.15    -0.01  -0.03  -0.08
  52   7    -0.00  -0.08  -0.00    -0.01   0.05  -0.14    -0.02  -0.03  -0.06
  53   6    -0.00  -0.09   0.00     0.00   0.07  -0.16     0.00  -0.03  -0.09
  54   6     0.00  -0.09   0.00     0.01   0.06  -0.15     0.01  -0.03  -0.08
  55   6     0.01  -0.09   0.00     0.02   0.07  -0.16     0.03  -0.03  -0.09
  56   6     0.01  -0.08   0.00     0.02   0.06  -0.15     0.04  -0.03  -0.07
  57   6     0.01  -0.08  -0.00     0.02   0.05  -0.12     0.03  -0.03  -0.05
  58   7     0.00  -0.08  -0.00     0.01   0.06  -0.14     0.02  -0.03  -0.06
  59   6     0.01  -0.07  -0.01     0.02   0.04  -0.10     0.04  -0.03  -0.04
  60   6     0.01  -0.06  -0.01     0.02   0.03  -0.08     0.03  -0.03  -0.02
  61   7     0.00  -0.06  -0.01     0.01   0.03  -0.08     0.02  -0.03  -0.02
  62   1     0.00  -0.01  -0.01     0.01   0.01  -0.02     0.01  -0.01   0.00
  63   1     0.00  -0.01  -0.01     0.01   0.00  -0.01     0.01  -0.01   0.01
  64   1    -0.00  -0.01  -0.01    -0.01   0.00  -0.01    -0.01  -0.01   0.01
  65   1    -0.00  -0.01  -0.01    -0.01   0.01  -0.02    -0.01  -0.01   0.00
  66   1    -0.00  -0.02  -0.00    -0.01   0.01  -0.03    -0.01  -0.01  -0.01
  67   1    -0.00  -0.02   0.00    -0.01   0.02  -0.04    -0.01  -0.01  -0.02
  68   1    -0.00  -0.03   0.00    -0.00   0.02  -0.05    -0.01  -0.01  -0.03
  69   1    -0.00  -0.03   0.00     0.00   0.02  -0.05     0.00  -0.01  -0.03
  70   1     0.00  -0.03   0.00     0.00   0.02  -0.05     0.01  -0.01  -0.03
  71   1     0.00  -0.02   0.00     0.01   0.02  -0.04     0.01  -0.01  -0.02
  72   1     0.00  -0.02  -0.00     0.01   0.01  -0.03     0.01  -0.01  -0.01
  73   6    -0.00  -0.04  -0.03    -0.00   0.01  -0.04    -0.00  -0.02   0.00
  74   6    -0.00  -0.04  -0.03    -0.00   0.01  -0.03    -0.00  -0.00  -0.00
  75   6     0.00   0.02   0.05    -0.00  -0.00   0.02     0.00   0.06  -0.06
  76   6    -0.00   0.03   0.06    -0.00  -0.00   0.03     0.00   0.06  -0.07
  77   6    -0.00   0.09   0.06     0.00  -0.02   0.06     0.00   0.05  -0.05
  78   6    -0.00   0.08   0.05     0.00  -0.02   0.06     0.00   0.05  -0.04
  79   6     0.00   0.04  -0.03     0.00  -0.04   0.07    -0.00   0.00   0.06
  80   6     0.00   0.03  -0.03     0.00  -0.04   0.07    -0.00  -0.01   0.07
  81   6     0.00  -0.03  -0.03    -0.00   0.00  -0.01    -0.00  -0.03   0.05
  82   6     0.00  -0.04  -0.02     0.00   0.01  -0.02    -0.00  -0.03   0.04
  83  30     0.00  -0.02   0.03    -0.00   0.01  -0.01     0.00   0.08  -0.06
  84   6    -0.00  -0.03  -0.01    -0.02   0.01  -0.02     0.03   0.02  -0.01
  85   6    -0.00  -0.03  -0.02    -0.01   0.01  -0.02     0.02   0.01  -0.01
  86   6    -0.00  -0.03  -0.01    -0.01   0.01  -0.02     0.01   0.02  -0.01
  87   6    -0.00  -0.03  -0.02    -0.00   0.01  -0.02     0.00   0.01  -0.01
  88   6     0.00  -0.03  -0.01     0.01   0.01  -0.02    -0.01   0.01  -0.01
  89   6     0.00  -0.03  -0.02     0.01   0.01  -0.02    -0.02   0.01  -0.01
  90   6     0.00  -0.03  -0.01     0.02   0.01  -0.02    -0.03   0.02  -0.01
  91   6     0.00  -0.02  -0.00     0.01   0.01  -0.01    -0.02   0.03  -0.02
  92   7     0.00  -0.02  -0.00     0.01   0.01  -0.01    -0.01   0.03  -0.02
  93   6     0.00  -0.01   0.01     0.02   0.01  -0.00    -0.03   0.04  -0.03
  94   6     0.00  -0.00   0.02     0.01   0.00   0.00    -0.02   0.04  -0.03
  95   6     0.00   0.01   0.03     0.02   0.00   0.01    -0.03   0.05  -0.04
  96   6     0.00   0.01   0.04     0.01   0.00   0.02    -0.02   0.06  -0.05
  97   6     0.00   0.01   0.03     0.01   0.00   0.01    -0.01   0.05  -0.04
  98   7     0.00  -0.00   0.02     0.01   0.00   0.00    -0.01   0.05  -0.04
  99   6     0.00   0.01   0.04     0.00   0.00   0.02     0.00   0.06  -0.05
 100   6    -0.00   0.01   0.03    -0.01   0.00   0.01     0.01   0.05  -0.04
 101   6    -0.00   0.01   0.04    -0.01   0.00   0.02     0.02   0.06  -0.05
 102   6    -0.00   0.01   0.03    -0.02   0.00   0.01     0.03   0.06  -0.04
 103   6    -0.00  -0.00   0.02    -0.01   0.00   0.00     0.02   0.05  -0.03
 104   7    -0.00  -0.00   0.02    -0.01   0.00   0.00     0.01   0.05  -0.04
 105   6    -0.00  -0.01   0.01    -0.02   0.01  -0.00     0.03   0.04  -0.02
 106   6    -0.00  -0.02  -0.00    -0.01   0.01  -0.01     0.02   0.03  -0.02
 107   7    -0.00  -0.02  -0.00    -0.01   0.01  -0.01     0.01   0.03  -0.02
 108   1    -0.00  -0.01  -0.00    -0.01   0.00  -0.01     0.01   0.01  -0.00
 109   1    -0.00  -0.01  -0.01    -0.00   0.00  -0.01     0.01   0.00  -0.00
 110   1     0.00  -0.01  -0.01     0.00   0.00  -0.01    -0.01   0.00  -0.00
 111   1     0.00  -0.01  -0.00     0.01   0.00  -0.01    -0.01   0.01  -0.00
 112   1     0.00  -0.00   0.00     0.01   0.00  -0.00    -0.01   0.01  -0.01
 113   1     0.00   0.00   0.01     0.01   0.00   0.00    -0.01   0.02  -0.01
 114   1     0.00   0.01   0.01     0.00  -0.00   0.01    -0.01   0.02  -0.02
 115   1    -0.00   0.01   0.01    -0.00  -0.00   0.01     0.01   0.02  -0.01
 116   1    -0.00   0.00   0.01    -0.01   0.00   0.00     0.01   0.02  -0.01
 117   1    -0.00  -0.00   0.00    -0.01   0.00  -0.00     0.01   0.01  -0.01
 118  30    -0.00   0.15   0.20     0.00  -0.03   0.11     0.00   0.13  -0.15
 119   6     0.02   0.06   0.09    -0.01  -0.01   0.04    -0.01   0.06  -0.08
 120   6     0.01   0.05   0.08    -0.01  -0.00   0.04    -0.00   0.06  -0.08
 121   6     0.01   0.05   0.08    -0.00  -0.01   0.04    -0.00   0.06  -0.07
 122   6    -0.00   0.04   0.07    -0.00  -0.01   0.03     0.00   0.06  -0.07
 123   6    -0.01   0.05   0.08     0.00  -0.01   0.04     0.00   0.06  -0.07
 124   6    -0.01   0.05   0.08     0.01  -0.00   0.04     0.00   0.06  -0.08
 125   6    -0.02   0.06   0.08     0.01  -0.01   0.04     0.01   0.06  -0.08
 126   6    -0.02   0.06   0.09     0.01  -0.01   0.04     0.00   0.06  -0.07
 127   7    -0.01   0.07   0.09     0.00  -0.01   0.05     0.00   0.06  -0.08
 128   6    -0.02   0.07   0.09     0.01  -0.01   0.05     0.01   0.05  -0.07
 129   6    -0.01   0.08   0.09     0.01  -0.01   0.05     0.01   0.05  -0.06
 130   6    -0.02   0.09   0.09     0.01  -0.02   0.05     0.01   0.05  -0.06
 131   6    -0.01   0.09   0.08     0.01  -0.02   0.06     0.01   0.05  -0.05
 132   6    -0.01   0.08   0.08     0.00  -0.02   0.06     0.00   0.05  -0.06
 133   7    -0.01   0.08   0.09     0.00  -0.02   0.06     0.00   0.06  -0.07
 134   6    -0.00   0.09   0.08     0.00  -0.02   0.06     0.00   0.05  -0.05
 135   6     0.01   0.08   0.08    -0.00  -0.02   0.06    -0.00   0.05  -0.05
 136   6     0.01   0.09   0.08    -0.01  -0.02   0.06    -0.01   0.05  -0.05
 137   6     0.02   0.09   0.09    -0.01  -0.02   0.06    -0.01   0.05  -0.06
 138   6     0.01   0.08   0.09    -0.01  -0.01   0.05    -0.01   0.05  -0.06
 139   7     0.01   0.09   0.09    -0.00  -0.01   0.06    -0.00   0.06  -0.07
 140   6     0.02   0.07   0.09    -0.01  -0.01   0.05    -0.01   0.05  -0.07
 141   6     0.02   0.07   0.09    -0.01  -0.01   0.04    -0.00   0.06  -0.07
 142   7     0.01   0.07   0.09    -0.00  -0.01   0.05    -0.00   0.06  -0.08
 143   1     0.01   0.02   0.03    -0.00  -0.00   0.01    -0.00   0.02  -0.02
 144   1     0.00   0.01   0.02    -0.00  -0.00   0.01    -0.00   0.02  -0.02
 145   1    -0.00   0.01   0.02     0.00  -0.00   0.01     0.00   0.02  -0.02
 146   1    -0.01   0.02   0.03     0.00  -0.00   0.01     0.00   0.02  -0.02
 147   1    -0.01   0.02   0.03     0.00  -0.00   0.01     0.00   0.02  -0.02
 148   1    -0.01   0.03   0.03     0.00  -0.00   0.02     0.00   0.02  -0.02
 149   1    -0.00   0.03   0.02     0.00  -0.01   0.02     0.00   0.02  -0.01
 150   1     0.00   0.03   0.02    -0.00  -0.01   0.02    -0.00   0.02  -0.01
 151   1     0.01   0.03   0.03    -0.00  -0.00   0.02    -0.00   0.02  -0.02
 152   1     0.01   0.02   0.03    -0.00  -0.00   0.01    -0.00   0.02  -0.02
 153  30     0.00   0.14   0.01    -0.00  -0.06   0.17    -0.00   0.06   0.02
 154   6    -0.02   0.07   0.02    -0.00  -0.03   0.07    -0.02   0.04  -0.02
 155   6    -0.01   0.08   0.03    -0.00  -0.02   0.07    -0.01   0.04  -0.03
 156   6    -0.01   0.07   0.03    -0.00  -0.03   0.07    -0.01   0.04  -0.02
 157   6    -0.00   0.08   0.03    -0.00  -0.03   0.07     0.00   0.04  -0.03
 158   6     0.01   0.07   0.03     0.00  -0.03   0.07     0.01   0.04  -0.02
 159   6     0.01   0.08   0.03     0.00  -0.02   0.07     0.01   0.04  -0.03
 160   6     0.02   0.07   0.02     0.00  -0.03   0.07     0.02   0.04  -0.02
 161   6     0.01   0.07   0.01     0.00  -0.03   0.07     0.01   0.03  -0.01
 162   7     0.01   0.07   0.02     0.00  -0.03   0.08     0.01   0.03  -0.01
 163   6     0.02   0.06  -0.00     0.00  -0.03   0.07     0.02   0.03   0.00
 164   6     0.01   0.05  -0.01     0.00  -0.03   0.07     0.02   0.02   0.02
 165   6     0.01   0.05  -0.02     0.00  -0.03   0.07     0.02   0.01   0.03
 166   6     0.01   0.04  -0.02     0.00  -0.03   0.07     0.02   0.01   0.05
 167   6     0.01   0.05  -0.02     0.00  -0.03   0.07     0.01   0.01   0.04
 168   7     0.01   0.06  -0.01     0.00  -0.03   0.08     0.01   0.02   0.02
 169   6     0.00   0.04  -0.02    -0.00  -0.03   0.07    -0.00   0.01   0.05
 170   6    -0.01   0.05  -0.02    -0.00  -0.03   0.07    -0.01   0.01   0.04
 171   6    -0.01   0.04  -0.02    -0.00  -0.03   0.08    -0.02   0.01   0.05
 172   6    -0.01   0.05  -0.02    -0.00  -0.03   0.07    -0.02   0.01   0.04
 173   6    -0.01   0.05  -0.01    -0.00  -0.03   0.07    -0.02   0.02   0.02
 174   7    -0.01   0.06  -0.01    -0.00  -0.03   0.08    -0.01   0.02   0.03
 175   6    -0.01   0.06  -0.00    -0.00  -0.03   0.07    -0.02   0.03   0.01
 176   6    -0.01   0.07   0.01    -0.00  -0.03   0.07    -0.01   0.03  -0.01
 177   7    -0.01   0.07   0.02    -0.00  -0.03   0.08    -0.01   0.03  -0.01
 178   1    -0.01   0.02   0.01    -0.00  -0.01   0.02    -0.01   0.01  -0.01
 179   1    -0.00   0.02   0.01    -0.00  -0.01   0.02    -0.00   0.01  -0.01
 180   1     0.00   0.02   0.01     0.00  -0.01   0.02     0.00   0.01  -0.01
 181   1     0.01   0.02   0.01     0.00  -0.01   0.02     0.01   0.01  -0.01
 182   1     0.01   0.02  -0.00     0.00  -0.01   0.02     0.01   0.01   0.00
 183   1     0.01   0.01  -0.01     0.00  -0.01   0.02     0.01   0.00   0.01
 184   1     0.00   0.01  -0.01     0.00  -0.01   0.02     0.00   0.00   0.02
 185   1    -0.00   0.01  -0.01    -0.00  -0.01   0.02    -0.00   0.00   0.02
 186   1    -0.01   0.01  -0.01    -0.00  -0.01   0.02    -0.01   0.00   0.01
 187   1    -0.01   0.02  -0.00    -0.00  -0.01   0.02    -0.01   0.01   0.00
 188  30     0.00   0.01  -0.09     0.00  -0.05   0.11    -0.00  -0.05   0.19
 189   6    -0.02   0.02  -0.04     0.00  -0.03   0.07    -0.01  -0.02   0.09
 190   6    -0.01   0.03  -0.04     0.00  -0.03   0.07    -0.01  -0.01   0.08
 191   6    -0.01   0.02  -0.04     0.00  -0.03   0.07    -0.00  -0.02   0.08
 192   6     0.00   0.02  -0.04    -0.00  -0.03   0.07    -0.00  -0.01   0.08
 193   6     0.01   0.02  -0.04    -0.00  -0.03   0.07     0.00  -0.02   0.08
 194   6     0.01   0.03  -0.04    -0.00  -0.03   0.07     0.01  -0.01   0.08
 195   6     0.02   0.02  -0.04    -0.00  -0.03   0.07     0.01  -0.02   0.09
 196   6     0.02   0.01  -0.04    -0.00  -0.03   0.06     0.01  -0.02   0.09
 197   7     0.01   0.01  -0.04    -0.00  -0.03   0.07     0.00  -0.02   0.09
 198   6     0.02   0.01  -0.04    -0.00  -0.02   0.05     0.01  -0.02   0.09
 199   6     0.02  -0.00  -0.04    -0.00  -0.02   0.04     0.01  -0.03   0.08
 200   6     0.02  -0.01  -0.04    -0.01  -0.01   0.03     0.01  -0.03   0.08
 201   6     0.02  -0.02  -0.03    -0.00  -0.01   0.02     0.01  -0.03   0.07
 202   6     0.01  -0.01  -0.03    -0.00  -0.01   0.02     0.00  -0.03   0.07
 203   7     0.01  -0.01  -0.04    -0.00  -0.02   0.04     0.00  -0.03   0.08
 204   6     0.00  -0.02  -0.03    -0.00  -0.01   0.01    -0.00  -0.03   0.06
 205   6    -0.01  -0.01  -0.03     0.00  -0.01   0.02    -0.00  -0.03   0.07
 206   6    -0.01  -0.02  -0.03     0.00  -0.01   0.02    -0.01  -0.03   0.07
 207   6    -0.02  -0.01  -0.04     0.01  -0.01   0.03    -0.01  -0.03   0.08
 208   6    -0.02  -0.00  -0.04     0.00  -0.02   0.04    -0.01  -0.03   0.08
 209   7    -0.01  -0.01  -0.04     0.00  -0.02   0.04    -0.00  -0.03   0.08
 210   6    -0.02   0.01  -0.04     0.00  -0.02   0.05    -0.01  -0.03   0.09
 211   6    -0.02   0.01  -0.04     0.00  -0.03   0.06    -0.01  -0.02   0.09
 212   7    -0.01   0.01  -0.04     0.00  -0.03   0.07    -0.00  -0.02   0.09
 213   1    -0.01   0.01  -0.01     0.00  -0.01   0.02    -0.00  -0.01   0.03
 214   1    -0.00   0.01  -0.01     0.00  -0.01   0.02    -0.00  -0.00   0.02
 215   1     0.00   0.01  -0.01    -0.00  -0.01   0.02     0.00  -0.00   0.02
 216   1     0.01   0.01  -0.01    -0.00  -0.01   0.02     0.00  -0.01   0.03
 217   1     0.01   0.00  -0.01    -0.00  -0.01   0.02     0.00  -0.01   0.03
 218   1     0.01  -0.00  -0.01    -0.00  -0.00   0.01     0.00  -0.01   0.02
 219   1     0.00  -0.01  -0.01    -0.00  -0.00   0.00     0.00  -0.01   0.02
 220   1    -0.00  -0.01  -0.01     0.00  -0.00   0.00    -0.00  -0.01   0.02
 221   1    -0.01  -0.00  -0.01     0.00  -0.00   0.01    -0.00  -0.01   0.02
 222   1    -0.01   0.00  -0.01     0.00  -0.01   0.02    -0.00  -0.01   0.03
                      4                      5                      6
                        a                      a                      a 
 Frequencies --     3.0092                 5.3134                 6.1825
 Red. masses --    19.1748                18.3010                17.8258
 Frc consts  --     0.0000                 0.0000                 0.0000
 IR Inten    --     7.4482                10.3383                 1.8373
 Raman Activ --     0.0000                 0.0000                 0.0000
 Depolar     --     0.0000                 0.0000                 0.0000
 Atom AN      X      Y      Z        X      Y      Z        X      Y      Z
   1  30    -0.00  -0.09  -0.06    -0.00  -0.09  -0.07     0.00   0.03  -0.09
   2   6     0.03  -0.01  -0.00     0.05   0.00   0.01    -0.03   0.00   0.04
   3   6     0.03   0.00   0.01     0.04   0.02   0.02    -0.02  -0.00   0.06
   4   6     0.01  -0.00   0.00     0.02   0.01   0.01    -0.01   0.00   0.04
   5   6    -0.00   0.00   0.01    -0.00   0.02   0.02    -0.00  -0.00   0.05
   6   6    -0.01  -0.00   0.00    -0.02   0.01   0.01     0.01   0.00   0.03
   7   6    -0.03   0.00   0.01    -0.04   0.02   0.02     0.02  -0.00   0.05
   8   6    -0.04  -0.01  -0.00    -0.05   0.00   0.01     0.03   0.00   0.03
   9   6    -0.03  -0.02  -0.01    -0.04  -0.02  -0.01     0.02   0.01  -0.00
  10   7    -0.02  -0.02  -0.01    -0.02  -0.02  -0.01     0.01   0.01   0.00
  11   6    -0.04  -0.04  -0.03    -0.05  -0.04  -0.03     0.03   0.02  -0.04
  12   6    -0.03  -0.05  -0.04    -0.04  -0.06  -0.05     0.02   0.02  -0.07
  13   6    -0.04  -0.07  -0.05    -0.05  -0.08  -0.07     0.03   0.03  -0.11
  14   6    -0.03  -0.08  -0.06    -0.04  -0.10  -0.08     0.02   0.03  -0.14
  15   6    -0.01  -0.07  -0.05    -0.02  -0.09  -0.07     0.01   0.03  -0.12
  16   7    -0.02  -0.06  -0.04    -0.02  -0.07  -0.05     0.01   0.02  -0.09
  17   6    -0.00  -0.08  -0.06    -0.00  -0.10  -0.08    -0.00   0.03  -0.14
  18   6     0.01  -0.07  -0.05     0.02  -0.09  -0.07    -0.01   0.03  -0.12
  19   6     0.02  -0.08  -0.06     0.04  -0.10  -0.08    -0.02   0.03  -0.14
  20   6     0.03  -0.07  -0.05     0.05  -0.08  -0.06    -0.03   0.03  -0.10
  21   6     0.03  -0.05  -0.04     0.04  -0.06  -0.05    -0.03   0.02  -0.07
  22   7     0.01  -0.06  -0.04     0.02  -0.07  -0.05    -0.01   0.02  -0.08
  23   6     0.03  -0.04  -0.03     0.05  -0.04  -0.03    -0.03   0.02  -0.03
  24   6     0.03  -0.02  -0.01     0.04  -0.02  -0.01    -0.03   0.01   0.00
  25   7     0.01  -0.02  -0.01     0.02  -0.02  -0.01    -0.01   0.01   0.00
  26   1     0.01  -0.00  -0.00     0.02   0.00   0.00    -0.01   0.00   0.01
  27   1     0.01   0.00   0.00     0.01   0.01   0.01    -0.01  -0.00   0.03
  28   1    -0.01   0.00   0.00    -0.01   0.01   0.01     0.01  -0.00   0.02
  29   1    -0.01  -0.00  -0.00    -0.02   0.00   0.00     0.01   0.00   0.01
  30   1    -0.01  -0.01  -0.01    -0.02  -0.01  -0.01     0.01   0.00  -0.01
  31   1    -0.01  -0.02  -0.02    -0.02  -0.02  -0.02     0.01   0.01  -0.03
  32   1    -0.01  -0.03  -0.02    -0.01  -0.03  -0.03     0.01   0.01  -0.05
  33   1    -0.00  -0.03  -0.02    -0.00  -0.03  -0.03     0.00   0.01  -0.05
  34   1     0.01  -0.03  -0.02     0.01  -0.03  -0.03    -0.01   0.01  -0.05
  35   1     0.01  -0.02  -0.02     0.02  -0.02  -0.02    -0.01   0.01  -0.03
  36   1     0.01  -0.01  -0.01     0.02  -0.01  -0.01    -0.01   0.01  -0.01
  37  30     0.00   0.13   0.06    -0.00  -0.07   0.00     0.00  -0.06  -0.04
  38   6    -0.04   0.01   0.03     0.01   0.01  -0.03     0.06   0.00   0.02
  39   6    -0.03  -0.00   0.02     0.00   0.02  -0.04     0.05   0.02   0.03
  40   6    -0.01   0.01   0.02     0.00   0.01  -0.03     0.02   0.01   0.02
  41   6     0.00   0.00   0.02    -0.00   0.02  -0.03     0.00   0.01   0.03
  42   6     0.01   0.01   0.02    -0.00   0.01  -0.03    -0.02   0.01   0.02
  43   6     0.03   0.00   0.02    -0.01   0.02  -0.04    -0.05   0.02   0.03
  44   6     0.04   0.01   0.02    -0.01   0.01  -0.03    -0.06   0.01   0.01
  45   6     0.03   0.03   0.02    -0.01  -0.01  -0.01    -0.05  -0.01  -0.00
  46   7     0.02   0.04   0.03    -0.00  -0.01  -0.02    -0.03  -0.01   0.00
  47   6     0.04   0.05   0.02    -0.01  -0.03   0.00    -0.06  -0.02  -0.02
  48   6     0.03   0.08   0.02    -0.01  -0.05   0.02    -0.05  -0.04  -0.04
  49   6     0.04   0.10   0.02    -0.01  -0.07   0.03    -0.06  -0.05  -0.05
  50   6     0.03   0.11   0.02    -0.01  -0.08   0.04    -0.05  -0.07  -0.06
  51   6     0.02   0.10   0.02    -0.00  -0.07   0.04    -0.02  -0.06  -0.05
  52   7     0.02   0.09   0.03    -0.00  -0.06   0.02    -0.03  -0.05  -0.04
  53   6     0.00   0.11   0.02    -0.00  -0.08   0.04     0.00  -0.07  -0.06
  54   6    -0.01   0.10   0.02     0.00  -0.07   0.03     0.02  -0.06  -0.05
  55   6    -0.03   0.11   0.02     0.01  -0.08   0.04     0.05  -0.07  -0.06
  56   6    -0.04   0.10   0.02     0.01  -0.06   0.03     0.06  -0.06  -0.05
  57   6    -0.03   0.08   0.02     0.01  -0.05   0.01     0.05  -0.04  -0.03
  58   7    -0.02   0.09   0.03     0.00  -0.05   0.02     0.03  -0.05  -0.04
  59   6    -0.04   0.05   0.03     0.01  -0.03  -0.00     0.06  -0.03  -0.01
  60   6    -0.03   0.03   0.03     0.01  -0.01  -0.02     0.05  -0.01   0.00
  61   7    -0.02   0.03   0.03     0.00  -0.01  -0.02     0.03  -0.01   0.00
  62   1    -0.02   0.00   0.01     0.00   0.00  -0.01     0.02   0.00   0.01
  63   1    -0.01  -0.01   0.01     0.00   0.01  -0.01     0.01   0.01   0.01
  64   1     0.01  -0.00   0.01    -0.00   0.01  -0.01    -0.01   0.01   0.01
  65   1     0.02   0.00   0.01    -0.00   0.00  -0.01    -0.02   0.00   0.00
  66   1     0.02   0.02   0.01    -0.00  -0.01  -0.00    -0.02  -0.01  -0.01
  67   1     0.02   0.03   0.01    -0.00  -0.02   0.01    -0.02  -0.02  -0.02
  68   1     0.01   0.04   0.01    -0.00  -0.03   0.02    -0.01  -0.02  -0.02
  69   1     0.00   0.04   0.01    -0.00  -0.03   0.02     0.00  -0.02  -0.02
  70   1    -0.01   0.04   0.01     0.00  -0.03   0.02     0.01  -0.02  -0.02
  71   1    -0.02   0.03   0.01     0.00  -0.02   0.01     0.02  -0.02  -0.01
  72   1    -0.02   0.02   0.01     0.00  -0.01  -0.00     0.02  -0.01  -0.00
  73   6    -0.00   0.02   0.02    -0.00   0.04   0.03    -0.00  -0.01   0.07
  74   6    -0.00   0.03   0.03    -0.00   0.06   0.04     0.00  -0.02   0.08
  75   6    -0.00   0.07   0.05     0.00   0.04   0.00     0.00  -0.04   0.06
  76   6    -0.00   0.07   0.05     0.00   0.03  -0.01     0.00  -0.03   0.05
  77   6    -0.00  -0.00  -0.03     0.00  -0.08   0.00     0.00  -0.00  -0.08
  78   6    -0.00  -0.01  -0.04     0.00  -0.07   0.02     0.00   0.00  -0.09
  79   6     0.00  -0.09  -0.05     0.00   0.04   0.03    -0.00   0.04  -0.01
  80   6     0.00  -0.09  -0.04     0.00   0.05   0.01    -0.00   0.04   0.01
  81   6     0.00  -0.03   0.01    -0.00   0.04  -0.05     0.00   0.03   0.07
  82   6     0.00  -0.02   0.02    -0.00   0.03  -0.04     0.00   0.03   0.05
  83  30    -0.00   0.15   0.13     0.00   0.18   0.11    -0.00  -0.05   0.19
  84   6     0.00   0.06   0.05     0.01   0.08   0.06    -0.00  -0.01   0.09
  85   6     0.00   0.05   0.04     0.00   0.08   0.06    -0.00  -0.01   0.09
  86   6     0.00   0.05   0.04     0.00   0.08   0.05    -0.00  -0.02   0.09
  87   6    -0.00   0.04   0.04     0.00   0.07   0.05     0.00  -0.02   0.09
  88   6    -0.00   0.05   0.04    -0.00   0.07   0.05     0.00  -0.02   0.08
  89   6    -0.00   0.05   0.04    -0.00   0.08   0.06     0.00  -0.02   0.08
  90   6    -0.00   0.05   0.05    -0.01   0.08   0.06     0.00  -0.02   0.08
  91   6    -0.00   0.06   0.05    -0.01   0.08   0.06    -0.00  -0.02   0.08
  92   7    -0.00   0.06   0.05    -0.00   0.08   0.06     0.00  -0.02   0.09
  93   6    -0.00   0.07   0.06    -0.01   0.08   0.05    -0.00  -0.02   0.08
  94   6    -0.00   0.07   0.06    -0.01   0.08   0.04    -0.00  -0.03   0.07
  95   6    -0.00   0.07   0.06    -0.01   0.07   0.04    -0.00  -0.03   0.07
  96   6    -0.00   0.08   0.06    -0.01   0.07   0.02    -0.00  -0.04   0.06
  97   6    -0.00   0.07   0.06    -0.00   0.07   0.03    -0.00  -0.03   0.07
  98   7    -0.00   0.08   0.06    -0.00   0.08   0.04    -0.00  -0.03   0.08
  99   6    -0.00   0.07   0.06     0.00   0.06   0.02     0.00  -0.03   0.07
 100   6     0.00   0.07   0.06     0.00   0.07   0.03     0.00  -0.03   0.07
 101   6     0.00   0.08   0.06     0.01   0.07   0.03     0.00  -0.03   0.07
 102   6     0.00   0.08   0.06     0.01   0.07   0.04     0.00  -0.03   0.07
 103   6     0.00   0.07   0.06     0.01   0.08   0.04     0.00  -0.02   0.08
 104   7     0.00   0.08   0.06     0.00   0.08   0.04     0.00  -0.03   0.08
 105   6     0.00   0.07   0.06     0.01   0.08   0.05     0.00  -0.02   0.08
 106   6     0.00   0.06   0.05     0.01   0.08   0.06     0.00  -0.02   0.09
 107   7     0.00   0.06   0.05     0.00   0.08   0.06    -0.00  -0.02   0.09
 108   1     0.00   0.02   0.01     0.00   0.03   0.02     0.00  -0.00   0.03
 109   1     0.00   0.01   0.01     0.00   0.02   0.02    -0.00  -0.00   0.03
 110   1    -0.00   0.01   0.01    -0.00   0.02   0.02     0.00  -0.00   0.02
 111   1    -0.00   0.02   0.01    -0.00   0.02   0.02    -0.00  -0.01   0.02
 112   1    -0.00   0.02   0.02    -0.00   0.02   0.02    -0.00  -0.01   0.02
 113   1    -0.00   0.02   0.02    -0.00   0.02   0.01    -0.00  -0.01   0.02
 114   1    -0.00   0.02   0.02    -0.00   0.02   0.00    -0.00  -0.01   0.02
 115   1     0.00   0.02   0.02     0.00   0.02   0.00     0.00  -0.01   0.02
 116   1     0.00   0.02   0.02     0.00   0.02   0.01     0.00  -0.01   0.02
 117   1     0.00   0.02   0.02     0.00   0.03   0.02     0.00  -0.01   0.02
 118  30    -0.00   0.08   0.04     0.00  -0.09  -0.10     0.00  -0.05  -0.05
 119   6    -0.01   0.05   0.04    -0.04  -0.01  -0.05     0.03  -0.03   0.02
 120   6    -0.01   0.06   0.04    -0.03   0.00  -0.04     0.02  -0.03   0.04
 121   6    -0.00   0.05   0.04    -0.01  -0.01  -0.03     0.01  -0.03   0.03
 122   6    -0.00   0.06   0.04     0.00   0.01  -0.03     0.00  -0.03   0.03
 123   6     0.00   0.05   0.04     0.02  -0.00  -0.03    -0.01  -0.03   0.02
 124   6     0.01   0.06   0.04     0.03   0.00  -0.03    -0.02  -0.03   0.03
 125   6     0.01   0.05   0.04     0.04  -0.01  -0.04    -0.03  -0.03   0.02
 126   6     0.01   0.04   0.03     0.03  -0.03  -0.04    -0.02  -0.03  -0.00
 127   7     0.01   0.05   0.03     0.02  -0.03  -0.04    -0.01  -0.03   0.00
 128   6     0.01   0.04   0.02     0.04  -0.05  -0.05    -0.03  -0.02  -0.02
 129   6     0.01   0.03   0.01     0.03  -0.06  -0.05    -0.02  -0.02  -0.04
 130   6     0.01   0.02  -0.00     0.04  -0.07  -0.04    -0.03  -0.02  -0.06
 131   6     0.01   0.01  -0.01     0.03  -0.08  -0.03    -0.02  -0.01  -0.07
 132   6     0.00   0.01  -0.01     0.01  -0.07  -0.03    -0.01  -0.01  -0.06
 133   7     0.01   0.03   0.01     0.02  -0.06  -0.04    -0.01  -0.02  -0.05
 134   6    -0.00   0.01  -0.01     0.00  -0.08  -0.02     0.00  -0.01  -0.07
 135   6    -0.00   0.01  -0.01    -0.01  -0.07  -0.03     0.01  -0.01  -0.06
 136   6    -0.01   0.01  -0.01    -0.03  -0.08  -0.04     0.02  -0.01  -0.07
 137   6    -0.01   0.02  -0.00    -0.04  -0.08  -0.05     0.03  -0.01  -0.06
 138   6    -0.01   0.03   0.01    -0.03  -0.06  -0.05     0.02  -0.02  -0.04
 139   7    -0.01   0.03   0.01    -0.02  -0.06  -0.04     0.01  -0.02  -0.05
 140   6    -0.01   0.04   0.02    -0.04  -0.05  -0.06     0.03  -0.02  -0.02
 141   6    -0.01   0.04   0.03    -0.03  -0.03  -0.05     0.02  -0.02   0.00
 142   7    -0.01   0.05   0.03    -0.02  -0.03  -0.04     0.01  -0.03   0.00
 143   1    -0.01   0.02   0.01    -0.02  -0.00  -0.02     0.01  -0.01   0.01
 144   1    -0.00   0.02   0.02    -0.01   0.00  -0.01     0.01  -0.01   0.02
 145   1     0.00   0.02   0.01     0.01   0.01  -0.01    -0.01  -0.01   0.02
 146   1     0.01   0.02   0.01     0.02  -0.00  -0.01    -0.01  -0.01   0.01
 147   1     0.00   0.01   0.01     0.01  -0.01  -0.02    -0.01  -0.01  -0.01
 148   1     0.00   0.00  -0.00     0.01  -0.02  -0.01    -0.01  -0.00  -0.02
 149   1     0.00   0.00  -0.01     0.01  -0.03  -0.01    -0.01  -0.00  -0.03
 150   1    -0.00   0.00  -0.01    -0.01  -0.03  -0.01     0.01  -0.00  -0.02
 151   1    -0.00   0.00  -0.00    -0.01  -0.02  -0.02     0.01  -0.00  -0.02
 152   1    -0.00   0.01   0.01    -0.01  -0.01  -0.02     0.01  -0.01  -0.01
 153  30     0.00  -0.12  -0.15     0.00  -0.04   0.14     0.00   0.05  -0.17
 154   6    -0.03  -0.03  -0.06     0.04  -0.05   0.07     0.01   0.01  -0.10
 155   6    -0.02  -0.02  -0.05     0.03  -0.06   0.06     0.01   0.01  -0.10
 156   6    -0.01  -0.03  -0.05     0.02  -0.05   0.05     0.00   0.01  -0.09
 157   6     0.00  -0.02  -0.05     0.00  -0.06   0.04     0.00   0.01  -0.09
 158   6     0.01  -0.03  -0.05    -0.01  -0.05   0.05    -0.00   0.01  -0.09
 159   6     0.02  -0.02  -0.05    -0.03  -0.06   0.06    -0.01   0.01  -0.10
 160   6     0.03  -0.03  -0.06    -0.04  -0.05   0.07    -0.01   0.01  -0.10
 161   6     0.02  -0.04  -0.06    -0.03  -0.03   0.07    -0.01   0.02  -0.09
 162   7     0.01  -0.04  -0.06    -0.02  -0.04   0.07    -0.00   0.02  -0.09
 163   6     0.03  -0.05  -0.07    -0.04  -0.02   0.08    -0.01   0.02  -0.08
 164   6     0.02  -0.06  -0.07    -0.03  -0.00   0.07    -0.01   0.03  -0.06
 165   6     0.03  -0.07  -0.08    -0.04   0.01   0.07    -0.01   0.03  -0.04
 166   6     0.02  -0.08  -0.07    -0.03   0.02   0.06    -0.01   0.04  -0.03
 167   6     0.01  -0.07  -0.07    -0.01   0.01   0.06    -0.00   0.03  -0.03
 168   7     0.01  -0.07  -0.07    -0.02  -0.00   0.07    -0.00   0.03  -0.06
 169   6     0.00  -0.08  -0.06     0.00   0.02   0.05    -0.00   0.04  -0.03
 170   6    -0.01  -0.07  -0.07     0.02   0.01   0.05     0.00   0.03  -0.04
 171   6    -0.02  -0.08  -0.07     0.03   0.02   0.06     0.01   0.03  -0.03
 172   6    -0.03  -0.07  -0.08     0.04   0.01   0.07     0.01   0.03  -0.05
 173   6    -0.02  -0.06  -0.07     0.03  -0.00   0.07     0.01   0.03  -0.06
 174   7    -0.01  -0.07  -0.07     0.02  -0.00   0.07     0.00   0.03  -0.06
 175   6    -0.03  -0.05  -0.07     0.04  -0.02   0.07     0.01   0.02  -0.08
 176   6    -0.02  -0.04  -0.06     0.03  -0.03   0.07     0.01   0.02  -0.09
 177   7    -0.01  -0.04  -0.06     0.02  -0.04   0.06     0.01   0.02  -0.09
 178   1    -0.01  -0.01  -0.02     0.02  -0.01   0.02     0.00   0.00  -0.03
 179   1    -0.01  -0.00  -0.01     0.01  -0.02   0.02     0.00   0.00  -0.03
 180   1     0.01  -0.00  -0.01    -0.01  -0.02   0.02    -0.00   0.00  -0.03
 181   1     0.01  -0.01  -0.02    -0.02  -0.01   0.02    -0.00   0.00  -0.03
 182   1     0.01  -0.02  -0.02    -0.02  -0.00   0.02    -0.00   0.01  -0.02
 183   1     0.01  -0.02  -0.02    -0.02   0.00   0.02    -0.00   0.01  -0.01
 184   1     0.01  -0.03  -0.02    -0.01   0.01   0.02    -0.00   0.01  -0.00
 185   1    -0.01  -0.03  -0.02     0.01   0.01   0.02     0.00   0.01  -0.00
 186   1    -0.01  -0.02  -0.02     0.02   0.00   0.02     0.00   0.01  -0.01
 187   1    -0.01  -0.02  -0.02     0.02  -0.00   0.02     0.00   0.01  -0.02
 188  30     0.00  -0.15  -0.01    -0.00   0.11  -0.10     0.00   0.08   0.14
 189   6     0.03  -0.08  -0.01    -0.01   0.05  -0.03     0.01   0.04   0.04
 190   6     0.02  -0.09  -0.02    -0.01   0.05  -0.01     0.00   0.04   0.02
 191   6     0.01  -0.08  -0.02    -0.00   0.05  -0.02     0.00   0.04   0.03
 192   6     0.00  -0.09  -0.03    -0.00   0.05  -0.01     0.00   0.04   0.02
 193   6    -0.01  -0.08  -0.02     0.00   0.05  -0.02    -0.00   0.04   0.03
 194   6    -0.02  -0.09  -0.02     0.01   0.05  -0.01    -0.00   0.04   0.03
 195   6    -0.03  -0.08  -0.01     0.01   0.05  -0.03    -0.01   0.03   0.05
 196   6    -0.02  -0.07  -0.01     0.01   0.05  -0.04    -0.00   0.03   0.06
 197   7    -0.01  -0.08  -0.01     0.00   0.06  -0.03    -0.00   0.04   0.05
 198   6    -0.03  -0.07  -0.00     0.01   0.05  -0.05    -0.00   0.03   0.07
 199   6    -0.02  -0.06   0.00     0.01   0.05  -0.05    -0.00   0.03   0.08
 200   6    -0.03  -0.05   0.01     0.01   0.05  -0.06    -0.00   0.03   0.09
 201   6    -0.02  -0.04   0.01     0.01   0.04  -0.06    -0.00   0.03   0.09
 202   6    -0.01  -0.04   0.01     0.00   0.04  -0.05    -0.00   0.03   0.08
 203   7    -0.01  -0.06   0.00     0.00   0.05  -0.05    -0.00   0.03   0.08
 204   6     0.00  -0.04   0.01    -0.00   0.04  -0.05     0.00   0.03   0.08
 205   6     0.01  -0.04   0.01    -0.00   0.04  -0.05     0.00   0.03   0.08
 206   6     0.02  -0.04   0.01    -0.01   0.04  -0.06     0.00   0.03   0.08
 207   6     0.03  -0.05   0.01    -0.01   0.05  -0.06     0.00   0.03   0.08
 208   6     0.02  -0.06   0.00    -0.01   0.05  -0.05     0.00   0.03   0.07
 209   7     0.01  -0.06   0.00    -0.00   0.05  -0.05     0.00   0.03   0.08
 210   6     0.03  -0.07  -0.00    -0.01   0.05  -0.05     0.00   0.03   0.06
 211   6     0.02  -0.07  -0.01    -0.01   0.05  -0.04     0.00   0.03   0.05
 212   7     0.01  -0.08  -0.01    -0.00   0.06  -0.03     0.00   0.04   0.05
 213   1     0.01  -0.02  -0.00    -0.00   0.02  -0.01     0.00   0.01   0.01
 214   1     0.01  -0.03  -0.01    -0.00   0.02  -0.00     0.00   0.01   0.00
 215   1    -0.01  -0.03  -0.01     0.00   0.02  -0.00    -0.00   0.01   0.00
 216   1    -0.01  -0.02  -0.00     0.00   0.02  -0.01    -0.00   0.01   0.01
 217   1    -0.01  -0.02   0.00     0.00   0.02  -0.02    -0.00   0.01   0.02
 218   1    -0.01  -0.01   0.00     0.00   0.01  -0.02    -0.00   0.01   0.03
 219   1    -0.01  -0.01   0.00     0.00   0.01  -0.02    -0.00   0.01   0.03
 220   1     0.01  -0.01   0.00    -0.00   0.01  -0.02     0.00   0.01   0.03
 221   1     0.01  -0.01   0.00    -0.00   0.01  -0.02     0.00   0.01   0.02
 222   1     0.01  -0.02  -0.00    -0.00   0.02  -0.01     0.00   0.01   0.02
                      7                      8                      9
                        a                      a                      a 
 Frequencies --     7.6164                 9.6222                 9.7869
 Red. masses --    11.2593                14.6316                11.9533
 Frc consts  --     0.0000                 0.0000                 0.0000
 IR Inten    --     0.4217                 0.5783                 0.6300
 Raman Activ --     0.0000                 0.0000                 0.0000
 Depolar     --     0.0000                 0.0000                 0.0000
 Atom AN      X      Y      Z        X      Y      Z        X      Y      Z
   1  30    -0.00   0.00  -0.00    -0.00  -0.01   0.02     0.00  -0.01   0.01
   2   6    -0.00  -0.02  -0.14     0.04   0.01  -0.12     0.02   0.02   0.08
   3   6    -0.00  -0.01  -0.10     0.03   0.02  -0.13     0.01   0.02   0.04
   4   6    -0.00  -0.01  -0.05     0.02   0.02  -0.09     0.01   0.01   0.01
   5   6    -0.00  -0.00   0.00    -0.00   0.03  -0.08    -0.00   0.01  -0.03
   6   6    -0.00   0.01   0.05    -0.02   0.02  -0.05    -0.01   0.00  -0.07
   7   6    -0.00   0.01   0.10    -0.03   0.03  -0.06    -0.01  -0.00  -0.12
   8   6    -0.00   0.02   0.14    -0.04   0.02  -0.02    -0.02  -0.01  -0.15
   9   6    -0.00   0.02   0.11    -0.03   0.01   0.01    -0.01  -0.01  -0.11
  10   7    -0.00   0.01   0.06    -0.02   0.01  -0.01    -0.01  -0.01  -0.07
  11   6    -0.00   0.02   0.14    -0.04   0.00   0.05    -0.02  -0.02  -0.12
  12   6    -0.00   0.02   0.11    -0.03  -0.01   0.09    -0.01  -0.02  -0.08
  13   6    -0.00   0.02   0.14    -0.04  -0.02   0.14    -0.02  -0.03  -0.09
  14   6    -0.00   0.02   0.10    -0.03  -0.03   0.16    -0.01  -0.03  -0.04
  15   6    -0.00   0.01   0.05    -0.02  -0.02   0.12    -0.01  -0.02  -0.00
  16   7    -0.00   0.01   0.06    -0.02  -0.02   0.08    -0.01  -0.02  -0.03
  17   6    -0.00   0.00  -0.00    -0.00  -0.03   0.12    -0.00  -0.01   0.05
  18   6    -0.00  -0.01  -0.05     0.02  -0.03   0.08     0.01  -0.00   0.09
  19   6    -0.00  -0.01  -0.11     0.03  -0.04   0.07     0.01   0.00   0.14
  20   6    -0.00  -0.02  -0.14     0.04  -0.04   0.02     0.02   0.01   0.16
  21   6    -0.00  -0.02  -0.11     0.03  -0.02  -0.00     0.01   0.01   0.12
  22   7    -0.00  -0.01  -0.06     0.02  -0.02   0.03     0.01   0.00   0.08
  23   6    -0.00  -0.02  -0.14     0.04  -0.02  -0.05     0.02   0.02   0.12
  24   6    -0.00  -0.02  -0.11     0.03  -0.00  -0.08     0.01   0.01   0.08
  25   7    -0.00  -0.01  -0.06     0.02   0.00  -0.06     0.01   0.01   0.04
  26   1    -0.00  -0.01  -0.05     0.02   0.00  -0.04     0.01   0.01   0.03
  27   1    -0.00  -0.00  -0.03     0.01   0.01  -0.05     0.00   0.01   0.01
  28   1    -0.00   0.00   0.03    -0.01   0.01  -0.02    -0.00   0.00  -0.04
  29   1    -0.00   0.01   0.05    -0.02   0.01  -0.00    -0.01  -0.00  -0.05
  30   1    -0.00   0.01   0.05    -0.02   0.00   0.02    -0.01  -0.01  -0.05
  31   1    -0.00   0.01   0.05    -0.02  -0.00   0.05    -0.01  -0.01  -0.04
  32   1    -0.00   0.01   0.03    -0.01  -0.01   0.06    -0.00  -0.01  -0.01
  33   1    -0.00   0.00  -0.00    -0.00  -0.01   0.05    -0.00  -0.00   0.02
  34   1    -0.00  -0.00  -0.03     0.01  -0.01   0.03     0.00  -0.00   0.05
  35   1    -0.00  -0.01  -0.05     0.02  -0.01   0.00     0.01   0.00   0.06
  36   1    -0.00  -0.01  -0.05     0.02  -0.01  -0.02     0.01   0.01   0.05
  37  30     0.00  -0.00  -0.00    -0.00  -0.02  -0.01     0.00  -0.01  -0.01
  38   6     0.00   0.10  -0.10     0.07   0.03   0.03     0.03   0.11  -0.09
  39   6     0.00   0.08  -0.07     0.05   0.06   0.02     0.02   0.10  -0.06
  40   6     0.00   0.04  -0.04     0.02   0.05   0.01     0.01   0.06  -0.03
  41   6     0.00   0.00   0.00    -0.00   0.07   0.01     0.00   0.03   0.00
  42   6     0.00  -0.04   0.04    -0.02   0.08  -0.01    -0.01   0.00   0.03
  43   6    -0.00  -0.07   0.08    -0.05   0.11  -0.03    -0.02  -0.02   0.06
  44   6    -0.00  -0.10   0.10    -0.07   0.10  -0.05    -0.03  -0.05   0.08
  45   6    -0.00  -0.08   0.08    -0.05   0.06  -0.04    -0.02  -0.05   0.07
  46   7     0.00  -0.04   0.05    -0.03   0.05  -0.02    -0.01  -0.02   0.04
  47   6    -0.00  -0.10   0.10    -0.07   0.04  -0.05    -0.03  -0.08   0.08
  48   6    -0.00  -0.08   0.08    -0.05  -0.00  -0.04    -0.02  -0.09   0.07
  49   6    -0.00  -0.10   0.11    -0.07  -0.03  -0.05    -0.03  -0.12   0.09
  50   6    -0.00  -0.08   0.08    -0.05  -0.07  -0.04    -0.02  -0.11   0.07
  51   6     0.00  -0.04   0.04    -0.02  -0.07  -0.02    -0.01  -0.07   0.03
  52   7     0.00  -0.05   0.05    -0.03  -0.03  -0.03    -0.01  -0.06   0.04
  53   6     0.00  -0.00  -0.00    -0.00  -0.10  -0.00     0.00  -0.05  -0.00
  54   6     0.00   0.03  -0.04     0.02  -0.10   0.01     0.01  -0.01  -0.04
  55   6     0.00   0.07  -0.08     0.05  -0.13   0.03     0.02   0.02  -0.07
  56   6     0.00   0.10  -0.11     0.07  -0.11   0.04     0.03   0.06  -0.10
  57   6     0.00   0.08  -0.09     0.05  -0.07   0.03     0.03   0.05  -0.08
  58   7     0.00   0.04  -0.05     0.03  -0.07   0.01     0.02   0.02  -0.05
  59   6     0.00   0.10  -0.10     0.07  -0.04   0.03     0.03   0.08  -0.10
  60   6     0.00   0.08  -0.08     0.05   0.00   0.02     0.03   0.08  -0.07
  61   7     0.00   0.05  -0.05     0.03   0.02   0.01     0.02   0.05  -0.04
  62   1     0.00   0.04  -0.04     0.03   0.01   0.01     0.01   0.04  -0.03
  63   1     0.00   0.02  -0.02     0.01   0.02   0.01     0.01   0.03  -0.02
  64   1    -0.00  -0.02   0.02    -0.01   0.04  -0.01    -0.01  -0.00   0.02
  65   1    -0.00  -0.04   0.04    -0.03   0.03  -0.02    -0.01  -0.02   0.03
  66   1    -0.00  -0.04   0.04    -0.03   0.02  -0.02    -0.01  -0.03   0.03
  67   1    -0.00  -0.04   0.04    -0.03  -0.01  -0.02    -0.01  -0.04   0.03
  68   1    -0.00  -0.02   0.02    -0.02  -0.03  -0.01    -0.01  -0.04   0.02
  69   1     0.00  -0.00  -0.00    -0.00  -0.04   0.00     0.00  -0.02  -0.00
  70   1     0.00   0.02  -0.02     0.01  -0.05   0.01     0.01   0.00  -0.02
  71   1     0.00   0.04  -0.04     0.03  -0.04   0.01     0.01   0.02  -0.04
  72   1     0.00   0.04  -0.04     0.03  -0.01   0.01     0.01   0.03  -0.04
  73   6    -0.00  -0.00   0.00    -0.00   0.04  -0.09    -0.00   0.01  -0.04
  74   6    -0.00  -0.00   0.00    -0.00   0.04  -0.09    -0.00   0.02  -0.04
  75   6    -0.00  -0.00   0.00    -0.00   0.01   0.03    -0.00   0.01   0.02
  76   6    -0.00  -0.00   0.00     0.00   0.00   0.05    -0.00   0.00   0.02
  77   6    -0.00  -0.00  -0.00     0.00  -0.05   0.01    -0.00  -0.02   0.01
  78   6     0.00  -0.00  -0.00     0.00  -0.05  -0.00    -0.00  -0.02   0.00
  79   6     0.00   0.00  -0.00     0.00  -0.02  -0.04    -0.00  -0.01  -0.02
  80   6     0.00   0.00  -0.00     0.00  -0.01  -0.03    -0.00  -0.00  -0.01
  81   6     0.00   0.00   0.00    -0.00   0.09   0.04     0.00   0.04   0.02
  82   6     0.00   0.00   0.00    -0.00   0.09   0.02     0.00   0.04   0.01
  83  30    -0.00   0.00   0.01    -0.00   0.06  -0.07     0.00   0.02  -0.03
  84   6    -0.00  -0.09  -0.09    -0.04   0.03  -0.07    -0.02   0.03  -0.01
  85   6    -0.00  -0.06  -0.07    -0.03   0.04  -0.08    -0.01   0.03  -0.02
  86   6    -0.00  -0.03  -0.03    -0.01   0.03  -0.07    -0.01   0.02  -0.02
  87   6    -0.00  -0.00   0.00    -0.00   0.04  -0.08    -0.00   0.01  -0.03
  88   6    -0.00   0.03   0.04     0.01   0.04  -0.06     0.01   0.01  -0.04
  89   6    -0.00   0.06   0.07     0.03   0.05  -0.07     0.01  -0.00  -0.05
  90   6    -0.00   0.09   0.09     0.04   0.04  -0.06     0.02  -0.01  -0.05
  91   6    -0.00   0.07   0.07     0.03   0.03  -0.04     0.01   0.00  -0.03
  92   7    -0.00   0.04   0.04     0.02   0.04  -0.05     0.01   0.01  -0.03
  93   6    -0.00   0.08   0.09     0.04   0.03  -0.03     0.02   0.00  -0.02
  94   6    -0.00   0.07   0.07     0.03   0.02  -0.02     0.01   0.01  -0.01
  95   6    -0.00   0.08   0.08     0.04   0.01  -0.00     0.02   0.01   0.01
  96   6    -0.00   0.06   0.06     0.03   0.01   0.01     0.01   0.01   0.01
  97   6    -0.00   0.03   0.03     0.01   0.01   0.00     0.01   0.01   0.01
  98   7    -0.00   0.04   0.04     0.02   0.02  -0.01     0.01   0.01  -0.01
  99   6    -0.00  -0.00   0.00     0.00   0.01   0.02    -0.00   0.01   0.01
 100   6    -0.00  -0.03  -0.03    -0.02   0.02   0.01    -0.01   0.00  -0.00
 101   6    -0.00  -0.06  -0.05    -0.03   0.02   0.02    -0.01  -0.00  -0.00
 102   6    -0.00  -0.08  -0.08    -0.04   0.02   0.01    -0.02   0.00  -0.00
 103   6    -0.00  -0.06  -0.06    -0.03   0.02  -0.01    -0.01   0.01  -0.01
 104   7    -0.00  -0.04  -0.04    -0.02   0.02  -0.01    -0.01   0.01  -0.01
 105   6    -0.00  -0.08  -0.08    -0.04   0.03  -0.03    -0.02   0.02  -0.01
 106   6    -0.00  -0.07  -0.07    -0.03   0.03  -0.05    -0.01   0.02  -0.01
 107   7    -0.00  -0.04  -0.04    -0.02   0.03  -0.06    -0.01   0.02  -0.02
 108   1    -0.00  -0.03  -0.03    -0.02   0.01  -0.02    -0.01   0.01  -0.00
 109   1    -0.00  -0.02  -0.02    -0.01   0.01  -0.03    -0.00   0.01  -0.00
 110   1    -0.00   0.02   0.02     0.01   0.02  -0.02     0.00  -0.00  -0.02
 111   1    -0.00   0.03   0.04     0.02   0.01  -0.02     0.01  -0.00  -0.02
 112   1    -0.00   0.03   0.03     0.02   0.01  -0.01     0.01   0.00  -0.01
 113   1    -0.00   0.03   0.03     0.02   0.00  -0.00     0.01   0.00   0.00
 114   1    -0.00   0.02   0.02     0.01   0.00   0.01     0.00   0.01   0.01
 115   1    -0.00  -0.02  -0.02    -0.01   0.01   0.01    -0.00  -0.00   0.00
 116   1    -0.00  -0.03  -0.03    -0.02   0.01   0.00    -0.01   0.00  -0.00
 117   1    -0.00  -0.03  -0.03    -0.02   0.01  -0.01    -0.01   0.01  -0.00
 118  30    -0.00  -0.00   0.00     0.00  -0.04   0.12    -0.00  -0.01   0.06
 119   6     0.00  -0.02  -0.06    -0.01   0.02   0.12    -0.01  -0.03  -0.07
 120   6     0.00  -0.02  -0.05    -0.01   0.01   0.10    -0.01  -0.02  -0.04
 121   6    -0.00  -0.01  -0.02    -0.00   0.00   0.08    -0.00  -0.01  -0.01
 122   6    -0.00  -0.00   0.00    -0.00  -0.00   0.06    -0.00   0.00   0.03
 123   6    -0.00   0.01   0.03     0.00  -0.01   0.04     0.00   0.01   0.06
 124   6    -0.00   0.02   0.05     0.01  -0.01   0.03     0.00   0.03   0.10
 125   6    -0.00   0.02   0.06     0.01  -0.02   0.02     0.00   0.04   0.13
 126   6    -0.00   0.02   0.05     0.01  -0.02   0.02     0.00   0.03   0.11
 127   7    -0.00   0.01   0.03     0.01  -0.02   0.04     0.00   0.02   0.08
 128   6    -0.00   0.02   0.05     0.01  -0.03   0.01     0.00   0.04   0.14
 129   6    -0.00   0.01   0.03     0.01  -0.04   0.00     0.00   0.03   0.12
 130   6    -0.00   0.02   0.04     0.01  -0.06  -0.02     0.00   0.04   0.14
 131   6    -0.00   0.01   0.02     0.01  -0.06  -0.02     0.00   0.03   0.10
 132   6    -0.00   0.00   0.01     0.00  -0.04   0.01     0.00   0.01   0.06
 133   7    -0.00   0.01   0.02     0.00  -0.04   0.02     0.00   0.01   0.07
 134   6    -0.00  -0.00  -0.00     0.00  -0.04   0.02    -0.00  -0.02   0.01
 135   6    -0.00  -0.01  -0.01    -0.00  -0.03   0.05    -0.00  -0.03  -0.03
 136   6    -0.00  -0.01  -0.03    -0.01  -0.02   0.06    -0.00  -0.06  -0.08
 137   6    -0.00  -0.02  -0.04    -0.01  -0.01   0.09    -0.00  -0.06  -0.10
 138   6    -0.00  -0.02  -0.04    -0.01  -0.00   0.09    -0.00  -0.05  -0.07
 139   7    -0.00  -0.01  -0.02    -0.00  -0.02   0.07    -0.00  -0.03  -0.03
 140   6     0.00  -0.02  -0.05    -0.01   0.01   0.11    -0.01  -0.05  -0.08
 141   6     0.00  -0.02  -0.04    -0.01   0.01   0.10    -0.01  -0.03  -0.05
 142   7    -0.00  -0.01  -0.02    -0.01  -0.00   0.09    -0.00  -0.02  -0.02
 143   1     0.00  -0.01  -0.02    -0.00   0.01   0.04    -0.00  -0.01  -0.03
 144   1     0.00  -0.01  -0.01    -0.00   0.00   0.03    -0.00  -0.00  -0.01
 145   1    -0.00   0.00   0.02     0.00  -0.00   0.01     0.00   0.01   0.03
 146   1    -0.00   0.01   0.02     0.00  -0.01   0.00     0.00   0.01   0.05
 147   1    -0.00   0.01   0.02     0.00  -0.01  -0.00     0.00   0.02   0.05
 148   1    -0.00   0.01   0.01     0.00  -0.02  -0.01     0.00   0.02   0.05
 149   1    -0.00   0.00   0.01     0.00  -0.02  -0.01     0.00   0.01   0.03
 150   1    -0.00  -0.00  -0.01    -0.00  -0.01   0.02    -0.00  -0.02  -0.03
 151   1    -0.00  -0.01  -0.02    -0.00  -0.00   0.03    -0.00  -0.02  -0.04
 152   1     0.00  -0.01  -0.02    -0.00   0.00   0.04    -0.00  -0.02  -0.03
 153  30    -0.00  -0.00  -0.01    -0.00  -0.09  -0.11     0.00  -0.04  -0.05
 154   6     0.00   0.00   0.03     0.01  -0.04   0.03     0.00  -0.02  -0.16
 155   6     0.00  -0.00   0.01     0.01  -0.05   0.03     0.00  -0.02  -0.11
 156   6     0.00  -0.00   0.01     0.00  -0.05   0.00     0.00  -0.02  -0.06
 157   6    -0.00  -0.00  -0.00     0.00  -0.05  -0.01    -0.00  -0.02  -0.01
 158   6     0.00  -0.00  -0.01    -0.00  -0.05  -0.04    -0.00  -0.02   0.04
 159   6     0.00  -0.00  -0.02    -0.01  -0.05  -0.06    -0.00  -0.02   0.10
 160   6     0.00  -0.00  -0.04    -0.01  -0.05  -0.09    -0.00  -0.02   0.13
 161   6     0.00  -0.00  -0.03    -0.01  -0.04  -0.09    -0.00  -0.01   0.10
 162   7     0.00  -0.00  -0.02    -0.00  -0.05  -0.07    -0.00  -0.02   0.05
 163   6    -0.00  -0.00  -0.05    -0.01  -0.04  -0.11    -0.00  -0.01   0.11
 164   6    -0.00  -0.00  -0.05    -0.01  -0.04  -0.10    -0.00  -0.01   0.08
 165   6    -0.00  -0.01  -0.06    -0.01  -0.04  -0.12    -0.01  -0.00   0.10
 166   6    -0.00  -0.00  -0.05    -0.01  -0.03  -0.10    -0.00  -0.00   0.06
 167   6     0.00  -0.00  -0.03    -0.00  -0.03  -0.07    -0.00  -0.01   0.02
 168   7     0.00  -0.00  -0.03    -0.00  -0.04  -0.08    -0.00  -0.01   0.03
 169   6     0.00   0.00  -0.00     0.00  -0.03  -0.05    -0.00  -0.01  -0.03
 170   6     0.00   0.00   0.02     0.00  -0.03  -0.04     0.00  -0.02  -0.07
 171   6    -0.00   0.01   0.04     0.01  -0.02  -0.02     0.00  -0.02  -0.12
 172   6    -0.00   0.01   0.05     0.01  -0.03  -0.01     0.00  -0.03  -0.16
 173   6     0.00   0.00   0.04     0.01  -0.03  -0.01     0.00  -0.02  -0.13
 174   7     0.00   0.00   0.02     0.01  -0.04  -0.03     0.00  -0.02  -0.09
 175   6     0.00   0.00   0.04     0.01  -0.04   0.00     0.00  -0.03  -0.16
 176   6     0.00   0.00   0.03     0.01  -0.04   0.01     0.00  -0.02  -0.13
 177   7     0.00   0.00   0.01     0.00  -0.05  -0.01     0.00  -0.02  -0.08
 178   1     0.00   0.00   0.01     0.00  -0.01   0.02     0.00  -0.01  -0.06
 179   1     0.00  -0.00   0.00     0.00  -0.01   0.01     0.00  -0.01  -0.03
 180   1     0.00   0.00  -0.01    -0.00  -0.01  -0.02    -0.00  -0.01   0.03
 181   1     0.00  -0.00  -0.01    -0.00  -0.01  -0.03    -0.00  -0.00   0.05
 182   1    -0.00  -0.00  -0.02    -0.00  -0.01  -0.04    -0.00  -0.00   0.04
 183   1    -0.00  -0.00  -0.02    -0.00  -0.01  -0.04    -0.00   0.00   0.04
 184   1    -0.00  -0.00  -0.02    -0.00  -0.01  -0.03    -0.00  -0.00   0.02
 185   1    -0.00   0.00   0.01     0.00  -0.01  -0.01     0.00  -0.01  -0.03
 186   1    -0.00   0.00   0.02     0.00  -0.01   0.00     0.00  -0.01  -0.06
 187   1     0.00   0.00   0.02     0.00  -0.01   0.01     0.00  -0.01  -0.06
 188  30     0.00   0.00   0.01     0.00   0.09   0.06    -0.00   0.04   0.03
 189   6     0.00  -0.04   0.11     0.04   0.01   0.01     0.02   0.01  -0.02
 190   6     0.00  -0.03   0.08     0.03   0.00  -0.00     0.02   0.01  -0.03
 191   6     0.00  -0.01   0.04     0.02   0.01  -0.00     0.01   0.01  -0.01
 192   6     0.00   0.00   0.00     0.00   0.01  -0.01    -0.00   0.00  -0.01
 193   6     0.00   0.01  -0.04    -0.02   0.01  -0.01    -0.01   0.00   0.01
 194   6     0.00   0.03  -0.08    -0.03   0.01  -0.02    -0.01  -0.01   0.02
 195   6     0.00   0.04  -0.11    -0.04   0.01  -0.00    -0.02  -0.00   0.02
 196   6     0.00   0.03  -0.09    -0.03   0.03   0.02    -0.02   0.01   0.02
 197   7     0.00   0.02  -0.05    -0.02   0.03   0.01    -0.01   0.01   0.01
 198   6     0.00   0.04  -0.11    -0.04   0.04   0.03    -0.02   0.01   0.02
 199   6     0.00   0.03  -0.10    -0.03   0.05   0.05    -0.02   0.02   0.01
 200   6     0.00   0.04  -0.12    -0.04   0.06   0.06    -0.02   0.03   0.01
 201   6     0.00   0.03  -0.09    -0.03   0.07   0.06    -0.01   0.04   0.01
 202   6     0.00   0.01  -0.04    -0.01   0.07   0.05    -0.01   0.03   0.01
 203   7     0.00   0.02  -0.05    -0.02   0.06   0.04    -0.01   0.03   0.01
 204   6     0.00   0.00   0.00    -0.00   0.08   0.04     0.00   0.03   0.02
 205   6     0.00  -0.01   0.05     0.01   0.07   0.04     0.01   0.03   0.03
 206   6     0.00  -0.02   0.10     0.03   0.08   0.04     0.01   0.03   0.04
 207   6     0.00  -0.03   0.13     0.04   0.06   0.04     0.02   0.02   0.04
 208   6     0.00  -0.03   0.10     0.03   0.05   0.04     0.02   0.02   0.03
 209   7     0.00  -0.02   0.06     0.02   0.06   0.04     0.01   0.02   0.02
 210   6     0.00  -0.04   0.12     0.04   0.04   0.03     0.02   0.02   0.01
 211   6     0.00  -0.03   0.10     0.03   0.02   0.02     0.02   0.01  -0.00
 212   7     0.00  -0.02   0.05     0.02   0.02   0.01     0.01   0.01  -0.00
 213   1     0.00  -0.01   0.04     0.02   0.00   0.00     0.01   0.00  -0.01
 214   1     0.00  -0.01   0.02     0.01  -0.00  -0.00     0.01   0.00  -0.01
 215   1     0.00   0.01  -0.02    -0.01  -0.00  -0.01    -0.00  -0.00   0.01
 216   1     0.00   0.01  -0.04    -0.02   0.00  -0.00    -0.01  -0.00   0.01
 217   1     0.00   0.01  -0.04    -0.02   0.01   0.01    -0.01   0.00   0.01
 218   1    -0.00   0.01  -0.05    -0.02   0.02   0.02    -0.01   0.01   0.00
 219   1     0.00   0.01  -0.03    -0.01   0.02   0.02    -0.00   0.01   0.00
 220   1     0.00  -0.01   0.03     0.01   0.03   0.01     0.00   0.01   0.02
 221   1     0.00  -0.01   0.05     0.02   0.02   0.01     0.01   0.01   0.01
 222   1     0.00  -0.01   0.05     0.02   0.01   0.01     0.01   0.00   0.00
                     10                     11                     12
                        a                      a                      a 
 Frequencies --    11.9613                12.8657                14.3327
 Red. masses --    13.0976                11.2698                11.8950
 Frc consts  --     0.0000                 0.0000                 0.0000
 IR Inten    --     0.8770                 0.6870                18.4146
 Raman Activ --     0.0000                 0.0000                 0.0000
 Depolar     --     0.0000                 0.0000                 0.0000
 Atom AN      X      Y      Z        X      Y      Z        X      Y      Z
   1  30    -0.00   0.00  -0.00    -0.01  -0.00   0.00    -0.00  -0.02  -0.03
   2   6     0.06   0.04  -0.04    -0.00   0.02   0.12    -0.07  -0.07  -0.08
   3   6     0.05   0.06  -0.05    -0.00   0.01   0.08    -0.05  -0.09  -0.09
   4   6     0.02   0.05  -0.03    -0.00   0.01   0.04    -0.02  -0.07  -0.08
   5   6     0.00   0.06  -0.03    -0.00   0.00   0.00    -0.00  -0.09  -0.08
   6   6    -0.02   0.05  -0.03    -0.00  -0.00  -0.04     0.02  -0.07  -0.08
   7   6    -0.05   0.06  -0.04    -0.01  -0.01  -0.07     0.05  -0.09  -0.10
   8   6    -0.06   0.04  -0.03    -0.01  -0.01  -0.11     0.07  -0.07  -0.08
   9   6    -0.05   0.02  -0.02    -0.01  -0.01  -0.10     0.05  -0.04  -0.05
  10   7    -0.03   0.03  -0.02    -0.00  -0.01  -0.05     0.03  -0.05  -0.06
  11   6    -0.06  -0.00  -0.00    -0.01  -0.02  -0.13     0.07  -0.01  -0.02
  12   6    -0.05  -0.02   0.01    -0.01  -0.02  -0.11     0.05   0.02   0.02
  13   6    -0.06  -0.04   0.03    -0.01  -0.02  -0.15     0.07   0.05   0.05
  14   6    -0.05  -0.06   0.05    -0.01  -0.02  -0.11     0.05   0.07   0.09
  15   6    -0.02  -0.05   0.04    -0.00  -0.01  -0.06     0.02   0.06   0.07
  16   7    -0.03  -0.03   0.02    -0.00  -0.01  -0.06     0.03   0.03   0.03
  17   6    -0.00  -0.06   0.04    -0.00  -0.00  -0.00    -0.00   0.07   0.09
  18   6     0.02  -0.05   0.03    -0.00   0.01   0.05    -0.02   0.06   0.07
  19   6     0.05  -0.06   0.04    -0.00   0.01   0.11    -0.05   0.07   0.09
  20   6     0.06  -0.04   0.02    -0.00   0.02   0.15    -0.07   0.05   0.06
  21   6     0.05  -0.02   0.01    -0.00   0.02   0.11    -0.05   0.02   0.02
  22   7     0.03  -0.03   0.02    -0.00   0.01   0.06    -0.03   0.03   0.03
  23   6     0.06  -0.00  -0.01    -0.00   0.02   0.13    -0.07  -0.01  -0.02
  24   6     0.05   0.02  -0.02    -0.00   0.02   0.10    -0.05  -0.04  -0.05
  25   7     0.03   0.03  -0.02    -0.00   0.01   0.06    -0.03  -0.05  -0.06
  26   1     0.02   0.01  -0.01    -0.00   0.01   0.04    -0.03  -0.02  -0.02
  27   1     0.01   0.02  -0.02    -0.00   0.00   0.02    -0.02  -0.03  -0.03
  28   1    -0.01   0.02  -0.02    -0.00  -0.00  -0.02     0.01  -0.03  -0.03
  29   1    -0.02   0.01  -0.01    -0.00  -0.01  -0.04     0.03  -0.02  -0.03
  30   1    -0.02  -0.00  -0.00    -0.00  -0.01  -0.05     0.03  -0.00  -0.01
  31   1    -0.02  -0.01   0.01    -0.00  -0.01  -0.06     0.03   0.02   0.02
  32   1    -0.01  -0.02   0.02    -0.00  -0.01  -0.04     0.01   0.03   0.04
  33   1    -0.00  -0.02   0.02    -0.00  -0.00  -0.00    -0.00   0.03   0.04
  34   1     0.01  -0.02   0.02    -0.00   0.00   0.03    -0.01   0.03   0.04
  35   1     0.02  -0.01   0.01     0.00   0.01   0.06    -0.03   0.02   0.02
  36   1     0.02  -0.00  -0.00     0.00   0.01   0.05    -0.03  -0.00  -0.01
  37  30     0.00  -0.02   0.01     0.00  -0.00   0.00    -0.00  -0.02   0.01
  38   6    -0.01  -0.10   0.08     0.00  -0.07   0.08    -0.02  -0.05   0.02
  39   6    -0.01  -0.12   0.10     0.00  -0.05   0.05    -0.01  -0.05   0.02
  40   6    -0.00  -0.09   0.08     0.00  -0.02   0.03    -0.01  -0.04   0.01
  41   6    -0.00  -0.10   0.08     0.00  -0.00   0.01    -0.00  -0.04   0.01
  42   6     0.00  -0.09   0.08     0.00   0.02  -0.02     0.01  -0.04   0.01
  43   6     0.01  -0.12   0.10    -0.00   0.04  -0.04     0.01  -0.05   0.02
  44   6     0.01  -0.10   0.09    -0.00   0.07  -0.07     0.02  -0.04   0.02
  45   6     0.01  -0.06   0.05    -0.00   0.06  -0.06     0.02  -0.03   0.01
  46   7     0.01  -0.06   0.06    -0.00   0.03  -0.03     0.01  -0.03   0.01
  47   6     0.02  -0.02   0.02    -0.00   0.08  -0.08     0.02  -0.01   0.00
  48   6     0.01   0.03  -0.02    -0.00   0.07  -0.08     0.02   0.01  -0.01
  49   6     0.02   0.07  -0.06    -0.00   0.09  -0.10     0.02   0.03  -0.02
  50   6     0.01   0.12  -0.10    -0.00   0.07  -0.08     0.01   0.05  -0.02
  51   6     0.01   0.09  -0.08    -0.00   0.04  -0.04     0.01   0.04  -0.02
  52   7     0.01   0.04  -0.04    -0.00   0.04  -0.05     0.01   0.02  -0.01
  53   6     0.00   0.12  -0.11     0.00   0.00  -0.01    -0.00   0.05  -0.02
  54   6    -0.01   0.10  -0.09     0.00  -0.03   0.03    -0.01   0.03  -0.02
  55   6    -0.01   0.12  -0.11     0.00  -0.07   0.07    -0.02   0.04  -0.02
  56   6    -0.02   0.08  -0.07     0.00  -0.09   0.09    -0.02   0.02  -0.01
  57   6    -0.01   0.03  -0.03     0.00  -0.07   0.07    -0.02   0.00   0.00
  58   7    -0.01   0.05  -0.04     0.00  -0.04   0.04    -0.01   0.01  -0.00
  59   6    -0.02  -0.02   0.02     0.00  -0.08   0.09    -0.02  -0.02   0.01
  60   6    -0.01  -0.06   0.05     0.00  -0.06   0.07    -0.02  -0.03   0.02
  61   7    -0.01  -0.06   0.05     0.00  -0.03   0.04    -0.01  -0.03   0.01
  62   1    -0.01  -0.03   0.03     0.00  -0.03   0.03    -0.01  -0.02   0.01
  63   1    -0.00  -0.04   0.04     0.00  -0.01   0.01    -0.00  -0.02   0.01
  64   1     0.00  -0.04   0.04    -0.00   0.01  -0.01     0.00  -0.02   0.01
  65   1     0.00  -0.03   0.03    -0.00   0.03  -0.03     0.01  -0.01   0.01
  66   1     0.01  -0.01   0.01    -0.00   0.03  -0.03     0.01  -0.00   0.00
  67   1     0.01   0.02  -0.02    -0.00   0.03  -0.04     0.01   0.01  -0.00
  68   1     0.00   0.05  -0.04    -0.00   0.02  -0.03     0.00   0.02  -0.01
  69   1     0.00   0.05  -0.04     0.00   0.00  -0.00    -0.00   0.02  -0.01
  70   1    -0.00   0.05  -0.04     0.00  -0.02   0.02    -0.00   0.02  -0.01
  71   1    -0.01   0.02  -0.02     0.00  -0.03   0.04    -0.01   0.01  -0.00
  72   1    -0.01  -0.01   0.01     0.00  -0.03   0.03    -0.01  -0.01   0.00
  73   6     0.00   0.08  -0.03    -0.00   0.00   0.00    -0.00  -0.11  -0.09
  74   6     0.00   0.09  -0.03    -0.00   0.00   0.00    -0.00  -0.11  -0.09
  75   6     0.00  -0.06   0.01    -0.00  -0.00  -0.00     0.00   0.11   0.11
  76   6     0.00  -0.07   0.02    -0.00  -0.00  -0.00     0.00   0.10   0.10
  77   6     0.00  -0.03   0.01     0.00  -0.00   0.01     0.00  -0.07  -0.08
  78   6     0.00  -0.01   0.01     0.00  -0.00   0.01     0.00  -0.06  -0.07
  79   6    -0.00   0.09  -0.05     0.00   0.00  -0.01    -0.00   0.05   0.04
  80   6    -0.00   0.09  -0.06     0.00   0.00  -0.01    -0.00   0.05   0.03
  81   6    -0.00  -0.10   0.08     0.00  -0.00   0.01    -0.00  -0.04  -0.00
  82   6    -0.00  -0.11   0.09     0.00  -0.00   0.01    -0.00  -0.05   0.01
  83  30     0.00   0.05  -0.01    -0.00   0.00  -0.00     0.00   0.02   0.05
  84   6    -0.05   0.07   0.00    -0.00  -0.06  -0.06     0.01  -0.07  -0.05
  85   6    -0.03   0.09  -0.00    -0.00  -0.03  -0.04     0.01  -0.10  -0.08
  86   6    -0.02   0.07  -0.01    -0.00  -0.02  -0.02     0.00  -0.08  -0.06
  87   6     0.00   0.08  -0.01    -0.00   0.00   0.00    -0.00  -0.09  -0.07
  88   6     0.02   0.07  -0.01    -0.00   0.02   0.02    -0.00  -0.08  -0.06
  89   6     0.03   0.08  -0.01    -0.00   0.04   0.04    -0.01  -0.10  -0.08
  90   6     0.05   0.06  -0.01    -0.00   0.06   0.06    -0.01  -0.07  -0.05
  91   6     0.04   0.04  -0.01    -0.00   0.05   0.06    -0.01  -0.03  -0.01
  92   7     0.02   0.05  -0.01    -0.00   0.03   0.03    -0.00  -0.04  -0.02
  93   6     0.05   0.02  -0.01    -0.00   0.07   0.07    -0.01   0.01   0.03
  94   6     0.04  -0.01  -0.01    -0.00   0.07   0.06    -0.01   0.05   0.06
  95   6     0.05  -0.03  -0.01    -0.00   0.09   0.08    -0.01   0.09   0.09
  96   6     0.03  -0.05  -0.01    -0.00   0.07   0.06    -0.00   0.11   0.11
  97   6     0.02  -0.03  -0.00    -0.00   0.03   0.03    -0.00   0.09   0.09
  98   7     0.02  -0.01  -0.00    -0.00   0.04   0.04    -0.00   0.06   0.07
  99   6     0.00  -0.04   0.00    -0.00  -0.00  -0.00     0.00   0.10   0.10
 100   6    -0.02  -0.03  -0.00    -0.00  -0.03  -0.04     0.00   0.09   0.10
 101   6    -0.03  -0.04  -0.00    -0.00  -0.07  -0.07     0.00   0.11   0.12
 102   6    -0.05  -0.02   0.00    -0.00  -0.09  -0.09     0.01   0.09   0.10
 103   6    -0.04  -0.00   0.00    -0.00  -0.06  -0.07     0.01   0.05   0.06
 104   7    -0.02  -0.01  -0.00    -0.00  -0.04  -0.04     0.00   0.06   0.07
 105   6    -0.05   0.02   0.00    -0.00  -0.07  -0.08     0.01   0.01   0.03
 106   6    -0.04   0.05   0.00    -0.00  -0.05  -0.06     0.01  -0.03  -0.01
 107   7    -0.02   0.05  -0.00    -0.00  -0.03  -0.03     0.00  -0.04  -0.02
 108   1    -0.02   0.02   0.00    -0.00  -0.02  -0.02     0.00  -0.02  -0.02
 109   1    -0.01   0.03  -0.00    -0.00  -0.01  -0.01     0.00  -0.04  -0.03
 110   1     0.01   0.03  -0.00    -0.00   0.01   0.01    -0.00  -0.04  -0.03
 111   1     0.02   0.02  -0.00    -0.00   0.02   0.02    -0.00  -0.02  -0.02
 112   1     0.02   0.01  -0.00    -0.00   0.03   0.03    -0.00   0.00   0.01
[...]
 198   6     0.00   0.00   0.00     0.00   0.00   0.00    -0.00   0.00   0.00
 199   6    -0.00   0.00   0.00    -0.00   0.00   0.00    -0.00   0.00   0.00
 200   6     0.00   0.01   0.00     0.00   0.00   0.00     0.00   0.05   0.01
 201   6     0.01   0.00  -0.00     0.01   0.00  -0.00     0.09   0.01  -0.00
 202   6     0.00  -0.00  -0.00     0.00  -0.00  -0.00     0.00  -0.00  -0.00
 203   7    -0.00  -0.00  -0.00    -0.00  -0.00  -0.00    -0.00  -0.00  -0.00
 204   6    -0.00   0.00   0.00     0.00   0.00   0.00     0.00   0.00   0.00
 205   6    -0.00  -0.00  -0.00     0.00   0.00   0.00     0.00   0.00   0.00
 206   6    -0.01   0.00  -0.00     0.00  -0.00   0.00     0.09  -0.01   0.00
 207   6    -0.00   0.00   0.00     0.00  -0.00  -0.00     0.00  -0.05  -0.01
 208   6     0.00   0.00   0.00    -0.00   0.00   0.00    -0.00  -0.00  -0.00
 209   7     0.00  -0.00  -0.00    -0.00   0.00   0.00    -0.00   0.00   0.00
 210   6    -0.00   0.00   0.00    -0.00   0.00   0.00    -0.00  -0.00  -0.00
 211   6     0.00  -0.00   0.00     0.00  -0.00   0.00     0.00  -0.00  -0.00
 212   7     0.00   0.00   0.00     0.00   0.00   0.00     0.00   0.00   0.00
 213   1     0.00   0.04   0.01     0.00   0.02   0.01     0.02   0.21   0.07
 214   1     0.12   0.01   0.01     0.05   0.00   0.00     0.50   0.05   0.04
 215   1    -0.11   0.01   0.01    -0.01   0.00   0.00     0.54  -0.05  -0.05
 216   1    -0.00   0.04   0.01     0.00  -0.00  -0.00     0.03  -0.23  -0.08
 217   1     0.00  -0.00  -0.00     0.00  -0.00  -0.00     0.00  -0.01  -0.00
 218   1    -0.00  -0.02  -0.00    -0.00  -0.01  -0.00    -0.02  -0.16  -0.04
 219   1    -0.03  -0.00   0.00    -0.02  -0.00   0.00    -0.30  -0.04   0.00
 220   1     0.03  -0.00   0.00    -0.01   0.00  -0.00    -0.29   0.04  -0.00
 221   1     0.00  -0.01  -0.00    -0.00   0.00   0.00    -0.02   0.16   0.04
 222   1    -0.00  -0.00  -0.00    -0.00  -0.00  -0.00     0.00   0.01   0.00
                    658                    659                    660
                        a                      a                      a 
 Frequencies --  3167.2520              3168.1352              3168.2778
 Red. masses --     1.9431                 1.9488                 1.9505
 Frc consts  --     0.0000                 0.0000                 0.0000
 IR Inten    --    20.3770                 0.8340                54.8447
 Raman Activ --     0.0000                 0.0000                 0.0000
 Depolar     --     0.0000                 0.0000                 0.0000
 Atom AN      X      Y      Z        X      Y      Z        X      Y      Z
   1  30     0.00   0.00  -0.00     0.00   0.00   0.00    -0.00  -0.00  -0.00
   2   6     0.00  -0.00   0.00     0.00  -0.00   0.00     0.00   0.00  -0.00
   3   6     0.00  -0.00  -0.00     0.00  -0.00  -0.00    -0.00   0.00   0.00
   4   6     0.00   0.00   0.00     0.00   0.00  -0.00    -0.00  -0.00   0.00
   5   6     0.00   0.00  -0.00    -0.00   0.00   0.00    -0.00  -0.00  -0.00
   6   6     0.00  -0.00   0.00     0.00  -0.00   0.00    -0.00   0.00  -0.00
   7   6     0.00   0.00  -0.00     0.00   0.00   0.00    -0.00  -0.00  -0.00
   8   6    -0.00  -0.00   0.00     0.00   0.00  -0.00     0.00  -0.00   0.00
   9   6    -0.00  -0.00   0.00     0.00  -0.00   0.00    -0.00   0.00  -0.00
  10   7     0.00   0.00   0.00    -0.00   0.00  -0.00     0.00  -0.00   0.00
  11   6     0.00  -0.00   0.00    -0.00   0.00  -0.00     0.00  -0.00   0.00
  12   6    -0.00  -0.00   0.00     0.00   0.00  -0.00    -0.00  -0.00   0.00
  13   6     0.00  -0.00   0.00    -0.00   0.00  -0.00     0.00  -0.00   0.00
  14   6     0.00  -0.00   0.00    -0.00   0.00  -0.00     0.00  -0.00   0.00
  15   6     0.00   0.00   0.00    -0.00  -0.00   0.00     0.00   0.00  -0.00
  16   7    -0.00   0.00   0.00     0.00  -0.00   0.00    -0.00   0.00  -0.00
  17   6     0.00   0.00   0.00    -0.00   0.00  -0.00     0.00  -0.00   0.00
  18   6    -0.00   0.00   0.00    -0.00   0.00  -0.00     0.00  -0.00   0.00
  19   6    -0.00   0.00   0.00    -0.00  -0.00   0.00     0.00   0.00  -0.00
  20   6    -0.00  -0.00   0.00    -0.00  -0.00   0.00     0.00   0.00  -0.00
  21   6     0.00  -0.00   0.00     0.00  -0.00   0.00    -0.00   0.00  -0.00
  22   7    -0.00   0.00   0.00     0.00   0.00  -0.00    -0.00  -0.00   0.00
  23   6     0.00  -0.00   0.00    -0.00  -0.00   0.00     0.00   0.00  -0.00
  24   6    -0.00  -0.00   0.00     0.00   0.00  -0.00    -0.00  -0.00   0.00
  25   7    -0.00   0.00   0.00    -0.00  -0.00   0.00     0.00   0.00  -0.00
  26   1    -0.00   0.00  -0.00    -0.00   0.00  -0.00     0.00  -0.00   0.00
  27   1    -0.00   0.00   0.00    -0.00   0.00   0.00     0.00  -0.00  -0.00
  28   1    -0.00  -0.00  -0.00    -0.00  -0.00   0.00     0.00   0.00  -0.00
  29   1     0.00   0.00  -0.00    -0.00  -0.00   0.00     0.00   0.00  -0.00
  30   1    -0.00   0.00  -0.00    -0.00  -0.00   0.00     0.00   0.00  -0.00
  31   1    -0.00   0.00  -0.00     0.00  -0.00   0.00    -0.00   0.00  -0.00
  32   1    -0.00   0.00  -0.00     0.00  -0.00   0.00    -0.00   0.00  -0.00
  33   1    -0.00  -0.00   0.00     0.00  -0.00   0.00    -0.00  -0.00  -0.00
  34   1     0.00   0.00  -0.00     0.00   0.00  -0.00    -0.00  -0.00   0.00
  35   1     0.00   0.00  -0.00     0.00   0.00  -0.00    -0.00  -0.00   0.00
  36   1    -0.00   0.00  -0.00    -0.00   0.00  -0.00     0.00  -0.00   0.00
  37  30    -0.00  -0.00  -0.00    -0.00  -0.00   0.00     0.00  -0.00   0.00
  38   6     0.00  -0.00  -0.00    -0.00   0.00   0.00     0.00   0.00   0.00
  39   6     0.00  -0.00  -0.00    -0.00   0.00   0.00    -0.00   0.00   0.00
  40   6    -0.00   0.00   0.00    -0.00  -0.00  -0.00    -0.00  -0.00  -0.00
  41   6    -0.00  -0.00  -0.00     0.00  -0.00  -0.00    -0.00   0.00   0.00
  42   6    -0.00   0.00   0.00    -0.00   0.00   0.00    -0.00   0.00   0.00
  43   6    -0.00  -0.00  -0.00    -0.00  -0.00  -0.00    -0.00   0.00  -0.00
  44   6    -0.00  -0.00  -0.00    -0.00  -0.00  -0.00     0.00  -0.00  -0.00
  45   6     0.00   0.00   0.00    -0.00   0.00   0.00    -0.00   0.00   0.00
  46   7     0.00   0.00   0.00     0.00  -0.00   0.00     0.00  -0.00  -0.00
  47   6    -0.00   0.00   0.00     0.00  -0.00  -0.00     0.00  -0.00  -0.00
  48   6     0.00   0.00   0.00    -0.00  -0.00  -0.00    -0.00  -0.00  -0.00
  49   6    -0.00   0.00   0.00     0.00  -0.00  -0.00     0.00  -0.00  -0.00
  50   6    -0.00   0.00   0.00     0.00  -0.00  -0.00     0.00  -0.00  -0.00
  51   6     0.00  -0.00  -0.00     0.00   0.00   0.00     0.00   0.00   0.00
  52   7     0.00  -0.00  -0.00    -0.00   0.00   0.00     0.00   0.00   0.00
  53   6    -0.00  -0.00   0.00     0.00  -0.00   0.00     0.00  -0.00   0.00
  54   6     0.00  -0.00  -0.00     0.00  -0.00  -0.00     0.00  -0.00  -0.00
  55   6     0.00   0.00   0.00     0.00   0.00   0.00     0.00   0.00   0.00
  56   6     0.00   0.00   0.00     0.00   0.00   0.00     0.00   0.00   0.00
  57   6    -0.00   0.00   0.00    -0.00   0.00   0.00    -0.00   0.00   0.00
  58   7     0.00  -0.00  -0.00    -0.00  -0.00  -0.00     0.00  -0.00  -0.00
  59   6     0.00   0.00   0.00     0.00   0.00   0.00     0.00   0.00   0.00
  60   6    -0.00  -0.00  -0.00    -0.00  -0.00  -0.00    -0.00  -0.00  -0.00
  61   7    -0.00   0.00   0.00     0.00   0.00   0.00     0.00   0.00   0.00
  62   1    -0.00   0.00   0.00     0.00  -0.00  -0.00     0.00  -0.00  -0.00
  63   1    -0.00   0.00   0.00     0.00  -0.00  -0.00     0.00  -0.00  -0.00
  64   1     0.00   0.00   0.00     0.00   0.00   0.00     0.00   0.00   0.00
  65   1     0.00   0.00   0.00     0.00   0.00   0.00     0.00   0.00   0.00
  66   1     0.00  -0.00  -0.00     0.00   0.00   0.00     0.00   0.00   0.00
  67   1     0.00  -0.00  -0.00    -0.00   0.00   0.00    -0.00   0.00   0.00
  68   1     0.00  -0.00  -0.00    -0.00   0.00   0.00    -0.00   0.00   0.00
  69   1     0.00  -0.00   0.00    -0.00   0.00   0.00    -0.00  -0.00  -0.00
  70   1    -0.00  -0.00  -0.00    -0.00  -0.00  -0.00    -0.00  -0.00  -0.00
  71   1    -0.00  -0.00  -0.00    -0.00  -0.00  -0.00    -0.00  -0.00  -0.00
  72   1     0.00  -0.00  -0.00     0.00  -0.00  -0.00     0.00  -0.00  -0.00
  73   6    -0.00   0.00  -0.00     0.00   0.00   0.00    -0.00  -0.00  -0.00
  74   6     0.00  -0.00   0.00    -0.00   0.00   0.00     0.00  -0.00  -0.00
  75   6     0.00   0.00  -0.00    -0.00  -0.00   0.00     0.00   0.00  -0.00
  76   6     0.00  -0.00   0.00    -0.00   0.00  -0.00     0.00  -0.00   0.00
  77   6     0.00   0.00  -0.00    -0.00   0.00  -0.00    -0.00  -0.00   0.00
  78   6    -0.00  -0.00   0.00    -0.00  -0.00   0.00    -0.00   0.00  -0.00
  79   6    -0.00   0.00   0.00     0.00  -0.00   0.00     0.00  -0.00   0.00
  80   6    -0.00  -0.00   0.00     0.00   0.00  -0.00     0.00   0.00  -0.00
  81   6     0.00   0.00   0.00     0.00  -0.00   0.00     0.00  -0.00  -0.00
  82   6     0.00  -0.00  -0.00    -0.00   0.00   0.00    -0.00   0.00  -0.00
  83  30    -0.00   0.00  -0.00     0.00  -0.00   0.00    -0.00   0.00  -0.00
  84   6     0.00   0.00  -0.00    -0.00  -0.00   0.00    -0.00   0.00  -0.00
  85   6     0.00   0.00  -0.00    -0.00  -0.00   0.00     0.00   0.00  -0.00
  86   6     0.00  -0.00   0.00    -0.00   0.00  -0.00     0.00  -0.00   0.00
  87   6     0.00  -0.00   0.00    -0.00  -0.00   0.00     0.00  -0.00  -0.00
  88   6     0.00   0.00  -0.00    -0.00  -0.00   0.00     0.00   0.00  -0.00
  89   6     0.01  -0.00   0.00    -0.00   0.00  -0.00     0.00  -0.00   0.00
  90   6     0.00  -0.00   0.00    -0.00   0.00  -0.00    -0.00  -0.00   0.00
  91   6    -0.00  -0.00   0.00     0.00   0.00  -0.00     0.00  -0.00   0.00
  92   7    -0.00   0.00  -0.00     0.00  -0.00   0.00    -0.00  -0.00   0.00
  93   6     0.00  -0.00   0.00     0.00  -0.00   0.00    -0.00   0.00  -0.00
  94   6    -0.00  -0.00   0.00    -0.00  -0.00   0.00     0.00   0.00  -0.00
  95   6     0.00   0.00  -0.00    -0.00   0.00  -0.00     0.00  -0.00   0.00
  96   6     0.01   0.00  -0.00     0.01   0.00  -0.00    -0.01  -0.00   0.00
  97   6     0.00  -0.00   0.00     0.00  -0.00   0.00    -0.00   0.00  -0.00
  98   7    -0.00  -0.00   0.00    -0.00   0.00   0.00     0.00  -0.00  -0.00
  99   6    -0.00   0.00  -0.00     0.00  -0.00   0.00    -0.00   0.00  -0.00
 100   6    -0.00  -0.00   0.00     0.00   0.00  -0.00    -0.00  -0.00   0.00
 101   6    -0.02   0.00  -0.00     0.01  -0.00   0.00    -0.01   0.00  -0.00
 102   6    -0.00   0.01  -0.01    -0.00  -0.00   0.00     0.00   0.00  -0.00
 103   6     0.00   0.00   0.00    -0.00   0.00  -0.00     0.00  -0.00   0.00
 104   7     0.00  -0.00   0.00    -0.00  -0.00  -0.00     0.00   0.00   0.00
 105   6    -0.00  -0.00   0.00     0.00   0.00  -0.00    -0.00  -0.00   0.00
 106   6     0.00  -0.00   0.00     0.00  -0.00   0.00     0.00   0.00  -0.00
 107   7    -0.00   0.00  -0.00     0.00   0.00  -0.00    -0.00   0.00  -0.00
 108   1    -0.00  -0.00   0.00     0.00   0.00  -0.00    -0.00  -0.00   0.00
 109   1    -0.00  -0.00   0.00     0.01   0.00  -0.00    -0.00  -0.00   0.00
 110   1    -0.02   0.00  -0.00     0.01  -0.00   0.00    -0.00   0.00  -0.00
 111   1    -0.00   0.01  -0.01     0.00  -0.00   0.00    -0.00   0.00  -0.00
 112   1     0.00   0.00  -0.00    -0.00   0.00  -0.00     0.00  -0.00   0.00
 113   1    -0.00  -0.00   0.00    -0.00  -0.00   0.00     0.00   0.00  -0.00
 114   1    -0.02  -0.00   0.00    -0.03  -0.00   0.00     0.03   0.00  -0.00
 115   1     0.08  -0.00   0.01    -0.03   0.00  -0.00     0.03  -0.00   0.00
 116   1     0.00  -0.02   0.02    -0.00   0.00  -0.00     0.00  -0.00   0.00
 117   1     0.00   0.00  -0.00    -0.00  -0.00   0.00     0.00   0.00  -0.00
 118  30    -0.00   0.00  -0.00    -0.00   0.00  -0.00     0.00  -0.00   0.00
 119   6    -0.00  -0.03   0.01     0.00   0.03  -0.01    -0.00  -0.04   0.01
 120   6    -0.06  -0.01  -0.00     0.07   0.01   0.00    -0.08  -0.01  -0.00
 121   6    -0.00   0.00  -0.00     0.00  -0.00   0.00    -0.00   0.00  -0.00
 122   6    -0.00  -0.00   0.00     0.00   0.00  -0.00    -0.00  -0.00   0.00
 123   6     0.00   0.00  -0.00     0.00   0.00  -0.00    -0.00  -0.00   0.00
 124   6     0.02  -0.00  -0.00     0.06  -0.01  -0.00    -0.07   0.01   0.00
 125   6     0.00  -0.01   0.00     0.00  -0.03   0.01    -0.00   0.04  -0.01
 126   6    -0.00  -0.00   0.00    -0.00  -0.00   0.00     0.00   0.00  -0.00
 127   7    -0.00   0.00  -0.00    -0.00   0.00  -0.00     0.00  -0.00   0.00
 128   6     0.00  -0.00   0.00    -0.00  -0.00   0.00     0.00   0.00  -0.00
 129   6    -0.00   0.00   0.00     0.00  -0.00   0.00    -0.00   0.00  -0.00
 130   6     0.00   0.05  -0.02    -0.00  -0.04   0.02     0.00   0.04  -0.02
 131   6     0.13   0.01  -0.01    -0.08  -0.00   0.01     0.10   0.01  -0.01
 132   6     0.00  -0.00   0.00    -0.00   0.00  -0.00     0.00  -0.00   0.00
 133   7    -0.00  -0.00   0.00     0.00   0.00  -0.00    -0.00  -0.00   0.00
 134   6     0.00   0.00  -0.00     0.00   0.00  -0.00     0.00  -0.00   0.00
 135   6    -0.00  -0.00   0.00    -0.00  -0.00   0.00     0.00   0.00  -0.00
 136   6    -0.12   0.01  -0.01    -0.11   0.01  -0.01     0.14  -0.01   0.01
 137   6    -0.00   0.04  -0.02    -0.00   0.05  -0.02     0.00  -0.06   0.02
 138   6     0.00   0.00   0.00     0.00   0.00  -0.00    -0.00  -0.00  -0.00
 139   7     0.00  -0.00   0.00     0.00  -0.00   0.00    -0.00   0.00  -0.00
 140   6    -0.00  -0.00   0.00    -0.00   0.00  -0.00     0.00  -0.00   0.00
 141   6     0.00  -0.00   0.00    -0.00   0.00  -0.00     0.00  -0.00   0.00
 142   7     0.00   0.00  -0.00    -0.00  -0.00   0.00     0.00   0.00  -0.00
 143   1     0.01   0.09  -0.03    -0.01  -0.10   0.03     0.01   0.13  -0.04
 144   1     0.21   0.03   0.00    -0.22  -0.03  -0.00     0.28   0.04   0.00
 145   1    -0.08   0.01   0.00    -0.18   0.02   0.00     0.23  -0.03  -0.00
 146   1    -0.00   0.03  -0.01    -0.01   0.09  -0.03     0.01  -0.12   0.04
 147   1     0.00   0.00  -0.00     0.00   0.00  -0.00    -0.00  -0.00   0.00
 148   1    -0.02  -0.15   0.07     0.01   0.11  -0.05    -0.02  -0.13   0.06
 149   1    -0.45  -0.04   0.05     0.25   0.02  -0.03    -0.35  -0.03   0.04
 150   1     0.40  -0.03   0.04     0.37  -0.03   0.04    -0.46   0.04  -0.05
 151   1     0.01  -0.12   0.06     0.02  -0.15   0.07    -0.02   0.17  -0.07
 152   1    -0.00   0.01  -0.00     0.00  -0.00   0.00    -0.00   0.00  -0.00
 153  30     0.00  -0.00   0.00     0.00  -0.00   0.00     0.00  -0.00   0.00
 154   6    -0.00  -0.05   0.00     0.00   0.05  -0.00     0.00   0.04  -0.00
 155   6    -0.12  -0.01  -0.01     0.11   0.01   0.01     0.09   0.01   0.01
 156   6    -0.00   0.00  -0.00     0.00  -0.00   0.00     0.00  -0.00   0.00
 157   6     0.00  -0.00   0.00     0.00  -0.00   0.00     0.00  -0.00  -0.00
 158   6     0.00   0.00  -0.00     0.00   0.00  -0.00     0.00   0.00  -0.00
 159   6     0.12  -0.01  -0.01     0.13  -0.01  -0.01     0.10  -0.01  -0.01
 160   6     0.00  -0.05   0.00     0.00  -0.06   0.00     0.00  -0.04   0.00
 161   6    -0.00  -0.00   0.00    -0.00  -0.00   0.00    -0.00  -0.00   0.00
 162   7    -0.00   0.00   0.00    -0.00   0.00   0.00    -0.00   0.00   0.00
 163   6     0.00   0.00  -0.00     0.00  -0.00   0.00     0.00  -0.00   0.00
 164   6    -0.00   0.00   0.00     0.00  -0.00  -0.00     0.00  -0.00  -0.00
 165   6     0.00   0.03  -0.00    -0.00  -0.04   0.00    -0.00  -0.04   0.00
 166   6     0.06   0.00  -0.00    -0.09  -0.01   0.01    -0.07  -0.01   0.00
 167   6     0.00  -0.00   0.00    -0.00   0.00  -0.00    -0.00   0.00  -0.00
 168   7    -0.00  -0.00   0.00     0.00   0.00  -0.00     0.00   0.00  -0.00
 169   6     0.00   0.00  -0.00    -0.00  -0.00   0.00    -0.00  -0.00   0.00
 170   6    -0.00  -0.00   0.00    -0.00  -0.00   0.00    -0.00  -0.00   0.00
 171   6    -0.04   0.00  -0.00    -0.08   0.01  -0.01    -0.06   0.00  -0.00
 172   6    -0.00   0.02  -0.00    -0.00   0.04  -0.00    -0.00   0.03  -0.00
 173   6     0.00   0.00   0.00     0.00   0.00   0.00     0.00   0.00   0.00
 174   7     0.00  -0.00   0.00     0.00  -0.00   0.00     0.00  -0.00   0.00
 175   6    -0.00   0.00  -0.00     0.00   0.00  -0.00     0.00   0.00  -0.00
 176   6     0.00  -0.00   0.00    -0.00   0.00  -0.00    -0.00   0.00  -0.00
 177   7     0.00   0.00   0.00    -0.00  -0.00  -0.00    -0.00  -0.00  -0.00
 178   1     0.01   0.14  -0.00    -0.02  -0.16   0.00    -0.01  -0.12   0.00
 179   1     0.39   0.05   0.02    -0.35  -0.04  -0.02    -0.31  -0.04  -0.02
 180   1    -0.40   0.05   0.02    -0.42   0.05   0.02    -0.32   0.04   0.02
 181   1    -0.01   0.14  -0.00    -0.02   0.18  -0.00    -0.01   0.12  -0.00
 182   1     0.00  -0.00   0.00    -0.00   0.00  -0.00    -0.00   0.00  -0.00
 183   1    -0.01  -0.08   0.01     0.01   0.14  -0.01     0.01   0.11  -0.01
 184   1    -0.18  -0.02   0.01     0.29   0.03  -0.02     0.24   0.03  -0.02
 185   1     0.12  -0.01   0.01     0.26  -0.03   0.02     0.20  -0.02   0.01
 186   1     0.01  -0.06   0.01     0.01  -0.13   0.01     0.01  -0.10   0.01
 187   1    -0.00  -0.00   0.00    -0.00  -0.01   0.00    -0.00  -0.00   0.00
 188  30     0.00  -0.00  -0.00    -0.00   0.00   0.00    -0.00   0.00   0.00
 189   6    -0.00  -0.00  -0.00    -0.00  -0.00  -0.00     0.00  -0.00  -0.00
 190   6    -0.01  -0.00  -0.00    -0.01  -0.00  -0.00    -0.01  -0.00  -0.00
 191   6    -0.00   0.00   0.00    -0.00   0.00   0.00    -0.00   0.00   0.00
 192   6     0.00  -0.00  -0.00    -0.00   0.00   0.00    -0.00   0.00   0.00
 193   6     0.00   0.00   0.00    -0.00  -0.00  -0.00    -0.00  -0.00  -0.00
 194   6     0.02  -0.00  -0.00    -0.01   0.00   0.00    -0.01   0.00   0.00
 195   6     0.00  -0.01  -0.00    -0.00   0.00   0.00     0.00   0.00   0.00
 196   6    -0.00  -0.00   0.00     0.00  -0.00  -0.00     0.00  -0.00  -0.00
 197   7    -0.00   0.00   0.00     0.00  -0.00  -0.00     0.00  -0.00  -0.00
 198   6     0.00   0.00   0.00    -0.00  -0.00  -0.00    -0.00  -0.00  -0.00
 199   6    -0.00   0.00   0.00    -0.00   0.00   0.00    -0.00  -0.00  -0.00
 200   6    -0.00  -0.00  -0.00     0.00   0.00   0.00    -0.00   0.00   0.00
 201   6    -0.00  -0.00   0.00     0.01   0.00  -0.00     0.00   0.00  -0.00
 202   6    -0.00   0.00   0.00     0.00  -0.00  -0.00     0.00  -0.00  -0.00
 203   7     0.00  -0.00   0.00    -0.00  -0.00  -0.00    -0.00   0.00   0.00
 204   6    -0.00   0.00   0.00     0.00   0.00   0.00     0.00  -0.00  -0.00
 205   6    -0.00  -0.00  -0.00     0.00   0.00   0.00     0.00   0.00   0.00
 206   6    -0.01   0.00  -0.00     0.01  -0.00   0.00     0.00  -0.00   0.00
 207   6    -0.00   0.01   0.00     0.00  -0.00  -0.00     0.00  -0.00  -0.00
 208   6     0.00   0.00   0.00    -0.00  -0.00  -0.00    -0.00   0.00   0.00
 209   7     0.00  -0.00  -0.00    -0.00   0.00   0.00    -0.00  -0.00  -0.00
 210   6    -0.00   0.00   0.00    -0.00   0.00   0.00    -0.00   0.00   0.00
 211   6     0.00   0.00   0.00     0.00   0.00   0.00     0.00   0.00   0.00
 212   7     0.00   0.00   0.00     0.00   0.00   0.00     0.00   0.00   0.00
 213   1     0.00   0.01   0.00     0.00   0.01   0.00     0.00   0.00   0.00
 214   1     0.03   0.00   0.00     0.04   0.00   0.00     0.03   0.00   0.00
 215   1    -0.08   0.01   0.01     0.05  -0.00  -0.00     0.03  -0.00  -0.00
 216   1    -0.00   0.03   0.01     0.00  -0.01  -0.00     0.00  -0.00  -0.00
 217   1    -0.00  -0.00  -0.00     0.00   0.00   0.00     0.00   0.00   0.00
 218   1     0.00   0.00   0.00    -0.00  -0.01  -0.00    -0.00  -0.00  -0.00
 219   1     0.00   0.00  -0.00    -0.02  -0.00   0.00    -0.01  -0.00   0.00
 220   1     0.03  -0.00   0.00    -0.02   0.00  -0.00    -0.01   0.00  -0.00
 221   1     0.00  -0.02  -0.00    -0.00   0.01   0.00    -0.00   0.00   0.00
 222   1    -0.00  -0.00  -0.00     0.00  -0.00  -0.00     0.00  -0.00  -0.00
