      -----------------------------------------------------------      
     |                   =====================                   |     
     |                           x T B                           |     
     |                   =====================                   |     
     |                         S. Grimme                         |     
     |          Mulliken Center for Theoretical Chemistry        |     
     |                    University of Bonn                     |     
      -----------------------------------------------------------      

   * xtb version 6.4.1 (bd6e46d) compiled by 'conda@4901f00b25ba' on 2021-06-10

   xtb is free software: you can redistribute it and/or modify it under
   the terms of the GNU Lesser General Public License as published by
   the Free Software Foundation, either version 3 of the License, or
   (at your option) any later version.
   
   xtb is distributed in the hope that it will be useful,
   but WITHOUT ANY WARRANTY; without even the implied warranty of
   MERCHANTABILITY or FITNESS FOR A PARTICULAR PURPOSE.  See the
   GNU Lesser General Public License for more details.
   
   Cite this work as:
   * C. Bannwarth, E. Caldeweyher, S. Ehlert, A. Hansen, P. Pracht,
     J. Seibert, S. Spicher, S. Grimme, WIREs Comput. Mol. Sci., 2020, 11,
     e01493. DOI: 10.1002/wcms.1493
   
   for GFN2-xTB:
   * C. Bannwarth, S. Ehlert and S. Grimme., J. Chem. Theory Comput., 2019,
     15, 1652-1671. DOI: 10.1021/acs.jctc.8b01176
   for GFN1-xTB:
   * S. Grimme, C. Bannwarth, P. Shushkov, J. Chem. Theory Comput., 2017,
     13, 1989-2009. DOI: 10.1021/acs.jctc.7b00118
   for GFN0-xTB:
   * P. Pracht, E. Caldeweyher, S. Ehlert, S. Grimme, ChemRxiv, 2019, preprint.
     DOI: 10.26434/chemrxiv.8326202.v1
   for GFN-FF:
   * S. Spicher and S. Grimme, Angew. Chem. Int. Ed., 2020, 59, 15665-15673.
     DOI: 10.1002/anie.202004239
   
   for DFT-D4:
   * E. Caldeweyher, C. Bannwarth and S. Grimme, J. Chem. Phys., 2017,
     147, 034112. DOI: 10.1063/1.4993215
   * E. Caldeweyher, S. Ehlert, A. Hansen, H. Neugebauer, S. Spicher,
     C. Bannwarth and S. Grimme, J. Chem. Phys., 2019, 150, 154122.
     DOI: 10.1063/1.5090222
   * E. Caldeweyher, J.-M. Mewes, S. Ehlert and S. Grimme, Phys. Chem. Chem. Phys.
     2020, 22, 8499-8512. DOI: 10.1039/D0CP00502A
   
   for sTDA-xTB:
   * S. Grimme and C. Bannwarth, J. Chem. Phys., 2016, 145, 054103.
     DOI: 10.1063/1.4959605
   
   in the mass-spec context:
   * V. Asgeirsson, C. Bauer and S. Grimme, Chem. Sci., 2017, 8, 4879.
     DOI: 10.1039/c7sc00601b
   * J. Koopman and S. Grimme, ACS Omega 2019, 4, 12, 15120-15133.
     DOI: 10.1021/acsomega.9b02011
   
   for metadynamics refer to:
   * S. Grimme, J. Chem. Theory Comput., 2019, 155, 2847-2862
     DOI: 10.1021/acs.jctc.9b00143
   
   for SPH calculations refer to:
   * S. Spicher and S. Grimme, J. Chem. Theory Comput., 2021, 17, 1701-1714
     DOI: 10.1021/acs.jctc.0c01306
   
   with help from (in alphabetical order)
   P. Atkinson, C. Bannwarth, F. Bohle, G. Brandenburg, E. Caldeweyher
   M. Checinski, S. Dohm, S. Ehlert, S. Ehrlich, I. Gerasimov, J. Koopman
   C. Lavigne, S. Lehtola, F. März, M. Müller, F. Musil, H. Neugebauer
   J. Pisarek, C. Plett, P. Pracht, J. Seibert, P. Shushkov, S. Spicher
   M. Stahn, M. Steiner, T. Strunk, J. Stückrath, T. Rose, and J. Unsleber
   
 * started run on 2021/11/18 at 20:13:09.146     

           -------------------------------------------------
          |                Calculation Setup                |
           -------------------------------------------------

          program call               : /home/jeff/miniconda3/bin/xtb input_structure_1.xyz --gfn 2 --ohess normal --parallel 1 --etemp 300 --chrg 0 --uhf 0 -I det_control.in
          hostname                   : jelfscompute1
          coordinate file            : input_structure_1.xyz
          omp threads                :                     1
          number of atoms            :                   222
          number of electrons        :                   714
          charge                     :                     0
          spin                       :                   0.0
          first test random number   :      0.93149994565673

   ID    Z sym.   atoms
    1   30 Zn     1, 37, 83, 118, 153, 188
    2    6 C      2-9, 11-15, 17-21, 23, 24, 38-45, 47-51, 53-57, 59, 60,
                  73-82, 84-91, 93-97, 99-103, 105, 106, 119-126, 128-132,
                  134-138, 140, 141, 154-161, 163-167, 169-173, 175, 176,
                  189-196, 198-202, 204-208, 210, 211
    3    7 N      10, 16, 22, 25, 46, 52, 58, 61, 92, 98, 104, 107, 127, 133,
                  139, 142, 162, 168, 174, 177, 197, 203, 209, 212
    4    1 H      26-36, 62-72, 108-117, 143-152, 178-187, 213-222

molecular fragmentation (1/2 indicates fragments):
111111111111111111111111111111111111222222222222222222222222222222222222
222222222222222222222222222222222222222222222222222222222222222222222222
222222222222222222222222222222222222222222222222222222222222222222222222
222222
# atoms in fragment 1/2:    36   186
 fragment masses (1/2) :      372.71     1979.61
CMA distance (Bohr)    :  63.579
constraining FC (au)   :  0.0500

           -------------------------------------------------
          |                 G F N 2 - x T B                 |
           -------------------------------------------------

        Reference                      10.1021/acs.jctc.8b01176
      * Hamiltonian:
        H0-scaling (s, p, d)           1.850000    2.230000    2.230000
        zeta-weighting                 0.500000
      * Dispersion:
        s8                             2.700000
        a1                             0.520000
        a2                             5.000000
        s9                             5.000000
      * Repulsion:
        kExp                           1.500000    1.000000
        rExp                           1.000000
      * Coulomb:
        alpha                          2.000000
        third order                    shell-resolved
        anisotropic                    true
        a3                             3.000000
        a5                             4.000000
        cn-shift                       1.200000
        cn-exp                         4.000000
        max-rad                        5.000000


          ...................................................
          :                      SETUP                      :
          :.................................................:
          :  # basis functions                 702          :
          :  # atomic orbitals                 702          :
          :  # shells                          382          :
          :  # electrons                       714          :
          :  max. iterations                   250          :
          :  Hamiltonian                  GFN2-xTB          :
          :  restarted?                      false          :
          :  GBSA solvation                  false          :
          :  PC potential                    false          :
          :  electronic temp.          300.0000000     K    :
          :  accuracy                    1.0000000          :
          :  -> integral cutoff          0.2500000E+02      :
          :  -> integral neglect         0.1000000E-07      :
          :  -> SCF convergence          0.1000000E-05 Eh   :
          :  -> wf. convergence          0.1000000E-03 e    :
          :  Broyden damping             0.4000000          :
          ...................................................

 iter      E             dE          RMSdq      gap      omega  full diag
   1   -387.7949071 -0.387795E+03  0.658E+00    0.29       0.0  T
   2   -386.8563255  0.938582E+00  0.352E+00    0.23       1.0  T
   3   -320.4583623  0.663980E+02  0.623E+00    0.08       1.0  T
   4   -190.7908541  0.129668E+03  0.151E+01    0.09       1.0  T
   5   -323.1029262 -0.132312E+03  0.594E+00    0.02       1.0  T
   6   -350.4605396 -0.273576E+02  0.480E+00    0.07       1.0  T
   7   -385.4213043 -0.349608E+02  0.261E+00    0.02       1.0  T
   8   -388.0637315 -0.264243E+01  0.200E+00    0.16       1.0  T
   9   -388.6265890 -0.562857E+00  0.148E+00    0.14       1.0  T
  10   -388.0362110  0.590378E+00  0.151E+00    0.29       1.0  T
  11   -389.1266751 -0.109046E+01  0.118E+00    0.05       1.0  T
  12   -389.1600694 -0.333943E-01  0.101E+00    0.04       1.0  T
  13   -389.1324366  0.276327E-01  0.916E-01    0.01       1.0  T
  14   -389.1780876 -0.456509E-01  0.847E-01    0.04       1.0  T
  15   -389.2477543 -0.696667E-01  0.627E-01    0.02       1.0  T
  16   -389.2697995 -0.220452E-01  0.500E-01    0.03       1.0  T
  17   -389.3422537 -0.724542E-01  0.381E-01    0.07       1.0  T
  18   -389.3246592  0.175945E-01  0.365E-01    0.05       1.0  T
  19   -389.3414328 -0.167736E-01  0.314E-01    0.06       1.0  T
  20   -389.3608315 -0.193987E-01  0.210E-01    0.10       1.0  T
  21   -389.3623716 -0.154004E-02  0.169E-01    0.10       1.0  T
  22   -389.3658044 -0.343285E-02  0.125E-01    0.11       1.0  T
  23   -389.3673154 -0.151094E-02  0.117E-01    0.13       1.0  T
  24   -389.3687660 -0.145065E-02  0.100E-01    0.12       1.0  T
  25   -389.3686148  0.151224E-03  0.946E-02    0.12       1.0  T
  26   -389.3686495 -0.347095E-04  0.888E-02    0.12       1.0  T
  27   -389.3687844 -0.134926E-03  0.838E-02    0.12       1.0  T
  28   -389.3689484 -0.163982E-03  0.778E-02    0.12       1.0  T
  29   -389.3691458 -0.197421E-03  0.708E-02    0.12       1.0  T
  30   -389.3693082 -0.162324E-03  0.657E-02    0.12       1.0  T
  31   -389.3693577 -0.495889E-04  0.640E-02    0.12       1.0  T
  32   -389.3695959 -0.238122E-03  0.576E-02    0.12       1.0  T
  33   -389.3699942 -0.398350E-03  0.440E-02    0.12       1.0  T
  34   -389.3702708 -0.276621E-03  0.310E-02    0.12       1.0  T
  35   -389.3704471 -0.176279E-03  0.199E-02    0.12       1.0  T
  36   -389.3705186 -0.715227E-04  0.127E-02    0.13       1.0  T
  37   -389.3705646 -0.459279E-04  0.526E-03    0.12       1.3  T
  38   -389.3705755 -0.109748E-04  0.250E-03    0.13       2.7  T
  39   -389.3705760 -0.417316E-06  0.213E-03    0.13       3.2  T
  40   -389.3705761 -0.178110E-06  0.202E-03    0.13       3.3  T
  41   -389.3705763 -0.129447E-06  0.178E-03    0.13       3.8  T
  42   -389.3705766 -0.282241E-06  0.114E-03    0.13       5.9  T
  43   -389.3705766 -0.677583E-07  0.801E-04    0.13       8.4  T
  44   -389.3705767 -0.742061E-07  0.450E-04    0.13      14.9  T

   *** convergence criteria satisfied after 44 iterations ***

         #    Occupation            Energy/Eh            Energy/eV
      -------------------------------------------------------------
         1        2.0000           -0.6831578             -18.5897
       ...           ...                  ...                  ...
       351        2.0000           -0.3630931              -9.8803
       352        2.0000           -0.3539006              -9.6301
       353        2.0000           -0.3538431              -9.6286
       354        2.0000           -0.3527918              -9.6000
       355        2.0000           -0.3468928              -9.4394
       356        1.9998           -0.3399677              -9.2510
       357        1.8161           -0.3333943              -9.0721 (HOMO)
       358        0.1384           -0.3287493              -8.9457 (LUMO)
       359        0.0458           -0.3276523              -8.9159
       360        0.0000           -0.3179558              -8.6520
       361        0.0000           -0.3170490              -8.6273
       362        0.0000           -0.3167428              -8.6190
       ...           ...                  ...                  ...
       702                          1.4394976              39.1707
      -------------------------------------------------------------
                  HL-Gap            0.0046449 Eh            0.1264 eV
             Fermi-level           -0.3312188 Eh           -9.0129 eV

 SCC (total)                   0 d,  0 h,  0 min,  6.241 sec
 SCC setup                      ...        0 min,  0.009 sec (  0.139%)
 Dispersion                     ...        0 min,  0.019 sec (  0.306%)
 classical contributions        ...        0 min,  0.002 sec (  0.032%)
 integral evaluation            ...        0 min,  0.143 sec (  2.295%)
 iterations                     ...        0 min,  5.659 sec ( 90.682%)
 molecular gradient             ...        0 min,  0.392 sec (  6.286%)
 printout                       ...        0 min,  0.016 sec (  0.261%)

         :::::::::::::::::::::::::::::::::::::::::::::::::::::
         ::                     SUMMARY                     ::
         :::::::::::::::::::::::::::::::::::::::::::::::::::::
         :: total energy            -382.350530071493 Eh    ::
         :: gradient norm              0.867402912705 Eh/a0 ::
         :: HOMO-LUMO gap              0.126394916748 eV    ::
         ::.................................................::
         :: SCC energy              -389.370576694478 Eh    ::
         :: -> isotropic ES            0.408087375867 Eh    ::
         :: -> anisotropic ES          0.047332208438 Eh    ::
         :: -> anisotropic XC          0.232590199070 Eh    ::
         :: -> dispersion             -0.357303761694 Eh    ::
         :: repulsion energy           7.019368078307 Eh    ::
         :: add. restraining           0.000000000000 Eh    ::
         :: total charge               0.000000000000 e     ::
         :::::::::::::::::::::::::::::::::::::::::::::::::::::

      ----------------------------------------------------------- 
     |                   =====================                   |
     |                        A N C O P T                        |
     |                   =====================                   |
     |               Approximate Normal Coordinate               |
     |                Rational Function Optimizer                |
      ----------------------------------------------------------- 

          ...................................................
          :                      SETUP                      :
          :.................................................:
          :   optimization level            normal          :
          :   max. optcycles                   666          :
          :   ANC micro-cycles                  20          :
          :   degrees of freedom               660          :
          :.................................................:
          :   RF solver                   davidson          :
          :   write xtbopt.log                true          :
          :   linear?                        false          :
          :   energy convergence         0.5000000E-05 Eh   :
          :   grad. convergence          0.1000000E-02 Eh/α :
          :   maximium RF displ.         1.0000000          :
          :   Hlow (freq-cutoff)         0.1000000E-01      :
          :   Hmax (freq-cutoff)         5.0000000          :
          :   S6 in model hess.         20.0000000          :
          ...................................................

generating ANC from model Hessian ...
Using Lindh-Hessian (1995)
 Shifting diagonal of input Hessian by    1.0026297866943489E-002
 Lowest  eigenvalues of input Hessian
    0.010000    0.010001    0.010001    0.010004    0.010005    0.010011
    0.010011    0.010016    0.010017    0.010019    0.010022    0.010023
    0.010025    0.000000    0.000000    0.000000    0.000000    0.000000
 Highest eigenvalues
    2.211718    2.393222    2.512585    2.732929    2.732932    2.732932


........................................................................
.............................. CYCLE    1 ..............................
........................................................................
   1   -389.3705767 -0.389371E+03  0.221E-04    0.13       0.0  T
   2   -389.3705766  0.120892E-06  0.503E-04    0.13      13.4  T
   3   -389.3705767 -0.994285E-07  0.226E-04    0.13      29.7  T
     SCC iter.                  ...        0 min,  0.392 sec
     gradient                   ...        0 min,  0.390 sec
 * total energy  :  -382.3505301 Eh     change       -0.8885763E-09 Eh
   gradient norm :     0.8674009 Eh/α   predicted     0.0000000E+00 (-100.00%)
   displ. norm   :     0.5684095 α      lambda       -0.4008076E+00
   maximum displ.:     0.1758865 α      in ANC's #645, #224, #226, ...

........................................................................
.............................. CYCLE    2 ..............................
........................................................................
   1   -389.3359090 -0.389336E+03  0.365E-01    0.13       0.0  T
   2   -388.6842420  0.651667E+00  0.851E-01    0.14       1.0  T
   3   -389.0786404 -0.394398E+00  0.594E-01    0.02       1.0  T
   4   -389.2859492 -0.207309E+00  0.404E-01    0.46       1.0  T
   5   -389.3432671 -0.573179E-01  0.198E-01    0.25       1.0  T
   6   -389.0903723  0.252895E+00  0.509E-01    0.05       1.0  T
   7   -389.3419912 -0.251619E+00  0.164E-01    0.31       1.0  T
   8   -389.3515426 -0.955141E-02  0.151E-01    0.19       1.0  T
   9   -389.3553714 -0.382877E-02  0.912E-02    0.18       1.0  T
  10   -389.3561940 -0.822612E-03  0.845E-02    0.16       1.0  T
  11   -389.3570674 -0.873370E-03  0.667E-02    0.16       1.0  T
  12   -389.3589546 -0.188723E-02  0.496E-02    0.16       1.0  T
  13   -389.3598186 -0.863971E-03  0.325E-02    0.16       1.0  T
  14   -389.3603274 -0.508804E-03  0.222E-02    0.15       1.0  T
  15   -389.3605200 -0.192664E-03  0.141E-02    0.14       1.0  T
  16   -389.3606482 -0.128179E-03  0.773E-03    0.14       1.0  T
  17   -389.3606781 -0.298549E-04  0.385E-03    0.13       1.7  T
  18   -389.3606733  0.478421E-05  0.348E-03    0.13       1.9  T
  19   -389.3606832 -0.993263E-05  0.140E-03    0.13       4.8  T
  20   -389.3606840 -0.773552E-06  0.650E-04    0.13      10.3  T
  21   -389.3606840 -0.460733E-07  0.408E-04    0.13      16.5  T
     SCC iter.                  ...        0 min,  2.688 sec
     gradient                   ...        0 min,  0.423 sec
 * total energy  :  -382.6706726 Eh     change       -0.3201425E+00 Eh
   gradient norm :     0.4956723 Eh/α   predicted    -0.2651902E+00 ( -17.16%)
   displ. norm   :     0.6562274 α      lambda       -0.2661295E+00
   maximum displ.:     0.1786085 α      in ANC's #224, #645, #226, ...

........................................................................
.............................. CYCLE    3 ..............................
........................................................................
   1   -389.3926419 -0.389393E+03  0.365E-01    0.14       0.0  T
   2   -389.0313292  0.361313E+00  0.656E-01    0.06       1.0  T
   3   -389.1794332 -0.148104E+00  0.548E-01    0.01       1.0  T
   4   -389.3498236 -0.170390E+00  0.371E-01    0.46       1.0  T
   5   -389.3933133 -0.434897E-01  0.201E-01    0.20       1.0  T
   6   -389.1023656  0.290948E+00  0.530E-01    0.06       1.0  T
   7   -389.3925478 -0.290182E+00  0.164E-01    0.34       1.0  T
   8   -389.4026568 -0.101090E-01  0.155E-01    0.19       1.0  T
   9   -389.4075952 -0.493845E-02  0.891E-02    0.18       1.0  T
  10   -389.4083938 -0.798586E-03  0.795E-02    0.16       1.0  T
  11   -389.4088966 -0.502806E-03  0.631E-02    0.16       1.0  T
  12   -389.4101263 -0.122966E-02  0.517E-02    0.15       1.0  T
  13   -389.4108717 -0.745377E-03  0.376E-02    0.16       1.0  T
  14   -389.4113706 -0.498935E-03  0.288E-02    0.15       1.0  T
  15   -389.4119933 -0.622664E-03  0.129E-02    0.14       1.0  T
  16   -389.4120923 -0.990393E-04  0.449E-03    0.13       1.5  T
  17   -389.4120920  0.251149E-06  0.337E-03    0.14       2.0  T
  18   -389.4120967 -0.465499E-05  0.231E-03    0.14       2.9  T
  19   -389.4120992 -0.247739E-05  0.134E-03    0.14       5.0  T
  20   -389.4121000 -0.789849E-06  0.497E-04    0.13      13.5  T
  21   -389.4120999  0.920156E-07  0.486E-04    0.13      13.8  T
     SCC iter.                  ...        0 min,  2.691 sec
     gradient                   ...        0 min,  0.403 sec
 * total energy  :  -382.8681996 Eh     change       -0.1975270E+00 Eh
   gradient norm :     0.2085158 Eh/α   predicted    -0.1903670E+00 (  -3.62%)
   displ. norm   :     0.7383906 α      lambda       -0.1283755E+00
   maximum displ.:     0.2174126 α      in ANC's #224, #220, #226, ...

........................................................................
.............................. CYCLE    4 ..............................
........................................................................
   1   -389.4995075 -0.389500E+03  0.266E-01    0.20       0.0  T
   2   -389.2776851  0.221822E+00  0.510E-01    0.04       1.0  T
   3   -389.4687843 -0.191099E+00  0.269E-01    0.23       1.0  T
   4   -389.4951773 -0.263930E-01  0.183E-01    0.27       1.0  T
   5   -389.4831920  0.119853E-01  0.201E-01    0.17       1.0  T
   6   -389.4971140 -0.139220E-01  0.131E-01    0.21       1.0  T
   7   -389.5017501 -0.463612E-02  0.821E-02    0.23       1.0  T
   8   -389.5033202 -0.157010E-02  0.595E-02    0.18       1.0  T
   9   -389.5035367 -0.216441E-03  0.555E-02    0.19       1.0  T
  10   -389.5036378 -0.101113E-03  0.543E-02    0.19       1.0  T
  11   -389.5051070 -0.146919E-02  0.320E-02    0.17       1.0  T
  12   -389.5006758  0.443112E-02  0.635E-02    0.10       1.0  T
  13   -389.5051019 -0.442605E-02  0.197E-02    0.15       1.0  T
  14   -389.5052788 -0.176943E-03  0.151E-02    0.16       1.0  T
  15   -389.5054737 -0.194895E-03  0.563E-03    0.14       1.2  T
  16   -389.5054426  0.311655E-04  0.792E-03    0.14       1.0  T
  17   -389.5055110 -0.684721E-04  0.170E-03    0.15       3.9  T
  18   -389.5055007  0.103306E-04  0.315E-03    0.15       2.1  T
  19   -389.5055115 -0.108014E-04  0.762E-04    0.15       8.8  T
  20   -389.5055119 -0.430352E-06  0.403E-04    0.15      16.6  T
  21   -389.5055121 -0.110307E-06  0.230E-04    0.15      29.2  T
     SCC iter.                  ...        0 min,  2.693 sec
     gradient                   ...        0 min,  0.391 sec
 * total energy  :  -382.9720842 Eh     change       -0.1038846E+00 Eh
   gradient norm :     0.1170340 Eh/α   predicted    -0.9918437E-01 (  -4.52%)
   displ. norm   :     0.8103404 α      lambda       -0.8749133E-01
   maximum displ.:     0.2161516 α      in ANC's #224, #220, #112, ...

........................................................................
.............................. CYCLE    5 ..............................
........................................................................
   1   -389.5856139 -0.389586E+03  0.255E-01    0.28       0.0  T
   2   -389.5192230  0.663909E-01  0.302E-01    0.04       1.0  T
   3   -389.5552122 -0.359892E-01  0.265E-01    0.25       1.0  T
   4   -389.5793546 -0.241424E-01  0.151E-01    0.30       1.0  T
   5   -389.5770009  0.235369E-02  0.128E-01    0.18       1.0  T
   6   -389.5837463 -0.674540E-02  0.879E-02    0.28       1.0  T
   7   -389.5863933 -0.264696E-02  0.588E-02    0.25       1.0  T
   8   -389.5871373 -0.744053E-03  0.489E-02    0.22       1.0  T
   9   -389.5873496 -0.212293E-03  0.429E-02    0.23       1.0  T
  10   -389.5876485 -0.298938E-03  0.370E-02    0.22       1.0  T
  11   -389.5882439 -0.595317E-03  0.191E-02    0.22       1.0  T
  12   -389.5884888 -0.244986E-03  0.861E-03    0.19       1.0  T
  13   -389.5885131 -0.242577E-04  0.499E-03    0.19       1.3  T
  14   -389.5884594  0.536469E-04  0.805E-03    0.21       1.0  T
  15   -389.5884947 -0.352925E-04  0.495E-03    0.18       1.4  T
  16   -389.5885179 -0.231158E-04  0.209E-03    0.20       3.2  T
  17   -389.5885188 -0.919479E-06  0.160E-03    0.19       4.2  T
  18   -389.5885210 -0.223424E-05  0.694E-04    0.19       9.7  T
  19   -389.5885214 -0.358055E-06  0.256E-04    0.19      26.2  T
  20   -389.5885214 -0.358175E-07  0.144E-04    0.19      46.5  T
     SCC iter.                  ...        0 min,  2.564 sec
     gradient                   ...        0 min,  0.390 sec
 * total energy  :  -383.0480941 Eh     change       -0.7600996E-01 Eh
   gradient norm :     0.0970612 Eh/α   predicted    -0.7247228E-01 (  -4.65%)
   displ. norm   :     0.8637647 α      lambda       -0.7104481E-01
   maximum displ.:     0.2399524 α      in ANC's #112, #25, #115, ...

........................................................................
.............................. CYCLE    6 ..............................
........................................................................
   1   -389.6579441 -0.389658E+03  0.280E-01    0.41       0.0  T
   2   -389.6535155  0.442865E-02  0.203E-01    0.28       1.0  T
   3   -389.6391015  0.144140E-01  0.269E-01    0.45       1.0  T
   4   -389.6553300 -0.162286E-01  0.114E-01    0.41       1.0  T
   5   -389.6593438 -0.401383E-02  0.467E-02    0.34       1.0  T
   6   -389.6600877 -0.743822E-03  0.674E-03    0.36       1.0  T
   7   -389.6600882 -0.520249E-06  0.603E-03    0.36       1.1  T
   8   -389.6600889 -0.734481E-06  0.531E-03    0.36       1.3  T
   9   -389.6600945 -0.557990E-05  0.269E-03    0.36       2.5  T
  10   -389.6600966 -0.215022E-05  0.102E-03    0.36       6.6  T
  11   -389.6600969 -0.271078E-06  0.518E-04    0.36      13.0  T
  12   -389.6600970 -0.523236E-07  0.297E-04    0.36      22.6  T
     SCC iter.                  ...        0 min,  1.542 sec
     gradient                   ...        0 min,  0.391 sec
 * total energy  :  -383.1124335 Eh     change       -0.6433937E-01 Eh
   gradient norm :     0.0834803 Eh/α   predicted    -0.6202530E-01 (  -3.60%)
   displ. norm   :     0.9106155 α      lambda       -0.6282733E-01
   maximum displ.:     0.2870033 α      in ANC's #25, #112, #70, ...

........................................................................
.............................. CYCLE    7 ..............................
........................................................................
   1   -389.7167845 -0.389717E+03  0.311E-01    0.66       0.0  T
   2   -389.7132826  0.350194E-02  0.214E-01    0.65       1.0  T
   3   -389.7003110  0.129716E-01  0.271E-01    0.73       1.0  T
   4   -389.7174988 -0.171878E-01  0.690E-02    0.72       1.0  T
   5   -389.7184791 -0.980315E-03  0.383E-02    0.70       1.0  T
   6   -389.7190154 -0.536287E-03  0.708E-03    0.71       1.0  T
   7   -389.7190260 -0.106690E-04  0.425E-03    0.71       1.6  T
   8   -389.7190263 -0.259724E-06  0.343E-03    0.71       2.0  T
   9   -389.7190291 -0.278552E-05  0.152E-03    0.71       4.4  T
  10   -389.7190298 -0.665431E-06  0.570E-04    0.71      11.8  T
  11   -389.7190298 -0.417547E-07  0.315E-04    0.71      21.3  T
     SCC iter.                  ...        0 min,  1.414 sec
     gradient                   ...        0 min,  0.390 sec
 * total energy  :  -383.1719019 Eh     change       -0.5946834E-01 Eh
   gradient norm :     0.0755337 Eh/α   predicted    -0.5746253E-01 (  -3.37%)
   displ. norm   :     0.9534511 α      lambda       -0.6139384E-01
   maximum displ.:     0.3495985 α      in ANC's #25, #70, #18, ...

........................................................................
.............................. CYCLE    8 ..............................
........................................................................
   1   -389.7618768 -0.389762E+03  0.331E-01    0.80       0.0  T
   2   -389.7599249  0.195188E-02  0.217E-01    0.80       1.0  T
   3   -389.7489228  0.110021E-01  0.253E-01    0.80       1.0  T
   4   -389.7637295 -0.148067E-01  0.411E-02    0.80       1.0  T
   5   -389.7640049 -0.275371E-03  0.150E-02    0.80       1.0  T
   6   -389.7640644 -0.595278E-04  0.659E-03    0.80       1.0  T
   7   -389.7640719 -0.745918E-05  0.379E-03    0.80       1.8  T
   8   -389.7640740 -0.213337E-05  0.201E-03    0.80       3.3  T
   9   -389.7640751 -0.106224E-05  0.936E-04    0.80       7.2  T
  10   -389.7640752 -0.121885E-06  0.507E-04    0.80      13.2  T
  11   -389.7640752 -0.615762E-07  0.265E-04    0.80      25.3  T
     SCC iter.                  ...        0 min,  1.413 sec
     gradient                   ...        0 min,  0.391 sec
 * total energy  :  -383.2323611 Eh     change       -0.6045927E-01 Eh
   gradient norm :     0.0749306 Eh/α   predicted    -0.5860257E-01 (  -3.07%)
   displ. norm   :     0.9730575 α      lambda       -0.6311584E-01
   maximum displ.:     0.3826070 α      in ANC's #25, #70, #18, ...

........................................................................
.............................. CYCLE    9 ..............................
........................................................................
   1   -389.8010720 -0.389801E+03  0.321E-01    0.86       0.0  T
   2   -389.7997893  0.128268E-02  0.214E-01    0.86       1.0  T
   3   -389.7891331  0.106562E-01  0.234E-01    0.86       1.0  T
   4   -389.8023090 -0.131759E-01  0.415E-02    0.86       1.0  T
   5   -389.8026952 -0.386134E-03  0.184E-02    0.86       1.0  T
   6   -389.8028354 -0.140282E-03  0.676E-03    0.86       1.0  T
   7   -389.8028437 -0.830227E-05  0.379E-03    0.86       1.8  T
   8   -389.8028445 -0.722651E-06  0.199E-03    0.86       3.4  T
   9   -389.8028455 -0.106541E-05  0.925E-04    0.86       7.3  T
  10   -389.8028457 -0.213539E-06  0.458E-04    0.86      14.7  T
  11   -389.8028458 -0.481587E-07  0.228E-04    0.86      29.4  T
     SCC iter.                  ...        0 min,  1.413 sec
     gradient                   ...        0 min,  0.391 sec
 * total energy  :  -383.2944846 Eh     change       -0.6212349E-01 Eh
   gradient norm :     0.0762363 Eh/α   predicted    -0.6143835E-01 (  -1.10%)
   displ. norm   :     0.9629103 α      lambda       -0.6279598E-01
   maximum displ.:     0.4090723 α      in ANC's #25, #70, #18, ...

........................................................................
.............................. CYCLE   10 ..............................
........................................................................
   1   -389.8362471 -0.389836E+03  0.286E-01    0.89       0.0  T
   2   -389.8347022  0.154498E-02  0.205E-01    0.89       1.0  T
   3   -389.8262964  0.840572E-02  0.200E-01    0.89       1.0  T
   4   -389.8370447 -0.107483E-01  0.417E-02    0.89       1.0  T
   5   -389.8376148 -0.570059E-03  0.132E-02    0.89       1.0  T
   6   -389.8376691 -0.543312E-04  0.621E-03    0.89       1.1  T
   7   -389.8376756 -0.644259E-05  0.388E-03    0.89       1.7  T
   8   -389.8376770 -0.149943E-05  0.164E-03    0.89       4.1  T
   9   -389.8376780 -0.966591E-06  0.649E-04    0.89      10.3  T
  10   -389.8376781 -0.130665E-06  0.348E-04    0.89      19.3  T
     SCC iter.                  ...        0 min,  1.284 sec
     gradient                   ...        0 min,  0.391 sec
 * total energy  :  -383.3487227 Eh     change       -0.5423806E-01 Eh
   gradient norm :     0.0731104 Eh/α   predicted    -0.6051012E-01 (  11.56%)
   displ. norm   :     0.8867264 α      lambda       -0.4603550E-01
   maximum displ.:     0.4311252 α      in ANC's #25, #18, #70, ...

........................................................................
.............................. CYCLE   11 ..............................
........................................................................
   1   -389.8475147 -0.389848E+03  0.234E-01    0.93       0.0  T
   2   -389.8469168  0.597903E-03  0.152E-01    0.93       1.0  T
   3   -389.8373715  0.954527E-02  0.167E-01    0.93       1.0  T
   4   -389.8478139 -0.104424E-01  0.262E-02    0.93       1.0  T
   5   -389.8480197 -0.205791E-03  0.492E-03    0.93       1.4  T
   6   -389.8480208 -0.105044E-05  0.345E-03    0.93       1.9  T
   7   -389.8480214 -0.583127E-06  0.213E-03    0.93       3.1  T
   8   -389.8480230 -0.160723E-05  0.825E-04    0.93       8.1  T
   9   -389.8480232 -0.240847E-06  0.335E-04    0.93      20.0  T
  10   -389.8480232 -0.178624E-07  0.190E-04    0.93      35.4  T
     SCC iter.                  ...        0 min,  1.286 sec
     gradient                   ...        0 min,  0.391 sec
 * total energy  :  -383.3883212 Eh     change       -0.3959857E-01 Eh
   gradient norm :     0.0674662 Eh/α   predicted    -0.4111625E-01 (   3.83%)
   displ. norm   :     0.8358443 α      lambda       -0.4094214E-01
   maximum displ.:     0.4320703 α      in ANC's #25, #18, #34, ...

........................................................................
.............................. CYCLE   12 ..............................
........................................................................
   1   -389.9216833 -0.389922E+03  0.200E-01    0.91       0.0  T
   2   -389.9214460  0.237275E-03  0.127E-01    0.92       1.0  T
   3   -389.9140898  0.735626E-02  0.125E-01    0.92       1.0  T
   4   -389.9217415 -0.765172E-02  0.269E-02    0.91       1.0  T
   5   -389.9220156 -0.274147E-03  0.602E-03    0.92       1.1  T
   6   -389.9220251 -0.944166E-05  0.305E-03    0.92       2.2  T
   7   -389.9220267 -0.161165E-05  0.199E-03    0.92       3.4  T
   8   -389.9220277 -0.100566E-05  0.798E-04    0.92       8.4  T
   9   -389.9220279 -0.174387E-06  0.310E-04    0.92      21.6  T
  10   -389.9220279 -0.135059E-07  0.162E-04    0.92      41.5  T
     SCC iter.                  ...        0 min,  1.286 sec
     gradient                   ...        0 min,  0.391 sec
 * total energy  :  -383.4236240 Eh     change       -0.3530278E-01 Eh
   gradient norm :     0.0557172 Eh/α   predicted    -0.3477286E-01 (  -1.50%)
   displ. norm   :     0.8905619 α      lambda       -0.3630781E-01
   maximum displ.:     0.4857191 α      in ANC's #25, #18, #34, ...

........................................................................
.............................. CYCLE   13 ..............................
........................................................................
   1   -389.9730234 -0.389973E+03  0.178E-01    0.94       0.0  T
   2   -389.9727187  0.304667E-03  0.116E-01    0.93       1.0  T
   3   -389.9667172  0.600150E-02  0.118E-01    0.94       1.0  T
   4   -389.9730830 -0.636580E-02  0.226E-02    0.93       1.0  T
   5   -389.9732998 -0.216836E-03  0.551E-03    0.93       1.2  T
   6   -389.9733062 -0.636054E-05  0.326E-03    0.93       2.1  T
   7   -389.9733083 -0.213147E-05  0.178E-03    0.93       3.8  T
   8   -389.9733091 -0.728779E-06  0.852E-04    0.93       7.9  T
   9   -389.9733093 -0.235516E-06  0.290E-04    0.93      23.2  T
     SCC iter.                  ...        0 min,  1.158 sec
     gradient                   ...        0 min,  0.392 sec
 * total energy  :  -383.4547351 Eh     change       -0.3111107E-01 Eh
   gradient norm :     0.0599609 Eh/α   predicted    -0.3255179E-01 (   4.63%)
   displ. norm   :     0.9046290 α      lambda       -0.3310308E-01
   maximum displ.:     0.5086186 α      in ANC's #25, #18, #34, ...

........................................................................
.............................. CYCLE   14 ..............................
........................................................................
   1   -390.0370914 -0.390037E+03  0.135E-01    0.92       0.0  T
   2   -390.0369438  0.147554E-03  0.898E-02    0.92       1.0  T
   3   -390.0344638  0.248001E-02  0.851E-02    0.92       1.0  T
   4   -390.0371188 -0.265496E-02  0.209E-02    0.92       1.0  T
   5   -390.0373077 -0.188890E-03  0.449E-03    0.92       1.5  T
   6   -390.0373139 -0.616762E-05  0.218E-03    0.92       3.1  T
   7   -390.0373147 -0.865813E-06  0.138E-03    0.92       4.9  T
   8   -390.0373151 -0.393640E-06  0.617E-04    0.92      10.9  T
   9   -390.0373152 -0.132899E-06  0.163E-04    0.92      41.1  T
     SCC iter.                  ...        0 min,  1.156 sec
     gradient                   ...        0 min,  0.392 sec
 * total energy  :  -383.4839078 Eh     change       -0.2917274E-01 Eh
   gradient norm :     0.0456844 Eh/α   predicted    -0.3009656E-01 (   3.17%)
   displ. norm   :     0.9148686 α      lambda       -0.2892322E-01
   maximum displ.:     0.4887662 α      in ANC's #25, #18, #34, ...

........................................................................
.............................. CYCLE   15 ..............................
........................................................................
   1   -390.0767757 -0.390077E+03  0.124E-01    0.92       0.0  T
   2   -390.0766015  0.174143E-03  0.821E-02    0.92       1.0  T
   3   -390.0733267  0.327487E-02  0.863E-02    0.92       1.0  T
   4   -390.0768232 -0.349657E-02  0.119E-02    0.92       1.0  T
   5   -390.0768899 -0.667021E-04  0.382E-03    0.92       1.8  T
   6   -390.0768944 -0.447249E-05  0.163E-03    0.92       4.1  T
   7   -390.0768946 -0.219148E-06  0.998E-04    0.92       6.7  T
   8   -390.0768949 -0.262577E-06  0.430E-04    0.92      15.6  T
     SCC iter.                  ...        0 min,  1.031 sec
     gradient                   ...        0 min,  0.392 sec
 * total energy  :  -383.5108034 Eh     change       -0.2689551E-01 Eh
   gradient norm :     0.0364054 Eh/α   predicted    -0.2656576E-01 (  -1.23%)
   displ. norm   :     0.9390735 α      lambda       -0.2681709E-01
   maximum displ.:     0.5016114 α      in ANC's #25, #18, #34, ...

........................................................................
.............................. CYCLE   16 ..............................
........................................................................
   1   -390.1169332 -0.390117E+03  0.111E-01    0.92       0.0  T
   2   -390.1168635  0.696509E-04  0.711E-02    0.92       1.0  T
   3   -390.1148205  0.204300E-02  0.691E-02    0.92       1.0  T
   4   -390.1169448 -0.212431E-02  0.118E-02    0.92       1.0  T
   5   -390.1170108 -0.659659E-04  0.316E-03    0.92       2.1  T
   6   -390.1170139 -0.309621E-05  0.155E-03    0.92       4.3  T
   7   -390.1170143 -0.437487E-06  0.873E-04    0.92       7.7  T
   8   -390.1170145 -0.121387E-06  0.394E-04    0.92      17.0  T
     SCC iter.                  ...        0 min,  1.031 sec
     gradient                   ...        0 min,  0.393 sec
 * total energy  :  -383.5356610 Eh     change       -0.2485767E-01 Eh
   gradient norm :     0.0321191 Eh/α   predicted    -0.2523300E-01 (   1.51%)
   displ. norm   :     0.9508223 α      lambda       -0.2503972E-01
   maximum displ.:     0.4764320 α      in ANC's #25, #18, #34, ...

........................................................................
.............................. CYCLE   17 ..............................
........................................................................
   1   -390.1521894 -0.390152E+03  0.128E-01    0.91       0.0  T
   2   -390.1521167  0.726745E-04  0.803E-02    0.91       1.0  T
   3   -390.1498636  0.225310E-02  0.760E-02    0.91       1.0  T
   4   -390.1522155 -0.235182E-02  0.110E-02    0.91       1.0  T
   5   -390.1522673 -0.518648E-04  0.327E-03    0.91       2.1  T
   6   -390.1522701 -0.275925E-05  0.176E-03    0.91       3.8  T
   7   -390.1522707 -0.629459E-06  0.929E-04    0.91       7.2  T
   8   -390.1522709 -0.196255E-06  0.398E-04    0.91      16.8  T
     SCC iter.                  ...        0 min,  1.030 sec
     gradient                   ...        0 min,  0.393 sec
 * total energy  :  -383.5583657 Eh     change       -0.2270464E-01 Eh
   gradient norm :     0.0356275 Eh/α   predicted    -0.2383860E-01 (   4.99%)
   displ. norm   :     0.9411973 α      lambda       -0.2319398E-01
   maximum displ.:     0.4515254 α      in ANC's #25, #18, #34, ...

........................................................................
.............................. CYCLE   18 ..............................
........................................................................
   1   -390.1833570 -0.390183E+03  0.134E-01    0.90       0.0  T
   2   -390.1833214  0.355744E-04  0.817E-02    0.90       1.0  T
   3   -390.1812823  0.203910E-02  0.615E-02    0.90       1.0  T
   4   -390.1833608 -0.207848E-02  0.115E-02    0.90       1.0  T
   5   -390.1834168 -0.560276E-04  0.300E-03    0.90       2.2  T
   6   -390.1834187 -0.186850E-05  0.158E-03    0.90       4.2  T
   7   -390.1834189 -0.276638E-06  0.997E-04    0.90       6.7  T
   8   -390.1834192 -0.303417E-06  0.325E-04    0.90      20.6  T
     SCC iter.                  ...        0 min,  1.030 sec
     gradient                   ...        0 min,  0.393 sec
 * total energy  :  -383.5798881 Eh     change       -0.2152245E-01 Eh
   gradient norm :     0.0347331 Eh/α   predicted    -0.2187022E-01 (   1.62%)
   displ. norm   :     0.9476017 α      lambda       -0.2238297E-01
   maximum displ.:     0.4393030 α      in ANC's #25, #18, #34, ...

........................................................................
.............................. CYCLE   19 ..............................
........................................................................
   1   -390.2193202 -0.390219E+03  0.135E-01    0.90       0.0  T
   2   -390.2192387  0.814543E-04  0.863E-02    0.90       1.0  T
   3   -390.2172645  0.197420E-02  0.808E-02    0.90       1.0  T
   4   -390.2193944 -0.212994E-02  0.123E-02    0.90       1.0  T
   5   -390.2194505 -0.560727E-04  0.332E-03    0.90       2.0  T
   6   -390.2194535 -0.300781E-05  0.164E-03    0.90       4.1  T
   7   -390.2194538 -0.307044E-06  0.106E-03    0.90       6.3  T
   8   -390.2194542 -0.345520E-06  0.456E-04    0.90      14.7  T
   9   -390.2194543 -0.854729E-07  0.129E-04    0.90      52.2  T
     SCC iter.                  ...        0 min,  1.158 sec
     gradient                   ...        0 min,  0.393 sec
 * total energy  :  -383.5995980 Eh     change       -0.1970993E-01 Eh
   gradient norm :     0.0418310 Eh/α   predicted    -0.2124089E-01 (   7.77%)
   displ. norm   :     0.9244745 α      lambda       -0.2138508E-01
   maximum displ.:     0.4205357 α      in ANC's #34, #18, #25, ...

........................................................................
.............................. CYCLE   20 ..............................
........................................................................
   1   -390.2513103 -0.390251E+03  0.136E-01    0.90       0.0  T
   2   -390.2512739  0.364784E-04  0.831E-02    0.90       1.0  T
   3   -390.2497101  0.156373E-02  0.699E-02    0.90       1.0  T
   4   -390.2513549 -0.164476E-02  0.952E-03    0.90       1.0  T
   5   -390.2513840 -0.291268E-04  0.278E-03    0.90       2.4  T
   6   -390.2513851 -0.105357E-05  0.177E-03    0.90       3.8  T
   7   -390.2513856 -0.561516E-06  0.102E-03    0.90       6.6  T
   8   -390.2513861 -0.425463E-06  0.353E-04    0.90      19.0  T
   9   -390.2513861 -0.451593E-07  0.123E-04    0.90      54.8  T
     SCC iter.                  ...        0 min,  1.160 sec
     gradient                   ...        0 min,  0.393 sec
 * total energy  :  -383.6189787 Eh     change       -0.1938067E-01 Eh
   gradient norm :     0.0274553 Eh/α   predicted    -0.1983095E-01 (   2.32%)
   displ. norm   :     0.9479219 α      lambda       -0.1925302E-01
   maximum displ.:     0.4424646 α      in ANC's #34, #18, #25, ...
 * RMSD in coord.:     0.9413265 α      energy gain  -0.1268449E+01 Eh

generating ANC from model Hessian ...
Using Lindh-Hessian (1995)
 Shifting diagonal of input Hessian by    1.0022382067429642E-002
 Lowest  eigenvalues of input Hessian
    0.010000    0.010003    0.010010    0.010012    0.010013    0.010013
    0.010014    0.010014    0.010015    0.010018    0.010018    0.010020
    0.010021    0.000000    0.000000    0.000000    0.000000    0.000000
 Highest eigenvalues
    2.119614    2.496293    2.504434    2.574244    2.577690    2.630110


........................................................................
.............................. CYCLE   21 ..............................
........................................................................
   1   -390.2766942 -0.390277E+03  0.132E-01    0.90       0.0  T
   2   -390.2766847  0.949184E-05  0.793E-02    0.90       1.0  T
   3   -390.2755082  0.117649E-02  0.467E-02    0.90       1.0  T
   4   -390.2766862 -0.117793E-02  0.112E-02    0.90       1.0  T
   5   -390.2767441 -0.579587E-04  0.278E-03    0.90       2.4  T
   6   -390.2767458 -0.173226E-05  0.147E-03    0.90       4.6  T
   7   -390.2767461 -0.238941E-06  0.916E-04    0.90       7.3  T
   8   -390.2767464 -0.280323E-06  0.296E-04    0.90      22.6  T
     SCC iter.                  ...        0 min,  1.032 sec
     gradient                   ...        0 min,  0.393 sec
 * total energy  :  -383.6370381 Eh     change       -0.1805935E-01 Eh
   gradient norm :     0.0242664 Eh/α   predicted     0.0000000E+00 (-100.00%)
   displ. norm   :     0.7189779 α      lambda       -0.1370052E-01
   maximum displ.:     0.4921340 α      in ANC's #33, #42, #30, ...

........................................................................
.............................. CYCLE   22 ..............................
........................................................................
   1   -390.3057133 -0.390306E+03  0.101E-01    0.90       0.0  T
   2   -390.3057157 -0.235388E-05  0.594E-02    0.90       1.0  T
   3   -390.3054463  0.269352E-03  0.232E-02    0.90       1.0  T
   4   -390.3057097 -0.263396E-03  0.645E-03    0.90       1.0  T
   5   -390.3057301 -0.203443E-04  0.120E-03    0.90       5.6  T
   6   -390.3057301 -0.183638E-08  0.903E-04    0.90       7.4  T
   7   -390.3057302 -0.155485E-06  0.451E-04    0.90      14.9  T
     SCC iter.                  ...        0 min,  0.904 sec
     gradient                   ...        0 min,  0.394 sec
 * total energy  :  -383.6502991 Eh     change       -0.1326100E-01 Eh
   gradient norm :     0.0195744 Eh/α   predicted    -0.1044078E-01 ( -21.27%)
   displ. norm   :     0.9241214 α      lambda       -0.1657395E-01
   maximum displ.:     0.6028403 α      in ANC's #33, #42, #30, ...

........................................................................
.............................. CYCLE   23 ..............................
........................................................................
   1   -390.3355174 -0.390336E+03  0.130E-01    0.90       0.0  T
   2   -390.3355188 -0.140261E-05  0.769E-02    0.90       1.0  T
   3   -390.3350777  0.441100E-03  0.291E-02    0.90       1.0  T
   4   -390.3355208 -0.443075E-03  0.665E-03    0.90       1.0  T
   5   -390.3355412 -0.203525E-04  0.158E-03    0.90       4.3  T
   6   -390.3355412 -0.297324E-07  0.116E-03    0.90       5.8  T
   7   -390.3355414 -0.254636E-06  0.544E-04    0.90      12.3  T
   8   -390.3355416 -0.118389E-06  0.176E-04    0.90      38.1  T
     SCC iter.                  ...        0 min,  1.034 sec
     gradient                   ...        0 min,  0.393 sec
 * total energy  :  -383.6662291 Eh     change       -0.1593007E-01 Eh
   gradient norm :     0.0174670 Eh/α   predicted    -0.1536405E-01 (  -3.55%)
   displ. norm   :     0.9425876 α      lambda       -0.1579073E-01
   maximum displ.:     0.6252015 α      in ANC's #33, #42, #30, ...

........................................................................
.............................. CYCLE   24 ..............................
........................................................................
   1   -390.3583471 -0.390358E+03  0.131E-01    0.90       0.0  T
   2   -390.3583487 -0.155748E-05  0.774E-02    0.90       1.0  T
   3   -390.3579937  0.355003E-03  0.256E-02    0.90       1.0  T
   4   -390.3583543 -0.360614E-03  0.543E-03    0.90       1.2  T
   5   -390.3583666 -0.123207E-04  0.161E-03    0.90       4.2  T
   6   -390.3583667 -0.588067E-07  0.112E-03    0.90       6.0  T
   7   -390.3583669 -0.215624E-06  0.536E-04    0.90      12.5  T
   8   -390.3583670 -0.115138E-06  0.160E-04    0.90      42.0  T
     SCC iter.                  ...        0 min,  1.032 sec
     gradient                   ...        0 min,  0.394 sec
 * total energy  :  -383.6813804 Eh     change       -0.1515122E-01 Eh
   gradient norm :     0.0168916 Eh/α   predicted    -0.1491018E-01 (  -1.59%)
   displ. norm   :     0.9435567 α      lambda       -0.1477624E-01
   maximum displ.:     0.6371374 α      in ANC's #33, #42, #30, ...

........................................................................
.............................. CYCLE   25 ..............................
........................................................................
   1   -390.3801943 -0.390380E+03  0.128E-01    0.90       0.0  T
   2   -390.3801968 -0.246116E-05  0.758E-02    0.90       1.0  T
   3   -390.3798913  0.305446E-03  0.234E-02    0.90       1.0  T
   4   -390.3802000 -0.308664E-03  0.554E-03    0.90       1.2  T
   5   -390.3802128 -0.127857E-04  0.153E-03    0.90       4.4  T
   6   -390.3802128 -0.663943E-07  0.102E-03    0.90       6.6  T
   7   -390.3802129 -0.115840E-06  0.563E-04    0.90      11.9  T
   8   -390.3802131 -0.128264E-06  0.152E-04    0.90      44.2  T
     SCC iter.                  ...        0 min,  1.031 sec
     gradient                   ...        0 min,  0.394 sec
 * total energy  :  -383.6955361 Eh     change       -0.1415579E-01 Eh
   gradient norm :     0.0158582 Eh/α   predicted    -0.1396576E-01 (  -1.34%)
   displ. norm   :     0.9402337 α      lambda       -0.1373249E-01
   maximum displ.:     0.6467191 α      in ANC's #33, #42, #30, ...

........................................................................
.............................. CYCLE   26 ..............................
........................................................................
   1   -390.4032521 -0.390403E+03  0.123E-01    0.90       0.0  T
   2   -390.4032553 -0.321945E-05  0.727E-02    0.90       1.0  T
   3   -390.4029822  0.273062E-03  0.223E-02    0.90       1.0  T
   4   -390.4032568 -0.274556E-03  0.567E-03    0.90       1.2  T
   5   -390.4032704 -0.136081E-04  0.145E-03    0.90       4.6  T
   6   -390.4032704 -0.524077E-07  0.956E-04    0.90       7.0  T
   7   -390.4032705 -0.861369E-07  0.534E-04    0.90      12.6  T
     SCC iter.                  ...        0 min,  0.903 sec
     gradient                   ...        0 min,  0.394 sec
 * total energy  :  -383.7086842 Eh     change       -0.1314808E-01 Eh
   gradient norm :     0.0146301 Eh/α   predicted    -0.1293628E-01 (  -1.61%)
   displ. norm   :     0.9384471 α      lambda       -0.1274865E-01
   maximum displ.:     0.6558834 α      in ANC's #33, #30, #28, ...

........................................................................
.............................. CYCLE   27 ..............................
........................................................................
   1   -390.4263964 -0.390426E+03  0.118E-01    0.90       0.0  T
   2   -390.4264004 -0.396610E-05  0.697E-02    0.90       1.0  T
   3   -390.4261793  0.221048E-03  0.202E-02    0.90       1.0  T
   4   -390.4264003 -0.220987E-03  0.546E-03    0.90       1.2  T
   5   -390.4264133 -0.129708E-04  0.130E-03    0.90       5.1  T
   6   -390.4264133 -0.256867E-07  0.876E-04    0.90       7.7  T
   7   -390.4264134 -0.815581E-07  0.441E-04    0.90      15.2  T
     SCC iter.                  ...        0 min,  0.903 sec
     gradient                   ...        0 min,  0.394 sec
 * total energy  :  -383.7208801 Eh     change       -0.1219588E-01 Eh
   gradient norm :     0.0135920 Eh/α   predicted    -0.1198809E-01 (  -1.70%)
   displ. norm   :     0.9369411 α      lambda       -0.1181541E-01
   maximum displ.:     0.6636704 α      in ANC's #33, #30, #28, ...

........................................................................
.............................. CYCLE   28 ..............................
........................................................................
   1   -390.4490602 -0.390449E+03  0.114E-01    0.89       0.0  T
   2   -390.4490650 -0.477951E-05  0.673E-02    0.89       1.0  T
   3   -390.4488964  0.168567E-03  0.179E-02    0.89       1.0  T
   4   -390.4490634 -0.166947E-03  0.520E-03    0.89       1.3  T
   5   -390.4490756 -0.122101E-04  0.118E-03    0.89       5.7  T
   6   -390.4490756  0.507464E-08  0.820E-04    0.89       8.2  T
   7   -390.4490757 -0.903940E-07  0.360E-04    0.89      18.7  T
     SCC iter.                  ...        0 min,  0.903 sec
     gradient                   ...        0 min,  0.394 sec
 * total energy  :  -383.7321782 Eh     change       -0.1129812E-01 Eh
   gradient norm :     0.0125350 Eh/α   predicted    -0.1109383E-01 (  -1.81%)
   displ. norm   :     0.9360471 α      lambda       -0.1091497E-01
   maximum displ.:     0.6708704 α      in ANC's #33, #30, #28, ...

........................................................................
.............................. CYCLE   29 ..............................
........................................................................
   1   -390.4700492 -0.390470E+03  0.111E-01    0.89       0.0  T
   2   -390.4700544 -0.519700E-05  0.652E-02    0.89       1.0  T
   3   -390.4699334  0.121043E-03  0.154E-02    0.89       1.0  T
   4   -390.4700527 -0.119265E-03  0.471E-03    0.89       1.4  T
   5   -390.4700628 -0.101778E-04  0.108E-03    0.89       6.2  T
   6   -390.4700628  0.271052E-07  0.781E-04    0.89       8.6  T
   7   -390.4700629 -0.105216E-06  0.287E-04    0.89      23.4  T
     SCC iter.                  ...        0 min,  0.906 sec
     gradient                   ...        0 min,  0.395 sec
 * total energy  :  -383.7426219 Eh     change       -0.1044370E-01 Eh
   gradient norm :     0.0114692 Eh/α   predicted    -0.1023924E-01 (  -1.96%)
   displ. norm   :     0.9355377 α      lambda       -0.1006168E-01
   maximum displ.:     0.6773081 α      in ANC's #33, #30, #28, ...

........................................................................
.............................. CYCLE   30 ..............................
........................................................................
   1   -390.4900332 -0.390490E+03  0.108E-01    0.88       0.0  T
   2   -390.4900387 -0.546553E-05  0.635E-02    0.88       1.0  T
   3   -390.4899492  0.894627E-04  0.135E-02    0.88       1.0  T
   4   -390.4900366 -0.874191E-04  0.438E-03    0.88       1.5  T
   5   -390.4900456 -0.894772E-05  0.992E-04    0.88       6.8  T
   6   -390.4900455  0.461296E-07  0.736E-04    0.88       9.1  T
   7   -390.4900457 -0.105504E-06  0.244E-04    0.88      27.5  T
     SCC iter.                  ...        0 min,  0.904 sec
     gradient                   ...        0 min,  0.396 sec
 * total energy  :  -383.7522454 Eh     change       -0.9623463E-02 Eh
   gradient norm :     0.0104085 Eh/α   predicted    -0.9433982E-02 (  -1.97%)
   displ. norm   :     0.9363561 α      lambda       -0.9265385E-02
   maximum displ.:     0.6831723 α      in ANC's #33, #30, #28, ...

........................................................................
.............................. CYCLE   31 ..............................
........................................................................
   1   -390.5088152 -0.390509E+03  0.106E-01    0.88       0.0  T
   2   -390.5088208 -0.559873E-05  0.622E-02    0.88       1.0  T
   3   -390.5087558  0.649550E-04  0.118E-02    0.88       1.0  T
   4   -390.5088190 -0.631762E-04  0.401E-03    0.88       1.7  T
   5   -390.5088265 -0.751987E-05  0.939E-04    0.88       7.1  T
   6   -390.5088265  0.481397E-07  0.687E-04    0.88       9.8  T
   7   -390.5088266 -0.100854E-06  0.226E-04    0.88      29.7  T
     SCC iter.                  ...        0 min,  0.904 sec
     gradient                   ...        0 min,  0.396 sec
 * total energy  :  -383.7610885 Eh     change       -0.8843069E-02 Eh
   gradient norm :     0.0095187 Eh/α   predicted    -0.8694461E-02 (  -1.68%)
   displ. norm   :     0.9383506 α      lambda       -0.8519183E-02
   maximum displ.:     0.6884130 α      in ANC's #33, #30, #28, ...

........................................................................
.............................. CYCLE   32 ..............................
........................................................................
   1   -390.5265764 -0.390527E+03  0.104E-01    0.88       0.0  T
   2   -390.5265821 -0.569419E-05  0.612E-02    0.88       1.0  T
   3   -390.5265340  0.481211E-04  0.104E-02    0.88       1.0  T
   4   -390.5265809 -0.469036E-04  0.364E-03    0.88       1.8  T
   5   -390.5265871 -0.614756E-05  0.905E-04    0.88       7.4  T
   6   -390.5265870  0.397646E-07  0.644E-04    0.88      10.4  T
   7   -390.5265871 -0.910530E-07  0.221E-04    0.88      30.4  T
     SCC iter.                  ...        0 min,  0.904 sec
     gradient                   ...        0 min,  0.396 sec
 * total energy  :  -383.7691854 Eh     change       -0.8096940E-02 Eh
   gradient norm :     0.0087482 Eh/α   predicted    -0.8010169E-02 (  -1.07%)
   displ. norm   :     0.9415177 α      lambda       -0.7812079E-02
   maximum displ.:     0.6929116 α      in ANC's #33, #30, #28, ...

........................................................................
.............................. CYCLE   33 ..............................
........................................................................
   1   -390.5433447 -0.390543E+03  0.103E-01    0.87       0.0  T
   2   -390.5433504 -0.572300E-05  0.606E-02    0.87       1.0  T
   3   -390.5433153  0.351216E-04  0.921E-03    0.87       1.0  T
   4   -390.5433498 -0.344862E-04  0.327E-03    0.87       2.1  T
   5   -390.5433547 -0.491720E-05  0.884E-04    0.87       7.6  T
   6   -390.5433547  0.176663E-07  0.579E-04    0.87      11.6  T
   7   -390.5433548 -0.726739E-07  0.211E-04    0.87      31.8  T
     SCC iter.                  ...        0 min,  0.904 sec
     gradient                   ...        0 min,  0.396 sec
 * total energy  :  -383.7765651 Eh     change       -0.7379734E-02 Eh
   gradient norm :     0.0081164 Eh/α   predicted    -0.7368568E-02 (  -0.15%)
   displ. norm   :     0.9435615 α      lambda       -0.7108821E-02
   maximum displ.:     0.6946896 α      in ANC's #33, #30, #28, ...

........................................................................
.............................. CYCLE   34 ..............................
........................................................................
   1   -390.5591571 -0.390559E+03  0.102E-01    0.87       0.0  T
   2   -390.5591628 -0.563415E-05  0.598E-02    0.87       1.0  T
   3   -390.5591368  0.259061E-04  0.825E-03    0.87       1.0  T
   4   -390.5591631 -0.262180E-04  0.282E-03    0.87       2.4  T
   5   -390.5591665 -0.345638E-05  0.881E-04    0.87       7.6  T
   6   -390.5591665 -0.608770E-08  0.553E-04    0.87      12.1  T
   7   -390.5591666 -0.673906E-07  0.214E-04    0.87      31.3  T
     SCC iter.                  ...        0 min,  0.903 sec
     gradient                   ...        0 min,  0.396 sec
 * total energy  :  -383.7832417 Eh     change       -0.6676565E-02 Eh
   gradient norm :     0.0074266 Eh/α   predicted    -0.6718930E-02 (   0.63%)
   displ. norm   :     0.9382401 α      lambda       -0.6351782E-02
   maximum displ.:     0.6865663 α      in ANC's #33, #30, #28, ...

........................................................................
.............................. CYCLE   35 ..............................
........................................................................
   1   -390.5742313 -0.390574E+03  0.995E-02    0.86       0.0  T
   2   -390.5742366 -0.532169E-05  0.582E-02    0.86       1.0  T
   3   -390.5742181  0.184658E-04  0.724E-03    0.86       1.0  T
   4   -390.5742376 -0.194415E-04  0.234E-03    0.86       2.9  T
   5   -390.5742398 -0.226116E-05  0.849E-04    0.86       7.9  T
   6   -390.5742399 -0.376214E-07  0.478E-04    0.86      14.0  T
   7   -390.5742399 -0.525740E-07  0.180E-04    0.86      37.4  T
     SCC iter.                  ...        0 min,  0.903 sec
     gradient                   ...        0 min,  0.396 sec
 * total energy  :  -383.7891848 Eh     change       -0.5943087E-02 Eh
   gradient norm :     0.0067051 Eh/α   predicted    -0.5971610E-02 (   0.48%)
   displ. norm   :     0.9322290 α      lambda       -0.5620925E-02
   maximum displ.:     0.6748385 α      in ANC's #33, #30, #28, ...

........................................................................
.............................. CYCLE   36 ..............................
........................................................................
   1   -390.5887566 -0.390589E+03  0.969E-02    0.86       0.0  T
   2   -390.5887616 -0.501445E-05  0.567E-02    0.86       1.0  T
   3   -390.5887488  0.128421E-04  0.651E-03    0.86       1.0  T
   4   -390.5887634 -0.145923E-04  0.177E-03    0.86       3.8  T
   5   -390.5887644 -0.101132E-05  0.853E-04    0.86       7.9  T
   6   -390.5887645 -0.894988E-07  0.462E-04    0.86      14.5  T
   7   -390.5887645 -0.517723E-07  0.170E-04    0.86      39.5  T
     SCC iter.                  ...        0 min,  0.903 sec
     gradient                   ...        0 min,  0.397 sec
 * total energy  :  -383.7944123 Eh     change       -0.5227486E-02 Eh
   gradient norm :     0.0061844 Eh/α   predicted    -0.5252898E-02 (   0.49%)
   displ. norm   :     0.9252617 α      lambda       -0.4932724E-02
   maximum displ.:     0.6598205 α      in ANC's #33, #30, #28, ...

........................................................................
.............................. CYCLE   37 ..............................
........................................................................
   1   -390.6022467 -0.390602E+03  0.947E-02    0.85       0.0  T
   2   -390.6022514 -0.471443E-05  0.554E-02    0.85       1.0  T
   3   -390.6022397  0.116299E-04  0.644E-03    0.85       1.0  T
   4   -390.6022531 -0.133536E-04  0.172E-03    0.85       3.9  T
   5   -390.6022539 -0.848939E-06  0.840E-04    0.85       8.0  T
   6   -390.6022540 -0.778008E-07  0.466E-04    0.85      14.4  T
     SCC iter.                  ...        0 min,  0.776 sec
     gradient                   ...        0 min,  0.397 sec
 * total energy  :  -383.7989477 Eh     change       -0.4535381E-02 Eh
   gradient norm :     0.0060366 Eh/α   predicted    -0.4577838E-02 (   0.94%)
   displ. norm   :     0.9157437 α      lambda       -0.4265851E-02
   maximum displ.:     0.6413647 α      in ANC's #33, #30, #28, ...

........................................................................
.............................. CYCLE   38 ..............................
........................................................................
   1   -390.6149133 -0.390615E+03  0.923E-02    0.85       0.0  T
   2   -390.6149179 -0.451687E-05  0.540E-02    0.85       1.0  T
   3   -390.6149077  0.101861E-04  0.628E-03    0.85       1.1  T
   4   -390.6149192 -0.115380E-04  0.173E-03    0.85       3.9  T
   5   -390.6149201 -0.901663E-06  0.875E-04    0.85       7.7  T
   6   -390.6149202 -0.135848E-06  0.504E-04    0.85      13.3  T
     SCC iter.                  ...        0 min,  0.776 sec
     gradient                   ...        0 min,  0.397 sec
 * total energy  :  -383.8028217 Eh     change       -0.3874011E-02 Eh
   gradient norm :     0.0058007 Eh/α   predicted    -0.3921567E-02 (   1.23%)
   displ. norm   :     0.9032418 α      lambda       -0.3597739E-02
   maximum displ.:     0.6193163 α      in ANC's #33, #30, #18, ...

........................................................................
.............................. CYCLE   39 ..............................
........................................................................
   1   -390.6267105 -0.390627E+03  0.893E-02    0.84       0.0  T
   2   -390.6267144 -0.387707E-05  0.523E-02    0.84       1.0  T
   3   -390.6267020  0.123971E-04  0.629E-03    0.84       1.1  T
   4   -390.6267151 -0.130864E-04  0.204E-03    0.84       3.3  T
   5   -390.6267167 -0.156808E-05  0.795E-04    0.84       8.4  T
   6   -390.6267167 -0.497888E-07  0.474E-04    0.84      14.2  T
   7   -390.6267168 -0.525080E-07  0.209E-04    0.84      32.1  T
     SCC iter.                  ...        0 min,  0.904 sec
     gradient                   ...        0 min,  0.397 sec
 * total energy  :  -383.8060559 Eh     change       -0.3234242E-02 Eh
   gradient norm :     0.0055559 Eh/α   predicted    -0.3266470E-02 (   1.00%)
   displ. norm   :     0.8890026 α      lambda       -0.2973543E-02
   maximum displ.:     0.5947878 α      in ANC's #33, #30, #18, ...

........................................................................
.............................. CYCLE   40 ..............................
........................................................................
   1   -390.6380597 -0.390638E+03  0.871E-02    0.84       0.0  T
   2   -390.6380632 -0.347428E-05  0.510E-02    0.84       1.0  T
   3   -390.6380535  0.968109E-05  0.577E-03    0.84       1.2  T
   4   -390.6380644 -0.109093E-04  0.161E-03    0.84       4.2  T
   5   -390.6380652 -0.782090E-06  0.750E-04    0.84       8.9  T
   6   -390.6380652 -0.520357E-07  0.416E-04    0.84      16.1  T
     SCC iter.                  ...        0 min,  0.776 sec
     gradient                   ...        0 min,  0.398 sec
 * total energy  :  -383.8086647 Eh     change       -0.2608786E-02 Eh
   gradient norm :     0.0064282 Eh/α   predicted    -0.2661809E-02 (   2.03%)
   displ. norm   :     0.8696046 α      lambda       -0.2442643E-02
   maximum displ.:     0.5665027 α      in ANC's #33, #30, #18, ...

........................................................................
.............................. CYCLE   41 ..............................
........................................................................
   1   -390.6479829 -0.390648E+03  0.854E-02    0.84       0.0  T
   2   -390.6479860 -0.307385E-05  0.500E-02    0.84       1.0  T
   3   -390.6479619  0.241643E-04  0.836E-03    0.84       1.0  T
   4   -390.6479875 -0.256460E-04  0.202E-03    0.84       3.3  T
   5   -390.6479888 -0.130319E-05  0.776E-04    0.84       8.6  T
   6   -390.6479888  0.677221E-08  0.534E-04    0.84      12.6  T
   7   -390.6479889 -0.740415E-07  0.193E-04    0.84      34.8  T
     SCC iter.                  ...        0 min,  0.905 sec
     gradient                   ...        0 min,  0.398 sec
 * total energy  :  -383.8106860 Eh     change       -0.2021318E-02 Eh
   gradient norm :     0.0074427 Eh/α   predicted    -0.2144912E-02 (   6.11%)
   displ. norm   :     0.8311559 α      lambda       -0.1910289E-02
   maximum displ.:     0.5280479 α      in ANC's #33, #30, #18, ...

........................................................................
.............................. CYCLE   42 ..............................
........................................................................
   1   -390.6575082 -0.390658E+03  0.816E-02    0.83       0.0  T
   2   -390.6575113 -0.316707E-05  0.477E-02    0.83       1.0  T
   3   -390.6574994  0.118970E-04  0.634E-03    0.83       1.1  T
   4   -390.6575122 -0.127994E-04  0.175E-03    0.83       3.8  T
   5   -390.6575132 -0.978565E-06  0.820E-04    0.83       8.2  T
   6   -390.6575133 -0.107487E-06  0.467E-04    0.83      14.4  T
     SCC iter.                  ...        0 min,  0.777 sec
     gradient                   ...        0 min,  0.398 sec
 * total energy  :  -383.8122087 Eh     change       -0.1522724E-02 Eh
   gradient norm :     0.0057721 Eh/α   predicted    -0.1614978E-02 (   6.06%)
   displ. norm   :     0.7911776 α      lambda       -0.1359359E-02
   maximum displ.:     0.4889168 α      in ANC's #33, #30, #18, ...
 * RMSD in coord.:     1.2961434 α      energy gain  -0.1932300E+00 Eh

generating ANC from model Hessian ...
Using Lindh-Hessian (1995)
 Shifting diagonal of input Hessian by    1.0098772913029384E-002
 Lowest  eigenvalues of input Hessian
    0.010000    0.010017    0.010037    0.010055    0.010075    0.010084
    0.010087    0.010092    0.010093    0.010095    0.010096    0.000000
    0.000000    0.000000    0.000000    0.000000    0.000000    0.010109
 Highest eigenvalues
    2.155494    2.644421    2.646267    2.648310    2.650591    2.659565


........................................................................
.............................. CYCLE   43 ..............................
........................................................................
   1   -390.6655810 -0.390666E+03  0.768E-02    0.83       0.0  T
   2   -390.6655837 -0.273047E-05  0.449E-02    0.83       1.0  T
   3   -390.6655747  0.894848E-05  0.544E-03    0.83       1.2  T
   4   -390.6655838 -0.904713E-05  0.192E-03    0.83       3.5  T
   5   -390.6655852 -0.137014E-05  0.747E-04    0.83       9.0  T
   6   -390.6655852 -0.853427E-07  0.419E-04    0.83      16.0  T
   7   -390.6655853 -0.173720E-07  0.172E-04    0.83      39.0  T
     SCC iter.                  ...        0 min,  0.904 sec
     gradient                   ...        0 min,  0.398 sec
 * total energy  :  -383.8132568 Eh     change       -0.1048022E-02 Eh
   gradient norm :     0.0056203 Eh/α   predicted     0.0000000E+00 (-100.00%)
   displ. norm   :     0.1093975 α      lambda       -0.1915048E-03
   maximum displ.:     0.0618339 α      in ANC's #28, #18, #23, ...

........................................................................
.............................. CYCLE   44 ..............................
........................................................................
   1   -390.6701477 -0.390670E+03  0.121E-02    0.83       0.0  T
   2   -390.6701479 -0.173048E-06  0.720E-03    0.83       1.0  T
   3   -390.6701467  0.125275E-05  0.217E-03    0.83       3.1  T
   4   -390.6701479 -0.127070E-05  0.587E-04    0.83      11.4  T
   5   -390.6701480 -0.107361E-06  0.190E-04    0.83      35.3  T
   6   -390.6701480 -0.511926E-08  0.109E-04    0.83      61.4  T
     SCC iter.                  ...        0 min,  0.777 sec
     gradient                   ...        0 min,  0.398 sec
 * total energy  :  -383.8134208 Eh     change       -0.1640614E-03 Eh
   gradient norm :     0.0021859 Eh/α   predicted    -0.9690757E-04 ( -40.93%)
   displ. norm   :     0.3608890 α      lambda       -0.4429147E-03
   maximum displ.:     0.1964316 α      in ANC's #28, #18, #23, ...

........................................................................
.............................. CYCLE   45 ..............................
........................................................................
   1   -390.6794369 -0.390679E+03  0.352E-02    0.83       0.0  T
   2   -390.6794377 -0.848784E-06  0.207E-02    0.83       1.0  T
   3   -390.6794314  0.630095E-05  0.471E-03    0.83       1.4  T
   4   -390.6794377 -0.625769E-05  0.134E-03    0.83       5.0  T
   5   -390.6794383 -0.646533E-06  0.447E-04    0.83      15.0  T
   6   -390.6794384 -0.373255E-07  0.253E-04    0.83      26.6  T
     SCC iter.                  ...        0 min,  0.777 sec
     gradient                   ...        0 min,  0.398 sec
 * total energy  :  -383.8137675 Eh     change       -0.3466324E-03 Eh
   gradient norm :     0.0057039 Eh/α   predicted    -0.2503240E-03 ( -27.78%)
   displ. norm   :     0.4388357 α      lambda       -0.3917627E-03
   maximum displ.:     0.2336261 α      in ANC's #28, #18, #23, ...

........................................................................
.............................. CYCLE   46 ..............................
........................................................................
   1   -390.6847391 -0.390685E+03  0.411E-02    0.83       0.0  T
   2   -390.6847397 -0.600726E-06  0.241E-02    0.83       1.0  T
   3   -390.6847353  0.434306E-05  0.350E-03    0.83       1.9  T
   4   -390.6847397 -0.439617E-05  0.103E-03    0.83       6.5  T
   5   -390.6847402 -0.422942E-06  0.377E-04    0.83      17.8  T
   6   -390.6847402 -0.159610E-07  0.210E-04    0.83      32.0  T
     SCC iter.                  ...        0 min,  0.776 sec
     gradient                   ...        0 min,  0.398 sec
 * total energy  :  -383.8141040 Eh     change       -0.3365054E-03 Eh
   gradient norm :     0.0081209 Eh/α   predicted    -0.2336599E-03 ( -30.56%)
   displ. norm   :     0.5411758 α      lambda       -0.4504692E-03
   maximum displ.:     0.2841287 α      in ANC's #28, #18, #23, ...

........................................................................
.............................. CYCLE   47 ..............................
........................................................................
   1   -390.6870174 -0.390687E+03  0.504E-02    0.83       0.0  T
   2   -390.6870182 -0.811938E-06  0.295E-02    0.83       1.0  T
   3   -390.6870147  0.348264E-05  0.301E-03    0.83       2.2  T
   4   -390.6870184 -0.365321E-05  0.101E-03    0.83       6.7  T
   5   -390.6870188 -0.374168E-06  0.429E-04    0.83      15.7  T
   6   -390.6870188 -0.991685E-08  0.246E-04    0.83      27.3  T
     SCC iter.                  ...        0 min,  0.776 sec
     gradient                   ...        0 min,  0.398 sec
 * total energy  :  -383.8144852 Eh     change       -0.3812251E-03 Eh
   gradient norm :     0.0065334 Eh/α   predicted    -0.2911992E-03 ( -23.61%)
   displ. norm   :     0.5946192 α      lambda       -0.3932779E-03
   maximum displ.:     0.3095326 α      in ANC's #28, #18, #23, ...

........................................................................
.............................. CYCLE   48 ..............................
........................................................................
   1   -390.6877653 -0.390688E+03  0.555E-02    0.83       0.0  T
   2   -390.6877665 -0.117952E-05  0.325E-02    0.83       1.0  T
   3   -390.6877620  0.449501E-05  0.371E-03    0.83       1.8  T
   4   -390.6877666 -0.465992E-05  0.121E-03    0.83       5.6  T
   5   -390.6877672 -0.547464E-06  0.496E-04    0.83      13.5  T
   6   -390.6877672 -0.283335E-07  0.301E-04    0.83      22.3  T
     SCC iter.                  ...        0 min,  0.782 sec
     gradient                   ...        0 min,  0.398 sec
 * total energy  :  -383.8147809 Eh     change       -0.2956989E-03 Eh
   gradient norm :     0.0029320 Eh/α   predicted    -0.2661658E-03 (  -9.99%)
   displ. norm   :     0.4778452 α      lambda       -0.1752973E-03
   maximum displ.:     0.2432022 α      in ANC's #28, #18, #23, ...

........................................................................
.............................. CYCLE   49 ..............................
........................................................................
   1   -390.6893260 -0.390689E+03  0.442E-02    0.82       0.0  T
   2   -390.6893268 -0.766117E-06  0.259E-02    0.82       1.0  T
   3   -390.6893236  0.316920E-05  0.313E-03    0.82       2.1  T
   4   -390.6893268 -0.321645E-05  0.100E-03    0.82       6.7  T
   5   -390.6893272 -0.423557E-06  0.384E-04    0.82      17.5  T
   6   -390.6893273 -0.246191E-07  0.215E-04    0.82      31.2  T
     SCC iter.                  ...        0 min,  0.776 sec
     gradient                   ...        0 min,  0.398 sec
 * total energy  :  -383.8148996 Eh     change       -0.1186685E-03 Eh
   gradient norm :     0.0022529 Eh/α   predicted    -0.1076624E-03 (  -9.27%)
   displ. norm   :     0.2630988 α      lambda       -0.5703507E-04
   maximum displ.:     0.1248648 α      in ANC's #28, #18, #23, ...

........................................................................
.............................. CYCLE   50 ..............................
........................................................................
   1   -390.6918166 -0.390692E+03  0.240E-02    0.82       0.0  T
   2   -390.6918169 -0.211063E-06  0.141E-02    0.82       1.0  T
   3   -390.6918159  0.986535E-06  0.167E-03    0.82       4.0  T
   4   -390.6918168 -0.976036E-06  0.569E-04    0.82      11.8  T
   5   -390.6918170 -0.147380E-06  0.191E-04    0.82      35.2  T
     SCC iter.                  ...        0 min,  0.648 sec
     gradient                   ...        0 min,  0.398 sec
 * total energy  :  -383.8149425 Eh     change       -0.4291814E-04 Eh
   gradient norm :     0.0020679 Eh/α   predicted    -0.3049171E-04 ( -28.95%)
   displ. norm   :     0.2145803 α      lambda       -0.4827923E-04
   maximum displ.:     0.0960508 α      in ANC's #18, #23, #28, ...

........................................................................
.............................. CYCLE   51 ..............................
........................................................................
   1   -390.6950424 -0.390695E+03  0.198E-02    0.82       0.0  T
   2   -390.6950425 -0.146533E-06  0.116E-02    0.82       1.0  T
   3   -390.6950416  0.970268E-06  0.170E-03    0.82       3.9  T
   4   -390.6950425 -0.996106E-06  0.475E-04    0.82      14.1  T
   5   -390.6950426 -0.854419E-07  0.170E-04    0.82      39.5  T
     SCC iter.                  ...        0 min,  0.648 sec
     gradient                   ...        0 min,  0.398 sec
 * total energy  :  -383.8149808 Eh     change       -0.3829636E-04 Eh
   gradient norm :     0.0015411 Eh/α   predicted    -0.2525483E-04 ( -34.05%)
   displ. norm   :     0.3294473 α      lambda       -0.5225516E-04
   maximum displ.:     0.1504469 α      in ANC's #4, #18, #27, ...

........................................................................
.............................. CYCLE   52 ..............................
........................................................................
   1   -390.6992105 -0.390699E+03  0.314E-02    0.82       0.0  T
   2   -390.6992109 -0.367160E-06  0.185E-02    0.82       1.0  T
   3   -390.6992095  0.142394E-05  0.219E-03    0.82       3.1  T
   4   -390.6992110 -0.150491E-05  0.659E-04    0.82      10.2  T
   5   -390.6992111 -0.139743E-06  0.282E-04    0.82      23.8  T
   6   -390.6992111 -0.777965E-08  0.171E-04    0.82      39.3  T
     SCC iter.                  ...        0 min,  0.778 sec
     gradient                   ...        0 min,  0.398 sec
 * total energy  :  -383.8150353 Eh     change       -0.5452918E-04 Eh
   gradient norm :     0.0021719 Eh/α   predicted    -0.2739342E-04 ( -49.76%)
   displ. norm   :     0.1425919 α      lambda       -0.3730806E-04
   maximum displ.:     0.0759180 α      in ANC's #4, #24, #5, ...

........................................................................
.............................. CYCLE   53 ..............................
........................................................................
   1   -390.6992718 -0.390699E+03  0.140E-02    0.82       0.0  T
   2   -390.6992719 -0.569948E-07  0.820E-03    0.82       1.0  T
   3   -390.6992712  0.615736E-06  0.120E-03    0.82       5.6  T
   4   -390.6992719 -0.627405E-06  0.337E-04    0.82      19.9  T
   5   -390.6992719 -0.451530E-07  0.119E-04    0.82      56.6  T
     SCC iter.                  ...        0 min,  0.649 sec
     gradient                   ...        0 min,  0.398 sec
 * total energy  :  -383.8150693 Eh     change       -0.3400253E-04 Eh
   gradient norm :     0.0020360 Eh/α   predicted    -0.1903350E-04 ( -44.02%)
   displ. norm   :     0.2274762 α      lambda       -0.6881406E-04
   maximum displ.:     0.1230355 α      in ANC's #4, #24, #5, ...

........................................................................
.............................. CYCLE   54 ..............................
........................................................................
   1   -390.6978687 -0.390698E+03  0.224E-02    0.82       0.0  T
[...]
  57:  0.00  58:  0.00  59:  0.00  60:  0.00  61:  0.00  62:  0.00  63:  0.00  64:  0.00
  65:  0.00  66:  0.00  67:  0.00  68:  0.00  69:  0.00  70:  0.00  71:  0.00  72:  0.00
  73:  0.00  74:  0.00  75:  0.00  76:  0.00  77:  0.00  78:  0.00  79:  0.00  80:  0.00
  81:  0.00  82:  0.00  83:  0.00  84:  0.00  85:  0.00  86:  0.00  87:  0.00  88:  0.00
  89:  0.00  90:  0.00  91:  0.00  92:  0.00  93:  0.00  94:  0.00  95:  0.00  96:  0.00
  97:  0.00  98:  0.00  99:  0.00 100:  0.00 101:  0.00 102:  0.00 103:  0.00 104:  0.00
 105:  0.00 106:  0.00 107:  0.00 108:  0.00 109:  0.00 110:  0.00 111:  0.00 112:  0.00
 113:  0.00 114:  0.00 115:  0.00 116:  0.00 117:  0.00 118:  0.00 119:  0.00 120:  0.00
 121:  0.00 122:  0.00 123:  0.00 124:  0.00 125:  0.00 126:  0.00 127:  0.00 128:  0.00
 129:  0.00 130:  0.00 131:  0.00 132:  0.00 133:  0.00 134:  0.00 135:  0.00 136:  0.00
 137:  0.00 138:  0.00 139:  0.00 140:  0.00 141:  0.00 142:  0.00 143:  0.00 144:  0.00
 145:  0.00 146:  0.00 147:  0.00 148:  0.00 149:  0.00 150:  0.00 151:  0.00 152:  0.00
 153:  0.00 154:  0.00 155:  0.00 156:  0.00 157:  0.00 158:  0.00 159:  0.00 160:  0.00
 161:  0.00 162:  0.00 163:  0.00 164:  0.00 165:  0.00 166:  0.00 167:  0.00 168:  0.00
 169:  0.00 170:  0.00 171:  0.00 172:  0.00 173:  0.00 174:  0.00 175:  0.00 176:  0.00
 177:  0.00 178:  0.00 179:  0.00 180:  0.00 181:  0.00 182:  0.00 183:  0.00 184:  0.00
 185:  0.00 186:  0.00 187:  0.00 188:  0.00 189:  0.00 190:  0.00 191:  0.00 192:  0.00
 193:  0.00 194:  0.00 195:  0.00 196:  0.00 197:  0.00 198:  0.00 199:  0.00 200:  0.00
 201:  0.00 202:  0.00 203:  0.00 204:  0.00 205:  0.00 206:  0.00 207:  0.00 208:  0.00
 209:  0.00 210:  0.00 211:  0.00 212:  0.00 213:  0.00 214:  0.00 215:  0.00 216:  0.00
 217:  0.00 218:  0.00 219:  0.00 220:  0.00 221:  0.00 222:  0.00 223:  0.00 224:  0.00
 225:  0.00 226:  0.00 227:  0.00 228:  0.00 229:  0.00 230:  0.00 231:  0.00 232:  0.00
 233:  0.00 234:  0.00 235:  0.00 236:  0.00 237:  0.00 238:  0.00 239:  0.00 240:  0.00
 241:  0.00 242:  0.00 243:  0.00 244:  0.00 245:  0.00 246:  0.00 247:  0.00 248:  0.00
 249:  0.00 250:  0.00 251:  0.00 252:  0.00 253:  0.00 254:  0.00 255:  0.00 256:  0.00
 257:  0.00 258:  0.00 259:  0.00 260:  0.00 261:  0.00 262:  0.00 263:  0.00 264:  0.00
 265:  0.00 266:  0.00 267:  0.00 268:  0.00 269:  0.00 270:  0.00 271:  0.00 272:  0.00
 273:  0.00 274:  0.00 275:  0.00 276:  0.00 277:  0.00 278:  0.00 279:  0.00 280:  0.00
 281:  0.00 282:  0.00 283:  0.00 284:  0.00 285:  0.00 286:  0.00 287:  0.00 288:  0.00
 289:  0.00 290:  0.00 291:  0.00 292:  0.00 293:  0.00 294:  0.00 295:  0.00 296:  0.00
 297:  0.00 298:  0.00 299:  0.00 300:  0.00 301:  0.00 302:  0.00 303:  0.00 304:  0.00
 305:  0.00 306:  0.00 307:  0.00 308:  0.00 309:  0.00 310:  0.00 311:  0.00 312:  0.00
 313:  0.00 314:  0.00 315:  0.00 316:  0.00 317:  0.00 318:  0.00 319:  0.00 320:  0.00
 321:  0.00 322:  0.00 323:  0.00 324:  0.00 325:  0.00 326:  0.00 327:  0.00 328:  0.00
 329:  0.00 330:  0.00 331:  0.00 332:  0.00 333:  0.00 334:  0.00 335:  0.00 336:  0.00
 337:  0.00 338:  0.00 339:  0.00 340:  0.00 341:  0.00 342:  0.00 343:  0.00 344:  0.00
 345:  0.00 346:  0.00 347:  0.00 348:  0.00 349:  0.00 350:  0.00 351:  0.00 352:  0.00
 353:  0.00 354:  0.00 355:  0.00 356:  0.00 357:  0.00 358:  0.00 359:  0.00 360:  0.00
 361:  0.00 362:  0.00 363:  0.00 364:  0.00 365:  0.00 366:  0.00 367:  0.00 368:  0.00
 369:  0.00 370:  0.00 371:  0.00 372:  0.00 373:  0.00 374:  0.00 375:  0.00 376:  0.00
 377:  0.00 378:  0.00 379:  0.00 380:  0.00 381:  0.00 382:  0.00 383:  0.00 384:  0.00
 385:  0.00 386:  0.00 387:  0.00 388:  0.00 389:  0.00 390:  0.00 391:  0.00 392:  0.00
 393:  0.00 394:  0.00 395:  0.00 396:  0.00 397:  0.00 398:  0.00 399:  0.00 400:  0.00
 401:  0.00 402:  0.00 403:  0.00 404:  0.00 405:  0.00 406:  0.00 407:  0.00 408:  0.00
 409:  0.00 410:  0.00 411:  0.00 412:  0.00 413:  0.00 414:  0.00 415:  0.00 416:  0.00
 417:  0.00 418:  0.00 419:  0.00 420:  0.00 421:  0.00 422:  0.00 423:  0.00 424:  0.00
 425:  0.00 426:  0.00 427:  0.00 428:  0.00 429:  0.00 430:  0.00 431:  0.00 432:  0.00
 433:  0.00 434:  0.00 435:  0.00 436:  0.00 437:  0.00 438:  0.00 439:  0.00 440:  0.00
 441:  0.00 442:  0.00 443:  0.00 444:  0.00 445:  0.00 446:  0.00 447:  0.00 448:  0.00
 449:  0.00 450:  0.00 451:  0.00 452:  0.00 453:  0.00 454:  0.00 455:  0.00 456:  0.00
 457:  0.00 458:  0.00 459:  0.00 460:  0.00 461:  0.00 462:  0.00 463:  0.00 464:  0.00
 465:  0.00 466:  0.00 467:  0.00 468:  0.00 469:  0.00 470:  0.00 471:  0.00 472:  0.00
 473:  0.00 474:  0.00 475:  0.00 476:  0.00 477:  0.00 478:  0.00 479:  0.00 480:  0.00
 481:  0.00 482:  0.00 483:  0.00 484:  0.00 485:  0.00 486:  0.00 487:  0.00 488:  0.00
 489:  0.00 490:  0.00 491:  0.00 492:  0.00 493:  0.00 494:  0.00 495:  0.00 496:  0.00
 497:  0.00 498:  0.00 499:  0.00 500:  0.00 501:  0.00 502:  0.00 503:  0.00 504:  0.00
 505:  0.00 506:  0.00 507:  0.00 508:  0.00 509:  0.00 510:  0.00 511:  0.00 512:  0.00
 513:  0.00 514:  0.00 515:  0.00 516:  0.00 517:  0.00 518:  0.00 519:  0.00 520:  0.00
 521:  0.00 522:  0.00 523:  0.00 524:  0.00 525:  0.00 526:  0.00 527:  0.00 528:  0.00
 529:  0.00 530:  0.00 531:  0.00 532:  0.00 533:  0.00 534:  0.00 535:  0.00 536:  0.00
 537:  0.00 538:  0.00 539:  0.00 540:  0.00 541:  0.00 542:  0.00 543:  0.00 544:  0.00
 545:  0.00 546:  0.00 547:  0.00 548:  0.00 549:  0.00 550:  0.00 551:  0.00 552:  0.00
 553:  0.00 554:  0.00 555:  0.00 556:  0.00 557:  0.00 558:  0.00 559:  0.00 560:  0.00
 561:  0.00 562:  0.00 563:  0.00 564:  0.00 565:  0.00 566:  0.00 567:  0.00 568:  0.00
 569:  0.00 570:  0.00 571:  0.00 572:  0.00 573:  0.00 574:  0.00 575:  0.00 576:  0.00
 577:  0.00 578:  0.00 579:  0.00 580:  0.00 581:  0.00 582:  0.00 583:  0.00 584:  0.00
 585:  0.00 586:  0.00 587:  0.00 588:  0.00 589:  0.00 590:  0.00 591:  0.00 592:  0.00
 593:  0.00 594:  0.00 595:  0.00 596:  0.00 597:  0.00 598:  0.00 599:  0.00 600:  0.00
 601:  0.00 602:  0.00 603:  0.00 604:  0.00 605:  0.00 606:  0.00 607:  0.00 608:  0.00
 609:  0.00 610:  0.00 611:  0.00 612:  0.00 613:  0.00 614:  0.00 615:  0.00 616:  0.00
 617:  0.00 618:  0.00 619:  0.00 620:  0.00 621:  0.00 622:  0.00 623:  0.00 624:  0.00
 625:  0.00 626:  0.00 627:  0.00 628:  0.00 629:  0.00 630:  0.00 631:  0.00 632:  0.00
 633:  0.00 634:  0.00 635:  0.00 636:  0.00 637:  0.00 638:  0.00 639:  0.00 640:  0.00
 641:  0.00 642:  0.00 643:  0.00 644:  0.00 645:  0.00 646:  0.00 647:  0.00 648:  0.00
 649:  0.00 650:  0.00 651:  0.00 652:  0.00 653:  0.00 654:  0.00 655:  0.00 656:  0.00
 657:  0.00 658:  0.00 659:  0.00 660:  0.00 661:  0.00 662:  0.00 663:  0.00 664:  0.00
 665:  0.00 666:  0.00
 output can be read by thermo (or use thermo option).
 writing <g98.out> molden fake output.
 recommended (thermochemical) frequency scaling factor: 1.0
           -------------------------------------------------
          |             Thermodynamic Functions             |
           -------------------------------------------------
 symmetry recognition skipped because # atoms >         200
 inverting freq            1   3.6860120172643436     
 inverting freq            2   1.9383341180478431     

          ...................................................
          :                      SETUP                      :
          :.................................................:
          :  # frequencies                         660      :
          :  # imaginary freq.                       0      :
          :  linear?                             false      :
          :  only rotor calc.                    false      :
          :  symmetry                               C1      :
          :  rotational number                       1      :
          :  scaling factor                  1.0000000      :
          :  rotor cutoff                   50.0000000 cm⁻¹ :
          :  imag. cutoff                  -20.0000000 cm⁻¹ :
          :.................................................:

    mode    ω/cm⁻¹     T·S(HO)/kcal·mol⁻¹    T·S(FR)/kcal·mol⁻¹   T·S(vib)
   ------------------------------------------------------------------------
       1      3.69    -2.97976 (  0.00%)    -1.82899 (100.00%)    -1.82903
       2      1.94    -3.36056 (  0.00%)    -2.01939 (100.00%)    -2.01939
       3      1.87    -3.38300 (  0.00%)    -2.03061 (100.00%)    -2.03062
       4      3.01    -3.09995 (  0.00%)    -1.88909 (100.00%)    -1.88910
       5      5.31    -2.76311 (  0.01%)    -1.72066 ( 99.99%)    -1.72080
       6      6.18    -2.67336 (  0.02%)    -1.67578 ( 99.98%)    -1.67602
       7      7.62    -2.54979 (  0.05%)    -1.61400 ( 99.95%)    -1.61450
       8      9.62    -2.41131 (  0.14%)    -1.54474 ( 99.86%)    -1.54593
       9      9.79    -2.40125 (  0.15%)    -1.53971 ( 99.85%)    -1.54098
      10     11.96    -2.28241 (  0.33%)    -1.48028 ( 99.67%)    -1.48290
      11     12.87    -2.23923 (  0.44%)    -1.45869 ( 99.56%)    -1.46209
      12     14.33    -2.17528 (  0.67%)    -1.42670 ( 99.33%)    -1.43172
      13     14.80    -2.15608 (  0.76%)    -1.41710 ( 99.24%)    -1.42273
      14     15.98    -2.11096 (  1.03%)    -1.39452 ( 98.97%)    -1.40191
      15     18.71    -2.01755 (  1.92%)    -1.34779 ( 98.08%)    -1.36066
      16     24.19    -1.86548 (  5.19%)    -1.27169 ( 94.81%)    -1.30251
      17     26.46    -1.81224 (  7.28%)    -1.24504 ( 92.72%)    -1.28631
      18     27.17    -1.79660 (  8.02%)    -1.23720 ( 91.98%)    -1.28208
      19     31.69    -1.70557 ( 13.90%)    -1.19161 ( 86.10%)    -1.26305
      20     38.78    -1.58633 ( 26.57%)    -1.13185 ( 73.43%)    -1.25259
      21     40.19    -1.56525 ( 29.44%)    -1.12128 ( 70.56%)    -1.25199
      22     40.29    -1.56366 ( 29.67%)    -1.12048 ( 70.33%)    -1.25196
      23     41.88    -1.54082 ( 32.99%)    -1.10902 ( 67.01%)    -1.25148
      24     44.41    -1.50618 ( 38.37%)    -1.09164 ( 61.63%)    -1.25071
      25     47.33    -1.46870 ( 44.53%)    -1.07282 ( 55.47%)    -1.24910
      26     47.49    -1.46671 ( 44.86%)    -1.07182 ( 55.14%)    -1.24898
      27     48.34    -1.45626 ( 46.62%)    -1.06658 ( 53.38%)    -1.24825
      28     49.36    -1.44389 ( 48.71%)    -1.06036 ( 51.29%)    -1.24719
      29     53.87    -1.39238 ( 57.40%)    -1.03447 ( 42.60%)    -1.23990
      30     56.54    -1.36386 ( 62.05%)    -1.02013 ( 37.95%)    -1.23342
      31     56.67    -1.36251 ( 62.27%)    -1.01945 ( 37.73%)    -1.23307
      32     57.54    -1.35358 ( 63.68%)    -1.01496 ( 36.32%)    -1.23060
      33     62.48    -1.30509 ( 70.91%)    -0.99055 ( 29.09%)    -1.21361
      34     68.13    -1.25421 ( 77.52%)    -0.96489 ( 22.48%)    -1.18915
      35     69.91    -1.23910 ( 79.26%)    -0.95727 ( 20.74%)    -1.18065
      36     71.70    -1.22428 ( 80.87%)    -0.94978 ( 19.13%)    -1.17177
      37     72.48    -1.21788 ( 81.54%)    -0.94655 ( 18.46%)    -1.16779
      38     72.57    -1.21719 ( 81.61%)    -0.94620 ( 18.39%)    -1.16735
      39     73.48    -1.20988 ( 82.34%)    -0.94251 ( 17.66%)    -1.16267
      40     76.20    -1.18852 ( 84.36%)    -0.93172 ( 15.64%)    -1.14837
      41     77.46    -1.17895 ( 85.21%)    -0.92687 ( 14.79%)    -1.14166
      42     80.82    -1.15409 ( 87.22%)    -0.91429 ( 12.78%)    -1.12345
      43     83.09    -1.13789 ( 88.41%)    -0.90609 ( 11.59%)    -1.11102
      44     90.07    -1.09081 ( 91.33%)    -0.88220 (  8.67%)    -1.07271
      45     98.62    -1.03800 ( 93.80%)    -0.85534 (  6.20%)    -1.02668
      46    104.85    -1.00242 ( 95.08%)    -0.83719 (  4.92%)    -0.99429
      47    108.09    -0.98478 ( 95.62%)    -0.82817 (  4.38%)    -0.97793
      48    117.87    -0.93468 ( 96.86%)    -0.80249 (  3.14%)    -0.93053
      49    123.51    -0.90777 ( 97.38%)    -0.78866 (  2.62%)    -0.90466
      50    124.81    -0.90177 ( 97.49%)    -0.78556 (  2.51%)    -0.89885
      51    125.04    -0.90071 ( 97.51%)    -0.78502 (  2.49%)    -0.89782
      52    126.65    -0.89333 ( 97.63%)    -0.78121 (  2.37%)    -0.89067
      53    129.00    -0.88278 ( 97.79%)    -0.77577 (  2.21%)    -0.88042
      54    130.84    -0.87465 ( 97.91%)    -0.77157 (  2.09%)    -0.87250
      55    131.34    -0.87247 ( 97.94%)    -0.77044 (  2.06%)    -0.87037
      56    133.19    -0.86446 ( 98.05%)    -0.76630 (  1.95%)    -0.86255
      57    136.15    -0.85191 ( 98.21%)    -0.75980 (  1.79%)    -0.85027
      58    136.55    -0.85022 ( 98.23%)    -0.75893 (  1.77%)    -0.84861
      59    140.27    -0.83488 ( 98.41%)    -0.75096 (  1.59%)    -0.83354
      60    142.86    -0.82444 ( 98.52%)    -0.74554 (  1.48%)    -0.82327
      61    164.87    -0.74335 ( 99.16%)    -0.70310 (  0.84%)    -0.74302
      62    165.99    -0.73955 ( 99.18%)    -0.70110 (  0.82%)    -0.73923
      63    166.87    -0.73657 ( 99.20%)    -0.69953 (  0.80%)    -0.73628
      64    167.57    -0.73422 ( 99.21%)    -0.69829 (  0.79%)    -0.73394
      65    168.20    -0.73210 ( 99.23%)    -0.69717 (  0.77%)    -0.73183
      66    168.75    -0.73027 ( 99.24%)    -0.69620 (  0.76%)    -0.73001
      67    181.98    -0.68812 ( 99.43%)    -0.67384 (  0.57%)    -0.68804
      68    182.02    -0.68801 ( 99.43%)    -0.67378 (  0.57%)    -0.68793
      69    182.44    -0.68671 ( 99.44%)    -0.67309 (  0.56%)    -0.68664
      70    182.83    -0.68554 ( 99.44%)    -0.67246 (  0.56%)    -0.68547
      71    182.91    -0.68531 ( 99.44%)    -0.67234 (  0.56%)    -0.68524
      72    183.29    -0.68415 ( 99.45%)    -0.67172 (  0.55%)    -0.68408
      73    183.94    -0.68217 ( 99.46%)    -0.67066 (  0.54%)    -0.68211
      74    188.07    -0.66986 ( 99.50%)    -0.66408 (  0.50%)    -0.66983
      75    192.28    -0.65764 ( 99.54%)    -0.65753 (  0.46%)    -0.65764
      76    193.01    -0.65556 ( 99.55%)    -0.65642 (  0.45%)    -0.65556
      77    193.36    -0.65455 ( 99.55%)    -0.65587 (  0.45%)    -0.65455
      78    193.77    -0.65337 ( 99.56%)    -0.65524 (  0.44%)    -0.65338
      79    194.91    -0.65014 ( 99.57%)    -0.65350 (  0.43%)    -0.65016
      80    195.13    -0.64953 ( 99.57%)    -0.65317 (  0.43%)    -0.64954
      81    195.29    -0.64909 ( 99.57%)    -0.65294 (  0.43%)    -0.64911
      82    195.67    -0.64800 ( 99.58%)    -0.65235 (  0.42%)    -0.64802
      83    196.44    -0.64585 ( 99.58%)    -0.65120 (  0.42%)    -0.64588
      84    196.82    -0.64479 ( 99.59%)    -0.65062 (  0.41%)    -0.64481
      85    196.98    -0.64434 ( 99.59%)    -0.65038 (  0.41%)    -0.64437
      86    197.20    -0.64372 ( 99.59%)    -0.65004 (  0.41%)    -0.64374
      87    197.70    -0.64232 ( 99.59%)    -0.64929 (  0.41%)    -0.64235
      88    197.73    -0.64226 ( 99.59%)    -0.64926 (  0.41%)    -0.64229
      89    198.06    -0.64133 ( 99.60%)    -0.64876 (  0.40%)    -0.64136
      90    198.64    -0.63973 ( 99.60%)    -0.64789 (  0.40%)    -0.63976
      91    198.75    -0.63943 ( 99.60%)    -0.64773 (  0.40%)    -0.63946
      92    199.42    -0.63757 ( 99.61%)    -0.64673 (  0.39%)    -0.63761
      93    200.00    -0.63598 ( 99.61%)    -0.64587 (  0.39%)    -0.63602
      94    201.13    -0.63289 ( 99.62%)    -0.64420 (  0.38%)    -0.63293
      95    203.08    -0.62761 ( 99.63%)    -0.64135 (  0.37%)    -0.62766
      96    203.43    -0.62666 ( 99.64%)    -0.64083 (  0.36%)    -0.62671
      97    203.87    -0.62549 ( 99.64%)    -0.64020 (  0.36%)    -0.62554
      98    204.35    -0.62421 ( 99.64%)    -0.63950 (  0.36%)    -0.62426
      99    204.43    -0.62398 ( 99.64%)    -0.63938 (  0.36%)    -0.62403
     100    204.91    -0.62270 ( 99.65%)    -0.63869 (  0.35%)    -0.62276
     101    206.39    -0.61877 ( 99.66%)    -0.63655 (  0.34%)    -0.61883
     102    214.36    -0.59816 ( 99.70%)    -0.62533 (  0.30%)    -0.59824
     103    220.47    -0.58294 ( 99.74%)    -0.61700 (  0.26%)    -0.58303
     104    224.82    -0.57243 ( 99.76%)    -0.61122 (  0.24%)    -0.57252
     105    231.91    -0.55578 ( 99.78%)    -0.60202 (  0.22%)    -0.55588
     106    234.40    -0.55008 ( 99.79%)    -0.59886 (  0.21%)    -0.55019
     107    247.07    -0.52217 ( 99.83%)    -0.58326 (  0.17%)    -0.52228
     108    249.83    -0.51633 ( 99.84%)    -0.57997 (  0.16%)    -0.51644
     109    259.32    -0.49681 ( 99.86%)    -0.56892 (  0.14%)    -0.49691
     110    262.35    -0.49078 ( 99.87%)    -0.56549 (  0.13%)    -0.49088
     111    263.01    -0.48948 ( 99.87%)    -0.56474 (  0.13%)    -0.48958
     112    263.81    -0.48790 ( 99.87%)    -0.56384 (  0.13%)    -0.48800
     113    264.63    -0.48629 ( 99.87%)    -0.56292 (  0.13%)    -0.48639
     114    265.45    -0.48469 ( 99.87%)    -0.56200 (  0.13%)    -0.48479
     115    266.07    -0.48348 ( 99.88%)    -0.56131 (  0.12%)    -0.48358
     116    268.93    -0.47795 ( 99.88%)    -0.55814 (  0.12%)    -0.47805
     117    271.62    -0.47282 ( 99.89%)    -0.55519 (  0.11%)    -0.47291
     118    282.67    -0.45243 ( 99.90%)    -0.54338 (  0.10%)    -0.45252
     119    286.31    -0.44594 ( 99.91%)    -0.53959 (  0.09%)    -0.44602
   ------------------------------------------------------------------------

   temp. (K)  partition function   enthalpy   heat capacity  entropy
                                   cal/mol     cal/K/mol   cal/K/mol   J/K/mol
 298.15  VIB  0.151E+67            78663.631    504.688    500.514
         ROT  0.662E+10              888.752      2.981     47.920
         INT  0.100E+77            79552.383    507.669    548.434
         TR   0.110E+30             1481.254      4.968     49.109
         TOT                       81033.6374   512.6374   597.5433  2500.1213

       T/K    H(0)-H(T)+PV         H(T)/Eh          T*S/Eh         G(T)/Eh
   ------------------------------------------------------------------------
    298.15    0.129135E+00    0.166499E+01    0.283912E+00    0.138108E+01
   ------------------------------------------------------------------------

         :::::::::::::::::::::::::::::::::::::::::::::::::::::
         ::                  THERMODYNAMIC                  ::
         :::::::::::::::::::::::::::::::::::::::::::::::::::::
         :: total free energy        -382.441971957853 Eh   ::
         ::.................................................::
         :: total energy             -383.823047123763 Eh   ::
         :: zero point energy           1.535851966993 Eh   ::
         :: G(RRHO) w/o ZPVE           -0.154776801083 Eh   ::
         :: G(RRHO) contrib.            1.381075165911 Eh   ::
         :::::::::::::::::::::::::::::::::::::::::::::::::::::

optimized geometry written to: xtbopt.xyz


           -------------------------------------------------
          | TOTAL ENERGY             -383.823047123763 Eh   |
          | TOTAL ENTHALPY           -382.158059835755 Eh   |
          | TOTAL FREE ENERGY        -382.441971957853 Eh   |
          | GRADIENT NORM               0.000314103588 Eh/α |
          | HOMO-LUMO GAP               0.881017331892 eV   |
           -------------------------------------------------

------------------------------------------------------------------------
 * finished run on 2021/11/18 at 20:42:53.763     
------------------------------------------------------------------------
 total:
 * wall-time:     0 d,  0 h, 29 min, 44.617 sec
 *  cpu-time:     0 d,  0 h, 29 min, 44.609 sec
 * ratio c/w:     1.000 speedup
 SCF:
 * wall-time:     0 d,  0 h,  0 min,  6.244 sec
 *  cpu-time:     0 d,  0 h,  0 min,  6.244 sec
 * ratio c/w:     1.000 speedup
 ANC optimizer:
 * wall-time:     0 d,  0 h,  4 min, 33.969 sec
 *  cpu-time:     0 d,  0 h,  4 min, 33.943 sec
 * ratio c/w:     1.000 speedup
 analytical hessian:
 * wall-time:     0 d,  0 h, 25 min,  4.093 sec
 *  cpu-time:     0 d,  0 h, 25 min,  4.111 sec
 * ratio c/w:     1.000 speedup

