222
 energy: -382.350530072381 gnorm: 0.867400901930 xtb: 6.4.1 (bd6e46d)
Zn       41.49456700000001    0.04686100000000   -0.01515800000000
C        43.82355800000001   -3.09993300000000    1.30753100000000
C        44.73966600000000   -2.15572500000000    1.25724900000000
C        44.32848600000000   -1.10182100000000    0.33595700000000
C        44.94735700000000    0.02252500000000   -0.01045300000000
C        44.24331400000000    1.24247300000000   -0.37455800000000
C        44.57142500000000    2.20252800000000   -1.22203200000000
C        43.53664500000001    3.21881400000000   -1.23893000000000
C        42.60037700000000    2.84235100000000   -0.39203800000000
N        43.00236800000000    1.60934000000000    0.17177900000000
C        41.33930300000001    3.48735100000000   -0.01288600000000
C        40.24408600000000    2.85256800000000    0.33787400000000
C        39.17046000000000    3.17052400000000    1.30690200000000
C        38.33289700000000    2.17377000000000    1.22973600000000
C        38.77119500000000    1.17008700000000    0.24928400000000
N        39.87613300000000    1.60894000000000   -0.23500800000000
C        38.16036000000000   -0.08318400000000   -0.16426400000000
C        38.82452000000000   -1.18769000000000   -0.41868900000000
C        38.45067200000000   -2.25063200000000   -1.37621600000000
C        39.39941900000000   -3.14438800000000   -1.28719700000000
C        40.38514300000000   -2.70693800000000   -0.30431900000000
N        40.03209700000000   -1.56113300000000    0.19247800000000
C        41.61603100000000   -3.36300800000000    0.14140200000000
C        42.73907200000000   -2.71714700000000    0.40852300000000
N        43.06767200000000   -1.46970600000000   -0.18988100000000
H        43.88382000000000   -4.00971300000000    1.92507700000000
H        45.65599300000000   -2.19567400000000    1.83529700000000
H        45.49879000000000    2.21932400000000   -1.82317500000000
H        43.55354400000001    4.12350200000000   -1.85155100000000
H        41.29158000000000    4.58215400000000   -0.01666400000000
H        39.11763900000000    4.04924900000000    1.93189400000000
H        37.42126700000000    2.13810100000000    1.84706000000000
H        37.06210900000000   -0.08027300000000   -0.26353500000000
H        37.58181600000000   -2.30309700000000   -2.02516600000000
H        39.39657300000000   -4.06069600000000   -1.88595600000000
H        41.58054900000000   -4.45881000000000    0.25332700000000
Zn       98.09973500000000   -0.00051600000000   -0.01959100000000
C        95.77074399999999    2.84627600000000    1.86391400000000
C        94.85463700000000    1.92778700000000    1.63934000000000
C        95.26581600000002    1.06309000000000    0.53852600000000
C        94.64694600000000    0.02252500000000   -0.01045300000000
C        95.35098800000000   -1.10870000000000   -0.59455600000000
C        95.02287699999999   -1.89487100000000   -1.60542300000000
C        96.05765700000001   -2.89038100000000   -1.81056300000000
C        96.99392500000000   -2.67756400000000   -0.90853300000000
N        96.59193500000001   -1.57055300000000   -0.12576100000000
C        98.25500000000000   -3.38170600000000   -0.65561900000000
C        99.35021700000001   -2.82301300000000   -0.19318600000000
C       100.42384199999999   -3.31521800000000    0.70003600000000
C       101.26140500000001   -2.32145100000000    0.80912100000000
C       100.82310800000002   -1.15330200000000    0.03188600000000
N        99.71817000000000   -1.49469400000000   -0.52541300000000
C       101.43394300000000    0.15493300000000   -0.14198400000000
C       100.76978200000002    1.28746600000000   -0.18709000000000
C       101.14363100000000    2.50959200000000   -0.93080500000000
C       100.19488400000000    3.37131900000000   -0.67752700000000
C        99.20916000000000    2.75912500000000    0.20713700000000
N        99.56220500000001    1.54104600000000    0.48274700000000
C        97.97827200000000    3.32111900000000    0.76683100000000
C        96.85523000000001    2.63691400000000    0.90949900000000
N        96.52663000000000    1.52213900000000    0.09006400000000
H        95.71048200000000    3.62570100000000    2.63951800000000
H        93.93830900000000    1.85980600000000    2.21476600000000
H        94.09551200000000   -1.79985500000000   -2.19924700000000
H        96.04075800000000   -3.66571500000000   -2.58038300000000
H        98.30272200000000   -4.45680400000000   -0.86243300000000
H       100.47666400000000   -4.29463500000000    1.15116300000000
H       102.17303600000001   -2.40092300000000    1.42234600000000
H       102.53219300000001    0.17048900000000   -0.24007100000000
H       102.01248600000000    2.68153600000000   -1.55875800000000
H       100.19773000000002    4.38280000000000   -1.09590400000000
H        98.01375400000001    4.37713500000000    1.08010000000000
C        47.56180500000000    0.02252500000000   -0.01045300000000
C        48.77801000000000    0.02252500000000   -0.01045300000000
C        58.37542700000000    0.02252500000000   -0.01045300000000
C        59.59163200000000    0.02252500000000   -0.01045300000000
C        69.18904900000000    0.02252500000000   -0.01045300000000
C        70.40525400000000    0.02252500000000   -0.01045300000000
C        80.00266999999999    0.02252500000000   -0.01045300000000
C        81.21887599999999    0.02252500000000   -0.01045300000000
C        90.81629200000000    0.02252500000000   -0.01045300000000
C        92.03249800000002    0.02252500000000   -0.01045300000000
Zn       53.60821400000000    0.03532600000000    0.00303200000000
C        51.32840400000000   -3.22612100000000   -0.90663300000000
C        50.37219400000001   -2.32677100000000   -1.00866000000000
C        50.76456900000000   -1.16446600000000   -0.20614400000000
C        50.12945200000001   -0.01319300000000    0.00612200000000
C        50.81490900000001    1.26140600000000    0.23235200000000
C        50.47961900000001    2.34000600000000    0.93659200000000
C        51.50416000000000    3.35932300000000    0.84601000000000
C        52.45475700000000    2.86239800000000    0.07264600000000
N        52.07776300000000    1.54579300000000   -0.34349700000000
C        53.70189700000000    3.47410000000000   -0.34422000000000
C        54.80344900000000    2.80684300000000   -0.67599100000000
C        55.79699500000000    3.05882700000000   -1.71016100000000
C        56.69087800000000    2.09796800000000   -1.60867700000000
C        56.31118000000000    1.18608400000000   -0.50470000000000
N        55.21626500000000    1.63540300000000    0.00266700000000
C        56.96838700000000   -0.01319300000000    0.00612200000000
C        56.34497600000000   -1.08237500000000    0.46763900000000
C        56.72368800000000   -2.01449100000000    1.54311500000000
C        55.78302000000001   -2.92863700000000    1.62898100000000
C        54.77471800000000   -2.63285800000000    0.63155400000000
N        55.11249300000000   -1.57948000000000   -0.01774100000000
C        53.52232500000000   -3.33986500000000    0.30036000000000
C        52.40844800000000   -2.74316800000000   -0.04698100000000
N        52.02633600000000   -1.46041100000000    0.37070200000000
H        51.32874800000000   -4.21719500000000   -1.39786800000000
H        49.46366000000000   -2.44846500000000   -1.58980800000000
H        49.55476700000000    2.45835800000000    1.51351800000000
H        51.53145500000000    4.34848700000000    1.30266100000000
H        53.78783700000000    4.57147800000000   -0.40624300000000
H        55.82966700000000    3.86504300000000   -2.43698500000000
H        57.58394000000000    1.98500000000000   -2.24245100000000
H        57.63843900000001   -1.94008400000000    2.15328500000000
H        55.80206600000001   -3.74224500000000    2.33724800000000
H        53.56081000000000   -4.43982400000000    0.35939700000000
Zn       64.42183600000000    0.03532600000000    0.00303200000000
C        62.14202600000001   -3.22612100000000   -0.90663300000000
C        61.18581600000000   -2.32677100000000   -1.00866000000000
C        61.57819000000000   -1.16446600000000   -0.20614400000000
C        60.94307400000001   -0.01319300000000    0.00612200000000
C        61.62853100000000    1.26140600000000    0.23235200000000
C        61.29324100000001    2.34000600000000    0.93659200000000
C        62.31778200000000    3.35932300000000    0.84601000000000
C        63.26837900000000    2.86239800000000    0.07264600000000
N        62.89138500000000    1.54579300000000   -0.34349700000000
C        64.51551900000000    3.47410000000000   -0.34422000000000
C        65.61707100000000    2.80684300000000   -0.67599100000000
C        66.61061700000000    3.05882700000000   -1.71016100000000
C        67.50449999999999    2.09796800000000   -1.60867700000000
C        67.12480200000000    1.18608400000000   -0.50470000000000
N        66.02988700000000    1.63540300000000    0.00266700000000
C        67.78200900000000   -0.01319300000000    0.00612200000000
C        67.15859800000000   -1.08237500000000    0.46763900000000
C        67.53731000000001   -2.01449100000000    1.54311500000000
C        66.59664200000000   -2.92863700000000    1.62898100000000
C        65.58834000000000   -2.63285800000000    0.63155400000000
N        65.92611500000000   -1.57948000000000   -0.01774100000000
C        64.33594700000000   -3.33986500000000    0.30036000000000
C        63.22207000000000   -2.74316800000000   -0.04698100000000
N        62.83995800000001   -1.46041100000000    0.37070200000000
H        62.14237000000000   -4.21719500000000   -1.39786800000000
H        60.27728200000000   -2.44846500000000   -1.58980800000000
H        60.36838900000001    2.45835800000000    1.51351800000000
H        62.34507700000000    4.34848700000000    1.30266100000000
H        64.60145900000001    4.57147800000000   -0.40624300000000
H        66.64328900000000    3.86504300000000   -2.43698500000000
H        68.39756199999999    1.98500000000000   -2.24245100000000
H        68.45206000000000   -1.94008400000000    2.15328500000000
H        66.61568800000001   -3.74224500000000    2.33724800000000
H        64.37443100000000   -4.43982400000000    0.35939700000000
Zn       75.23545800000001    0.03532600000000    0.00303200000000
C        72.95564700000000   -3.22612100000000   -0.90663300000000
C        71.99943800000001   -2.32677100000000   -1.00866000000000
C        72.39181200000000   -1.16446600000000   -0.20614400000000
C        71.75669600000001   -0.01319300000000    0.00612200000000
C        72.44215300000000    1.26140600000000    0.23235200000000
C        72.10686300000000    2.34000600000000    0.93659200000000
C        73.13140400000002    3.35932300000000    0.84601000000000
C        74.08200100000001    2.86239800000000    0.07264600000000
N        73.70500699999999    1.54579300000000   -0.34349700000000
C        75.32914100000001    3.47410000000000   -0.34422000000000
C        76.43069199999999    2.80684300000000   -0.67599100000000
C        77.42423900000000    3.05882700000000   -1.71016100000000
C        78.31812200000000    2.09796800000000   -1.60867700000000
C        77.93842400000000    1.18608400000000   -0.50470000000000
N        76.84350900000000    1.63540300000000    0.00266700000000
C        78.59563100000000   -0.01319300000000    0.00612200000000
C        77.97221900000001   -1.08237500000000    0.46763900000000
C        78.35093200000000   -2.01449100000000    1.54311500000000
C        77.41026300000000   -2.92863700000000    1.62898100000000
C        76.40196200000000   -2.63285800000000    0.63155400000000
N        76.73973700000001   -1.57948000000000   -0.01774100000000
C        75.14956900000000   -3.33986500000000    0.30036000000000
C        74.03569200000000   -2.74316800000000   -0.04698100000000
N        73.65358000000001   -1.46041100000000    0.37070200000000
H        72.95599199999999   -4.21719500000000   -1.39786800000000
H        71.09090399999999   -2.44846500000000   -1.58980800000000
H        71.18201100000000    2.45835800000000    1.51351800000000
H        73.15869900000000    4.34848700000000    1.30266100000000
H        75.41508100000000    4.57147800000000   -0.40624300000000
H        77.45691100000001    3.86504300000000   -2.43698500000000
H        79.21118400000000    1.98500000000000   -2.24245100000000
H        79.26568200000000   -1.94008400000000    2.15328500000000
H        77.42931000000000   -3.74224500000000    2.33724800000000
H        75.18805300000000   -4.43982400000000    0.35939700000000
Zn       86.04908000000002    0.03532600000000    0.00303200000000
C        83.76926899999999   -3.22612100000000   -0.90663300000000
C        82.81306000000001   -2.32677100000000   -1.00866000000000
C        83.20543400000001   -1.16446600000000   -0.20614400000000
C        82.57031800000001   -0.01319300000000    0.00612200000000
C        83.25577500000000    1.26140600000000    0.23235200000000
C        82.92048400000000    2.34000600000000    0.93659200000000
C        83.94502600000000    3.35932300000000    0.84601000000000
C        84.89562300000000    2.86239800000000    0.07264600000000
N        84.51862900000000    1.54579300000000   -0.34349700000000
C        86.14276300000000    3.47410000000000   -0.34422000000000
C        87.24431400000000    2.80684300000000   -0.67599100000000
C        88.23786100000000    3.05882700000000   -1.71016100000000
C        89.13174400000001    2.09796800000000   -1.60867700000000
C        88.75204600000001    1.18608400000000   -0.50470000000000
N        87.65713100000001    1.63540300000000    0.00266700000000
C        89.40925300000001   -0.01319300000000    0.00612200000000
C        88.78584100000000   -1.08237500000000    0.46763900000000
C        89.16455400000001   -2.01449100000000    1.54311500000000
C        88.22388500000000   -2.92863700000000    1.62898100000000
C        87.21558400000001   -2.63285800000000    0.63155400000000
N        87.55335900000000   -1.57948000000000   -0.01774100000000
C        85.96319100000001   -3.33986500000000    0.30036000000000
C        84.84931400000001   -2.74316800000000   -0.04698100000000
N        84.46720200000001   -1.46041100000000    0.37070200000000
H        83.76961400000000   -4.21719500000000   -1.39786800000000
H        81.90452600000000   -2.44846500000000   -1.58980800000000
H        81.99563200000000    2.45835800000000    1.51351800000000
H        83.97232099999999    4.34848700000000    1.30266100000000
H        86.22870300000001    4.57147800000000   -0.40624300000000
H        88.27053300000000    3.86504300000000   -2.43698500000000
H        90.02480500000001    1.98500000000000   -2.24245100000000
H        90.07930399999999   -1.94008400000000    2.15328500000000
H        88.24293200000000   -3.74224500000000    2.33724800000000
H        86.00167500000001   -4.43982400000000    0.35939700000000
222
 energy: -382.670672604106 gnorm: 0.495672298229 xtb: 6.4.1 (bd6e46d)
Zn       41.50620485404521    0.04698325193272   -0.01384868352606
C        43.82353544196945   -3.10866967861595    1.29902175364756
C        44.75533296770090   -2.15568229179744    1.25267568697067
C        44.32892060477589   -1.10482993545865    0.34205808025479
C        44.94047393012208    0.04243096320617   -0.00954240526312
C        44.23363615456047    1.23882979322483   -0.36714646507969
C        44.58336798640813    2.22903798984698   -1.23920194235256
C        43.56523107984477    3.22147155434820   -1.25157441788773
C        42.59448339193209    2.82031302222864   -0.38557529237295
N        42.98269392002595    1.59055290786665    0.17325499853946
C        41.35840352757737    3.48548450953212   -0.01379566600983
C        40.23360362987616    2.83686193289393    0.33906749714972
C        39.17210274567780    3.17799305463665    1.28998658638781
C        38.30707754418133    2.16602768776285    1.23209029084444
C        38.76388124054513    1.17078916794556    0.26560200608260
N        39.90747667306086    1.59000518041576   -0.21765954603900
C        38.14898512471135   -0.06102418391329   -0.15721616683418
C        38.82807869941799   -1.19179946061511   -0.42432769925035
C        38.44278184442992   -2.24975260890810   -1.36264591357841
C        39.40664394231731   -3.16627738757345   -1.28308377837845
C        40.39481405214286   -2.71763614725113   -0.31265967344091
N        40.04050264592722   -1.53892814598913    0.16729389105016
C        41.59770316649330   -3.36844934099408    0.13349281925085
C        42.74576674349091   -2.70192499842611    0.41146903844335
N        43.06469403997333   -1.46669561701006   -0.16155138198963
H        43.87534253925298   -4.00439081936892    1.91686749738056
H        45.66097587404411   -2.18666794832648    1.83252016369973
H        45.49653263325627    2.22774511009917   -1.82450594565914
H        43.56006491606941    4.12039792426139   -1.85222979785438
H        41.30705539456112    4.57732512715289   -0.01056158653102
H        39.12475033812683    4.04752731985138    1.92545965094971
H        37.41674546729288    2.12903962665438    1.84568639275311
H        37.06389551225790   -0.07208700447959   -0.26820495313789
H        37.58385253504120   -2.29373653139522   -2.01749445667411
H        39.40735010633291   -4.06482803289396   -1.88213138722505
H        41.57574123350432   -4.45396055763554    0.25323579260561
Zn       98.08818534269670   -0.00084297376547   -0.01835197816662
C        95.77076557151345    2.85647508488831    1.85716064882104
C        94.83909070720998    1.92855789227345    1.63488436158364
C        95.26596609034456    1.06480217199244    0.54534988891168
C        94.65586328910953    0.00251549671781   -0.01271205958788
C        95.36116602522182   -1.10638114409319   -0.58653231236793
C        95.01105416560212   -1.91769719643335   -1.62717962117307
C        96.02901033657061   -2.89061336908321   -1.82347932122263
C        96.99985203155504   -2.65714622467999   -0.89803838510199
N        96.61176857782611   -1.55276629244560   -0.12066760234816
C        98.23591385809857   -3.37976757656601   -0.65618649600322
C        99.36070522699917   -2.80777958804399   -0.18906793428240
C       100.42217091415046   -3.31939019243183    0.68204004711096
C       101.28726387070917   -2.31425310195161    0.81281004027011
C       100.83049467704728   -1.15698865915879    0.04778741291075
N        99.68676974749050   -1.47935265570247   -0.50487597797920
C       101.44533475450922    0.13180135751941   -0.13913745104968
C       100.76622993533094    1.29257657843021   -0.19191205206222
C       101.15151303131589    2.50614792245609   -0.91764723961873
C       100.18759848062733    3.39204916585898   -0.66943904836780
C        99.19950390161819    2.77119771684073    0.20085534145606
N        99.55382000363446    1.52393610962367    0.45388671056081
C        97.99654944912663    3.32801344992398    0.76010031319916
C        96.84856476353426    2.62158077769063    0.90950057007593
N        96.52982648591197    1.51406039355490    0.11727353104927
H        95.71895051512151    3.62201529963810    2.63047014088440
H        93.93337465139311    1.85145254767294    2.21034617035308
H        94.09781258259457   -1.80786093066089   -2.20211737618442
H        96.03422202630250   -3.66253333833301   -2.58049844566540
H        98.28727360862929   -4.45321143559556   -0.85562442397451
H       100.46955176422226   -4.29174580255865    1.14515020340971
H       102.17756956227939   -2.39175954888557    1.42266474565251
H       102.53042078945774    0.16330216325002   -0.24613470071536
H       102.01045657988894    2.67090486950438   -1.55294825407219
H       100.18694815752139    4.38615701850823   -1.09136697466956
H        98.01858414458412    4.37240970381004    1.07921197332039
C        47.52852630112115    0.02122104124276   -0.00928143616723
C        48.74885867133845    0.03062507117768   -0.01407509541187
C        58.37126342977194    0.02928801288636   -0.00879468698944
C        59.58564239386410    0.03014113002126   -0.01238706209732
C        69.18478969630550    0.02930113588691   -0.00863147798691
C        70.39933096245065    0.03014208973880   -0.01239986671577
C        79.99844591758490    0.02931581329370   -0.00852585051313
C        81.21290303730750    0.03015791246660   -0.01238563045699
C        90.83868407863427    0.02932345448890   -0.00676273331266
C        92.05849389565832    0.02257464364992   -0.01075241089144
Zn       53.59854925164148    0.03776978982769    0.00195209307418
C        51.32970470778551   -3.24330562187864   -0.89977761723973
C        50.36487846306054   -2.32600324180242   -0.99904532313019
C        50.78498596973900   -1.17657178838022   -0.21005185903130
C        50.13683017660625    0.00602097507110    0.00369226771906
C        50.84061052599517    1.26384657255800    0.22921177627146
C        50.47049131018971    2.36523937578853    0.94767673882523
C        51.48028648324772    3.36062557589876    0.85290404848479
C        52.46500893086349    2.84219606020598    0.06826127664043
N        52.09898774189922    1.53422238204461   -0.33265983504031
C        53.68757790617995    3.47282189000382   -0.34517644693935
C        54.81225597739842    2.79456265892123   -0.67705772922858
C        55.80316153068161    3.06620057330486   -1.69709997395822
C        56.71166951760483    2.08597665552531   -1.60663799848286
C        56.31510442184013    1.18605748907893   -0.51996202594013
N        55.18556838696413    1.61807144815357   -0.01420660845956
C        56.97804881552952    0.00485601470428   -0.00308615379365
C        56.33224119193736   -1.09540275598305    0.47500480495868
C        56.73556783472342   -2.01245536790094    1.53268861273677
C        55.77892060113938   -2.94553250846118    1.62669230370184
C        54.76431014293189   -2.64087241892242    0.64107191880266
N        55.10079545125849   -1.54593331988259   -0.00593605469014
C        53.54307730729450   -3.34568685436931    0.31041317674694
C        52.39578297504105   -2.73015331725944   -0.05443062265593
N        52.03703283285267   -1.45082546142091    0.34100280680835
H        51.33384247656790   -4.21369084788251   -1.39377468936576
H        49.46414948438304   -2.43848096889117   -1.58492737207052
H        49.55413782997751    2.46252628930226    1.51410259435177
H        51.52092287034758    4.34265548129655    1.30448928074050
H        53.77087968138974    4.56479746557745   -0.41165802680954
H        55.82241944218418    3.86328278422327   -2.42866594501333
H        57.58469847357550    1.97833135430351   -2.23881576888822
H        57.63299098890851   -1.93473505952255    2.14467424389381
H        55.79448819703992   -3.74835120209051    2.33738234547477
H        53.56688350222765   -4.43629921980011    0.35713739157681
Zn       64.41193379761071    0.03801741366239    0.00195051196342
C        62.14301214650343   -3.24417469527498   -0.89947100398829
C        61.17922112278649   -2.32629171622683   -0.99901166738798
C        61.60158610125067   -1.17908045712020   -0.20732190103142
C        60.95514819951210    0.00561262261509    0.00466497628999
C        61.65671012211703    1.26561276785359    0.22843079948922
C        61.28484307508356    2.36503804613410    0.94758136342290
C        62.29422649751945    3.36129530324460    0.85254431326644
C        63.27903850688402    2.84313191178712    0.06828193201600
N        62.91310087551498    1.53451984469783   -0.33254201295051
C        64.50113255711790    3.47298920824274   -0.34491776103191
C        65.62598756384025    2.79455161594806   -0.67706544513424
C        66.61663597139710    3.06615544281588   -1.69713713844591
C        67.52524992464942    2.08584930406781   -1.60671219656672
C        67.12864561550201    1.18619472588585   -0.52011000998990
N        65.99927036185345    1.61811994064566   -0.01427219133958
C        67.79182380060274    0.00473508982405   -0.00293255919980
C        67.14618893553289   -1.09545630753848    0.47504461610872
C        67.54950037651378   -2.01241448523026    1.53251547825589
C        66.59224903367614   -2.94507301079185    1.62711166670824
C        65.57831854518078   -2.64034297955043    0.64144674850857
N        65.91425328249831   -1.54640578791171   -0.00598090154859
C        64.35601845576593   -3.34595051547015    0.30964322172114
C        63.21012409392651   -2.73123199157672   -0.05439919981730
N        62.85109550546801   -1.45070245107658    0.34085050588753
H        62.14732065885748   -4.21397615425399   -1.39387138923418
H        60.27806698537585   -2.43837632631555   -1.58486445511804
H        60.36795777085820    2.46230721995495    1.51391405647637
H        62.33456787050005    4.34289870190725    1.30450742683435
H        64.58460662937188    4.56488940836068   -0.41147832983770
H        66.63603452565921    3.86327915368280   -2.42863975196511
H        68.39832575206094    1.97832758145965   -2.23878758512955
H        68.44671473922106   -1.93475198967537    2.14462506831900
H        66.60808222482413   -3.74827957609467    2.33736170569648
H        64.38057823445878   -4.43643911790012    0.35640626357377
Zn       75.22546264512926    0.03799766776443    0.00195809066553
C        72.95647163287633   -3.24427877954203   -0.89939035577338
C        71.99291820904816   -2.32641164470618   -0.99906371980413
C        72.41527056114788   -1.17904371714163   -0.20715875145237
C        71.76869927218839    0.00555453004811    0.00462370630368
C        72.47037774989444    1.26570002381683    0.22838089190346
C        72.09854596075044    2.36503462381119    0.94763857819139
C        73.10783747612790    3.36136692394664    0.85249306495562
C        74.09269984965499    2.84320073025168    0.06826562479877
N        73.72664032827885    1.53447470810491   -0.33253290761260
C        75.31469822693101    3.47297494129465   -0.34484286039973
C        76.43964890156437    2.79454066723912   -0.67705170047916
C        77.43021964509228    3.06614331247611   -1.69715214795199
C        78.33886313155142    2.08581808678812   -1.60673783871160
C        77.94219726657481    1.18617222255326   -0.52022019322754
N        76.81292515507130    1.61813499256226   -0.01427421120778
C        78.60541976484144    0.00466388027754   -0.00285263858024
C        77.95993744375917   -1.09540151538945    0.47505453828130
C        78.36325995737235   -2.01245873526940    1.53243502553565
C        77.40582638178368   -2.94490842283739    1.62724221197029
C        76.39203802983791   -2.64014266512941    0.64151139131449
N        76.72778591958341   -1.54657767259989   -0.00598966037883
C        75.16941130777624   -3.34597528059463    0.30945562187372
C        74.02385652107485   -2.73134508988477   -0.05429570493191
N        73.66467846127104   -1.45051256891083    0.34082062943532
H        72.96091233220011   -4.21399940539725   -1.39388895737362
H        71.09171907980013   -2.43840058337852   -1.58489727377457
H        71.18159280925397    2.46232345525582    1.51390783508982
H        73.14818597886766    4.34292413851228    1.30450727656162
H        75.39822352743481    4.56488249998407   -0.41144805183460
H        77.44965154724009    3.86327889368696   -2.42863586443756
H        79.21194915235796    1.97832453554704   -2.23877959750827
H        79.26037653566155   -1.93475995431814    2.14461733006678
H        77.42169756944854   -3.74824297770884    2.33736292394717
H        75.19420879471571   -4.43644815678494    0.35617912020727
Zn       86.03885438186462    0.03820754060166    0.00193973409069
C        83.76984234198459   -3.24440695360399   -0.89922479300428
C        82.80660187304426   -2.32655845966012   -0.99906009588740
C        83.22898242876079   -1.17886534366721   -0.20710361440994
C        82.58242366866915    0.00554669255953    0.00458441627384
C        83.28405252319435    1.26564239575508    0.22834351453416
C        82.91223406960302    2.36511528767075    0.94764959153258
C        83.92134865582300    3.36142454217781    0.85241616560048
C        84.90638835459325    2.84324955971458    0.06811867269473
N        84.54018430843155    1.53446806469578   -0.33253381357295
C        86.12831744542648    3.47276234619409   -0.34451367128490
C        87.25385334988076    2.79391418165744   -0.67661329449366
C        88.24387981659359    3.06569579323248   -1.69721917729832
C        89.15289578980722    2.08576731970931   -1.60708623879003
C        88.75753479107236    1.18351049956678   -0.52207698425498
N        87.62770253974739    1.61755937364949   -0.01402291043570
C        89.42341219512738    0.00410767121645   -0.00295436209512
C        88.77647746143680   -1.09272732990833    0.47520577916280
C        89.17764819623305   -2.01287449554252    1.53252378092528
C        88.21983907974092   -2.94394546033521    1.62764644118579
C        87.20618039111619   -2.63885840613844    0.64110709650721
N        87.54156205006448   -1.54636367625697   -0.00596249310499
C        85.98289068298510   -3.34584476221180    0.30897047404877
C        84.83766337053495   -2.73141543761292   -0.05412408125501
N        84.47833764675467   -1.45031487004006    0.34082685774983
H        83.77451761026801   -4.21401237179142   -1.39391336666231
H        81.90537889936483   -2.43841790075665   -1.58493194197569
H        81.99523522536006    2.46234920613977    1.51392422136654
H        83.96178732319966    4.34294648119975    1.30451465444903
H        86.21192074798921    4.56475997717368   -0.41133400407122
H        88.26321309893531    3.86316341627994   -2.42855905523208
H        90.02575362930217    1.97839637630652   -2.23895114027599
H        90.07426176762418   -1.93499953913331    2.14477142360950
H        88.23533775148458   -3.74794892027828    2.33734328903025
H        86.00800264258362   -4.43636151284164    0.35573153344857
222
 energy: -382.868199638569 gnorm: 0.208515761207 xtb: 6.4.1 (bd6e46d)