      -----------------------------------------------------------      
     |                   =====================                   |     
     |                           x T B                           |     
     |                   =====================                   |     
     |                         S. Grimme                         |     
     |          Mulliken Center for Theoretical Chemistry        |     
     |                    University of Bonn                     |     
      -----------------------------------------------------------      

   * xtb version 6.4.1 (bd6e46d) compiled by 'conda@4901f00b25ba' on 2021-06-10

   xtb is free software: you can redistribute it and/or modify it under
   the terms of the GNU Lesser General Public License as published by
   the Free Software Foundation, either version 3 of the License, or
   (at your option) any later version.
   
   xtb is distributed in the hope that it will be useful,
   but WITHOUT ANY WARRANTY; without even the implied warranty of
   MERCHANTABILITY or FITNESS FOR A PARTICULAR PURPOSE.  See the
   GNU Lesser General Public License for more details.
   
   Cite this work as:
   * C. Bannwarth, E. Caldeweyher, S. Ehlert, A. Hansen, P. Pracht,
     J. Seibert, S. Spicher, S. Grimme, WIREs Comput. Mol. Sci., 2020, 11,
     e01493. DOI: 10.1002/wcms.1493
   
   for GFN2-xTB:
   * C. Bannwarth, S. Ehlert and S. Grimme., J. Chem. Theory Comput., 2019,
     15, 1652-1671. DOI: 10.1021/acs.jctc.8b01176
   for GFN1-xTB:
   * S. Grimme, C. Bannwarth, P. Shushkov, J. Chem. Theory Comput., 2017,
     13, 1989-2009. DOI: 10.1021/acs.jctc.7b00118
   for GFN0-xTB:
   * P. Pracht, E. Caldeweyher, S. Ehlert, S. Grimme, ChemRxiv, 2019, preprint.
     DOI: 10.26434/chemrxiv.8326202.v1
   for GFN-FF:
   * S. Spicher and S. Grimme, Angew. Chem. Int. Ed., 2020, 59, 15665-15673.
     DOI: 10.1002/anie.202004239
   
   for DFT-D4:
   * E. Caldeweyher, C. Bannwarth and S. Grimme, J. Chem. Phys., 2017,
     147, 034112. DOI: 10.1063/1.4993215
   * E. Caldeweyher, S. Ehlert, A. Hansen, H. Neugebauer, S. Spicher,
     C. Bannwarth and S. Grimme, J. Chem. Phys., 2019, 150, 154122.
     DOI: 10.1063/1.5090222
   * E. Caldeweyher, J.-M. Mewes, S. Ehlert and S. Grimme, Phys. Chem. Chem. Phys.
     2020, 22, 8499-8512. DOI: 10.1039/D0CP00502A
   
   for sTDA-xTB:
   * S. Grimme and C. Bannwarth, J. Chem. Phys., 2016, 145, 054103.
     DOI: 10.1063/1.4959605
   
   in the mass-spec context:
   * V. Asgeirsson, C. Bauer and S. Grimme, Chem. Sci., 2017, 8, 4879.
     DOI: 10.1039/c7sc00601b
   * J. Koopman and S. Grimme, ACS Omega 2019, 4, 12, 15120-15133.
     DOI: 10.1021/acsomega.9b02011
   
   for metadynamics refer to:
   * S. Grimme, J. Chem. Theory Comput., 2019, 155, 2847-2862
     DOI: 10.1021/acs.jctc.9b00143
   
   for SPH calculations refer to:
   * S. Spicher and S. Grimme, J. Chem. Theory Comput., 2021, 17, 1701-1714
     DOI: 10.1021/acs.jctc.0c01306
   
   with help from (in alphabetical order)
   P. Atkinson, C. Bannwarth, F. Bohle, G. Brandenburg, E. Caldeweyher
   M. Checinski, S. Dohm, S. Ehlert, S. Ehrlich, I. Gerasimov, J. Koopman
   C. Lavigne, S. Lehtola, F. März, M. Müller, F. Musil, H. Neugebauer
   J. Pisarek, C. Plett, P. Pracht, J. Seibert, P. Shushkov, S. Spicher
   M. Stahn, M. Steiner, T. Strunk, J. Stückrath, T. Rose, and J. Unsleber
   
 * started run on 2021/11/21 at 21:20:36.570     

           -------------------------------------------------
          |                Calculation Setup                |
           -------------------------------------------------

          program call               : /home/jeff/miniconda3/bin/xtb /home/jeff/chem/final-year-proejct/Co+2_4_7_outenergy/input_structure.xyz --gfn 2 --parallel 1 --etemp 300 --chrg 0 --uhf 0 -I det_control.in
          coordinate file            : /home/jeff/chem/final-year-proejct/Co+2_4_7_outenergy/input_structure.xyz
          omp threads                :                     1
          number of atoms            :                   271
          number of electrons        :                   931
          charge                     :                     0
          spin                       :                   0.5
          first test random number   :      0.77028643792134

   ID    Z sym.   atoms
    1   27 Co     1, 37, 97, 132, 167, 202, 237
    2    6 C      2-9, 11-15, 17-21, 23, 24, 38-45, 47-51, 53-57, 59, 60,
                  73-96, 98-105, 107-111, 113-117, 119, 120, 133-140,
                  142-146, 148-152, 154, 155, 168-175, 177-181, 183-187, 189,
                  190, 203-210, 212-216, 218-222, 224, 225, 238-245, 247-251,
                  253-257, 259, 260
    3    7 N      10, 16, 22, 25, 46, 52, 58, 61, 106, 112, 118, 121, 141,
                  147, 153, 156, 176, 182, 188, 191, 211, 217, 223, 226, 246,
                  252, 258, 261
    4    1 H      26-36, 62-72, 122-131, 157-166, 192-201, 227-236, 262-271

           -------------------------------------------------
          |                 G F N 2 - x T B                 |
           -------------------------------------------------

        Reference                      10.1021/acs.jctc.8b01176
      * Hamiltonian:
        H0-scaling (s, p, d)           1.850000    2.230000    2.230000
        zeta-weighting                 0.500000
      * Dispersion:
        s8                             2.700000
        a1                             0.520000
        a2                             5.000000
        s9                             5.000000
      * Repulsion:
        kExp                           1.500000    1.000000
        rExp                           1.000000
      * Coulomb:
        alpha                          2.000000
        third order                    shell-resolved
        anisotropic                    true
        a3                             3.000000
        a5                             4.000000
        cn-shift                       1.200000
        cn-exp                         4.000000
        max-rad                        5.000000


          ...................................................
          :                      SETUP                      :
          :.................................................:
          :  # basis functions                 910          :
          :  # atomic orbitals                 903          :
          :  # shells                          477          :
          :  # electrons                       931          :
          :  max. iterations                   250          :
          :  Hamiltonian                  GFN2-xTB          :
          :  restarted?                      false          :
          :  GBSA solvation                  false          :
          :  PC potential                    false          :
          :  electronic temp.          300.0000000     K    :
          :  accuracy                    1.0000000          :
          :  -> integral cutoff          0.2500000E+02      :
          :  -> integral neglect         0.1000000E-07      :
          :  -> SCF convergence          0.1000000E-05 Eh   :
          :  -> wf. convergence          0.1000000E-03 e    :
          :  Broyden damping             0.4000000          :
          ...................................................

 iter      E             dE          RMSdq      gap      omega  full diag
   1   -502.4327029 -0.502433E+03  0.774E+00    0.13       0.0  T
   2   -477.8706208  0.245621E+02  0.922E+00    0.02       1.0  T
   3   -486.0344766 -0.816386E+01  0.620E+00    0.02       1.0  T
   4    153.3851052  0.639420E+03  0.148E+01    0.00       1.0  T
   5   -376.1415121 -0.529527E+03  0.100E+01    0.03       1.0  T
   6   -353.9526536  0.221889E+02  0.930E+00    0.07       1.0  T
   7   -443.0148965 -0.890622E+02  0.645E+00    0.00       1.0  T
   8   -430.1311538  0.128837E+02  0.687E+00    0.06       1.0  T
   9   -469.7174837 -0.395863E+02  0.619E+00    0.02       1.0  T
  10   -475.1442449 -0.542676E+01  0.528E+00    0.00       1.0  T
  11   -481.7305310 -0.658629E+01  0.443E+00    0.09       1.0  T
  12   -492.4938756 -0.107633E+02  0.409E+00    0.03       1.0  T
  13   -491.7518651  0.742010E+00  0.412E+00    0.05       1.0  T
  14   -493.0996317 -0.134777E+01  0.390E+00    0.01       1.0  T
  15   -491.3618692  0.173776E+01  0.413E+00    0.02       1.0  T
  16   -486.1493289  0.521254E+01  0.499E+00    0.01       1.0  T
  17   -485.0775966  0.107173E+01  0.520E+00    0.08       1.0  T
  18   -485.1833922 -0.105796E+00  0.520E+00    0.07       1.0  T
  19   -486.3962551 -0.121286E+01  0.494E+00    0.05       1.0  T
  20   -498.1907317 -0.117945E+02  0.366E+00    0.01       1.0  T
  21   -486.6649410  0.115258E+02  0.498E+00    0.04       1.0  T
  22   -485.6729985  0.991942E+00  0.507E+00    0.06       1.0  T
  23   -487.9953431 -0.232234E+01  0.479E+00    0.07       1.0  T
  24   -491.4337977 -0.343845E+01  0.449E+00    0.05       1.0  T
  25   -491.2565399  0.177258E+00  0.450E+00    0.04       1.0  T
  26   -490.5568122  0.699728E+00  0.510E+00    0.01       1.0  T
  27   -491.0440002 -0.487188E+00  0.500E+00    0.01       1.0  T
  28   -491.9115365 -0.867536E+00  0.476E+00    0.01       1.0  T
  29   -491.4575813  0.453955E+00  0.502E+00    0.01       1.0  T
  30   -490.2782896  0.117929E+01  0.516E+00    0.01       1.0  T
  31   -492.4190685 -0.214078E+01  0.488E+00    0.02       1.0  T
  32   -491.8280710  0.590997E+00  0.491E+00    0.03       1.0  T
  33   -489.3040805  0.252399E+01  0.515E+00    0.02       1.0  T
  34   -488.4349388  0.869142E+00  0.530E+00    0.02       1.0  T
  35   -488.0260850  0.408854E+00  0.550E+00    0.00       1.0  T
  36   -485.7832956  0.224279E+01  0.587E+00    0.01       1.0  T
  37   -485.7617342  0.215613E-01  0.589E+00    0.01       1.0  T
  38   -491.2606799 -0.549895E+01  0.499E+00    0.01       1.0  T
  39   -493.3650406 -0.210436E+01  0.460E+00    0.01       1.0  T
  40   -491.9081584  0.145688E+01  0.494E+00    0.01       1.0  T
  41   -489.5312821  0.237688E+01  0.532E+00    0.07       1.0  T
  42   -489.1528203  0.378462E+00  0.538E+00    0.06       1.0  T
  43   -491.4142911 -0.226147E+01  0.521E+00    0.01       1.0  T
  44   -490.7544885  0.659803E+00  0.528E+00    0.04       1.0  T
  45   -490.7128869  0.416016E-01  0.527E+00    0.03       1.0  T
  46   -491.5341043 -0.821217E+00  0.520E+00    0.08       1.0  T
  47   -491.2491530  0.284951E+00  0.529E+00    0.08       1.0  T
  48   -490.9883401  0.260813E+00  0.534E+00    0.07       1.0  T
  49   -491.1741684 -0.185828E+00  0.544E+00    0.03       1.0  T
  50   -491.7421740 -0.568006E+00  0.540E+00    0.02       1.0  T
  51   -491.3739574  0.368217E+00  0.549E+00    0.02       1.0  T
  52   -492.5082128 -0.113426E+01  0.512E+00    0.01       1.0  T
  53   -492.5083869 -0.174073E-03  0.512E+00    0.01       1.0  T
  54   -492.5653723 -0.569855E-01  0.513E+00    0.00       1.0  T
  55   -493.3689170 -0.803545E+00  0.499E+00    0.03       1.0  T
  56   -493.3680359  0.881068E-03  0.499E+00    0.03       1.0  T
  57   -493.3916260 -0.235901E-01  0.496E+00    0.01       1.0  T
  58   -499.6553256 -0.626370E+01  0.345E+00    0.03       1.0  T
  59   -500.7265982 -0.107127E+01  0.302E+00    0.03       1.0  T
  60   -497.5684258  0.315817E+01  0.403E+00    0.01       1.0  T
  61   -499.3209819 -0.175256E+01  0.358E+00    0.02       1.0  T
  62   -498.9327926  0.388189E+00  0.348E+00    0.06       1.0  T
  63   -497.7452564  0.118754E+01  0.411E+00    0.01       1.0  T
  64   -501.3995660 -0.365431E+01  0.299E+00    0.01       1.0  T
  65   -500.9539409  0.445625E+00  0.316E+00    0.00       1.0  T
  66   -497.8564233  0.309752E+01  0.417E+00    0.00       1.0  T
  67   -497.2414055  0.615018E+00  0.438E+00    0.02       1.0  T
  68   -498.9195924 -0.167819E+01  0.389E+00    0.01       1.0  T
  69   -499.3126938 -0.393101E+00  0.376E+00    0.01       1.0  T
  70   -495.5920635  0.372063E+01  0.388E+00    0.02       1.0  T
  71   -494.8924316  0.699632E+00  0.410E+00    0.02       1.0  T
  72   -496.9814584 -0.208903E+01  0.408E+00    0.02       1.0  T
  73   -496.7180422  0.263416E+00  0.415E+00    0.01       1.0  T
  74   -496.9551652 -0.237123E+00  0.410E+00    0.00       1.0  T
  75   -499.5753404 -0.262018E+01  0.364E+00    0.01       1.0  T
  76   -498.3247042  0.125064E+01  0.415E+00    0.02       1.0  T
  77   -494.6752943  0.364941E+01  0.497E+00    0.02       1.0  T
  78   -494.4190195  0.256275E+00  0.513E+00    0.00       1.0  T
  79   -493.5183908  0.900629E+00  0.524E+00    0.01       1.0  T
  80   -494.3169953 -0.798605E+00  0.506E+00    0.02       1.0  T
  81   -498.6207426 -0.430375E+01  0.391E+00    0.02       1.0  T
  82   -501.7767740 -0.315603E+01  0.285E+00    0.00       1.0  T
  83   -500.3426575  0.143412E+01  0.324E+00    0.00       1.0  T
  84   -500.3878954 -0.452379E-01  0.323E+00    0.00       1.0  T
  85   -501.4206142 -0.103272E+01  0.291E+00    0.00       1.0  T
  86   -498.7389226  0.268169E+01  0.360E+00    0.00       1.0  T
  87   -497.6812224  0.105770E+01  0.408E+00    0.04       1.0  T
  88   -494.6030913  0.307813E+01  0.487E+00    0.06       1.0  T
  89   -497.8660152 -0.326292E+01  0.401E+00    0.04       1.0  T
  90   -500.1059081 -0.223989E+01  0.361E+00    0.02       1.0  T
  91   -501.6109593 -0.150505E+01  0.306E+00    0.00       1.0  T
  92   -500.4912307  0.111973E+01  0.313E+00    0.01       1.0  T
  93   -501.4231753 -0.931945E+00  0.319E+00    0.00       1.0  T
  94   -501.9826023 -0.559427E+00  0.293E+00    0.01       1.0  T
  95   -501.0751520  0.907450E+00  0.335E+00    0.02       1.0  T
  96   -501.2962043 -0.221052E+00  0.326E+00    0.02       1.0  T
  97   -501.3723727 -0.761683E-01  0.323E+00    0.02       1.0  T
  98   -501.3369132  0.354595E-01  0.324E+00    0.02       1.0  T
  99   -501.3007400  0.361732E-01  0.326E+00    0.02       1.0  T
 100   -501.9481563 -0.647416E+00  0.300E+00    0.02       1.0  T
 101   -502.2655878 -0.317431E+00  0.287E+00    0.02       1.0  T
 102   -502.3532043 -0.876164E-01  0.284E+00    0.02       1.0  T
 103   -502.8741121 -0.520908E+00  0.260E+00    0.00       1.0  T
 104   -502.5466436  0.327468E+00  0.272E+00    0.01       1.0  T
 105   -502.2757950  0.270849E+00  0.289E+00    0.00       1.0  T
 106   -502.3034821 -0.276871E-01  0.288E+00    0.00       1.0  T
 107   -502.2675541  0.359280E-01  0.288E+00    0.01       1.0  T
 108   -502.1642278  0.103326E+00  0.294E+00    0.01       1.0  T
 109   -502.3128449 -0.148617E+00  0.288E+00    0.01       1.0  T
 110   -502.3502757 -0.374308E-01  0.286E+00    0.01       1.0  T
 111   -502.5008633 -0.150588E+00  0.287E+00    0.01       1.0  T
 112   -502.4445453  0.563181E-01  0.291E+00    0.00       1.0  T
 113   -501.7794016  0.665144E+00  0.309E+00    0.01       1.0  T
 114   -501.6193000  0.160102E+00  0.317E+00    0.00       1.0  T
 115   -501.3349046  0.284395E+00  0.319E+00    0.01       1.0  T
 116   -501.1457966  0.189108E+00  0.322E+00    0.01       1.0  T
 117   -501.1745486 -0.287520E-01  0.323E+00    0.01       1.0  T
 118   -500.7328198  0.441729E+00  0.343E+00    0.01       1.0  T
 119   -499.0205272  0.171229E+01  0.370E+00    0.01       1.0  T
 120   -498.5415358  0.478991E+00  0.384E+00    0.00       1.0  T
 121   -498.4887434  0.527924E-01  0.400E+00    0.01       1.0  T
 122   -498.7507493 -0.262006E+00  0.389E+00    0.01       1.0  T
 123   -499.7410262 -0.990277E+00  0.351E+00    0.01       1.0  T
 124   -501.2613551 -0.152033E+01  0.334E+00    0.01       1.0  T
 125   -502.2759089 -0.101455E+01  0.292E+00    0.00       1.0  T
 126   -501.6220744  0.653835E+00  0.324E+00    0.00       1.0  T
 127   -500.7112303  0.910844E+00  0.353E+00    0.00       1.0  T
 128   -500.8101740 -0.989436E-01  0.350E+00    0.00       1.0  T
 129   -500.7563184  0.538556E-01  0.351E+00    0.00       1.0  T
 130   -500.4260420  0.330276E+00  0.360E+00    0.00       1.0  T
 131   -500.0730622  0.352980E+00  0.369E+00    0.00       1.0  T
 132   -499.4785718  0.594490E+00  0.385E+00    0.00       1.0  T
 133   -499.9037996 -0.425228E+00  0.370E+00    0.00       1.0  T
 134   -500.3174378 -0.413638E+00  0.354E+00    0.00       1.0  T
 135   -500.3417814 -0.243436E-01  0.353E+00    0.00       1.0  T
 136   -500.5129286 -0.171147E+00  0.344E+00    0.00       1.0  T
 137   -500.1015525  0.411376E+00  0.359E+00    0.00       1.0  T
 138   -499.8692182  0.232334E+00  0.366E+00    0.00       1.0  T
 139   -500.1387201 -0.269502E+00  0.356E+00    0.00       1.0  T
 140   -500.0411907  0.975294E-01  0.359E+00    0.00       1.0  T
 141   -499.5030509  0.538140E+00  0.377E+00    0.00       1.0  T
 142   -499.8687648 -0.365714E+00  0.366E+00    0.00       1.0  T
 143   -499.6954638  0.173301E+00  0.371E+00    0.00       1.0  T
 144   -499.7323578 -0.368940E-01  0.370E+00    0.00       1.0  T
 145   -499.7893240 -0.569662E-01  0.369E+00    0.00       1.0  T
 146   -499.7089531  0.803709E-01  0.371E+00    0.00       1.0  T
 147   -499.6444137  0.645394E-01  0.373E+00    0.00       1.0  T
 148   -499.1667304  0.477683E+00  0.388E+00    0.00       1.0  T
 149   -499.1162438  0.504866E-01  0.390E+00    0.00       1.0  T
 150   -499.3154461 -0.199202E+00  0.384E+00    0.00       1.0  T
 151   -499.3583456 -0.428995E-01  0.382E+00    0.00       1.0  T
 152   -499.3411791  0.171665E-01  0.382E+00    0.00       1.0  T
 153   -499.9818532 -0.640674E+00  0.360E+00    0.00       1.0  T
 154   -500.7389831 -0.757130E+00  0.332E+00    0.00       1.0  T
 155   -501.0665221 -0.327539E+00  0.317E+00    0.01       1.0  T
 156   -501.5399976 -0.473476E+00  0.294E+00    0.01       1.0  T
 157   -501.6730830 -0.133085E+00  0.285E+00    0.01       1.0  T
 158   -501.6665565  0.652650E-02  0.285E+00    0.00       1.0  T
 159   -501.6594908  0.706563E-02  0.285E+00    0.00       1.0  T
 160   -501.6747354 -0.152446E-01  0.284E+00    0.00       1.0  T
 161   -501.8482078 -0.173472E+00  0.276E+00    0.00       1.0  T
 162   -501.8912232 -0.430154E-01  0.272E+00    0.01       1.0  T
 163   -501.9577592 -0.665360E-01  0.271E+00    0.01       1.0  T
 164   -501.9191644  0.385949E-01  0.274E+00    0.00       1.0  T
 165   -501.8552529  0.639115E-01  0.277E+00    0.01       1.0  T
 166   -501.8738176 -0.185647E-01  0.276E+00    0.00       1.0  T
 167   -501.8639953  0.982229E-02  0.277E+00    0.00       1.0  T
 168   -501.8497754  0.142199E-01  0.277E+00    0.01       1.0  T
 169   -501.8356675  0.141079E-01  0.278E+00    0.01       1.0  T
 170   -501.8570714 -0.214040E-01  0.277E+00    0.01       1.0  T
 171   -501.8899060 -0.328346E-01  0.276E+00    0.01       1.0  T
 172   -501.8891731  0.732930E-03  0.276E+00    0.01       1.0  T
 173   -501.8789242  0.102489E-01  0.274E+00    0.01       1.0  T
 174   -502.2430515 -0.364127E+00  0.251E+00    0.02       1.0  T
 175   -501.6914437  0.551608E+00  0.272E+00    0.03       1.0  T
 176   -501.5975493  0.938944E-01  0.280E+00    0.02       1.0  T
 177   -501.7244641 -0.126915E+00  0.274E+00    0.01       1.0  T
 178   -502.0460611 -0.321597E+00  0.250E+00    0.03       1.0  T
 179   -502.1585150 -0.112454E+00  0.242E+00    0.02       1.0  T
 180   -502.6448721 -0.486357E+00  0.217E+00    0.00       1.0  T
 181   -503.0928996 -0.448028E+00  0.177E+00    0.01       1.0  T
 182   -503.0354861  0.574135E-01  0.177E+00    0.01       1.0  T
 183   -503.0682323 -0.327462E-01  0.175E+00    0.01       1.0  T
 184   -503.3163078 -0.248076E+00  0.158E+00    0.01       1.0  T
 185   -503.3971878 -0.808800E-01  0.156E+00    0.00       1.0  T
 186   -503.2462534  0.150934E+00  0.170E+00    0.02       1.0  T
 187   -503.8712128 -0.624959E+00  0.129E+00    0.00       1.0  T
 188   -502.8297110  0.104150E+01  0.196E+00    0.00       1.0  T
 189   -503.7425224 -0.912811E+00  0.133E+00    0.01       1.0  T
 190   -503.0859694  0.656553E+00  0.192E+00    0.00       1.0  T
 191   -501.8724562  0.121351E+01  0.240E+00    0.01       1.0  T
 192   -501.9822339 -0.109778E+00  0.234E+00    0.01       1.0  T
 193   -498.6401402  0.334209E+01  0.374E+00    0.00       1.0  T
 194   -498.2486467  0.391494E+00  0.385E+00    0.00       1.0  T
 195   -497.8211909  0.427456E+00  0.395E+00    0.01       1.0  T
 196   -498.2506163 -0.429425E+00  0.370E+00    0.01       1.0  T
 197   -501.5570902 -0.330647E+01  0.253E+00    0.01       1.0  T
 198   -501.5210114  0.360788E-01  0.255E+00    0.01       1.0  T
 199   -503.8246857 -0.230367E+01  0.132E+00    0.00       1.0  T
 200   -502.9640671  0.860619E+00  0.186E+00    0.01       1.0  T
 201   -502.3021773  0.661890E+00  0.218E+00    0.00       1.0  T
 202   -502.7618563 -0.459679E+00  0.201E+00    0.03       1.0  T
 203   -503.1258027 -0.363946E+00  0.169E+00    0.02       1.0  T
 204   -502.2635819  0.862221E+00  0.216E+00    0.01       1.0  T
 205   -503.0264819 -0.762900E+00  0.185E+00    0.02       1.0  T
 206   -503.4197314 -0.393250E+00  0.149E+00    0.01       1.0  T
 207   -503.7767777 -0.357046E+00  0.129E+00    0.01       1.0  T
 208   -503.6519540  0.124824E+00  0.142E+00    0.02       1.0  T
 209   -503.5506681  0.101286E+00  0.139E+00    0.00       1.0  T
 210   -503.2448487  0.305819E+00  0.173E+00    0.03       1.0  T
 211   -503.8674700 -0.622621E+00  0.108E+00    0.00       1.0  T
 212   -503.3506626  0.516807E+00  0.163E+00    0.02       1.0  T
 213   -503.9188010 -0.568138E+00  0.108E+00    0.00       1.0  T
 214   -503.1645616  0.754239E+00  0.175E+00    0.03       1.0  T
 215   -503.9054273 -0.740866E+00  0.106E+00    0.00       1.0  T
 216   -503.8352330  0.701943E-01  0.123E+00    0.00       1.0  T
 217   -502.4600168  0.137522E+01  0.216E+00    0.02       1.0  T
 218   -503.9457082 -0.148569E+01  0.990E-01    0.00       1.0  T
 219   -503.7902485  0.155460E+00  0.125E+00    0.01       1.0  T
 220   -504.0017081 -0.211460E+00  0.105E+00    0.00       1.0  T
 221   -504.0051269 -0.341884E-02  0.102E+00    0.00       1.0  T
 222   -504.0941904 -0.890635E-01  0.946E-01    0.00       1.0  T
 223   -503.8071168  0.287074E+00  0.124E+00    0.01       1.0  T
 224   -504.0826842 -0.275567E+00  0.937E-01    0.01       1.0  T
 225   -502.3816638  0.170102E+01  0.220E+00    0.01       1.0  T
 226   -503.9905190 -0.160886E+01  0.934E-01    0.01       1.0  T
 227   -503.9289137  0.616053E-01  0.111E+00    0.00       1.0  T
 228   -504.1345643 -0.205651E+00  0.865E-01    0.01       1.0  T
 229   -504.2381603 -0.103596E+00  0.722E-01    0.00       1.0  T
 230   -504.2221511  0.160091E-01  0.722E-01    0.00       1.0  T
 231   -504.3415922 -0.119441E+00  0.546E-01    0.00       1.0  T
 232   -504.3479024 -0.631013E-02  0.493E-01    0.00       1.0  T
 233   -504.3042371  0.436653E-01  0.594E-01    0.00       1.0  T
 234   -504.1188953  0.185342E+00  0.881E-01    0.01       1.0  T
 235   -504.1907993 -0.719041E-01  0.783E-01    0.01       1.0  T
 236   -503.8172543  0.373545E+00  0.121E+00    0.00       1.0  T
 237   -504.1954566 -0.378202E+00  0.770E-01    0.01       1.0  T
 238   -503.6826750  0.512782E+00  0.133E+00    0.01       1.0  T
 239   -504.2104724 -0.527797E+00  0.721E-01    0.01       1.0  T
 240   -503.8902790  0.320193E+00  0.114E+00    0.00       1.0  T
 241   -504.2476678 -0.357389E+00  0.660E-01    0.01       1.0  T
 242   -504.1861808  0.614870E-01  0.786E-01    0.01       1.0  T
 243   -504.2862691 -0.100088E+00  0.614E-01    0.01       1.0  T
 244   -504.3042871 -0.180180E-01  0.581E-01    0.01       1.0  T
 245   -504.2721855  0.321017E-01  0.646E-01    0.01       1.0  T
 246   -504.3761721 -0.103987E+00  0.397E-01    0.00       1.0  T
 247   -504.3278700  0.483020E-01  0.531E-01    0.00       1.0  T
 248   -504.3754754 -0.476053E-01  0.405E-01    0.00       1.0  T
 249   -504.3382769  0.371985E-01  0.504E-01    0.00       1.0  T
 250   -504.3422373 -0.396039E-02  0.491E-01    0.00       1.0  T

   *** convergence criteria cannot be satisfied within 250 iterations ***

         #    Occupation            Energy/Eh            Energy/eV
      -------------------------------------------------------------
         1        2.0000           -0.6741251             -18.3439
       ...           ...                  ...                  ...
       460        1.7987           -0.3463619              -9.4250
       461        1.7461           -0.3461120              -9.4182
       462        1.6271           -0.3456782              -9.4064
       463        1.6243           -0.3456693              -9.4061
       464        1.5196           -0.3453707              -9.3980
       465        1.5146           -0.3453576              -9.3977
       466        1.4571           -0.3452137              -9.3937 (HOMO)
       467        1.4110           -0.3451049              -9.3908 (LUMO)
       468        1.3000           -0.3448613              -9.3842
       469        1.1497           -0.3445574              -9.3759
       470                         -0.3162978              -8.6069
       471                         -0.3126016              -8.5063
       ...                                ...                  ...
       903                          1.6365891              44.5339
      -------------------------------------------------------------
                  HL-Gap            0.0001088 Eh            0.0030 eV
             Fermi-level           -0.3442685 Eh           -9.3680 eV

 SCC (total)                   0 d,  0 h,  1 min,  7.264 sec
 SCC setup                      ...        0 min,  0.013 sec (  0.019%)
 Dispersion                     ...        0 min,  0.026 sec (  0.038%)
 classical contributions        ...        0 min,  0.002 sec (  0.003%)
 integral evaluation            ...        0 min,  0.206 sec (  0.306%)
 iterations                     ...        1 min,  6.454 sec ( 98.796%)
 molecular gradient             ...        0 min,  0.528 sec (  0.786%)
 printout                       ...        0 min,  0.035 sec (  0.052%)

########################################################################
[ERROR] Program stopped due to fatal error
-3- Single point calculation terminated
-2- xtb_calculator_singlepoint: Electronic structure method terminated
-1- scf: Self consistent charge iterator did not converge
########################################################################
