 Entering Gaussian System
 *********************************************
 Gaussian 98:
 frequency output generated by the xtb code
 *********************************************
                         Standard orientation:
 --------------------------------------------------------------------
  Center     Atomic     Atomic              Coordinates (Angstroms)
  Number     Number      Type              X           Y           Z
 --------------------------------------------------------------------
    1         28             0        9.215828   -0.057655    0.031271
    2          6             0       11.642064   -3.467659    0.601764
    3          6             0       12.610071   -2.526517    0.531587
    4          6             0       11.952159   -1.280934    0.276389
    5          6             0       12.644142   -0.085237    0.065650
    6          6             0       11.975766    1.120874   -0.163975
    7          6             0       12.658902    2.354406   -0.413414
    8          6             0       11.707206    3.310228   -0.506637
    9          6             0       10.448162    2.652413   -0.324635
   10          7             0       10.626498    1.307875   -0.136780
   11          6             0        9.242688    3.323600   -0.311804
   12          6             0        8.025399    2.689871   -0.172118
   13          6             0        6.771748    3.387536   -0.161869
   14          6             0        5.807313    2.445900   -0.076715
   15          6             0        6.475903    1.176859   -0.033694
   16          7             0        7.830825    1.341156   -0.077212
   17          6             0        5.806363   -0.029288    0.005534
   18          6             0        6.455026   -1.246465    0.053673
   19          6             0        5.764814   -2.504243    0.084887
   20          6             0        6.712107   -3.462013    0.181741
   21          6             0        7.976951   -2.785384    0.211220
   22          7             0        7.806246   -1.433424    0.116500
   23          6             0        9.181365   -3.439645    0.366609
   24          6             0       10.397373   -2.788436    0.400697
   25          7             0       10.600775   -1.446239    0.222256
   26          1             0       11.738644   -4.521973    0.774020
   27          1             0       13.669634   -2.638561    0.648266
   28          1             0       13.722121    2.449142   -0.512890
   29          1             0       11.823912    4.361815   -0.683052
   30          1             0        9.253664    4.397140   -0.422422
   31          1             0        6.671171    4.454213   -0.217794
   32          1             0        4.742163    2.570879   -0.047403
   33          1             0        4.727302   -0.020278   -0.002409
   34          1             0        4.698262   -2.611374    0.040098
   35          1             0        6.592946   -4.526955    0.234211
   36          1             0        9.172924   -4.513549    0.473946
   37          6             0       14.046612   -0.090354    0.084627
   38          6             0       15.259053   -0.082029    0.103888
   39         28             0       20.080060    0.058736   -0.032730
   40          6             0       17.555933    3.328202    0.827565
   41          6             0       16.616287    2.365734    0.688389
   42          6             0       17.311562    1.162527    0.343392
   43          6             0       16.661175   -0.053312    0.110034
   44          6             0       17.373113   -1.240727   -0.080840
   45          6             0       16.738287   -2.516401   -0.219700
   46          6             0       17.726765   -3.438290   -0.254262
   47          6             0       18.961066   -2.716752   -0.171037
   48          7             0       18.729489   -1.371038   -0.075387
   49          6             0       20.197254   -3.329265   -0.212193
   50          6             0       21.384511   -2.628947   -0.270922
   51          6             0       22.663853   -3.260089   -0.424853
   52          6             0       23.569699   -2.267337   -0.560445
   53          6             0       22.843639   -1.033291   -0.464217
   54          7             0       21.511426   -1.268875   -0.280347
   55          6             0       23.444711    0.207362   -0.535397
   56          6             0       22.755425    1.386013   -0.332845
   57          6             0       23.389034    2.673374   -0.306726
   58          6             0       22.431742    3.568229    0.021113
   59          6             0       21.212770    2.827118    0.173148
   60          7             0       21.423051    1.497067   -0.054927
   61          6             0       20.006345    3.409697    0.503651
   62          6             0       18.818385    2.709387    0.554819
   63          7             0       18.655252    1.376929    0.284048
   64          1             0       17.427677    4.362503    1.081243
   65          1             0       15.555115    2.434925    0.824828
   66          1             0       15.678152   -2.661911   -0.280436
   67          1             0       17.650237   -4.504692   -0.340954
   68          1             0       20.233758   -4.407445   -0.244196
   69          1             0       22.818536   -4.321673   -0.438314
   70          1             0       24.630652   -2.336683   -0.703980
   71          1             0       24.506833    0.256134   -0.719874
   72          1             0       24.430391    2.840445   -0.503430
   73          1             0       22.515328    4.630397    0.147126
   74          1             0       19.984210    4.470576    0.700862
 --------------------------------------------------------------------
     1 basis functions        1 primitive gaussians
     1 alpha electrons        1 beta electrons

 Harmonic frequencies (cm**-1), IR intensities (km*mol⁻¹),
 Raman scattering activities (A**4/amu), Raman depolarization ratios,
 reduced masses (AMU), force constants (mDyne/A) and normal coordinates:
                      1                      2                      3
                        a                      a                      a 
 Frequencies --    -5.6347                 5.4688                 9.3285
 Red. masses --    11.4755                11.3185                11.2496
 Frc consts  --     0.0000                 0.0000                 0.0000
 IR Inten    --    10.5037                 2.5447                 0.3050
 Raman Activ --     0.0000                 0.0000                 0.0000
 Depolar     --     0.0000                 0.0000                 0.0000
 Atom AN      X      Y      Z        X      Y      Z        X      Y      Z
   1  28    -0.00  -0.00   0.05     0.01   0.01  -0.03     0.00   0.00  -0.02
   2   6     0.05   0.08   0.26    -0.04  -0.02   0.02    -0.02   0.00   0.12
   3   6     0.03   0.08   0.19    -0.03  -0.03   0.04    -0.01  -0.01   0.07
   4   6     0.02   0.06   0.11    -0.01  -0.03   0.04    -0.01  -0.01   0.04
   5   6    -0.00   0.06   0.07     0.01  -0.03   0.06     0.00  -0.02   0.00
   6   6    -0.02   0.05   0.09     0.02  -0.02   0.07     0.01  -0.02  -0.04
   7   6    -0.04   0.08   0.14     0.04  -0.02   0.10     0.02  -0.04  -0.08
   8   6    -0.05   0.07   0.19     0.05  -0.01   0.11     0.03  -0.04  -0.15
   9   6    -0.04   0.04   0.15     0.04  -0.00   0.07     0.02  -0.02  -0.14
  10   7    -0.03   0.03   0.10     0.03  -0.01   0.05     0.01  -0.02  -0.08
  11   6    -0.06   0.01   0.14     0.05   0.01   0.05     0.03  -0.02  -0.21
  12   6    -0.05  -0.02   0.02     0.04   0.02   0.00     0.02  -0.00  -0.19
  13   6    -0.07  -0.06  -0.08     0.04   0.03  -0.03     0.03   0.01  -0.24
  14   6    -0.06  -0.09  -0.24     0.03   0.04  -0.09     0.02   0.02  -0.18
  15   6    -0.03  -0.07  -0.22     0.02   0.03  -0.09     0.01   0.02  -0.08
  16   7    -0.03  -0.04  -0.07     0.02   0.02  -0.04     0.01   0.01  -0.10
  17   6     0.00  -0.09  -0.30     0.01   0.03  -0.14     0.00   0.03   0.01
  18   6     0.03  -0.07  -0.20    -0.00   0.03  -0.13    -0.01   0.02   0.09
  19   6     0.06  -0.09  -0.21    -0.02   0.03  -0.17    -0.02   0.03   0.18
  20   6     0.07  -0.06  -0.03    -0.03   0.02  -0.13    -0.03   0.03   0.22
  21   6     0.05  -0.02   0.06    -0.02   0.01  -0.08    -0.02   0.02   0.16
  22   7     0.03  -0.04  -0.05    -0.01   0.02  -0.08    -0.01   0.02   0.09
  23   6     0.05   0.02   0.19    -0.04   0.00  -0.04    -0.02   0.02   0.16
  24   6     0.04   0.04   0.20    -0.03  -0.01  -0.00    -0.02   0.01   0.11
  25   7     0.02   0.04   0.12    -0.01  -0.01   0.01    -0.01  -0.00   0.06
  26   1     0.02   0.03   0.10    -0.02  -0.01   0.01    -0.01   0.00   0.04
  27   1     0.01   0.03   0.06    -0.01  -0.01   0.02    -0.00  -0.00   0.02
  28   1    -0.01   0.03   0.04     0.01  -0.01   0.04     0.01  -0.01  -0.02
  29   1    -0.02   0.02   0.07     0.02  -0.00   0.04     0.01  -0.01  -0.06
  30   1    -0.02   0.01   0.06     0.02   0.00   0.02     0.01  -0.01  -0.08
  31   1    -0.03  -0.02  -0.01     0.02   0.01  -0.00     0.01   0.00  -0.09
  32   1    -0.02  -0.03  -0.10     0.01   0.01  -0.04     0.01   0.01  -0.06
  33   1     0.00  -0.03  -0.12     0.00   0.01  -0.05     0.00   0.01   0.01
  34   1     0.02  -0.03  -0.09    -0.00   0.01  -0.06    -0.01   0.01   0.06
  35   1     0.03  -0.02   0.01    -0.01   0.01  -0.04    -0.01   0.01   0.08
  36   1     0.02   0.01   0.08    -0.01   0.00  -0.01    -0.01   0.01   0.06
  37   6    -0.00   0.07   0.04     0.00  -0.04   0.09     0.00  -0.03   0.01
  38   6    -0.00   0.07   0.02     0.00  -0.05   0.11     0.00  -0.03   0.02
  39  28     0.00  -0.01  -0.06    -0.01  -0.00   0.02    -0.00   0.00   0.01
  40   6     0.06   0.04  -0.01    -0.01  -0.04   0.15    -0.02  -0.05   0.18
  41   6     0.04   0.05   0.00    -0.00  -0.05   0.14    -0.01  -0.05   0.11
  42   6     0.02   0.04  -0.01    -0.00  -0.03   0.10    -0.01  -0.03   0.06
  43   6    -0.00   0.05  -0.01     0.00  -0.04   0.11     0.00  -0.02   0.02
  44   6    -0.02   0.04  -0.04     0.02  -0.04   0.14     0.01  -0.02  -0.01
  45   6    -0.05   0.06  -0.07     0.03  -0.06   0.23     0.01  -0.02  -0.03
  46   6    -0.06   0.04  -0.10     0.05  -0.05   0.27     0.02  -0.01  -0.08
  47   6    -0.05   0.02  -0.09     0.04  -0.02   0.19     0.01  -0.00  -0.08
  48   7    -0.03   0.02  -0.06     0.02  -0.02   0.13     0.01  -0.01  -0.04
  49   6    -0.06  -0.01  -0.10     0.05  -0.00   0.15     0.02   0.01  -0.15
  50   6    -0.05  -0.03  -0.06     0.03   0.02   0.02     0.01   0.02  -0.16
  51   6    -0.06  -0.05  -0.05     0.03   0.04  -0.08     0.01   0.04  -0.25
  52   6    -0.04  -0.07  -0.01    -0.01   0.06  -0.22    -0.00   0.05  -0.23
  53   6    -0.01  -0.05  -0.00    -0.03   0.05  -0.20    -0.01   0.04  -0.13
  54   7    -0.02  -0.03  -0.03    -0.00   0.03  -0.07    -0.00   0.03  -0.11
  55   6     0.01  -0.07   0.02    -0.06   0.06  -0.29    -0.02   0.05  -0.07
  56   6     0.03  -0.05   0.01    -0.06   0.04  -0.22    -0.02   0.03   0.04
  57   6     0.05  -0.06   0.02    -0.08   0.05  -0.25    -0.02   0.03   0.13
  58   6     0.07  -0.05   0.00    -0.06   0.03  -0.13    -0.01   0.00   0.22
  59   6     0.05  -0.02  -0.01    -0.03   0.01  -0.04    -0.01  -0.01   0.18
  60   7     0.03  -0.03  -0.01    -0.04   0.02  -0.10    -0.01   0.01   0.08
  61   6     0.06  -0.00  -0.02    -0.02  -0.01   0.06    -0.01  -0.03   0.22
  62   6     0.05   0.02  -0.02    -0.01  -0.03   0.10    -0.01  -0.04   0.16
  63   7     0.03   0.02  -0.02    -0.01  -0.02   0.08    -0.01  -0.02   0.09
  64   1     0.02   0.01  -0.00    -0.00  -0.02   0.05    -0.01  -0.02   0.07
  65   1     0.01   0.02   0.00    -0.00  -0.02   0.05    -0.00  -0.02   0.03
  66   1    -0.01   0.02  -0.02     0.01  -0.02   0.08     0.00  -0.01  -0.00
  67   1    -0.02   0.01  -0.04     0.02  -0.02   0.10     0.01  -0.00  -0.03
  68   1    -0.02  -0.00  -0.04     0.02  -0.00   0.06     0.01   0.00  -0.06
  69   1    -0.02  -0.02  -0.02     0.01   0.01  -0.01     0.00   0.01  -0.09
  70   1    -0.01  -0.02   0.00    -0.01   0.02  -0.09    -0.00   0.02  -0.08
  71   1     0.01  -0.02   0.01    -0.02   0.02  -0.12    -0.01   0.02  -0.03
  72   1     0.02  -0.02   0.01    -0.03   0.02  -0.10    -0.01   0.01   0.04
  73   1     0.02  -0.01   0.00    -0.02   0.01  -0.03    -0.00  -0.00   0.09
  74   1     0.02  -0.00  -0.01    -0.01  -0.01   0.03    -0.00  -0.01   0.08
                      4                      5                      6
                        a                      a                      a 
 Frequencies --    20.9716                27.2172                29.0280
 Red. masses --    11.5417                10.9882                11.1907
 Frc consts  --     0.0000                 0.0000                 0.0000
 IR Inten    --     1.1793                 3.1920                 0.2230
 Raman Activ --     0.0000                 0.0000                 0.0000
 Depolar     --     0.0000                 0.0000                 0.0000
 Atom AN      X      Y      Z        X      Y      Z        X      Y      Z
   1  28     0.00   0.01   0.06     0.00   0.00   0.01     0.01  -0.02   0.02
   2   6    -0.10  -0.06   0.09    -0.01   0.04   0.20    -0.05  -0.03   0.13
   3   6    -0.07  -0.10   0.01    -0.01   0.03   0.12    -0.05  -0.02   0.25
   4   6    -0.03  -0.08  -0.01    -0.00   0.01   0.01    -0.02  -0.02   0.20
   5   6     0.00  -0.11  -0.03    -0.00  -0.01  -0.12    -0.00  -0.03   0.20
   6   6     0.03  -0.08   0.00    -0.01  -0.02  -0.16     0.02  -0.04   0.07
   7   6     0.07  -0.09   0.03    -0.02  -0.04  -0.25     0.03  -0.07  -0.01
   8   6     0.10  -0.06   0.11    -0.01  -0.02  -0.16     0.04  -0.07  -0.15
   9   6     0.08  -0.02   0.12    -0.00  -0.00  -0.03     0.03  -0.05  -0.12
  10   7     0.04  -0.04   0.05    -0.00  -0.01  -0.05     0.02  -0.03   0.00
  11   6     0.11   0.02   0.15     0.00   0.01   0.11     0.04  -0.03  -0.15
  12   6     0.08   0.05   0.07     0.01   0.01   0.17     0.04  -0.00  -0.06
  13   6     0.10   0.08   0.02     0.01   0.02   0.26     0.05   0.02   0.01
  14   6     0.07   0.10  -0.10     0.01   0.01   0.17     0.04   0.04   0.11
  15   6     0.04   0.08  -0.10     0.00   0.00   0.05     0.02   0.03   0.09
  16   7     0.05   0.05  -0.00     0.01   0.01   0.07     0.03   0.00   0.01
  17   6     0.00   0.10  -0.16     0.01  -0.00  -0.08     0.01   0.03   0.08
  18   6    -0.03   0.08  -0.09     0.01  -0.00  -0.12    -0.01   0.02  -0.03
  19   6    -0.07   0.10  -0.07     0.01  -0.01  -0.18    -0.02   0.03  -0.14
  20   6    -0.10   0.08   0.05     0.01  -0.00  -0.10    -0.03   0.01  -0.24
  21   6    -0.08   0.05   0.09     0.00   0.01  -0.00    -0.02  -0.01  -0.17
  22   7    -0.04   0.05   0.01     0.00   0.00  -0.03    -0.01   0.00  -0.06
  23   6    -0.10   0.02   0.15    -0.00   0.02   0.11    -0.03  -0.02  -0.14
  24   6    -0.08  -0.02   0.11    -0.01   0.02   0.14    -0.03  -0.02   0.01
  25   7    -0.04  -0.04   0.05    -0.00   0.01   0.03    -0.02  -0.02   0.07
  26   1    -0.04  -0.02   0.04    -0.00   0.02   0.09    -0.02  -0.01   0.03
  27   1    -0.02  -0.04  -0.01    -0.00   0.01   0.04    -0.02  -0.01   0.11
  28   1     0.02  -0.04  -0.00    -0.01  -0.01  -0.10     0.01  -0.03   0.01
  29   1     0.04  -0.01   0.05    -0.00  -0.01  -0.05     0.02  -0.03  -0.07
  30   1     0.04   0.01   0.06     0.00   0.00   0.05     0.02  -0.01  -0.07
  31   1     0.04   0.02   0.02     0.00   0.01   0.10     0.02   0.01  -0.01
  32   1     0.02   0.04  -0.05     0.00   0.00   0.06     0.01   0.02   0.05
  33   1     0.00   0.04  -0.07     0.00  -0.00  -0.03     0.00   0.01   0.04
  34   1    -0.02   0.04  -0.04     0.00  -0.00  -0.08    -0.01   0.01  -0.04
  35   1    -0.04   0.03   0.03     0.00  -0.00  -0.03    -0.01   0.00  -0.10
  36   1    -0.04   0.01   0.06    -0.00   0.01   0.05    -0.01  -0.01  -0.06
  37   6     0.00  -0.14  -0.05    -0.00  -0.02  -0.15    -0.01  -0.03   0.25
  38   6     0.00  -0.14  -0.05    -0.00  -0.02  -0.15    -0.01  -0.02   0.25
  39  28    -0.01   0.00  -0.06     0.00  -0.00  -0.00    -0.01   0.03  -0.02
  40   6    -0.11  -0.08  -0.05    -0.04   0.01  -0.17    -0.01   0.06  -0.13
  41   6    -0.08  -0.12  -0.02    -0.04   0.02  -0.25    -0.00   0.03   0.02
  42   6    -0.04  -0.09  -0.03    -0.02   0.01  -0.16    -0.00   0.01   0.08
  43   6    -0.00  -0.11  -0.04    -0.00  -0.01  -0.11    -0.01  -0.01   0.18
  44   6     0.04  -0.08  -0.07     0.01  -0.02   0.01    -0.01  -0.00   0.13
  45   6     0.07  -0.10  -0.12     0.02  -0.04   0.13    -0.02   0.00   0.13
  46   6     0.10  -0.07  -0.15     0.03  -0.03   0.20    -0.02   0.01  -0.03
  47   6     0.08  -0.03  -0.11     0.02  -0.02   0.13    -0.02   0.01  -0.10
  48   7     0.04  -0.04  -0.07     0.01  -0.01   0.03    -0.01   0.01   0.00
  49   6     0.10   0.01  -0.08     0.03  -0.00   0.09    -0.02   0.01  -0.22
  50   6     0.08   0.04   0.00     0.01   0.01  -0.02    -0.02   0.01  -0.17
  51   6     0.11   0.08   0.08     0.01   0.02  -0.11    -0.02   0.00  -0.18
  52   6     0.09   0.10   0.16    -0.01   0.02  -0.17     0.00   0.00  -0.03
  53   6     0.05   0.08   0.12    -0.01   0.02  -0.10     0.01   0.00   0.05
  54   7     0.05   0.05   0.03     0.00   0.01  -0.03    -0.00   0.01  -0.04
  55   6     0.02   0.10   0.14    -0.01   0.02  -0.05     0.04  -0.00   0.16
  56   6    -0.03   0.08   0.06     0.00   0.01   0.07     0.03   0.00   0.11
  57   6    -0.07   0.11   0.03     0.02  -0.00   0.19     0.03  -0.00   0.11
  58   6    -0.12   0.09  -0.05     0.02  -0.02   0.25     0.01   0.02  -0.04
  59   6    -0.10   0.05  -0.07     0.01  -0.02   0.15    -0.01   0.03  -0.09
  60   7    -0.05   0.05  -0.01     0.00  -0.00   0.07     0.01   0.02  -0.00
  61   6    -0.13   0.02  -0.10    -0.01  -0.02   0.09    -0.02   0.05  -0.19
  62   6    -0.10  -0.03  -0.07    -0.02  -0.00  -0.05    -0.01   0.05  -0.13
  63   7    -0.05  -0.05  -0.05    -0.01  -0.00  -0.06    -0.01   0.02  -0.01
  64   1    -0.04  -0.02  -0.02    -0.02   0.00  -0.06    -0.00   0.02  -0.06
  65   1    -0.02  -0.05   0.00    -0.01   0.01  -0.10     0.00   0.01   0.02
  66   1     0.02  -0.04  -0.04     0.01  -0.02   0.04    -0.01   0.00   0.07
  67   1     0.04  -0.02  -0.05     0.01  -0.01   0.08    -0.01   0.00  -0.02
  68   1     0.04   0.00  -0.03     0.01  -0.00   0.04    -0.01   0.00  -0.09
  69   1     0.04   0.02   0.02     0.00   0.01  -0.04    -0.01   0.00  -0.08
  70   1     0.03   0.04   0.07    -0.01   0.01  -0.07     0.00   0.00   0.01
  71   1     0.01   0.04   0.06    -0.00   0.01  -0.02     0.01  -0.00   0.07
  72   1    -0.02   0.04   0.02     0.01   0.00   0.06     0.02  -0.00   0.06
  73   1    -0.05   0.03  -0.03     0.01  -0.01   0.10    -0.00   0.01  -0.03
  74   1    -0.05   0.01  -0.04    -0.00  -0.01   0.04    -0.01   0.02  -0.08
                      7                      8                      9
                        a                      a                      a 
 Frequencies --    36.6090                58.8261                68.4981
 Red. masses --    11.1925                13.3075                13.9700
 Frc consts  --     0.0000                 0.0000                 0.0000
 IR Inten    --     1.2403                 0.3203                 7.7774
 Raman Activ --     0.0000                 0.0000                 0.0000
 Depolar     --     0.0000                 0.0000                 0.0000
 Atom AN      X      Y      Z        X      Y      Z        X      Y      Z
   1  28     0.04   0.01  -0.02    -0.00   0.14   0.01    -0.03   0.01   0.17
   2   6     0.02   0.06   0.22     0.10   0.14   0.00    -0.04  -0.02   0.05
   3   6     0.02   0.06   0.20     0.07   0.18   0.04    -0.04  -0.02   0.16
   4   6     0.01   0.04   0.08     0.03   0.16   0.03    -0.02  -0.01   0.17
   5   6     0.00   0.02  -0.02     0.00   0.17   0.03    -0.01  -0.01   0.18
   6   6     0.00   0.00  -0.11    -0.03   0.16   0.03    -0.00  -0.01   0.18
   7   6    -0.00  -0.01  -0.21    -0.07   0.18   0.04     0.01  -0.02   0.17
   8   6    -0.01  -0.02  -0.24    -0.11   0.14   0.00     0.01  -0.02   0.07
   9   6    -0.00  -0.00  -0.14    -0.09   0.10  -0.02     0.00  -0.02   0.02
  10   7     0.00   0.01  -0.08    -0.04   0.12   0.01    -0.00  -0.01   0.12
  11   6     0.00  -0.00  -0.07    -0.11   0.05  -0.06     0.00  -0.02  -0.14
  12   6     0.01   0.00   0.05    -0.09   0.02  -0.05    -0.01  -0.00  -0.14
  13   6     0.01   0.00   0.15    -0.12  -0.03  -0.05    -0.00   0.00  -0.21
  14   6     0.02  -0.00   0.18    -0.08  -0.05   0.01    -0.00   0.02  -0.06
  15   6     0.02  -0.00   0.09    -0.04  -0.03   0.04    -0.01   0.02   0.07
  16   7     0.02   0.00   0.03    -0.05   0.01  -0.00    -0.01   0.01   0.01
  17   6     0.03  -0.01   0.03    -0.00  -0.05   0.07    -0.02   0.03   0.15
  18   6     0.03  -0.01  -0.06     0.04  -0.03   0.04    -0.02   0.02   0.08
  19   6     0.04  -0.02  -0.15     0.08  -0.06   0.01    -0.02   0.02  -0.04
  20   6     0.05  -0.01  -0.15     0.11  -0.03  -0.05    -0.02   0.01  -0.20
  21   6     0.04  -0.00  -0.06     0.09   0.01  -0.05    -0.02   0.00  -0.14
  22   7     0.03  -0.00  -0.03     0.05   0.01   0.00    -0.02   0.01   0.01
  23   6     0.03   0.01   0.04     0.11   0.05  -0.06    -0.02  -0.01  -0.16
  24   6     0.02   0.03   0.11     0.08   0.10  -0.02    -0.03  -0.01  -0.00
  25   7     0.02   0.02   0.05     0.04   0.12   0.01    -0.02  -0.00   0.10
  26   1     0.01   0.02   0.08     0.04   0.04  -0.00    -0.02  -0.01  -0.00
  27   1     0.00   0.02   0.07     0.02   0.06   0.02    -0.01  -0.01   0.06
  28   1    -0.00  -0.01  -0.07    -0.02   0.06   0.02     0.00  -0.00   0.06
  29   1    -0.00  -0.01  -0.09    -0.04   0.04  -0.00     0.01  -0.01   0.01
  30   1    -0.00  -0.00  -0.03    -0.04   0.01  -0.03     0.00  -0.01  -0.07
  31   1     0.00   0.00   0.06    -0.04  -0.01  -0.02     0.00  -0.00  -0.10
  32   1     0.01  -0.00   0.07    -0.03  -0.03   0.01    -0.00   0.01  -0.01
  33   1     0.01  -0.00   0.01    -0.00  -0.02   0.03    -0.00   0.01   0.06
  34   1     0.01  -0.01  -0.06     0.02  -0.03   0.01    -0.01   0.01  -0.00
  35   1     0.02  -0.00  -0.06     0.04  -0.01  -0.02    -0.01  -0.00  -0.10
  36   1     0.01   0.00   0.02     0.04   0.01  -0.03    -0.01  -0.01  -0.08
  37   6     0.00   0.02  -0.03     0.00   0.13   0.01    -0.01  -0.03   0.09
  38   6     0.00   0.01  -0.04     0.00  -0.14   0.00    -0.00  -0.02  -0.10
  39  28    -0.04  -0.02   0.02     0.00  -0.14  -0.00     0.02   0.02  -0.17
  40   6     0.01  -0.07   0.27    -0.11  -0.14  -0.04    -0.01  -0.02  -0.07
  41   6     0.01  -0.05   0.21    -0.07  -0.18  -0.01    -0.01  -0.01  -0.17
  42   6    -0.00  -0.02   0.09    -0.03  -0.16   0.00    -0.00  -0.00  -0.19
  43   6    -0.00  -0.00  -0.03     0.00  -0.18   0.02    -0.00  -0.00  -0.19
  44   6    -0.01   0.01  -0.12     0.03  -0.16   0.04     0.01  -0.00  -0.18
  45   6    -0.01   0.02  -0.23     0.08  -0.19   0.06     0.03  -0.01  -0.16
  46   6    -0.02   0.02  -0.22     0.11  -0.15   0.04     0.04  -0.01  -0.03
  47   6    -0.02  -0.00  -0.09     0.09  -0.10  -0.00     0.03   0.00   0.02
  48   7    -0.01  -0.00  -0.06     0.04  -0.12   0.01     0.01   0.01  -0.10
  49   6    -0.02  -0.01   0.02     0.11  -0.06  -0.05     0.04   0.01   0.17
  50   6    -0.01  -0.00   0.10     0.09  -0.02  -0.05     0.04   0.02   0.15
  51   6     0.00  -0.00   0.19     0.11   0.03  -0.06     0.05   0.02   0.20
  52   6    -0.00  -0.00   0.15     0.08   0.06  -0.00     0.02   0.02   0.03
  53   6    -0.02  -0.00   0.04     0.04   0.03   0.03     0.00   0.02  -0.08
  54   7    -0.02  -0.00   0.04     0.05  -0.01  -0.01     0.02   0.02  -0.01
  55   6    -0.04   0.00  -0.07     0.01   0.05   0.07    -0.01   0.03  -0.16
  56   6    -0.05   0.01  -0.13    -0.03   0.03   0.05    -0.00   0.02  -0.07
  57   6    -0.07   0.02  -0.22    -0.08   0.05   0.04     0.01   0.01   0.05
  58   6    -0.06   0.01  -0.15    -0.12   0.03  -0.02     0.03  -0.02   0.21
  59   6    -0.03  -0.01  -0.02    -0.10  -0.01  -0.03     0.03  -0.02   0.14
  60   7    -0.04  -0.00  -0.03    -0.05  -0.01   0.00     0.01   0.00  -0.02
  61   6    -0.01  -0.03   0.12    -0.12  -0.05  -0.06     0.02  -0.04   0.15
  62   6     0.00  -0.04   0.18    -0.09  -0.10  -0.04     0.00  -0.03  -0.01
  63   7    -0.00  -0.02   0.09    -0.04  -0.12  -0.01     0.00  -0.01  -0.12
  64   1     0.00  -0.03   0.10    -0.04  -0.04  -0.02    -0.00  -0.01  -0.01
  65   1     0.00  -0.02   0.07    -0.02  -0.06   0.00    -0.00   0.00  -0.07
  66   1    -0.00   0.01  -0.09     0.02  -0.07   0.03     0.01  -0.01  -0.06
  67   1    -0.01   0.01  -0.08     0.04  -0.04   0.01     0.01  -0.00   0.01
  68   1    -0.00  -0.00   0.01     0.04  -0.02  -0.02     0.02   0.00   0.09
  69   1     0.00   0.00   0.08     0.04   0.01  -0.03     0.02   0.01   0.10
  70   1     0.00   0.00   0.05     0.03   0.03   0.00     0.00   0.01   0.00
  71   1    -0.01   0.00  -0.03     0.00   0.03   0.03    -0.01   0.01  -0.06
  72   1    -0.03   0.01  -0.09    -0.02   0.02   0.02     0.00   0.01   0.01
  73   1    -0.02   0.00  -0.05    -0.05   0.01  -0.01     0.01  -0.01   0.10
  74   1     0.00  -0.01   0.05    -0.05  -0.01  -0.03     0.01  -0.02   0.07
                     10                     11                     12
                        a                      a                      a 
 Frequencies --    84.7367                99.2685               103.2548
 Red. masses --    18.9511                29.5311                26.9614
 Frc consts  --     0.0000                 0.0000                 0.0000
 IR Inten    --     0.1551                 3.7948                 0.6443
 Raman Activ --     0.0000                 0.0000                 0.0000
 Depolar     --     0.0000                 0.0000                 0.0000
 Atom AN      X      Y      Z        X      Y      Z        X      Y      Z
   1  28     0.27   0.01   0.04     0.04  -0.05  -0.45    -0.03  -0.04  -0.40
   2   6     0.13  -0.02  -0.03    -0.00   0.03   0.17    -0.04   0.03   0.20
   3   6     0.10   0.01   0.01    -0.01   0.03   0.16    -0.03   0.02   0.20
   4   6     0.06  -0.01   0.02    -0.00   0.00  -0.01    -0.01  -0.00   0.01
   5   6     0.02   0.00   0.01    -0.00  -0.00  -0.01     0.00  -0.01  -0.00
   6   6     0.06   0.02   0.01     0.01   0.01  -0.01     0.00  -0.01   0.01
   7   6     0.10  -0.00   0.02     0.03   0.03   0.16     0.01   0.02   0.18
   8   6     0.13   0.02   0.04     0.04   0.04   0.17     0.01   0.02   0.20
   9   6     0.11   0.05   0.04     0.02   0.02   0.00     0.00  -0.01   0.03
  10   7     0.08   0.05   0.03     0.01  -0.00  -0.11    -0.00  -0.02  -0.08
  11   6     0.12   0.06   0.02     0.02   0.01   0.01    -0.00  -0.01   0.00
  12   6     0.13   0.03  -0.01     0.03  -0.00  -0.02    -0.01  -0.01  -0.05
  13   6     0.12   0.01  -0.06     0.03   0.00   0.14     0.00   0.00   0.07
  14   6     0.13  -0.01  -0.06     0.03   0.00   0.15    -0.00   0.01   0.12
  15   6     0.15   0.00  -0.01     0.03  -0.01   0.00    -0.01   0.00   0.02
  16   7     0.16   0.03   0.00     0.03  -0.01  -0.11    -0.02  -0.01  -0.10
  17   6     0.16   0.00   0.02     0.02  -0.00   0.03    -0.02   0.01   0.08
  18   6     0.15  -0.00   0.03     0.02  -0.01   0.01    -0.03   0.01   0.03
  19   6     0.14   0.01   0.04     0.00   0.00   0.17    -0.04   0.01   0.15
  20   6     0.12  -0.01   0.00    -0.00  -0.00   0.15    -0.03   0.01   0.08
  21   6     0.13  -0.03  -0.01     0.01  -0.01  -0.02    -0.02  -0.00  -0.06
  22   7     0.16  -0.02   0.01     0.02  -0.02  -0.11    -0.02  -0.00  -0.11
  23   6     0.12  -0.06  -0.04     0.01  -0.01   0.00    -0.02   0.01  -0.03
  24   6     0.11  -0.05  -0.03     0.01  -0.01  -0.01    -0.02   0.01   0.01
  25   7     0.08  -0.04   0.00     0.00  -0.02  -0.11    -0.01  -0.01  -0.09
  26   1     0.04  -0.01  -0.01    -0.00   0.01   0.08    -0.02   0.01   0.09
  27   1     0.03   0.01   0.01    -0.01   0.02   0.08    -0.01   0.01   0.09
  28   1     0.03  -0.01  -0.00     0.01   0.01   0.08     0.00   0.01   0.08
  29   1     0.04   0.01   0.01     0.01   0.02   0.08     0.00   0.01   0.10
  30   1     0.03   0.02   0.01     0.01   0.01   0.03     0.00  -0.00   0.02
  31   1     0.03   0.00  -0.02     0.01   0.00   0.07     0.00   0.00   0.04
  32   1     0.04  -0.01  -0.03     0.01   0.00   0.08     0.00   0.01   0.06
  33   1     0.05  -0.00   0.01     0.01   0.00   0.04    -0.01   0.01   0.06
  34   1     0.04   0.01   0.02    -0.00   0.00   0.08    -0.01   0.01   0.08
  35   1     0.03  -0.00  -0.00    -0.00   0.00   0.07    -0.01   0.00   0.04
  36   1     0.03  -0.02  -0.02     0.00  -0.00   0.02    -0.01   0.00   0.01
  37   6     0.00  -0.00  -0.00    -0.01  -0.00   0.04     0.01  -0.02   0.01
  38   6    -0.00  -0.00  -0.02    -0.01  -0.00   0.04     0.01  -0.02  -0.02
  39  28    -0.27  -0.01   0.07    -0.07   0.05  -0.42     0.07  -0.04   0.42
  40   6    -0.14   0.04  -0.09     0.01  -0.04   0.14    -0.02   0.04  -0.21
  41   6    -0.11   0.01  -0.07     0.01  -0.04   0.14    -0.01   0.03  -0.18
  42   6    -0.07   0.02  -0.02    -0.01  -0.00  -0.01     0.01  -0.01  -0.01
  43   6    -0.02   0.00  -0.02    -0.01  -0.00  -0.01     0.01  -0.01   0.00
  44   6    -0.06  -0.01  -0.03    -0.02  -0.00  -0.01     0.02  -0.00  -0.01
  45   6    -0.10   0.01  -0.07    -0.03  -0.02   0.15     0.03   0.01  -0.21
  46   6    -0.12  -0.02  -0.03    -0.02  -0.02   0.15     0.03   0.01  -0.20
  47   6    -0.11  -0.05   0.02    -0.02  -0.00  -0.00     0.03  -0.00  -0.00
  48   7    -0.08  -0.05   0.02    -0.02   0.01  -0.11     0.02  -0.01   0.10
  49   6    -0.11  -0.06   0.04    -0.02   0.01   0.01     0.03  -0.00   0.04
  50   6    -0.13  -0.03   0.03    -0.02   0.01  -0.01     0.03  -0.00   0.06
  51   6    -0.13  -0.01  -0.02    -0.01   0.01   0.14     0.02   0.00  -0.10
  52   6    -0.15   0.00  -0.06    -0.00   0.00   0.15    -0.00   0.01  -0.17
  53   6    -0.16  -0.01  -0.02    -0.02   0.01   0.00     0.01   0.01  -0.04
  54   7    -0.16  -0.03   0.02    -0.03   0.01  -0.10     0.03  -0.00   0.11
  55   6    -0.17  -0.01  -0.01    -0.00   0.00   0.03    -0.01   0.01  -0.08
  56   6    -0.15  -0.00   0.03    -0.00   0.00   0.00    -0.00   0.00  -0.02
  57   6    -0.13  -0.01   0.04     0.02  -0.01   0.15    -0.02   0.02  -0.13
  58   6    -0.11   0.00   0.03     0.02  -0.01   0.14    -0.01   0.01  -0.08
  59   6    -0.13   0.02   0.02    -0.01   0.00  -0.01     0.01  -0.00   0.04
  60   7    -0.16   0.02   0.03    -0.03   0.02  -0.10     0.02  -0.01   0.11
  61   6    -0.12   0.06  -0.02    -0.01  -0.00   0.00     0.00   0.01  -0.01
  62   6    -0.12   0.06  -0.04    -0.01  -0.01  -0.01     0.00   0.01  -0.03
  63   7    -0.09   0.05  -0.01    -0.02   0.02  -0.11     0.02  -0.02   0.08
  64   1    -0.05   0.01  -0.04     0.01  -0.02   0.07    -0.01   0.02  -0.10
  65   1    -0.03  -0.01  -0.02     0.01  -0.02   0.07    -0.01   0.02  -0.08
  66   1    -0.03   0.01  -0.03    -0.01  -0.01   0.07     0.01   0.01  -0.10
  67   1    -0.04  -0.00  -0.01    -0.01  -0.01   0.08     0.01   0.01  -0.09
  68   1    -0.03  -0.02   0.01    -0.00   0.00   0.03     0.01  -0.00  -0.01
  69   1    -0.03  -0.00  -0.01    -0.00   0.00   0.07     0.00   0.00  -0.05
  70   1    -0.04   0.01  -0.03     0.00  -0.00   0.07    -0.01   0.01  -0.09
  71   1    -0.05  -0.00  -0.01     0.00  -0.00   0.03    -0.01   0.01  -0.06
  72   1    -0.04  -0.01   0.01     0.01  -0.01   0.08    -0.01   0.01  -0.07
  73   1    -0.03   0.00   0.01     0.01  -0.01   0.07    -0.01   0.01  -0.04
  74   1    -0.03   0.02  -0.01     0.00  -0.01   0.02    -0.00   0.01  -0.02
                     13                     14                     15
                        a                      a                      a 
 Frequencies --   114.2902               120.3402               126.0281
 Red. masses --    11.1002                10.5256                10.7272
 Frc consts  --     0.0000                 0.0000                 0.0000
 IR Inten    --     1.5036                 3.0337                 2.5451
 Raman Activ --     0.0000                 0.0000                 0.0000
 Depolar     --     0.0000                 0.0000                 0.0000
 Atom AN      X      Y      Z        X      Y      Z        X      Y      Z
   1  28    -0.00   0.02  -0.05    -0.00   0.00  -0.00     0.03  -0.01  -0.03
   2   6     0.03  -0.01  -0.20     0.01  -0.01  -0.04     0.01  -0.02  -0.02
   3   6     0.01   0.01  -0.06     0.02  -0.04  -0.21     0.02  -0.04  -0.21
   4   6     0.00   0.03   0.07     0.01  -0.02  -0.10     0.01  -0.03  -0.11
   5   6    -0.00   0.05   0.18     0.00   0.00   0.00     0.00  -0.00  -0.01
   6   6    -0.00   0.03   0.07     0.01   0.02   0.10     0.01   0.02   0.11
   7   6    -0.01   0.01  -0.07     0.01   0.04   0.21     0.02   0.04   0.24
   8   6    -0.03  -0.01  -0.20     0.00   0.01   0.02     0.02   0.02   0.09
   9   6    -0.02   0.00  -0.09    -0.01  -0.01  -0.13     0.01  -0.00  -0.10
  10   7    -0.01   0.02   0.01     0.00  -0.00  -0.05     0.01   0.00  -0.05
  11   6    -0.01   0.01   0.03    -0.01  -0.03  -0.24    -0.00  -0.02  -0.24
  12   6    -0.00   0.01   0.11    -0.01  -0.01  -0.11     0.01  -0.01  -0.14
  13   6    -0.00   0.01   0.21     0.00  -0.00   0.04     0.01  -0.00   0.01
  14   6    -0.01  -0.01   0.03     0.00   0.01   0.22     0.02   0.01   0.22
  15   6    -0.01  -0.01  -0.12    -0.00   0.00   0.10     0.02   0.00   0.12
  16   7    -0.00  -0.00  -0.04    -0.00  -0.01  -0.04     0.02  -0.00  -0.05
  17   6    -0.00  -0.02  -0.23    -0.00  -0.00  -0.01     0.02   0.00   0.02
  18   6     0.00  -0.01  -0.11     0.00  -0.00  -0.11     0.02  -0.00  -0.10
  19   6     0.00  -0.01   0.04     0.01  -0.01  -0.21     0.02  -0.01  -0.20
  20   6    -0.00   0.01   0.21     0.00   0.00  -0.03     0.01   0.00  -0.04
  21   6     0.00   0.01   0.11    -0.01   0.01   0.12     0.01   0.01   0.11
  22   7     0.00  -0.00  -0.04    -0.00   0.01   0.04     0.02   0.00   0.04
  23   6     0.01   0.01   0.02    -0.02   0.03   0.24    -0.01   0.01   0.24
  24   6     0.02   0.00  -0.10    -0.01   0.01   0.12     0.00   0.00   0.12
  25   7     0.01   0.02   0.01    -0.00   0.00   0.05     0.01  -0.01   0.04
  26   1     0.01  -0.01  -0.09     0.00  -0.00  -0.01     0.00  -0.00  -0.00
  27   1     0.00   0.00  -0.02     0.01  -0.02  -0.11     0.01  -0.02  -0.11
  28   1    -0.00   0.00  -0.02     0.01   0.02   0.11     0.01   0.02   0.11
  29   1    -0.01  -0.01  -0.09     0.00   0.00   0.01     0.01   0.01   0.03
  30   1    -0.00   0.00   0.01    -0.01  -0.01  -0.10    -0.00  -0.01  -0.10
  31   1    -0.00   0.00   0.11     0.00  -0.00   0.01     0.00  -0.00  -0.00
  32   1    -0.00  -0.00   0.01     0.00   0.01   0.11     0.01   0.00   0.11
  33   1     0.00  -0.01  -0.09    -0.00  -0.00  -0.00     0.01   0.00   0.01
  34   1     0.00  -0.00   0.01     0.00  -0.01  -0.11     0.01  -0.00  -0.10
  35   1    -0.00   0.00   0.11     0.00   0.00  -0.01     0.00   0.00  -0.01
  36   1     0.00   0.00   0.01    -0.01   0.01   0.10    -0.00   0.01   0.10
  37   6    -0.00   0.05   0.29     0.00  -0.00   0.01     0.00  -0.00  -0.01
  38   6    -0.00  -0.05   0.29     0.00  -0.01   0.01     0.00   0.01  -0.00
  39  28    -0.02  -0.02  -0.04    -0.00   0.02  -0.00    -0.03  -0.02   0.02
  40   6    -0.03   0.03  -0.20    -0.01  -0.01   0.03    -0.01   0.03  -0.09
  41   6    -0.02   0.01  -0.08     0.01  -0.06   0.21    -0.02   0.06  -0.24
  42   6    -0.00  -0.03   0.06     0.00  -0.03   0.10    -0.01   0.03  -0.11
  43   6    -0.00  -0.05   0.18     0.00  -0.01   0.00    -0.00   0.01   0.00
  44   6    -0.00  -0.03   0.07     0.01   0.01  -0.10    -0.01  -0.01   0.10
  45   6     0.01  -0.03  -0.06     0.02   0.02  -0.22    -0.02  -0.02   0.21
  46   6     0.02  -0.01  -0.20     0.02   0.01  -0.04    -0.02  -0.01   0.03
  47   6     0.02  -0.01  -0.10     0.01  -0.00   0.13    -0.02  -0.01  -0.12
  48   7     0.00  -0.02   0.01     0.01   0.00   0.05    -0.01  -0.01  -0.04
  49   6     0.03  -0.00   0.01     0.01  -0.01   0.25    -0.02  -0.00  -0.24
  50   6     0.02   0.01   0.10     0.00  -0.00   0.12    -0.02  -0.01  -0.11
  51   6     0.04   0.02   0.21    -0.02  -0.00  -0.03     0.01   0.00   0.04
  52   6     0.01   0.02   0.04    -0.04  -0.01  -0.21     0.02   0.01   0.20
  53   6    -0.01   0.01  -0.11    -0.03  -0.00  -0.11     0.00   0.00   0.10
  54   7    -0.00   0.01  -0.04    -0.01  -0.00   0.04    -0.02  -0.00  -0.03
  55   6    -0.04   0.02  -0.23    -0.00  -0.01  -0.01    -0.02   0.01  -0.01
  56   6    -0.02   0.01  -0.12     0.02  -0.01   0.10    -0.05   0.01  -0.10
  57   6     0.00  -0.01   0.03     0.05  -0.03   0.21    -0.07   0.02  -0.20
  58   6     0.03  -0.04   0.20     0.02  -0.00   0.04    -0.03  -0.00  -0.01
  59   6     0.02  -0.03   0.11    -0.01   0.02  -0.11     0.00  -0.02   0.13
  60   7    -0.01  -0.01  -0.04    -0.00   0.01  -0.04    -0.02  -0.01   0.05
  61   6     0.00  -0.02   0.03    -0.04   0.05  -0.24     0.02  -0.03   0.23
  62   6    -0.02   0.01  -0.09    -0.02   0.03  -0.13     0.01  -0.01   0.09
  63   7    -0.01  -0.02   0.02    -0.01   0.01  -0.05     0.00   0.00   0.04
  64   1    -0.01   0.02  -0.10    -0.00  -0.00   0.01    -0.00   0.01  -0.03
  65   1    -0.00   0.00  -0.03     0.01  -0.03   0.11    -0.01   0.03  -0.11
  66   1     0.00  -0.01  -0.02     0.01   0.01  -0.11    -0.01  -0.01   0.10
  67   1     0.01  -0.00  -0.10     0.01   0.00  -0.01    -0.01  -0.00   0.01
  68   1     0.01  -0.00   0.01     0.00  -0.00   0.10    -0.01  -0.00  -0.10
  69   1     0.02   0.01   0.11    -0.01  -0.00  -0.01     0.00   0.00   0.01
  70   1     0.00   0.01   0.01    -0.02  -0.00  -0.11     0.01   0.00   0.10
  71   1    -0.02   0.01  -0.09    -0.00  -0.00  -0.00    -0.01   0.00  -0.01
  72   1    -0.00  -0.00   0.00     0.03  -0.02   0.11    -0.03   0.01  -0.11
  73   1     0.02  -0.02   0.10     0.01  -0.00   0.01    -0.01  -0.00  -0.00
  74   1     0.00  -0.01   0.01    -0.02   0.02  -0.10     0.01  -0.01   0.09
                     16                     17                     18
                        a                      a                      a 
 Frequencies --   140.5098               177.0428               178.3918
 Red. masses --    11.1702                12.7036                12.4348
 Frc consts  --     0.0000                 0.0000                 0.0000
 IR Inten    --     2.4096                 0.0799                 0.0401
 Raman Activ --     0.0000                 0.0000                 0.0000
 Depolar     --     0.0000                 0.0000                 0.0000
 Atom AN      X      Y      Z        X      Y      Z        X      Y      Z
   1  28    -0.01   0.00   0.04     0.00  -0.01  -0.10    -0.00   0.01   0.04
   2   6    -0.01   0.04   0.16     0.14  -0.13   0.02    -0.07   0.07  -0.01
   3   6    -0.00   0.01  -0.05     0.14  -0.13   0.02    -0.07   0.07  -0.01
   4   6     0.00  -0.02  -0.18     0.12  -0.13   0.02    -0.06   0.07  -0.00
   5   6     0.01  -0.03  -0.26    -0.00  -0.07   0.02    -0.00   0.04   0.00
   6   6     0.00  -0.02  -0.19    -0.12  -0.13   0.02     0.06   0.07  -0.00
   7   6    -0.00   0.01  -0.07    -0.14  -0.13   0.02     0.07   0.07  -0.01
   8   6     0.00   0.03   0.15    -0.14  -0.13   0.02     0.07   0.07  -0.01
   9   6     0.01   0.01   0.10    -0.14  -0.12   0.02     0.07   0.07  -0.01
  10   7     0.01  -0.01  -0.08    -0.14  -0.14   0.02     0.07   0.08  -0.00
  11   6    -0.00   0.00   0.08    -0.08   0.00   0.01     0.04   0.00  -0.01
  12   6    -0.01  -0.01  -0.04    -0.14   0.13  -0.01     0.07  -0.06  -0.00
  13   6    -0.02  -0.01  -0.20    -0.14   0.14  -0.01     0.07  -0.07   0.01
  14   6    -0.01  -0.01  -0.08    -0.14   0.13  -0.01     0.07  -0.07   0.01
  15   6    -0.01   0.00   0.10    -0.12   0.14  -0.00     0.07  -0.07   0.00
  16   7    -0.01   0.00   0.09    -0.15   0.15  -0.01     0.08  -0.07  -0.00
  17   6    -0.01   0.01   0.20     0.00   0.07   0.01     0.00  -0.04  -0.00
  18   6    -0.01   0.00   0.11     0.13   0.13  -0.00    -0.06  -0.07  -0.00
  19   6     0.01  -0.01  -0.06     0.14   0.13  -0.00    -0.07  -0.07   0.01
  20   6     0.01  -0.01  -0.20     0.14   0.13  -0.01    -0.07  -0.07   0.01
  21   6     0.00  -0.00  -0.05     0.14   0.12  -0.00    -0.07  -0.06  -0.00
  22   7    -0.00   0.01   0.08     0.15   0.14  -0.01    -0.07  -0.07  -0.00
  23   6    -0.00   0.01   0.06     0.08  -0.00   0.02    -0.04  -0.00  -0.01
  24   6    -0.01   0.02   0.10     0.14  -0.12   0.03    -0.07   0.06  -0.01
  25   7    -0.00  -0.00  -0.09     0.14  -0.14   0.02    -0.07   0.07  -0.00
  26   1    -0.01   0.02   0.09     0.04  -0.04   0.01    -0.02   0.02  -0.00
  27   1     0.00   0.00  -0.03     0.04  -0.04   0.00    -0.02   0.02  -0.00
  28   1    -0.00   0.00  -0.04    -0.04  -0.04   0.00     0.02   0.02  -0.00
  29   1     0.00   0.02   0.09    -0.04  -0.04   0.01     0.02   0.02  -0.00
  30   1    -0.00   0.00   0.04     0.02   0.00   0.00    -0.01   0.00  -0.00
  31   1    -0.01  -0.01  -0.10    -0.04   0.04  -0.00     0.02  -0.02   0.00
  32   1    -0.00  -0.00  -0.04    -0.04   0.04  -0.00     0.02  -0.02   0.01
  33   1    -0.00   0.00   0.07     0.00  -0.02   0.01     0.00   0.01  -0.00
  34   1     0.00  -0.00  -0.03     0.04   0.04  -0.00    -0.02  -0.02   0.00
  35   1     0.01  -0.01  -0.10     0.04   0.04  -0.00    -0.02  -0.02   0.00
  36   1    -0.00   0.00   0.03    -0.02   0.00   0.00     0.01  -0.00  -0.00
  37   6     0.01  -0.02  -0.16    -0.00   0.04   0.00    -0.00  -0.02   0.01
  38   6     0.00  -0.02   0.15    -0.00  -0.02   0.00    -0.00  -0.03  -0.01
  39  28    -0.02   0.00  -0.04    -0.01  -0.00  -0.05    -0.01   0.01  -0.08
  40   6    -0.01   0.06  -0.14    -0.07   0.06   0.02    -0.14   0.13   0.03
  41   6     0.00   0.02   0.08    -0.07   0.06   0.02    -0.14   0.12   0.03
  42   6     0.00  -0.02   0.20    -0.06   0.06   0.03    -0.13   0.13   0.03
  43   6     0.00  -0.03   0.26    -0.00   0.03   0.01    -0.01   0.07   0.01
  44   6     0.00  -0.02   0.18     0.06   0.07   0.01     0.11   0.14  -0.00
  45   6     0.00  -0.01   0.04     0.07   0.07   0.00     0.13   0.14  -0.00
  46   6     0.01   0.01  -0.17     0.07   0.07   0.01     0.13   0.14   0.01
  47   6     0.01   0.00  -0.10     0.07   0.06   0.01     0.13   0.13   0.01
  48   7     0.00  -0.01   0.09     0.07   0.07   0.01     0.13   0.15  -0.00
  49   6     0.01   0.00  -0.06     0.04   0.00   0.00     0.08   0.01   0.01
  50   6     0.01   0.00   0.05     0.07  -0.06  -0.01     0.14  -0.11  -0.02
  51   6     0.03   0.01   0.19     0.07  -0.07  -0.01     0.14  -0.13  -0.03
  52   6     0.01   0.01   0.07     0.08  -0.06  -0.01     0.15  -0.13  -0.02
  53   6    -0.02   0.01  -0.11     0.07  -0.07  -0.01     0.14  -0.13  -0.02
  54   7    -0.01   0.01  -0.08     0.08  -0.07  -0.02     0.16  -0.13  -0.02
  55   6    -0.03   0.01  -0.20     0.00  -0.04   0.00     0.01  -0.07   0.00
  56   6    -0.01  -0.00  -0.10    -0.06  -0.07   0.00    -0.12  -0.14   0.01
  57   6     0.03  -0.03   0.08    -0.07  -0.07   0.01    -0.14  -0.14  -0.00
  58   6     0.06  -0.04   0.19    -0.07  -0.07   0.00    -0.13  -0.14   0.01
  59   6     0.02  -0.01   0.03    -0.07  -0.07  -0.00    -0.13  -0.13   0.01
  60   7    -0.01   0.00  -0.09    -0.07  -0.08  -0.00    -0.14  -0.15   0.01
  61   6     0.00   0.01  -0.08    -0.04  -0.01   0.01    -0.08  -0.01   0.02
  62   6    -0.01   0.03  -0.10    -0.07   0.06   0.02    -0.14   0.12   0.03
  63   7    -0.01  -0.00   0.09    -0.07   0.06   0.02    -0.15   0.13   0.03
  64   1    -0.00   0.03  -0.09    -0.02   0.02   0.00    -0.04   0.04   0.01
  65   1     0.00   0.00   0.04    -0.02   0.02   0.00    -0.04   0.03   0.01
  66   1     0.00  -0.00   0.02     0.02   0.02  -0.00     0.04   0.04  -0.00
  67   1     0.00   0.01  -0.10     0.02   0.02   0.00     0.04   0.04   0.01
  68   1     0.00   0.00  -0.03    -0.01  -0.00   0.00    -0.02   0.00   0.01
  69   1     0.02   0.00   0.10     0.02  -0.02  -0.00     0.04  -0.04  -0.01
  70   1     0.00   0.00   0.03     0.02  -0.02  -0.00     0.04  -0.04  -0.01
  71   1    -0.01   0.00  -0.07     0.00   0.01   0.00     0.00   0.02   0.00
  72   1     0.01  -0.01   0.04    -0.02  -0.02   0.00    -0.04  -0.04  -0.00
  73   1     0.03  -0.02   0.10    -0.02  -0.02   0.00    -0.04  -0.04   0.00
  74   1     0.00   0.01  -0.03     0.01  -0.00  -0.00     0.02  -0.00  -0.00
                     19                     20                     21
                        a                      a                      a 
 Frequencies --   188.3452               214.2086               225.6318
 Red. masses --    12.2909                14.8512                12.4182
 Frc consts  --     0.0000                 0.0000                 0.0000
 IR Inten    --     0.9399                 0.8851                 0.5709
 Raman Activ --     0.0000                 0.0000                 0.0000
 Depolar     --     0.0000                 0.0000                 0.0000
 Atom AN      X      Y      Z        X      Y      Z        X      Y      Z
   1  28    -0.02   0.00   0.01     0.00  -0.05  -0.17    -0.08   0.00  -0.00
   2   6    -0.02   0.05  -0.00     0.01   0.02   0.01     0.04  -0.02  -0.12
   3   6     0.05  -0.01   0.01     0.00   0.02  -0.05     0.02   0.01  -0.02
   4   6     0.13   0.03   0.01     0.00   0.01  -0.11    -0.01   0.03   0.15
   5   6     0.19  -0.00   0.01     0.01   0.02   0.04    -0.01   0.00   0.00
   6   6     0.13  -0.03   0.02     0.02   0.00  -0.11    -0.01  -0.03  -0.15
   7   6     0.05   0.01   0.01     0.01   0.02  -0.05     0.02  -0.01   0.02
   8   6    -0.02  -0.06  -0.01    -0.00   0.02   0.01     0.03   0.02   0.12
   9   6     0.02  -0.14   0.01     0.00  -0.01  -0.02     0.02  -0.00  -0.07
  10   7     0.12  -0.13   0.02     0.02  -0.03  -0.17    -0.01  -0.03  -0.25
  11   6    -0.01  -0.19   0.01     0.01  -0.01   0.15     0.02   0.00   0.05
  12   6    -0.03  -0.13   0.02     0.00  -0.01   0.11     0.02  -0.01  -0.05
  13   6     0.01  -0.05   0.02     0.00  -0.01  -0.09     0.03   0.01   0.15
  14   6    -0.06   0.02  -0.00    -0.01  -0.00  -0.13     0.01   0.01  -0.01
  15   6    -0.14  -0.03  -0.01    -0.01   0.00   0.09    -0.01  -0.01  -0.18
  16   7    -0.13  -0.12   0.00    -0.01  -0.00   0.18    -0.01  -0.03  -0.26
  17   6    -0.19   0.00  -0.01    -0.02   0.01   0.12    -0.02  -0.00   0.00
  18   6    -0.14   0.03  -0.00    -0.01   0.01   0.09    -0.01   0.01   0.18
  19   6    -0.06  -0.02   0.02     0.01  -0.00  -0.13     0.02  -0.01   0.01
  20   6     0.01   0.05  -0.00     0.01   0.00  -0.10     0.04  -0.01  -0.15
  21   6    -0.03   0.13  -0.02    -0.01   0.02   0.11     0.02   0.02   0.04
  22   7    -0.13   0.12  -0.02    -0.01   0.02   0.18    -0.01   0.03   0.26
  23   6    -0.00   0.18  -0.03    -0.01   0.02   0.14     0.02  -0.00  -0.05
  24   6     0.02   0.14  -0.01     0.00   0.01  -0.02     0.01   0.00   0.07
  25   7     0.12   0.13  -0.00     0.01  -0.01  -0.17    -0.01   0.03   0.26
  26   1    -0.03   0.01  -0.00     0.00   0.01   0.02     0.02  -0.01  -0.09
  27   1     0.01  -0.03   0.00     0.00   0.01  -0.01     0.01   0.00  -0.04
  28   1     0.01   0.02   0.00     0.00   0.01  -0.01     0.01  -0.00   0.03
  29   1    -0.03  -0.01  -0.01    -0.00   0.01   0.02     0.02   0.01   0.09
  30   1    -0.00  -0.05   0.00     0.00   0.00   0.07     0.01   0.01   0.08
  31   1     0.02  -0.01   0.01     0.00  -0.00  -0.07     0.02   0.01   0.11
  32   1    -0.01   0.03  -0.00    -0.00   0.00  -0.09     0.01   0.01   0.02
  33   1    -0.05   0.00  -0.00    -0.00   0.00   0.02    -0.00  -0.00   0.00
  34   1    -0.01  -0.03   0.01     0.00  -0.00  -0.09     0.01  -0.01  -0.02
  35   1     0.02   0.01   0.00     0.00  -0.00  -0.07     0.02  -0.01  -0.11
  36   1     0.00   0.05  -0.01    -0.00   0.01   0.07     0.01  -0.01  -0.08
  37   6     0.19  -0.00  -0.02     0.01   0.05   0.34    -0.01  -0.00   0.00
  38   6     0.19   0.01  -0.03     0.01  -0.04   0.35    -0.01  -0.01   0.00
  39  28    -0.03   0.00  -0.04     0.01   0.04  -0.18    -0.06   0.03   0.01
  40   6    -0.03   0.06   0.01    -0.00  -0.02   0.00     0.03  -0.03   0.10
  41   6     0.04  -0.01   0.01     0.00  -0.02  -0.05     0.01   0.00   0.01
  42   6     0.13   0.04  -0.00     0.01   0.00  -0.10    -0.02   0.03  -0.14
  43   6     0.19   0.01  -0.02     0.01  -0.02   0.04    -0.01  -0.00  -0.00
  44   6     0.14  -0.02  -0.01    -0.01  -0.00  -0.11    -0.00  -0.02   0.14
  45   6     0.05   0.02   0.01    -0.00  -0.01  -0.05     0.01  -0.01  -0.01
  46   6    -0.02  -0.05   0.01     0.00  -0.01   0.02     0.02   0.00  -0.11
  47   6     0.03  -0.13  -0.01     0.00   0.00  -0.02     0.01  -0.00   0.06
  48   7     0.13  -0.12  -0.02    -0.00   0.01  -0.18     0.00  -0.02   0.23
  49   6     0.00  -0.18  -0.03     0.00  -0.00   0.14     0.01  -0.00  -0.05
  50   6    -0.03  -0.14  -0.02     0.00  -0.01   0.11     0.02  -0.01   0.04
  51   6     0.02  -0.05   0.00    -0.03  -0.01  -0.09    -0.00  -0.01  -0.14
  52   6    -0.05   0.01   0.03    -0.03  -0.01  -0.13     0.01   0.00   0.01
  53   6    -0.14  -0.03   0.01     0.00  -0.01   0.08     0.02  -0.00   0.17
  54   7    -0.12  -0.13  -0.01     0.02  -0.01   0.17     0.03  -0.01   0.24
  55   6    -0.19  -0.01   0.01     0.00  -0.01   0.12    -0.01  -0.00   0.01
  56   6    -0.15   0.02   0.01     0.00  -0.01   0.09    -0.03   0.01  -0.16
  57   6    -0.06  -0.03   0.01    -0.04   0.02  -0.13     0.01  -0.01  -0.02
  58   6     0.01   0.04   0.02    -0.03   0.02  -0.09     0.05  -0.03   0.12
  59   6    -0.04   0.13   0.02     0.01  -0.00   0.12     0.01   0.00  -0.04
  60   7    -0.14   0.11   0.02     0.02  -0.01   0.19    -0.04   0.03  -0.23
  61   6    -0.01   0.18   0.02     0.01  -0.01   0.14     0.02  -0.02   0.05
  62   6     0.01   0.14   0.01    -0.00  -0.00  -0.02     0.00   0.00  -0.07
  63   7     0.11   0.13   0.00     0.00   0.02  -0.16    -0.03   0.04  -0.24
  64   1    -0.03   0.01   0.01    -0.00  -0.01   0.02     0.01  -0.02   0.08
  65   1     0.01  -0.02   0.00     0.00  -0.01  -0.01     0.01  -0.00   0.03
  66   1     0.01   0.03   0.01    -0.00  -0.01  -0.01     0.01  -0.00  -0.03
  67   1    -0.03  -0.01   0.01     0.00  -0.01   0.03     0.01   0.00  -0.08
  68   1     0.00  -0.05  -0.01     0.00  -0.00   0.07    -0.00   0.00  -0.07
  69   1     0.03  -0.01   0.00    -0.01  -0.00  -0.06    -0.01  -0.00  -0.10
  70   1    -0.01   0.03   0.02    -0.02  -0.01  -0.09    -0.00   0.00  -0.02
  71   1    -0.05  -0.00   0.00    -0.00  -0.00   0.02    -0.00  -0.00   0.00
  72   1    -0.01  -0.03   0.00    -0.02   0.01  -0.09     0.01  -0.01   0.01
  73   1     0.02   0.01   0.01    -0.02   0.01  -0.07     0.03  -0.01   0.09
  74   1    -0.00   0.05   0.00     0.00  -0.01   0.06     0.01  -0.02   0.07
                     22                     23                     24
                        a                      a                      a 
 Frequencies --   226.2196               230.4031               231.3644
 Red. masses --    12.2819                15.9729                13.3283
 Frc consts  --     0.0000                 0.0000                 0.0000
 IR Inten    --     1.9005                 1.2612                 1.2645
 Raman Activ --     0.0000                 0.0000                 0.0000
 Depolar     --     0.0000                 0.0000                 0.0000
 Atom AN      X      Y      Z        X      Y      Z        X      Y      Z
   1  28     0.07  -0.00   0.01     0.01   0.04  -0.20     0.00   0.09  -0.13
   2   6    -0.03   0.01   0.10    -0.01  -0.00  -0.03    -0.01  -0.02  -0.02
   3   6    -0.02  -0.00   0.03     0.01  -0.04  -0.17     0.01  -0.05  -0.20
   4   6    -0.00  -0.03  -0.13     0.01   0.00   0.03    -0.00  -0.01   0.05
   5   6    -0.00   0.00  -0.00     0.01   0.01   0.07    -0.01  -0.01   0.03
   6   6    -0.01   0.03   0.12     0.01   0.00   0.04    -0.01  -0.00   0.05
   7   6    -0.02   0.01   0.00     0.00  -0.04  -0.17    -0.01  -0.05  -0.17
   8   6    -0.03  -0.01  -0.10     0.01  -0.01  -0.03     0.01  -0.02  -0.04
   9   6    -0.02   0.01   0.04     0.02   0.02   0.17     0.01   0.04   0.17
  10   7    -0.00   0.03   0.19     0.02   0.03   0.19    -0.00   0.04   0.23
  11   6    -0.02   0.02  -0.05     0.01   0.00   0.12    -0.00   0.03   0.09
  12   6    -0.02   0.03   0.06     0.00  -0.02  -0.07    -0.01   0.01  -0.11
  13   6    -0.04   0.00  -0.13    -0.00  -0.03  -0.07    -0.03  -0.02  -0.04
  14   6    -0.01  -0.01  -0.00     0.00  -0.02   0.04    -0.00  -0.03   0.07
  15   6     0.02   0.01   0.17     0.00  -0.02   0.02     0.01  -0.02  -0.02
  16   7     0.02   0.04   0.27    -0.00  -0.03  -0.11     0.01  -0.00  -0.18
  17   6     0.03   0.00  -0.01    -0.02  -0.01   0.15     0.01  -0.02   0.13
  18   6     0.02  -0.01  -0.17    -0.02  -0.02  -0.00     0.00  -0.03  -0.03
  19   6    -0.01   0.01  -0.01    -0.01  -0.02   0.03     0.00  -0.02   0.11
  20   6    -0.04   0.00   0.14     0.01  -0.01  -0.05     0.02  -0.02  -0.04
  21   6    -0.02  -0.03  -0.03     0.00   0.01  -0.08     0.02  -0.02  -0.16
  22   7     0.02  -0.04  -0.23    -0.02   0.00  -0.15     0.01  -0.02  -0.26
  23   6    -0.02  -0.02   0.04    -0.01   0.04   0.12    -0.00   0.01   0.09
  24   6    -0.02  -0.02  -0.07    -0.01   0.05   0.16    -0.02   0.03   0.22
  25   7    -0.00  -0.04  -0.23     0.00   0.05   0.16    -0.02   0.04   0.27
  26   1    -0.01   0.01   0.08    -0.01  -0.00  -0.03    -0.01  -0.01  -0.04
  27   1    -0.01   0.00   0.04     0.01  -0.02  -0.11     0.01  -0.03  -0.14
  28   1    -0.01   0.00  -0.01    -0.00  -0.02  -0.11    -0.01  -0.03  -0.11
  29   1    -0.01  -0.01  -0.07     0.00  -0.01  -0.04     0.00  -0.01  -0.04
  30   1    -0.01  -0.00  -0.07     0.00   0.00   0.05     0.00   0.01   0.04
  31   1    -0.02  -0.00  -0.10    -0.00  -0.01  -0.03    -0.01  -0.00  -0.01
  32   1    -0.01  -0.01  -0.03     0.00  -0.01   0.03    -0.00  -0.01   0.06
  33   1     0.01  -0.00  -0.01    -0.01   0.00   0.10     0.00  -0.00   0.11
  34   1    -0.00   0.01   0.01    -0.00  -0.01   0.03    -0.00  -0.01   0.09
  35   1    -0.02   0.00   0.10     0.01  -0.00  -0.02     0.01  -0.01   0.00
  36   1    -0.01   0.00   0.07    -0.00   0.01   0.06    -0.00   0.01   0.04
  37   6    -0.00  -0.00   0.00     0.01   0.00   0.09    -0.00  -0.02  -0.04
  38   6     0.00  -0.01  -0.00     0.01  -0.00   0.09    -0.00  -0.02   0.06
  39  28    -0.05   0.03   0.01    -0.06  -0.04  -0.23     0.03   0.06   0.08
  40   6     0.03  -0.03   0.11     0.02   0.01  -0.03    -0.01  -0.02   0.03
  41   6     0.02  -0.00   0.02    -0.01   0.06  -0.20     0.01  -0.05   0.13
  42   6    -0.01   0.03  -0.15    -0.00   0.00   0.04     0.00  -0.00  -0.04
  43   6     0.00  -0.00  -0.00     0.00  -0.01   0.08    -0.00  -0.01  -0.01
  44   6     0.02  -0.02   0.14     0.00  -0.00   0.06    -0.01  -0.00  -0.04
  45   6     0.02  -0.01  -0.01     0.01   0.02  -0.20    -0.01  -0.03   0.17
  46   6     0.03  -0.00  -0.11    -0.00   0.00  -0.05     0.00  -0.01   0.01
  47   6     0.02  -0.02   0.06    -0.01  -0.02   0.20     0.00   0.02  -0.19
  48   7     0.02  -0.03   0.23    -0.00  -0.03   0.24    -0.00   0.02  -0.24
  49   6     0.02  -0.03  -0.06     0.00  -0.00   0.15    -0.01   0.00  -0.07
  50   6     0.02  -0.03   0.05    -0.02   0.02  -0.09     0.01  -0.01   0.15
  51   6     0.01  -0.02  -0.16    -0.02   0.02  -0.08    -0.01  -0.02   0.03
  52   6     0.01   0.01   0.00    -0.00   0.02   0.04    -0.02  -0.02  -0.10
  53   6     0.01  -0.01   0.19     0.00   0.02   0.02    -0.01  -0.02   0.03
  54   7     0.02  -0.03   0.28    -0.02   0.02  -0.15     0.02  -0.01   0.23
  55   6    -0.03  -0.00   0.00     0.05   0.01   0.18    -0.03  -0.01  -0.10
  56   6    -0.05   0.02  -0.18     0.02   0.02  -0.00    -0.01  -0.02   0.02
  57   6     0.01  -0.02  -0.01     0.01   0.03   0.05    -0.01  -0.02  -0.06
  58   6     0.06  -0.02   0.14    -0.03   0.02  -0.06     0.03  -0.01   0.02
  59   6     0.01   0.03  -0.05    -0.02  -0.00  -0.10     0.03   0.01   0.09
  60   7    -0.06   0.05  -0.26    -0.02   0.01  -0.18     0.02  -0.01   0.16
  61   6     0.03   0.01   0.05     0.02  -0.05   0.14    -0.01   0.03  -0.06
  62   6     0.01   0.02  -0.06     0.03  -0.06   0.19    -0.02   0.03  -0.13
  63   7    -0.01   0.06  -0.24     0.01  -0.06   0.20    -0.01   0.04  -0.18
  64   1     0.01  -0.02   0.08     0.01   0.01  -0.04    -0.00  -0.01   0.03
  65   1     0.01  -0.00   0.03    -0.01   0.04  -0.13     0.01  -0.03   0.08
  66   1     0.01  -0.00  -0.03     0.01   0.01  -0.14    -0.00  -0.02   0.12
  67   1     0.01   0.00  -0.08    -0.00   0.00  -0.05     0.00  -0.00   0.03
  68   1    -0.00  -0.01  -0.08     0.01  -0.00   0.06    -0.01   0.00  -0.03
  69   1    -0.00  -0.00  -0.11    -0.01   0.01  -0.03    -0.00  -0.01  -0.00
  70   1    -0.00   0.01  -0.02     0.00   0.00   0.04    -0.01  -0.01  -0.08
  71   1    -0.01  -0.00  -0.00     0.03  -0.01   0.12    -0.02   0.00  -0.09
  72   1     0.01  -0.01   0.02     0.01   0.01   0.04    -0.01  -0.01  -0.05
  73   1     0.04  -0.01   0.10    -0.02   0.01  -0.02     0.01  -0.00  -0.00
  74   1     0.02  -0.01   0.08     0.01  -0.02   0.07    -0.01   0.01  -0.03
                     25                     26                     27
                        a                      a                      a 
 Frequencies --   237.3850               238.7029               245.5550
 Red. masses --    12.3353                12.4328                24.5789
 Frc consts  --     0.0000                 0.0000                 0.0000
 IR Inten    --     2.1263                 1.0350                 0.2437
 Raman Activ --     0.0000                 0.0000                 0.0000
 Depolar     --     0.0000                 0.0000                 0.0000
 Atom AN      X      Y      Z        X      Y      Z        X      Y      Z
   1  28     0.00  -0.00  -0.00     0.02  -0.02   0.02     0.01   0.09   0.38
   2   6     0.00  -0.00  -0.01     0.01   0.00  -0.03     0.01   0.01   0.06
   3   6     0.01  -0.02  -0.11     0.02  -0.01  -0.08     0.02  -0.00   0.07
   4   6    -0.01   0.01   0.07     0.01   0.02   0.08     0.03  -0.02  -0.05
   5   6    -0.01   0.00  -0.00     0.01   0.00  -0.00     0.02  -0.04  -0.17
   6   6    -0.00  -0.01  -0.07     0.01  -0.02  -0.09     0.02  -0.03  -0.11
   7   6     0.01   0.02   0.11     0.02   0.03   0.13     0.02  -0.01   0.01
   8   6    -0.00   0.00   0.01     0.00   0.00   0.04     0.02   0.00   0.13
   9   6    -0.01  -0.03  -0.15    -0.00  -0.05  -0.17     0.01  -0.03   0.01
  10   7    -0.01  -0.04  -0.26     0.01  -0.06  -0.30     0.02  -0.03  -0.03
  11   6     0.00  -0.01   0.01     0.01  -0.04  -0.01    -0.01  -0.06  -0.15
  12   6     0.01   0.01   0.16     0.02  -0.02   0.16    -0.01  -0.04  -0.14
  13   6     0.00  -0.00  -0.02     0.02  -0.01  -0.02     0.00  -0.01   0.04
  14   6    -0.00  -0.01  -0.12     0.00   0.00  -0.11    -0.01   0.01   0.15
  15   6     0.00   0.00   0.07    -0.01   0.00   0.08    -0.04  -0.01  -0.04
  16   7     0.01   0.01   0.27    -0.00  -0.01   0.29    -0.04  -0.04  -0.13
  17   6     0.01   0.00   0.00    -0.02   0.00  -0.02    -0.04  -0.01  -0.15
  18   6     0.01  -0.00  -0.07    -0.01   0.01  -0.07    -0.01   0.00  -0.12
  19   6    -0.00   0.01   0.12     0.00   0.01   0.09     0.01  -0.00   0.09
  20   6     0.00   0.00   0.02     0.01   0.02   0.03     0.04   0.03   0.12
  21   6     0.01  -0.01  -0.16     0.01   0.02  -0.13     0.03   0.05  -0.09
  22   7     0.01  -0.01  -0.27     0.00   0.01  -0.23    -0.00   0.04  -0.16
  23   6     0.00   0.01  -0.01     0.01   0.03  -0.02     0.02   0.03  -0.15
  24   6    -0.01   0.02   0.15     0.00   0.04   0.12     0.03   0.01  -0.05
  25   7    -0.02   0.04   0.26     0.00   0.05   0.24     0.03   0.01  -0.03
  26   1     0.00  -0.01  -0.03     0.00  -0.00  -0.04    -0.00   0.00   0.04
  27   1     0.01  -0.01  -0.09     0.01  -0.01  -0.07     0.00   0.00   0.04
  28   1     0.01   0.02   0.09     0.01   0.02   0.10     0.00  -0.00   0.00
  29   1     0.00   0.01   0.03    -0.00   0.01   0.05     0.00   0.01   0.07
  30   1     0.00  -0.00   0.00     0.00  -0.01  -0.00    -0.00  -0.02  -0.06
  31   1     0.00  -0.00  -0.04     0.01  -0.00  -0.04     0.01  -0.00   0.04
  32   1    -0.00  -0.00  -0.09    -0.00   0.00  -0.09    -0.00   0.01   0.10
  33   1     0.00  -0.00   0.00    -0.00   0.00  -0.02    -0.01  -0.01  -0.04
  34   1    -0.00   0.00   0.09    -0.00   0.00   0.08     0.00  -0.01   0.07
  35   1    -0.00   0.00   0.04     0.01   0.01   0.04     0.02   0.01   0.08
  36   1     0.00   0.00  -0.00     0.00   0.01  -0.01     0.00   0.01  -0.06
  37   6    -0.01  -0.00  -0.00     0.00   0.00   0.00     0.01  -0.05  -0.17
  38   6    -0.01  -0.01   0.00    -0.00   0.01  -0.01    -0.00  -0.05   0.16
  39  28    -0.01   0.00   0.00    -0.01  -0.02   0.00    -0.05   0.09  -0.35
  40   6     0.00  -0.01   0.01    -0.01   0.01  -0.04    -0.01   0.01  -0.07
  41   6     0.01  -0.03   0.10    -0.02   0.03  -0.11    -0.01   0.01  -0.04
  42   6    -0.01   0.01  -0.07    -0.01  -0.02   0.09    -0.02  -0.01   0.04
  43   6    -0.01  -0.00   0.00    -0.01   0.00  -0.00    -0.01  -0.04   0.16
  44   6    -0.00  -0.01   0.08    -0.02   0.01  -0.09    -0.03  -0.03   0.11
  45   6     0.00   0.01  -0.10    -0.02  -0.00   0.09    -0.02  -0.02  -0.01
  46   6     0.00   0.00  -0.02    -0.01   0.01   0.03    -0.00  -0.00  -0.12
  47   6    -0.00  -0.01   0.15    -0.01   0.03  -0.13    -0.02   0.01  -0.01
  48   7    -0.01  -0.02   0.26    -0.02   0.04  -0.25    -0.03   0.00   0.04
  49   6    -0.00  -0.00  -0.01    -0.00   0.04   0.01    -0.01   0.03   0.14
  50   6    -0.02   0.00  -0.16     0.01   0.03   0.13    -0.01   0.05   0.14
  51   6     0.01   0.00   0.02    -0.02   0.01  -0.03    -0.06   0.01  -0.05
  52   6     0.02   0.00   0.11    -0.02  -0.00  -0.09    -0.04  -0.02  -0.13
  53   6    -0.00   0.00  -0.08     0.02   0.01   0.08     0.02   0.00   0.06
  54   7    -0.03   0.01  -0.27     0.04   0.03   0.24     0.02   0.04   0.14
  55   6     0.01   0.00  -0.00     0.02   0.00   0.01     0.06  -0.01   0.13
  56   6     0.02  -0.01   0.07    -0.00   0.01  -0.08     0.05  -0.02   0.09
  57   6    -0.02   0.01  -0.11     0.02  -0.01   0.11    -0.02   0.02  -0.10
  58   6    -0.00   0.00  -0.02    -0.01  -0.02   0.03    -0.03   0.00  -0.09
  59   6     0.04  -0.02   0.16    -0.04  -0.01  -0.16     0.02  -0.04   0.10
  60   7     0.06  -0.04   0.27    -0.04   0.01  -0.28     0.06  -0.05   0.15
  61   6     0.01   0.00   0.01    -0.01  -0.04  -0.01     0.02  -0.06   0.14
  62   6    -0.02   0.03  -0.15     0.01  -0.05   0.15    -0.00  -0.02   0.01
  63   7    -0.03   0.05  -0.26     0.01  -0.08   0.29    -0.02  -0.01  -0.01
  64   1     0.00  -0.01   0.04    -0.00   0.01  -0.05    -0.00   0.01  -0.04
  65   1     0.01  -0.02   0.08    -0.01   0.03  -0.08    -0.00   0.01  -0.02
  66   1     0.00   0.01  -0.08    -0.01  -0.01   0.07    -0.00  -0.01  -0.01
  67   1     0.00   0.00  -0.04    -0.00  -0.00   0.05     0.01   0.00  -0.07
  68   1    -0.00  -0.00  -0.00     0.00   0.01   0.01     0.01   0.01   0.05
  69   1     0.01   0.00   0.04    -0.01   0.00  -0.04    -0.03   0.00  -0.04
  70   1     0.01   0.00   0.09    -0.01  -0.00  -0.07    -0.02  -0.02  -0.09
  71   1     0.00   0.00  -0.00     0.01  -0.00   0.01     0.02  -0.01   0.03
  72   1    -0.02   0.01  -0.09     0.02  -0.00   0.09    -0.02   0.02  -0.07
  73   1    -0.01   0.01  -0.04    -0.00  -0.01   0.04    -0.02   0.01  -0.07
  74   1     0.00   0.00   0.00     0.00  -0.01  -0.00     0.01  -0.02   0.05
                     28                     29                     30
                        a                      a                      a 
 Frequencies --   246.3377               248.0762               252.0180
 Red. masses --    11.1214                10.8066                14.1572
 Frc consts  --     0.0000                 0.0000                 0.0000
 IR Inten    --     4.0512                 3.6027                 0.1463
 Raman Activ --     0.0000                 0.0000                 0.0000
 Depolar     --     0.0000                 0.0000                 0.0000
 Atom AN      X      Y      Z        X      Y      Z        X      Y      Z
   1  28    -0.04  -0.02  -0.06     0.03  -0.01   0.02    -0.11   0.01   0.07
   2   6     0.03  -0.02  -0.24    -0.03   0.01   0.14    -0.04  -0.03  -0.02
   3   6    -0.00   0.04   0.16    -0.01  -0.03  -0.11    -0.07   0.00   0.01
   4   6    -0.01   0.05   0.24    -0.01  -0.03  -0.14    -0.09  -0.00   0.04
   5   6    -0.00   0.01   0.03    -0.00   0.00  -0.00    -0.06  -0.01  -0.03
   6   6    -0.01  -0.04  -0.21    -0.01   0.03   0.14    -0.10  -0.01  -0.08
   7   6     0.00  -0.04  -0.17    -0.01   0.03   0.13    -0.08  -0.01  -0.01
   8   6     0.03   0.02   0.20    -0.03  -0.01  -0.13    -0.04   0.04   0.06
   9   6     0.02   0.01   0.13    -0.02  -0.00  -0.11    -0.07   0.07  -0.03
  10   7    -0.00  -0.02  -0.10    -0.01   0.02   0.03    -0.11   0.05  -0.11
  11   6     0.01  -0.00   0.03    -0.01   0.02  -0.02    -0.03   0.17  -0.03
  12   6    -0.00  -0.02  -0.12    -0.00   0.04   0.10    -0.03   0.19  -0.04
  13   6    -0.00  -0.02  -0.21    -0.01   0.02   0.13    -0.10   0.08   0.00
  14   6     0.00   0.01   0.15    -0.00  -0.01  -0.12    -0.01  -0.01   0.03
  15   6     0.00   0.01   0.21     0.02   0.00  -0.13     0.11   0.04  -0.01
  16   7    -0.00  -0.00   0.09     0.02   0.03  -0.02     0.08   0.18  -0.03
  17   6    -0.00   0.00   0.03     0.03   0.00  -0.01     0.18  -0.00  -0.02
  18   6     0.00  -0.01  -0.18     0.02   0.00   0.13     0.11  -0.05  -0.02
  19   6     0.00  -0.01  -0.19    -0.01   0.01   0.12    -0.01   0.01   0.01
  20   6    -0.01   0.02   0.19    -0.01  -0.02  -0.13    -0.10  -0.08   0.02
  21   6    -0.01   0.01   0.16    -0.00  -0.04  -0.10    -0.04  -0.19  -0.01
  22   7    -0.01   0.00  -0.04     0.01  -0.03   0.04     0.08  -0.18  -0.02
  23   6     0.00   0.01   0.02    -0.01  -0.03  -0.00    -0.03  -0.18  -0.02
  24   6     0.02  -0.01  -0.13    -0.02  -0.00   0.09    -0.07  -0.08   0.02
  25   7    -0.01   0.02   0.11    -0.01  -0.02  -0.06    -0.11  -0.05   0.09
  26   1     0.02  -0.02  -0.14    -0.01   0.01   0.08     0.00  -0.01  -0.02
  27   1    -0.00   0.02   0.08    -0.00  -0.01  -0.05    -0.02   0.01  -0.01
  28   1    -0.00  -0.02  -0.08    -0.00   0.02   0.07    -0.02  -0.01   0.01
  29   1     0.01   0.02   0.12    -0.01  -0.01  -0.08     0.00   0.01   0.04
  30   1     0.00  -0.00   0.02    -0.00   0.01  -0.01     0.01   0.05  -0.00
  31   1    -0.00  -0.01  -0.13    -0.01   0.01   0.08    -0.06   0.02   0.00
  32   1     0.00   0.00   0.07    -0.00  -0.01  -0.06    -0.01  -0.03   0.02
  33   1    -0.00   0.00   0.01     0.01   0.00  -0.01     0.05  -0.00  -0.01
  34   1     0.00  -0.01  -0.10    -0.00   0.01   0.06    -0.01   0.03   0.01
  35   1    -0.01   0.01   0.11    -0.01  -0.01  -0.07    -0.06  -0.02   0.01
  36   1     0.00   0.00   0.00    -0.00  -0.01   0.00     0.01  -0.05  -0.02
  37   6    -0.00   0.01   0.03    -0.00   0.00  -0.00    -0.01   0.00  -0.02
  38   6    -0.00   0.01  -0.03     0.00   0.00  -0.00     0.01   0.01   0.04
  39  28    -0.00  -0.02   0.06    -0.05  -0.01  -0.03     0.08  -0.01  -0.15
  40   6     0.02  -0.03   0.16     0.04  -0.03   0.20     0.05   0.05  -0.06
  41   6    -0.00   0.03  -0.10     0.00   0.06  -0.19     0.08   0.01  -0.01
  42   6    -0.01   0.04  -0.16    -0.00   0.06  -0.21     0.10  -0.01   0.08
  43   6     0.00   0.01  -0.03     0.01   0.01   0.00     0.06  -0.00   0.04
  44   6     0.01  -0.01   0.13     0.02  -0.03   0.22     0.09  -0.00  -0.04
  45   6     0.01  -0.01   0.12     0.02  -0.02   0.17     0.08   0.00  -0.05
  46   6     0.01   0.01  -0.13     0.03   0.00  -0.22     0.05  -0.03   0.02
  47   6     0.01   0.00  -0.09     0.03  -0.01  -0.14     0.07  -0.08   0.01
  48   7     0.01  -0.01   0.06     0.02  -0.02   0.09     0.11  -0.06  -0.05
  49   6     0.01  -0.01  -0.03     0.02  -0.03   0.00     0.04  -0.18   0.05
  50   6     0.02  -0.01   0.07     0.03  -0.04   0.15     0.04  -0.19  -0.00
  51   6     0.03  -0.01   0.14     0.05  -0.01   0.19     0.10  -0.07  -0.05
  52   6    -0.01  -0.00  -0.09    -0.02   0.00  -0.18     0.01   0.02  -0.01
  53   6    -0.02  -0.00  -0.14    -0.05  -0.01  -0.18    -0.10  -0.04   0.04
  54   7    -0.01  -0.01  -0.07    -0.02  -0.03  -0.05    -0.07  -0.18   0.02
  55   6    -0.01  -0.00  -0.03    -0.03  -0.01   0.02    -0.18  -0.00   0.07
  56   6     0.01  -0.01   0.12     0.01  -0.02   0.20    -0.11   0.05   0.02
  57   6     0.02  -0.02   0.13     0.03  -0.02   0.17     0.00   0.00  -0.03
  58   6    -0.02   0.02  -0.11    -0.03   0.04  -0.20     0.09   0.09  -0.01
  59   6    -0.03   0.02  -0.11    -0.03   0.05  -0.15     0.04   0.19   0.05
  60   7    -0.01   0.00   0.03    -0.01   0.02   0.05    -0.09   0.18   0.04
  61   6    -0.01   0.02  -0.02     0.00   0.02   0.02     0.03   0.17   0.06
  62   6     0.01  -0.01   0.08     0.03  -0.02   0.15     0.08   0.07   0.04
  63   7    -0.00   0.03  -0.07     0.01   0.03  -0.07     0.12   0.04   0.11
  64   1     0.01  -0.02   0.10     0.02  -0.02   0.12    -0.00   0.02  -0.05
  65   1    -0.00   0.01  -0.05    -0.00   0.03  -0.09     0.02   0.00  -0.02
  66   1     0.00  -0.00   0.06     0.00  -0.01   0.08     0.02   0.01  -0.02
  67   1     0.00   0.01  -0.08     0.01   0.01  -0.13     0.00  -0.01   0.02
  68   1     0.00  -0.00  -0.01     0.00  -0.01  -0.00    -0.01  -0.05   0.03
  69   1     0.02  -0.00   0.09     0.03  -0.00   0.11     0.06  -0.02  -0.03
  70   1    -0.00   0.00  -0.04    -0.01   0.01  -0.09     0.00   0.03  -0.01
  71   1    -0.00   0.00  -0.01    -0.01  -0.00   0.01    -0.05  -0.00   0.02
  72   1     0.01  -0.01   0.07     0.02  -0.02   0.09     0.00  -0.03  -0.02
  73   1    -0.01   0.01  -0.07    -0.02   0.02  -0.12     0.06   0.03  -0.01
  74   1    -0.00   0.00  -0.01    -0.00   0.01   0.01    -0.01   0.05   0.02
                     31                     32                     33
                        a                      a                      a 
 Frequencies --   273.0287               273.9007               274.5193
 Red. masses --    41.5365                40.8954                41.8147
 Frc consts  --     0.0000                 0.0000                 0.0000
 IR Inten    --     0.1392                 3.1442                 1.4867
 Raman Activ --     0.0000                 0.0000                 0.0000
 Depolar     --     0.0000                 0.0000                 0.0000
 Atom AN      X      Y      Z        X      Y      Z        X      Y      Z
   1  28    -0.71  -0.09  -0.01     0.14  -0.77   0.02    -0.30  -0.10   0.09
   2   6     0.16   0.03   0.03     0.06   0.08  -0.04     0.06   0.02   0.04
   3   6     0.08   0.09  -0.02     0.01   0.13  -0.02     0.04   0.04  -0.04
   4   6    -0.02   0.03  -0.04    -0.02   0.12   0.04    -0.00   0.01  -0.06
   5   6    -0.01   0.01   0.00     0.00   0.11   0.01    -0.00   0.01  -0.02
   6   6    -0.01   0.00   0.06     0.03   0.12   0.02    -0.01   0.00  -0.01
   7   6     0.08  -0.06   0.02    -0.04   0.16  -0.04     0.02  -0.02  -0.01
   8   6     0.14  -0.01  -0.04    -0.11   0.08  -0.03     0.05   0.00   0.01
   9   6     0.11   0.04   0.00    -0.04  -0.02   0.04     0.04   0.02   0.01
  10   7    -0.01   0.04   0.07     0.03  -0.01   0.08    -0.01   0.01   0.00
  11   6     0.10   0.00  -0.01    -0.01  -0.01   0.01     0.04   0.01  -0.01
  12   6     0.12  -0.04   0.02     0.02  -0.03  -0.02     0.05  -0.01  -0.03
  13   6     0.17   0.03  -0.02     0.08   0.08  -0.02     0.07   0.02  -0.00
  14   6     0.09   0.10  -0.02     0.02   0.15  -0.00     0.04   0.05   0.02
  15   6    -0.01   0.04   0.02    -0.03   0.11  -0.02    -0.00   0.03  -0.01
  16   7    -0.01  -0.03   0.05    -0.02  -0.02  -0.05     0.00  -0.00  -0.03
  17   6    -0.00   0.01   0.00    -0.00   0.11   0.01     0.01   0.02  -0.01
  18   6    -0.01  -0.01  -0.02     0.03   0.12  -0.01     0.00   0.00  -0.02
  19   6     0.08  -0.06   0.01    -0.05   0.18  -0.01     0.03  -0.01   0.03
  20   6     0.14  -0.01   0.01    -0.13   0.09  -0.02     0.04  -0.00   0.00
  21   6     0.11   0.03  -0.02    -0.06  -0.03  -0.01     0.04  -0.00  -0.05
  22   7     0.00   0.02  -0.05     0.02  -0.02  -0.02     0.01  -0.01  -0.07
  23   6     0.10  -0.01   0.02    -0.03  -0.00   0.00     0.04  -0.01   0.00
  24   6     0.11  -0.05   0.00     0.00  -0.00   0.03     0.04  -0.02   0.02
  25   7    -0.01  -0.04  -0.04    -0.02   0.01   0.08    -0.00  -0.02  -0.04
  26   1     0.07   0.01   0.02     0.04   0.02  -0.03     0.03   0.01   0.03
  27   1     0.03   0.06  -0.01     0.01   0.05  -0.02     0.01   0.02  -0.02
  28   1     0.02  -0.04   0.00    -0.01   0.06  -0.02     0.01  -0.01  -0.01
  29   1     0.05  -0.01  -0.03    -0.06   0.03  -0.02     0.02   0.00   0.01
  30   1     0.01  -0.00  -0.02    -0.00  -0.00   0.00     0.01   0.00  -0.00
  31   1     0.07   0.01  -0.02     0.05   0.03  -0.00     0.03   0.01   0.00
  32   1     0.03   0.06  -0.01     0.01   0.06   0.01     0.01   0.03   0.01
  33   1    -0.00   0.00   0.00    -0.00   0.02   0.02     0.00   0.00   0.01
  34   1     0.03  -0.04   0.01    -0.02   0.08  -0.00     0.01  -0.01   0.03
  35   1     0.05  -0.00   0.01    -0.07   0.03  -0.01     0.01  -0.00   0.01
  36   1     0.01  -0.00   0.01    -0.00  -0.00  -0.00     0.00  -0.00   0.01
  37   6    -0.01   0.01  -0.02     0.00   0.11  -0.08     0.00   0.05   0.05
  38   6    -0.01   0.01  -0.02     0.00   0.06  -0.06     0.00   0.06   0.07
  39  28    -0.35  -0.00   0.01    -0.07  -0.01  -0.10     0.60  -0.43  -0.06
  40   6     0.07   0.01  -0.02     0.00   0.01  -0.04    -0.07   0.02   0.04
  41   6     0.04   0.04   0.01     0.01  -0.00   0.03    -0.05   0.02   0.00
  42   6    -0.01   0.00   0.02     0.01  -0.01   0.05    -0.00   0.06  -0.05
  43   6    -0.01  -0.00  -0.00    -0.00   0.00   0.02     0.01   0.07   0.01
  44   6    -0.01  -0.01  -0.02    -0.02  -0.01   0.04     0.03   0.09   0.03
  45   6     0.04  -0.04  -0.00    -0.00  -0.02   0.02    -0.08   0.15   0.02
  46   6     0.08  -0.01   0.01     0.01  -0.01  -0.03    -0.17   0.06  -0.00
  47   6     0.06   0.02  -0.01     0.00   0.00  -0.01    -0.09  -0.05   0.01
  48   7    -0.01   0.02  -0.03    -0.02  -0.01   0.03     0.03  -0.03   0.03
  49   6     0.05   0.00   0.00     0.01   0.01   0.01    -0.07  -0.02   0.00
  50   6     0.06  -0.02  -0.00     0.02   0.01   0.04    -0.06  -0.00   0.03
  51   6     0.08   0.01  -0.01     0.01   0.01  -0.01    -0.05   0.03   0.02
  52   6     0.04   0.04  -0.01     0.01   0.01  -0.03    -0.05   0.03   0.00
  53   6    -0.01   0.01   0.00     0.01   0.01   0.02    -0.02   0.05   0.00
  54   7    -0.00  -0.02   0.00     0.02   0.01   0.05    -0.01  -0.00   0.03
  55   6    -0.01  -0.00   0.01     0.01   0.00   0.01    -0.01   0.06  -0.02
  56   6    -0.01  -0.01   0.02     0.00  -0.00   0.02     0.02   0.09  -0.02
  57   6     0.04  -0.04  -0.02    -0.01   0.00  -0.03    -0.09   0.15   0.05
  58   6     0.08  -0.00  -0.03    -0.00  -0.00  -0.00    -0.17   0.06   0.06
  59   6     0.06   0.03   0.01     0.01  -0.01   0.04    -0.11  -0.04  -0.02
  60   7    -0.00   0.02   0.04     0.01  -0.01   0.06     0.00  -0.01  -0.06
  61   6     0.05   0.01  -0.01     0.01  -0.00   0.00    -0.09   0.00   0.00
  62   6     0.06  -0.02  -0.00     0.00   0.00  -0.02    -0.07   0.02  -0.02
  63   7    -0.00  -0.02   0.02     0.01  -0.01   0.03    -0.01   0.03  -0.08
  64   1     0.03   0.01  -0.01     0.00   0.01  -0.02    -0.02   0.00   0.03
  65   1     0.01   0.03   0.00     0.00  -0.00   0.01    -0.01  -0.01   0.01
  66   1     0.01  -0.03   0.00     0.00  -0.01   0.01    -0.03   0.08   0.00
  67   1     0.03  -0.00   0.01     0.01  -0.00  -0.02    -0.08   0.02  -0.01
  68   1     0.01   0.00   0.00     0.00   0.00  -0.01    -0.01  -0.01  -0.01
  69   1     0.03   0.00  -0.00     0.00   0.00  -0.01    -0.01   0.01   0.00
  70   1     0.01   0.03  -0.01     0.00   0.00  -0.02    -0.02   0.00  -0.00
  71   1    -0.00   0.00   0.00     0.00   0.00  -0.01    -0.00   0.01  -0.01
  72   1     0.01  -0.03  -0.01    -0.01   0.00  -0.02    -0.03   0.07   0.03
  73   1     0.03  -0.00  -0.02    -0.00   0.00  -0.01    -0.08   0.02   0.03
  74   1     0.00   0.00  -0.01     0.00   0.00  -0.01    -0.01  -0.00   0.01
                     34                     35                     36
                        a                      a                      a 
 Frequencies --   275.1585               279.8625               312.2941
 Red. masses --    41.4490                24.3085                12.4856
 Frc consts  --     0.0000                 0.0000                 0.0000
 IR Inten    --     0.9007                15.4188                 1.2931
 Raman Activ --     0.0000                 0.0000                 0.0000
 Depolar     --     0.0000                 0.0000                 0.0000
 Atom AN      X      Y      Z        X      Y      Z        X      Y      Z
   1  28     0.20   0.06   0.08     0.01  -0.13   0.33     0.00  -0.00   0.07
   2   6    -0.04  -0.01   0.02     0.01   0.03   0.11    -0.00  -0.04   0.03
   3   6    -0.01  -0.04  -0.00     0.01   0.02  -0.09     0.08  -0.12   0.00
   4   6     0.02  -0.03  -0.02    -0.00   0.00  -0.16     0.16  -0.08  -0.02
   5   6     0.00  -0.01  -0.02     0.00   0.02  -0.05    -0.00   0.03   0.04
   6   6    -0.01  -0.02  -0.06     0.01   0.00  -0.16    -0.16  -0.07  -0.03
   7   6    -0.02  -0.00  -0.03    -0.01   0.03  -0.09    -0.08  -0.12   0.00
   8   6    -0.02  -0.00   0.04    -0.02   0.04   0.11     0.01  -0.04   0.03
   9   6    -0.02  -0.01   0.01    -0.01  -0.00   0.03    -0.03   0.04  -0.01
  10   7    -0.00  -0.02  -0.04     0.01  -0.02  -0.12    -0.16   0.00  -0.06
  11   6    -0.02  -0.01   0.00    -0.00  -0.00   0.00     0.02   0.10   0.02
  12   6    -0.03  -0.01  -0.04    -0.01  -0.01  -0.13     0.07   0.02  -0.02
  13   6    -0.03  -0.02   0.00     0.01   0.02   0.01     0.06  -0.03  -0.01
  14   6    -0.02  -0.03   0.03    -0.01   0.04   0.09     0.10  -0.06   0.01
  15   6     0.00  -0.02  -0.02    -0.02   0.03  -0.06     0.13  -0.04  -0.01
  16   7     0.00  -0.01  -0.05    -0.03  -0.01  -0.17     0.13  -0.01  -0.04
  17   6    -0.02  -0.01  -0.01    -0.00   0.02  -0.02    -0.00   0.02   0.02
  18   6    -0.01   0.00  -0.01     0.02   0.03  -0.06    -0.13  -0.04  -0.01
  19   6    -0.02   0.01   0.02     0.00   0.04   0.09    -0.10  -0.06   0.01
  20   6    -0.03   0.01   0.00    -0.01   0.03   0.01    -0.06  -0.02  -0.01
  21   6    -0.03   0.01  -0.02     0.01  -0.00  -0.13    -0.07   0.03  -0.03
  22   7    -0.01   0.01  -0.03     0.03  -0.00  -0.17    -0.13   0.01  -0.05
  23   6    -0.03   0.02  -0.01     0.00  -0.00   0.00    -0.02   0.10   0.02
  24   6    -0.02   0.01  -0.00     0.00  -0.00   0.03     0.03   0.03  -0.01
  25   7     0.02   0.00  -0.02    -0.00  -0.02  -0.12     0.16  -0.00  -0.06
  26   1    -0.02  -0.00   0.01     0.01   0.02   0.07    -0.02  -0.01   0.02
  27   1    -0.00  -0.02  -0.00     0.00   0.01  -0.04     0.02  -0.06   0.01
  28   1    -0.01   0.00  -0.01    -0.00   0.01  -0.04    -0.02  -0.06   0.01
  29   1    -0.01   0.00   0.03    -0.01   0.02   0.07     0.02  -0.01   0.02
  30   1    -0.00  -0.00   0.01     0.00   0.00   0.03     0.00   0.03   0.03
  31   1    -0.01  -0.01   0.01     0.01   0.01   0.02     0.01  -0.01  -0.00
  32   1    -0.01  -0.01   0.02    -0.00   0.02   0.07     0.03  -0.03   0.01
[...]
  66   1     0.07   0.01   0.00     0.03   0.00   0.00     0.21   0.03   0.01
  67   1    -0.01  -0.18  -0.01    -0.01  -0.08  -0.01    -0.04  -0.53  -0.04
  68   1     0.00  -0.01  -0.00     0.00  -0.00  -0.00     0.00  -0.02  -0.00
  69   1    -0.00   0.01   0.00     0.00  -0.00  -0.00     0.00  -0.00  -0.00
  70   1    -0.02   0.00   0.00    -0.00   0.00   0.00    -0.03   0.00   0.00
  71   1     0.00  -0.00  -0.00     0.00  -0.00   0.00    -0.00  -0.00   0.00
  72   1     0.05   0.01  -0.01     0.00   0.00  -0.00     0.00   0.00  -0.00
  73   1    -0.00  -0.00  -0.00     0.00   0.00   0.00     0.00   0.01   0.00
  74   1    -0.00  -0.03  -0.01    -0.00  -0.00  -0.00     0.00   0.00   0.00
                    208                    209                    210
                        a                      a                      a 
 Frequencies --  3157.2458              3164.0096              3164.0984
 Red. masses --     1.8284                 1.9789                 1.9791
 Frc consts  --     0.0000                 0.0000                 0.0000
 IR Inten    --    47.0730               136.2728               218.2913
 Raman Activ --     0.0000                 0.0000                 0.0000
 Depolar     --     0.0000                 0.0000                 0.0000
 Atom AN      X      Y      Z        X      Y      Z        X      Y      Z
   1  28     0.00  -0.00   0.00    -0.00  -0.00   0.00     0.00   0.00  -0.00
   2   6    -0.01   0.14  -0.02    -0.00   0.00  -0.00     0.00  -0.01   0.00
   3   6     0.06  -0.01   0.01     0.00  -0.00   0.00    -0.01   0.00  -0.00
   4   6     0.00   0.00  -0.00    -0.00   0.00   0.00     0.00  -0.00   0.00
   5   6     0.00   0.00  -0.00     0.00  -0.00  -0.00    -0.00  -0.00  -0.00
   6   6     0.00  -0.00   0.00     0.00  -0.00   0.00    -0.00  -0.00   0.00
   7   6     0.02   0.00  -0.00    -0.00  -0.00   0.00     0.01   0.00  -0.00
   8   6    -0.00  -0.05   0.01     0.00   0.00  -0.00    -0.00  -0.01   0.00
   9   6     0.00  -0.00   0.00    -0.00   0.00  -0.00    -0.00  -0.00   0.00
  10   7    -0.00   0.00  -0.00    -0.00  -0.00   0.00    -0.00   0.00  -0.00
  11   6     0.00  -0.00   0.00    -0.00   0.00  -0.00     0.00  -0.00   0.00
  12   6    -0.00  -0.00   0.00     0.00   0.00  -0.00    -0.01  -0.00   0.00
  13   6     0.00  -0.00   0.00    -0.00   0.02  -0.00     0.01  -0.15   0.01
  14   6     0.00   0.00  -0.00    -0.02   0.00   0.00     0.14  -0.01  -0.00
  15   6    -0.00   0.00  -0.00    -0.00  -0.00   0.00     0.00   0.01  -0.00
  16   7     0.00   0.00  -0.00     0.00  -0.00   0.00    -0.00   0.00  -0.00
  17   6    -0.00  -0.00  -0.00     0.00   0.00  -0.00    -0.00  -0.00   0.00
  18   6    -0.00   0.00  -0.00     0.00  -0.00   0.00    -0.00   0.01  -0.00
  19   6    -0.01  -0.00  -0.00     0.02   0.00   0.00    -0.15  -0.01  -0.01
  20   6     0.00   0.00  -0.00     0.00   0.02  -0.00    -0.01  -0.15   0.01
  21   6    -0.00   0.00  -0.00    -0.00   0.00  -0.00     0.01  -0.00   0.00
  22   7     0.00  -0.00   0.00    -0.00  -0.00   0.00     0.00   0.00  -0.00
  23   6     0.00   0.01  -0.00     0.00   0.00  -0.00    -0.00  -0.00   0.00
  24   6     0.00   0.00   0.00    -0.00  -0.00  -0.00    -0.00  -0.00   0.00
  25   7    -0.00  -0.00   0.00    -0.00  -0.00   0.00     0.00   0.00  -0.00
  26   1     0.05  -0.50   0.08     0.00  -0.00   0.00    -0.00   0.02  -0.00
  27   1    -0.23   0.02  -0.02    -0.00   0.00  -0.00     0.04  -0.00   0.00
  28   1    -0.09  -0.01   0.01     0.00   0.00  -0.00    -0.04  -0.00   0.00
  29   1     0.02   0.17  -0.03    -0.00  -0.00   0.00     0.00   0.02  -0.00
  30   1    -0.00   0.01  -0.00    -0.00  -0.00   0.00     0.00   0.01  -0.00
  31   1    -0.00   0.01  -0.00     0.01  -0.06   0.00    -0.04   0.47  -0.02
  32   1     0.00  -0.00  -0.00     0.05  -0.01  -0.00    -0.46   0.05   0.01
  33   1     0.00  -0.00   0.00    -0.00   0.00  -0.00     0.00  -0.00   0.00
  34   1     0.02   0.00   0.00    -0.06  -0.01  -0.00     0.47   0.05   0.02
  35   1    -0.00  -0.00   0.00    -0.01  -0.06   0.00     0.05   0.48  -0.02
  36   1    -0.00  -0.02   0.00     0.00  -0.00   0.00    -0.00   0.01  -0.00
  37   6    -0.00   0.00   0.00    -0.00  -0.00  -0.00     0.00  -0.00  -0.00
  38   6     0.00   0.00  -0.00    -0.00   0.00  -0.00    -0.00  -0.00   0.00
  39  28    -0.00  -0.00  -0.00    -0.00   0.00   0.00     0.00   0.00  -0.00
  40   6     0.00  -0.04  -0.01     0.00  -0.00  -0.00     0.00   0.00   0.00
  41   6    -0.02   0.00   0.00    -0.01   0.00   0.00    -0.00   0.00   0.00
  42   6    -0.00  -0.00  -0.00     0.00  -0.00  -0.00     0.00  -0.00  -0.00
  43   6    -0.00   0.00   0.00     0.00  -0.00  -0.00    -0.00  -0.00   0.00
  44   6    -0.00   0.00   0.00    -0.00  -0.00  -0.00    -0.00  -0.00  -0.00
  45   6    -0.07  -0.01  -0.00     0.01   0.00   0.00     0.00   0.00   0.00
  46   6     0.01   0.20   0.02    -0.00  -0.01  -0.00    -0.00  -0.00  -0.00
  47   6    -0.01   0.00   0.00     0.00  -0.00  -0.00     0.00  -0.00  -0.00
  48   7     0.00  -0.00  -0.00    -0.00   0.00   0.00    -0.00   0.00   0.00
  49   6    -0.00   0.01   0.00     0.00  -0.00  -0.00     0.00  -0.00  -0.00
  50   6     0.00   0.00   0.00    -0.01  -0.00   0.00    -0.00  -0.00   0.00
  51   6    -0.00   0.00   0.00     0.02  -0.15  -0.00     0.00  -0.02  -0.00
  52   6     0.01  -0.00  -0.00     0.15  -0.00  -0.02     0.02  -0.00  -0.00
  53   6     0.00   0.00  -0.00     0.00   0.01  -0.00     0.00   0.00  -0.00
  54   7    -0.00  -0.00   0.00    -0.00   0.00   0.00    -0.00   0.00   0.00
  55   6     0.00  -0.00  -0.00     0.00  -0.00  -0.00     0.00  -0.00  -0.00
  56   6     0.00   0.00  -0.00    -0.00   0.01   0.00    -0.00   0.00   0.00
  57   6    -0.00  -0.00   0.00    -0.14  -0.02   0.03    -0.02  -0.00   0.00
  58   6    -0.00  -0.00  -0.00    -0.01  -0.14  -0.02    -0.00  -0.02  -0.00
  59   6     0.00   0.00  -0.00     0.01  -0.00  -0.00     0.00  -0.00  -0.00
  60   7    -0.00   0.00   0.00     0.00   0.00  -0.00     0.00   0.00  -0.00
  61   6    -0.00  -0.00  -0.00    -0.00  -0.00  -0.00    -0.00  -0.00  -0.00
  62   6    -0.00  -0.00  -0.00     0.00  -0.00  -0.00     0.00  -0.00  -0.00
  63   7     0.00   0.00   0.00     0.00   0.00   0.00     0.00   0.00  -0.00
  64   1    -0.02   0.14   0.03    -0.00   0.02   0.00    -0.00   0.00   0.00
  65   1     0.08  -0.01  -0.01     0.04  -0.00  -0.00     0.01  -0.00  -0.00
  66   1     0.29   0.04   0.02    -0.03  -0.00  -0.00    -0.01  -0.00  -0.00
  67   1    -0.05  -0.67  -0.05     0.00   0.03   0.00     0.00   0.01   0.00
  68   1     0.00  -0.03  -0.00     0.00   0.02   0.00     0.00   0.00   0.00
  69   1     0.00  -0.00  -0.00    -0.07   0.48   0.01    -0.01   0.06   0.00
  70   1    -0.03   0.00   0.00    -0.48   0.03   0.06    -0.06   0.00   0.01
  71   1    -0.00  -0.00   0.00    -0.00  -0.00   0.00    -0.00  -0.00  -0.00
  72   1     0.00   0.00  -0.00     0.44   0.07  -0.08     0.06   0.01  -0.01
  73   1     0.00   0.02   0.00     0.04   0.46   0.05     0.00   0.06   0.01
  74   1     0.00   0.01   0.00    -0.00   0.01   0.00    -0.00   0.00   0.00
                    211                    212                    213
                        a                      a                      a 
 Frequencies --  3164.6654              3165.2332              3172.9962
 Red. masses --     1.9795                 1.9794                 1.9565
 Frc consts  --     0.0000                 0.0000                 0.0000
 IR Inten    --   385.0924                 3.2448                59.8514
 Raman Activ --     0.0000                 0.0000                 0.0000
 Depolar     --     0.0000                 0.0000                 0.0000
 Atom AN      X      Y      Z        X      Y      Z        X      Y      Z
   1  28     0.00  -0.00   0.00     0.00  -0.00  -0.00    -0.00  -0.00   0.00
   2   6     0.00  -0.00   0.00     0.00  -0.00   0.00    -0.00   0.01  -0.00
   3   6    -0.00   0.00  -0.00    -0.00   0.00  -0.00    -0.01   0.00  -0.00
   4   6    -0.00   0.00  -0.00    -0.00   0.00  -0.00    -0.00  -0.00   0.00
   5   6     0.00   0.00   0.00    -0.00  -0.00  -0.00     0.00   0.00  -0.00
   6   6    -0.00  -0.00   0.00    -0.00  -0.00   0.00     0.00  -0.00   0.00
   7   6    -0.00  -0.00   0.00    -0.00  -0.00   0.00     0.13   0.01  -0.01
   8   6     0.00   0.00  -0.00     0.00   0.00  -0.00     0.00   0.07  -0.01
   9   6     0.00  -0.00   0.00    -0.00  -0.00   0.00    -0.00   0.00   0.00
  10   7     0.00  -0.00  -0.00     0.00  -0.00  -0.00    -0.00  -0.00   0.00
  11   6    -0.00   0.00  -0.00    -0.00   0.00  -0.00     0.00   0.00  -0.00
  12   6     0.00   0.00  -0.00     0.00   0.00  -0.00     0.00  -0.00   0.00
  13   6    -0.00   0.10  -0.01    -0.01   0.11  -0.01    -0.00   0.00  -0.00
  14   6    -0.10   0.01   0.00    -0.11   0.01   0.00    -0.00   0.00   0.00
  15   6    -0.00  -0.00   0.00    -0.00  -0.00   0.00    -0.00  -0.00   0.00
  16   7     0.00  -0.00  -0.00     0.00  -0.00  -0.00     0.00  -0.00   0.00
  17   6    -0.01   0.00  -0.00    -0.01   0.00  -0.00    -0.00   0.00  -0.00
  18   6    -0.00   0.00  -0.00    -0.00   0.00  -0.00     0.00  -0.00   0.00
  19   6    -0.10  -0.01  -0.00    -0.11  -0.01  -0.00     0.00   0.00   0.00
  20   6    -0.01  -0.09   0.00    -0.01  -0.11   0.01     0.00   0.00  -0.00
  21   6     0.00  -0.00   0.00     0.00  -0.00   0.00    -0.00   0.00  -0.00
  22   7     0.00   0.00   0.00     0.00   0.00   0.00    -0.00  -0.00  -0.00
  23   6    -0.00  -0.00   0.00    -0.00  -0.00   0.00    -0.00  -0.00  -0.00
  24   6     0.00   0.00  -0.00    -0.00   0.00  -0.00     0.00  -0.00   0.00
  25   7     0.00   0.00   0.00     0.00   0.00   0.00     0.00  -0.00   0.00
  26   1    -0.00   0.01  -0.00    -0.00   0.00  -0.00     0.00  -0.02   0.00
  27   1     0.00  -0.00   0.00     0.00  -0.00   0.00     0.04  -0.00   0.00
  28   1     0.01   0.00  -0.00     0.01   0.00  -0.00    -0.44  -0.04   0.04
  29   1    -0.00  -0.01   0.00    -0.00  -0.00   0.00    -0.02  -0.23   0.04
  30   1    -0.00  -0.01   0.00    -0.00  -0.01   0.00     0.00  -0.01   0.00
  31   1     0.03  -0.31   0.02     0.03  -0.35   0.02     0.00  -0.01   0.00
  32   1     0.32  -0.04  -0.01     0.36  -0.04  -0.01     0.01  -0.00  -0.00
  33   1     0.02  -0.00   0.00     0.02  -0.00   0.00     0.00   0.00   0.00
  34   1     0.32   0.03   0.01     0.36   0.04   0.02    -0.01  -0.00  -0.00
  35   1     0.03   0.30  -0.01     0.04   0.35  -0.02    -0.00  -0.01   0.00
  36   1    -0.00   0.01  -0.00    -0.00   0.01  -0.00     0.00   0.00  -0.00
  37   6    -0.00   0.00  -0.00    -0.00   0.00  -0.00    -0.00  -0.00  -0.00
  38   6    -0.00  -0.00  -0.00     0.00   0.00   0.00     0.00  -0.00   0.00
  39  28     0.00   0.00  -0.00    -0.00  -0.00   0.00     0.00  -0.00  -0.00
  40   6     0.00  -0.00  -0.00    -0.00   0.00   0.00    -0.01   0.12   0.03
  41   6    -0.00   0.00   0.00     0.00  -0.00  -0.00    -0.22   0.01   0.03
  42   6    -0.00  -0.00  -0.00     0.00  -0.00  -0.00    -0.00  -0.01  -0.00
  43   6     0.00   0.00   0.00     0.00  -0.00  -0.00    -0.00   0.00   0.00
  44   6    -0.00  -0.00  -0.00     0.00   0.00   0.00     0.00  -0.00  -0.00
  45   6    -0.00  -0.00  -0.00     0.00   0.00   0.00     0.01   0.00   0.00
  46   6     0.00   0.00   0.00    -0.00  -0.00  -0.00     0.00   0.01   0.00
  47   6     0.00  -0.00  -0.00     0.00   0.00   0.00    -0.00  -0.00   0.00
  48   7     0.00  -0.00   0.00    -0.00   0.00  -0.00    -0.00  -0.00  -0.00
  49   6    -0.00   0.00   0.00     0.00  -0.00  -0.00     0.00  -0.00  -0.00
  50   6     0.00   0.00  -0.00    -0.00  -0.00   0.00     0.00   0.00   0.00
  51   6    -0.01   0.11   0.00     0.01  -0.09  -0.00    -0.00   0.00   0.00
  52   6    -0.11   0.00   0.01     0.10  -0.00  -0.01    -0.00   0.00   0.00
  53   6    -0.00  -0.00   0.00     0.00   0.00  -0.00    -0.00  -0.00   0.00
  54   7     0.00  -0.00  -0.00    -0.00   0.00   0.00     0.00  -0.00  -0.00
  55   6    -0.01  -0.00   0.00     0.01   0.00  -0.00     0.00   0.00  -0.00
  56   6    -0.00   0.00   0.00     0.00  -0.00  -0.00     0.00  -0.00  -0.00
  57   6    -0.11  -0.01   0.02     0.10   0.01  -0.02     0.00   0.00  -0.00
  58   6    -0.00  -0.11  -0.01     0.00   0.10   0.01     0.00   0.01   0.00
  59   6     0.00  -0.00  -0.00    -0.00   0.00   0.00    -0.00  -0.00   0.00
  60   7     0.00   0.00  -0.00    -0.00  -0.00   0.00    -0.00  -0.00   0.00
  61   6    -0.00  -0.00  -0.00     0.00   0.00   0.00    -0.00   0.00   0.00
  62   6     0.00   0.00   0.00     0.00  -0.00  -0.00     0.01   0.00  -0.00
  63   7     0.00   0.00  -0.00    -0.00  -0.00  -0.00     0.00  -0.00  -0.00
  64   1    -0.00   0.00   0.00     0.00  -0.00  -0.00     0.04  -0.36  -0.09
  65   1     0.01  -0.00  -0.00    -0.01   0.00   0.00     0.72  -0.05  -0.09
  66   1     0.00   0.00   0.00    -0.00  -0.00  -0.00    -0.04  -0.01  -0.00
  67   1    -0.00  -0.01  -0.00     0.00   0.00   0.00    -0.00  -0.02  -0.00
  68   1    -0.00  -0.01  -0.00     0.00   0.01   0.00    -0.00   0.00   0.00
  69   1     0.05  -0.34  -0.00    -0.04   0.30   0.00     0.00  -0.01  -0.00
  70   1     0.35  -0.02  -0.05    -0.31   0.02   0.04     0.01  -0.00  -0.00
  71   1     0.02   0.00  -0.00    -0.02  -0.00   0.00    -0.00   0.00   0.00
  72   1     0.36   0.06  -0.07    -0.32  -0.05   0.06    -0.01  -0.00   0.00
  73   1     0.03   0.36   0.04    -0.02  -0.31  -0.04    -0.00  -0.02  -0.00
  74   1    -0.00   0.01   0.00     0.00  -0.01  -0.00    -0.00  -0.01  -0.00
                    214                    215                    216
                        a                      a                      a 
 Frequencies --  3174.8984              3175.4534              3176.5403
 Red. masses --     1.9531                 1.9455                 1.9501
 Frc consts  --     0.0000                 0.0000                 0.0000
 IR Inten    --    19.9116                39.3164                29.8608
 Raman Activ --     0.0000                 0.0000                 0.0000
 Depolar     --     0.0000                 0.0000                 0.0000
 Atom AN      X      Y      Z        X      Y      Z        X      Y      Z
   1  28    -0.00  -0.00   0.00     0.00  -0.00   0.00     0.00  -0.00   0.00
   2   6    -0.00   0.04  -0.01    -0.00   0.10  -0.02    -0.00   0.05  -0.01
   3   6    -0.08   0.01  -0.01    -0.22   0.02  -0.02    -0.12   0.01  -0.01
   4   6    -0.00  -0.00   0.00    -0.00  -0.01   0.00    -0.00  -0.00   0.00
   5   6     0.00   0.00  -0.00    -0.00   0.00  -0.00    -0.00   0.00  -0.00
   6   6     0.00  -0.01   0.00    -0.00   0.00  -0.00    -0.00   0.00  -0.00
   7   6     0.21   0.01  -0.02    -0.07  -0.00   0.01    -0.04  -0.00   0.00
   8   6     0.00   0.10  -0.02    -0.00  -0.03   0.01    -0.00  -0.02   0.00
   9   6    -0.00   0.00   0.00     0.00  -0.00  -0.00     0.00  -0.00  -0.00
  10   7    -0.00  -0.00   0.00     0.00   0.00  -0.00     0.00   0.00  -0.00
  11   6     0.00   0.00  -0.00    -0.00  -0.00   0.00    -0.00  -0.00   0.00
  12   6     0.00  -0.00  -0.00     0.00   0.00  -0.00    -0.00  -0.00   0.00
  13   6    -0.00   0.01  -0.00    -0.00   0.00  -0.00    -0.00   0.00  -0.00
  14   6    -0.00   0.00   0.00    -0.00   0.00   0.00    -0.00   0.00   0.00
  15   6    -0.00  -0.00   0.00    -0.00  -0.00   0.00    -0.00   0.00  -0.00
  16   7     0.00  -0.00   0.00     0.00  -0.00  -0.00     0.00   0.00  -0.00
  17   6    -0.00   0.00   0.00     0.00   0.00   0.00     0.00   0.00   0.00
  18   6     0.00  -0.00   0.00     0.00  -0.00   0.00     0.00  -0.00   0.00
  19   6     0.00   0.00   0.00     0.00   0.00   0.00     0.00   0.00   0.00
  20   6     0.00   0.00  -0.00     0.00   0.00  -0.00     0.00   0.00  -0.00
  21   6    -0.00  -0.00  -0.00    -0.00  -0.00   0.00    -0.00  -0.00  -0.00
  22   7    -0.00  -0.00  -0.00    -0.00  -0.00   0.00     0.00  -0.00   0.00
  23   6    -0.00   0.00  -0.00    -0.00   0.00  -0.00    -0.00   0.00  -0.00
  24   6     0.00   0.00   0.00     0.00   0.00   0.00     0.00   0.00   0.00
  25   7     0.00  -0.00   0.00     0.00  -0.00   0.00     0.00  -0.00   0.00
  26   1     0.01  -0.11   0.02     0.03  -0.31   0.05     0.01  -0.16   0.03
  27   1     0.27  -0.03   0.03     0.72  -0.08   0.08     0.40  -0.04   0.04
  28   1    -0.70  -0.06   0.06     0.22   0.02  -0.02     0.12   0.01  -0.01
  29   1    -0.03  -0.31   0.05     0.01   0.10  -0.02     0.01   0.05  -0.01
  30   1     0.00  -0.01   0.00    -0.00   0.00  -0.00    -0.00   0.00  -0.00
  31   1     0.00  -0.02   0.00     0.00  -0.00   0.00     0.00  -0.00   0.00
  32   1     0.01  -0.00  -0.00     0.01  -0.00  -0.00     0.00  -0.00  -0.00
  33   1     0.00   0.00  -0.00    -0.00   0.00  -0.00    -0.00   0.00   0.00
  34   1    -0.01  -0.00  -0.00    -0.01  -0.00  -0.00    -0.00  -0.00  -0.00
  35   1    -0.00  -0.01   0.00    -0.00  -0.01   0.00    -0.00  -0.01   0.00
  36   1    -0.00  -0.00   0.00    -0.00  -0.01   0.00    -0.00  -0.00   0.00
  37   6    -0.00   0.00   0.00     0.00  -0.00  -0.00    -0.00   0.00   0.00
  38   6    -0.00  -0.00   0.00    -0.00  -0.00   0.00     0.00  -0.00   0.00
  39  28    -0.00   0.00   0.00    -0.00  -0.00  -0.00     0.00   0.00   0.00
  40   6     0.00  -0.06  -0.02    -0.00   0.01   0.00    -0.00   0.01   0.00
  41   6     0.13  -0.00  -0.02    -0.02   0.00   0.00    -0.03   0.00   0.00
  42   6     0.00   0.00   0.00    -0.00  -0.00  -0.00    -0.00  -0.00  -0.00
  43   6     0.00  -0.00  -0.00     0.00   0.00   0.00    -0.00  -0.00  -0.00
  44   6     0.00   0.00  -0.00     0.00  -0.00  -0.00    -0.00   0.01   0.00
  45   6    -0.01  -0.00  -0.00     0.13   0.01   0.01    -0.23  -0.02  -0.01
  46   6     0.00  -0.00  -0.00     0.00   0.06   0.00     0.00  -0.10  -0.01
  47   6     0.00  -0.00   0.00    -0.00   0.00   0.00     0.00  -0.00   0.00
  48   7    -0.00   0.00   0.00    -0.00  -0.00  -0.00     0.00   0.00   0.00
  49   6    -0.00  -0.00   0.00     0.00   0.00   0.00    -0.00  -0.00  -0.00
  50   6     0.00   0.00  -0.00    -0.00  -0.00  -0.00    -0.00   0.00   0.00
  51   6     0.00  -0.00   0.00    -0.00   0.00   0.00     0.00  -0.00  -0.00
  52   6     0.00  -0.00  -0.00    -0.00  -0.00   0.00     0.00   0.00  -0.00
  53   6     0.00   0.00  -0.00    -0.00  -0.00   0.00     0.00   0.00  -0.00
  54   7    -0.00  -0.00   0.00     0.00  -0.00   0.00    -0.00   0.00  -0.00
  55   6    -0.00  -0.00   0.00    -0.00   0.00   0.00     0.00  -0.00  -0.00
  56   6    -0.00   0.00   0.00     0.00  -0.00  -0.00    -0.00   0.00   0.00
  57   6    -0.00  -0.00   0.00     0.00   0.00  -0.00    -0.00  -0.00   0.00
  58   6    -0.00  -0.00  -0.00     0.00   0.00   0.00    -0.00  -0.00  -0.00
  59   6     0.00   0.00  -0.00    -0.00   0.00   0.00    -0.00  -0.00  -0.00
  60   7    -0.00   0.00   0.00    -0.00  -0.00  -0.00     0.00  -0.00   0.00
  61   6     0.00  -0.00  -0.00    -0.00   0.00   0.00    -0.00   0.00   0.00
  62   6    -0.00  -0.00   0.00     0.00  -0.00  -0.00     0.00   0.00  -0.00
  63   7    -0.00   0.00   0.00     0.00  -0.00  -0.00     0.00  -0.00  -0.00
  64   1    -0.02   0.19   0.05     0.00  -0.03  -0.01     0.01  -0.04  -0.01
  65   1    -0.44   0.03   0.06     0.07  -0.00  -0.01     0.09  -0.01  -0.01
  66   1     0.03   0.00   0.00    -0.43  -0.06  -0.02     0.76   0.10   0.04
  67   1     0.00   0.01   0.00    -0.01  -0.18  -0.01     0.02   0.31   0.03
  68   1     0.00   0.00  -0.00     0.00  -0.00  -0.00    -0.00   0.01   0.00
  69   1    -0.00   0.00   0.00     0.00  -0.01  -0.00    -0.00   0.01   0.00
  70   1    -0.00   0.00   0.00     0.01  -0.00  -0.00    -0.01   0.00   0.00
  71   1     0.00  -0.00  -0.00     0.00   0.00  -0.00    -0.00  -0.00   0.00
  72   1     0.01   0.00  -0.00    -0.01  -0.00   0.00     0.01   0.00  -0.00
  73   1     0.00   0.01   0.00    -0.00  -0.01  -0.00     0.00   0.01   0.00
  74   1     0.00   0.00   0.00    -0.00  -0.00  -0.00    -0.00  -0.00  -0.00
