      -----------------------------------------------------------      
     |                   =====================                   |     
     |                           x T B                           |     
     |                   =====================                   |     
     |                         S. Grimme                         |     
     |          Mulliken Center for Theoretical Chemistry        |     
     |                    University of Bonn                     |     
      -----------------------------------------------------------      

   * xtb version 6.4.1 (bd6e46d) compiled by 'conda@4901f00b25ba' on 2021-06-10

   xtb is free software: you can redistribute it and/or modify it under
   the terms of the GNU Lesser General Public License as published by
   the Free Software Foundation, either version 3 of the License, or
   (at your option) any later version.
   
   xtb is distributed in the hope that it will be useful,
   but WITHOUT ANY WARRANTY; without even the implied warranty of
   MERCHANTABILITY or FITNESS FOR A PARTICULAR PURPOSE.  See the
   GNU Lesser General Public License for more details.
   
   Cite this work as:
   * C. Bannwarth, E. Caldeweyher, S. Ehlert, A. Hansen, P. Pracht,
     J. Seibert, S. Spicher, S. Grimme, WIREs Comput. Mol. Sci., 2020, 11,
     e01493. DOI: 10.1002/wcms.1493
   
   for GFN2-xTB:
   * C. Bannwarth, S. Ehlert and S. Grimme., J. Chem. Theory Comput., 2019,
     15, 1652-1671. DOI: 10.1021/acs.jctc.8b01176
   for GFN1-xTB:
   * S. Grimme, C. Bannwarth, P. Shushkov, J. Chem. Theory Comput., 2017,
     13, 1989-2009. DOI: 10.1021/acs.jctc.7b00118
   for GFN0-xTB:
   * P. Pracht, E. Caldeweyher, S. Ehlert, S. Grimme, ChemRxiv, 2019, preprint.
     DOI: 10.26434/chemrxiv.8326202.v1
   for GFN-FF:
   * S. Spicher and S. Grimme, Angew. Chem. Int. Ed., 2020, 59, 15665-15673.
     DOI: 10.1002/anie.202004239
   
   for DFT-D4:
   * E. Caldeweyher, C. Bannwarth and S. Grimme, J. Chem. Phys., 2017,
     147, 034112. DOI: 10.1063/1.4993215
   * E. Caldeweyher, S. Ehlert, A. Hansen, H. Neugebauer, S. Spicher,
     C. Bannwarth and S. Grimme, J. Chem. Phys., 2019, 150, 154122.
     DOI: 10.1063/1.5090222
   * E. Caldeweyher, J.-M. Mewes, S. Ehlert and S. Grimme, Phys. Chem. Chem. Phys.
     2020, 22, 8499-8512. DOI: 10.1039/D0CP00502A
   
   for sTDA-xTB:
   * S. Grimme and C. Bannwarth, J. Chem. Phys., 2016, 145, 054103.
     DOI: 10.1063/1.4959605
   
   in the mass-spec context:
   * V. Asgeirsson, C. Bauer and S. Grimme, Chem. Sci., 2017, 8, 4879.
     DOI: 10.1039/c7sc00601b
   * J. Koopman and S. Grimme, ACS Omega 2019, 4, 12, 15120-15133.
     DOI: 10.1021/acsomega.9b02011
   
   for metadynamics refer to:
   * S. Grimme, J. Chem. Theory Comput., 2019, 155, 2847-2862
     DOI: 10.1021/acs.jctc.9b00143
   
   for SPH calculations refer to:
   * S. Spicher and S. Grimme, J. Chem. Theory Comput., 2021, 17, 1701-1714
     DOI: 10.1021/acs.jctc.0c01306
   
   with help from (in alphabetical order)
   P. Atkinson, C. Bannwarth, F. Bohle, G. Brandenburg, E. Caldeweyher
   M. Checinski, S. Dohm, S. Ehlert, S. Ehrlich, I. Gerasimov, J. Koopman
   C. Lavigne, S. Lehtola, F. März, M. Müller, F. Musil, H. Neugebauer
   J. Pisarek, C. Plett, P. Pracht, J. Seibert, P. Shushkov, S. Spicher
   M. Stahn, M. Steiner, T. Strunk, J. Stückrath, T. Rose, and J. Unsleber
   
 * started run on 2021/11/19 at 10:36:18.064     

           -------------------------------------------------
          |                Calculation Setup                |
           -------------------------------------------------

          program call               : /home/jeff/miniconda3/bin/xtb input_structure_1.xyz --gfn 2 --ohess normal --parallel 1 --etemp 300 --chrg 0 --uhf 0 -I det_control.in
          hostname                   : jelfscompute1
          coordinate file            : input_structure_1.xyz
          omp threads                :                     1
          number of atoms            :                    74
          number of electrons        :                   250
          charge                     :                     0
          spin                       :                   0.0
          first test random number   :      0.99180594940069

   ID    Z sym.   atoms
    1   28 Ni     1, 39
    2    6 C      2-9, 11-15, 17-21, 23, 24, 37, 38, 40-47, 49-53, 55-59, 61,
                  62
    3    7 N      10, 16, 22, 25, 48, 54, 60, 63
    4    1 H      26-36, 64-74

           -------------------------------------------------
          |                 G F N 2 - x T B                 |
           -------------------------------------------------

        Reference                      10.1021/acs.jctc.8b01176
      * Hamiltonian:
        H0-scaling (s, p, d)           1.850000    2.230000    2.230000
        zeta-weighting                 0.500000
      * Dispersion:
        s8                             2.700000
        a1                             0.520000
        a2                             5.000000
        s9                             5.000000
      * Repulsion:
        kExp                           1.500000    1.000000
        rExp                           1.000000
      * Coulomb:
        alpha                          2.000000
        third order                    shell-resolved
        anisotropic                    true
        a3                             3.000000
        a5                             4.000000
        cn-shift                       1.200000
        cn-exp                         4.000000
        max-rad                        5.000000


          ...................................................
          :                      SETUP                      :
          :.................................................:
          :  # basis functions                 242          :
          :  # atomic orbitals                 240          :
          :  # shells                          128          :
          :  # electrons                       250          :
          :  max. iterations                   250          :
          :  Hamiltonian                  GFN2-xTB          :
          :  restarted?                      false          :
          :  GBSA solvation                  false          :
          :  PC potential                    false          :
          :  electronic temp.          300.0000000     K    :
          :  accuracy                    1.0000000          :
          :  -> integral cutoff          0.2500000E+02      :
          :  -> integral neglect         0.1000000E-07      :
          :  -> SCF convergence          0.1000000E-05 Eh   :
          :  -> wf. convergence          0.1000000E-03 e    :
          :  Broyden damping             0.4000000          :
          ...................................................

 iter      E             dE          RMSdq      gap      omega  full diag
   1   -135.7269785 -0.135727E+03  0.827E+00    0.26       0.0  T
   2   -135.4212935  0.305685E+00  0.474E+00    0.03       1.0  T
   3   -133.3346238  0.208667E+01  0.526E+00    0.29       1.0  T
   4   -135.2932703 -0.195865E+01  0.277E+00    0.27       1.0  T
   5   -133.0424761  0.225079E+01  0.630E+00    0.02       1.0  T
   6   -134.7364250 -0.169395E+01  0.439E+00    0.04       1.0  T
   7   -134.8578919 -0.121467E+00  0.451E+00    0.02       1.0  T
   8   -133.4883896  0.136950E+01  0.586E+00    0.03       1.0  T
   9   -135.8096885 -0.232130E+01  0.293E+00    0.09       1.0  T
  10   -135.9504990 -0.140811E+00  0.243E+00    0.06       1.0  T
  11   -136.2828670 -0.332368E+00  0.932E-01    0.06       1.0  T
  12   -136.3046594 -0.217924E-01  0.688E-01    0.33       1.0  T
  13   -136.3072307 -0.257132E-02  0.677E-01    0.34       1.0  T
  14   -136.3105183 -0.328755E-02  0.558E-01    0.35       1.0  T
  15   -136.3284096 -0.178914E-01  0.372E-01    0.29       1.0  T
  16   -136.3297466 -0.133693E-02  0.336E-01    0.30       1.0  T
  17   -136.3314167 -0.167008E-02  0.303E-01    0.30       1.0  T
  18   -136.3321980 -0.781393E-03  0.281E-01    0.29       1.0  T
  19   -136.3326331 -0.435024E-03  0.250E-01    0.29       1.0  T
  20   -136.3346507 -0.201758E-02  0.210E-01    0.28       1.0  T
  21   -136.3347021 -0.514597E-04  0.199E-01    0.28       1.0  T
  22   -136.3351695 -0.467406E-03  0.179E-01    0.27       1.0  T
  23   -136.3354060 -0.236486E-03  0.154E-01    0.27       1.0  T
  24   -136.3355988 -0.192796E-03  0.132E-01    0.27       1.0  T
  25   -136.3357424 -0.143594E-03  0.115E-01    0.27       1.0  T
  26   -136.3359923 -0.249907E-03  0.820E-02    0.26       1.0  T
  27   -136.3361302 -0.137858E-03  0.600E-02    0.26       1.0  T
  28   -136.3362399 -0.109780E-03  0.341E-02    0.25       1.0  T
  29   -136.3362911 -0.511386E-04  0.109E-02    0.25       1.1  T
  30   -136.3362949 -0.382892E-05  0.519E-03    0.24       2.2  T
  31   -136.3362968 -0.188885E-05  0.387E-03    0.24       3.0  T
  32   -136.3362973 -0.529650E-06  0.210E-03    0.25       5.5  T
  33   -136.3362976 -0.246055E-06  0.707E-04    0.24      16.4  T
  34   -136.3362976  0.233561E-08  0.441E-04    0.24      26.3  T

   *** convergence criteria satisfied after 34 iterations ***

         #    Occupation            Energy/Eh            Energy/eV
      -------------------------------------------------------------
         1        2.0000           -0.6999755             -19.0473
       ...           ...                  ...                  ...
       119        2.0000           -0.3557355              -9.6801
       120        2.0000           -0.3533067              -9.6140
       121        2.0000           -0.3515273              -9.5655
       122        1.9998           -0.3449692              -9.3871
       123        1.9993           -0.3436289              -9.3506
       124        1.9980           -0.3426005              -9.3226
       125        1.9839           -0.3406100              -9.2685 (HOMO)
       126        0.0189           -0.3316158              -9.0237 (LUMO)
       127                         -0.3166741              -8.6171
       128                         -0.3120054              -8.4901
       129                         -0.3051783              -8.3043
       130                         -0.3004249              -8.1750
       ...                                ...                  ...
       240                          4.2325967             115.1748
      -------------------------------------------------------------
                  HL-Gap            0.0089942 Eh            0.2447 eV
             Fermi-level           -0.3360351 Eh           -9.1440 eV

 SCC (total)                   0 d,  0 h,  0 min,  0.485 sec
 SCC setup                      ...        0 min,  0.002 sec (  0.368%)
 Dispersion                     ...        0 min,  0.003 sec (  0.577%)
 classical contributions        ...        0 min,  0.001 sec (  0.140%)
 integral evaluation            ...        0 min,  0.025 sec (  5.132%)
 iterations                     ...        0 min,  0.368 sec ( 75.965%)
 molecular gradient             ...        0 min,  0.085 sec ( 17.607%)
 printout                       ...        0 min,  0.001 sec (  0.208%)

         :::::::::::::::::::::::::::::::::::::::::::::::::::::
         ::                     SUMMARY                     ::
         :::::::::::::::::::::::::::::::::::::::::::::::::::::
         :: total energy            -133.312174384672 Eh    ::
         :: gradient norm              2.266346980981 Eh/a0 ::
         :: HOMO-LUMO gap              0.244744595114 eV    ::
         ::.................................................::
         :: SCC energy              -136.336297570443 Eh    ::
         :: -> isotropic ES            0.066744654360 Eh    ::
         :: -> anisotropic ES          0.012640233124 Eh    ::
         :: -> anisotropic XC          0.052428271497 Eh    ::
         :: -> dispersion             -0.119345723818 Eh    ::
         :: repulsion energy           3.024110062168 Eh    ::
         :: add. restraining           0.000000000000 Eh    ::
         :: total charge               0.000000000002 e     ::
         :::::::::::::::::::::::::::::::::::::::::::::::::::::

      ----------------------------------------------------------- 
     |                   =====================                   |
     |                        A N C O P T                        |
     |                   =====================                   |
     |               Approximate Normal Coordinate               |
     |                Rational Function Optimizer                |
      ----------------------------------------------------------- 

          ...................................................
          :                      SETUP                      :
          :.................................................:
          :   optimization level            normal          :
          :   max. optcycles                   222          :
          :   ANC micro-cycles                  20          :
          :   degrees of freedom               216          :
          :.................................................:
          :   RF solver                   davidson          :
          :   write xtbopt.log                true          :
          :   linear?                        false          :
          :   energy convergence         0.5000000E-05 Eh   :
          :   grad. convergence          0.1000000E-02 Eh/α :
          :   maximium RF displ.         1.0000000          :
          :   Hlow (freq-cutoff)         0.1000000E-01      :
          :   Hmax (freq-cutoff)         5.0000000          :
          :   S6 in model hess.         20.0000000          :
          ...................................................

generating ANC from model Hessian ...
Using Lindh-Hessian (1995)
 Shifting diagonal of input Hessian by    1.0007019626338471E-002
 Lowest  eigenvalues of input Hessian
    0.010000    0.000000    0.000000    0.000000    0.000000    0.000000
    0.000000    0.010132    0.010269    0.010799    0.011142    0.011514
    0.011745    0.011948    0.012578    0.013098    0.014195    0.014484
 Highest eigenvalues
    2.226785    2.661895    3.220586    3.589358    4.083715    4.498012


........................................................................
.............................. CYCLE    1 ..............................
........................................................................
   1   -136.3362976 -0.136336E+03  0.386E-04    0.24       0.0  T
   2   -136.3362975  0.485298E-07  0.726E-04    0.25      16.0  T
   3   -136.3362975 -0.810408E-08  0.463E-04    0.24      25.1  T
     SCC iter.                  ...        0 min,  0.034 sec
     gradient                   ...        0 min,  0.084 sec
 * total energy  :  -133.3121744 Eh     change        0.2361855E-07 Eh
   gradient norm :     2.2663460 Eh/α   predicted     0.0000000E+00 (-100.00%)
   displ. norm   :     0.5423360 α      lambda       -0.1095367E+01
   maximum displ.:     0.3803933 α      in ANC's #216, #166, #121, ...

........................................................................
.............................. CYCLE    2 ..............................
........................................................................
   1   -136.3745056 -0.136375E+03  0.638E-01    0.41       0.0  T
   2   -136.3714323  0.307337E-02  0.458E-01    0.46       1.0  T
   3   -136.3754923 -0.406006E-02  0.368E-01    0.35       1.0  T
   4   -136.3815767 -0.608437E-02  0.189E-01    0.48       1.0  T
   5   -136.3857183 -0.414158E-02  0.605E-02    0.40       1.0  T
   6   -136.3860234 -0.305084E-03  0.392E-02    0.43       1.0  T
   7   -136.3860621 -0.387696E-04  0.286E-02    0.41       1.0  T
   8   -136.3860923 -0.302138E-04  0.142E-02    0.43       1.0  T
   9   -136.3860972 -0.481749E-05  0.977E-03    0.41       1.2  T
  10   -136.3861023 -0.511025E-05  0.570E-03    0.42       2.0  T
  11   -136.3861036 -0.133833E-05  0.285E-03    0.42       4.1  T
  12   -136.3861037 -0.104096E-06  0.194E-03    0.42       6.0  T
  13   -136.3861039 -0.161297E-06  0.961E-04    0.42      12.1  T
  14   -136.3861039 -0.301717E-07  0.504E-04    0.42      23.1  T
     SCC iter.                  ...        0 min,  0.137 sec
     gradient                   ...        0 min,  0.076 sec
 * total energy  :  -133.8494424 Eh     change       -0.5372680E+00 Eh
   gradient norm :     0.5616555 Eh/α   predicted    -0.7087854E+00 (  31.92%)
   displ. norm   :     0.6176324 α      lambda       -0.2816191E+00
   maximum displ.:     0.1803149 α      in ANC's #121, #166, #80, ...

........................................................................
.............................. CYCLE    3 ..............................
........................................................................
   1   -136.3173279 -0.136317E+03  0.599E-01    0.48       0.0  T
   2   -136.3152948  0.203313E-02  0.445E-01    0.57       1.0  T
   3   -136.3147726  0.522136E-03  0.354E-01    0.43       1.0  T
   4   -136.3198080 -0.503537E-02  0.198E-01    0.55       1.0  T
   5   -136.3250587 -0.525075E-02  0.568E-02    0.50       1.0  T
   6   -136.3250990 -0.402951E-04  0.458E-02    0.52       1.0  T
   7   -136.3250986  0.408296E-06  0.356E-02    0.49       1.0  T
   8   -136.3251889 -0.902648E-04  0.151E-02    0.52       1.0  T
   9   -136.3251982 -0.930889E-05  0.912E-03    0.51       1.3  T
  10   -136.3252007 -0.248747E-05  0.615E-03    0.51       1.9  T
  11   -136.3252020 -0.128978E-05  0.294E-03    0.51       3.9  T
  12   -136.3252023 -0.356212E-06  0.168E-03    0.51       6.9  T
  13   -136.3252024 -0.363180E-07  0.106E-03    0.51      10.9  T
  14   -136.3252024 -0.574705E-07  0.410E-04    0.51      28.3  T
  15   -136.3252024 -0.872893E-08  0.221E-04    0.51      52.7  T
     SCC iter.                  ...        0 min,  0.145 sec
     gradient                   ...        0 min,  0.076 sec
 * total energy  :  -134.0190488 Eh     change       -0.1696065E+00 Eh
   gradient norm :     0.3286450 Eh/α   predicted    -0.1945242E+00 (  14.69%)
   displ. norm   :     0.6263501 α      lambda       -0.1131552E+00
   maximum displ.:     0.1914833 α      in ANC's #73, #80, #71, ...

........................................................................
.............................. CYCLE    4 ..............................
........................................................................
   1   -136.3592358 -0.136359E+03  0.468E-01    0.60       0.0  T
   2   -136.3598985 -0.662685E-03  0.296E-01    0.78       1.0  T
   3   -136.3608011 -0.902565E-03  0.237E-01    0.63       1.0  T
   4   -136.3621037 -0.130259E-02  0.129E-01    0.72       1.0  T
   5   -136.3639128 -0.180914E-02  0.407E-02    0.73       1.0  T
   6   -136.3639743 -0.615019E-04  0.313E-02    0.72       1.0  T
   7   -136.3639893 -0.150126E-04  0.212E-02    0.73       1.0  T
   8   -136.3640174 -0.281061E-04  0.973E-03    0.73       1.2  T
   9   -136.3640220 -0.461746E-05  0.540E-03    0.72       2.2  T
  10   -136.3640219  0.101266E-06  0.363E-03    0.72       3.2  T
  11   -136.3640227 -0.785888E-06  0.174E-03    0.72       6.7  T
  12   -136.3640229 -0.129974E-06  0.111E-03    0.72      10.5  T
  13   -136.3640229 -0.107511E-07  0.644E-04    0.72      18.0  T
  14   -136.3640229 -0.336422E-07  0.267E-04    0.72      43.5  T
     SCC iter.                  ...        0 min,  0.136 sec
     gradient                   ...        0 min,  0.076 sec
 * total energy  :  -134.1092737 Eh     change       -0.9022490E-01 Eh
   gradient norm :     0.1893950 Eh/α   predicted    -0.7877465E-01 ( -12.69%)
   displ. norm   :     0.7156968 α      lambda       -0.7623683E-01
   maximum displ.:     0.2131032 α      in ANC's #51, #73, #80, ...

........................................................................
.............................. CYCLE    5 ..............................
........................................................................
   1   -136.4057600 -0.136406E+03  0.482E-01    0.82       0.0  T
   2   -136.4069557 -0.119570E-02  0.286E-01    1.00       1.0  T
   3   -136.4060102  0.945517E-03  0.215E-01    0.89       1.0  T
   4   -136.4074691 -0.145893E-02  0.105E-01    0.97       1.0  T
   5   -136.4087414 -0.127233E-02  0.330E-02    0.98       1.0  T
   6   -136.4087692 -0.278270E-04  0.207E-02    0.99       1.0  T
   7   -136.4087573  0.119819E-04  0.140E-02    0.98       1.0  T
   8   -136.4087777 -0.204219E-04  0.544E-03    0.98       2.1  T
   9   -136.4087786 -0.898702E-06  0.363E-03    0.98       3.2  T
  10   -136.4087789 -0.330615E-06  0.189E-03    0.98       6.2  T
  11   -136.4087790 -0.101683E-06  0.119E-03    0.98       9.7  T
  12   -136.4087791 -0.674855E-07  0.725E-04    0.98      16.0  T
  13   -136.4087791 -0.138163E-07  0.444E-04    0.98      26.2  T
     SCC iter.                  ...        0 min,  0.128 sec
     gradient                   ...        0 min,  0.076 sec
 * total energy  :  -134.1690752 Eh     change       -0.5980151E-01 Eh
   gradient norm :     0.0906743 Eh/α   predicted    -0.5764352E-01 (  -3.61%)
   displ. norm   :     0.7295560 α      lambda       -0.4443281E-01
   maximum displ.:     0.2540560 α      in ANC's #34, #51, #50, ...

........................................................................
.............................. CYCLE    6 ..............................
........................................................................
   1   -136.4407483 -0.136441E+03  0.433E-01    1.03       0.0  T
   2   -136.4413503 -0.602009E-03  0.262E-01    1.14       1.0  T
   3   -136.4390008  0.234953E-02  0.186E-01    1.10       1.0  T
   4   -136.4409226 -0.192177E-02  0.965E-02    1.14       1.0  T
   5   -136.4422892 -0.136668E-02  0.231E-02    1.15       1.0  T
   6   -136.4422965 -0.728342E-05  0.143E-02    1.15       1.0  T
   7   -136.4422958  0.665308E-06  0.743E-03    1.15       1.6  T
   8   -136.4423011 -0.527385E-05  0.306E-03    1.15       3.8  T
   9   -136.4423015 -0.332590E-06  0.189E-03    1.15       6.2  T
  10   -136.4423016 -0.112104E-06  0.981E-04    1.15      11.8  T
  11   -136.4423016 -0.735000E-08  0.544E-04    1.15      21.4  T
     SCC iter.                  ...        0 min,  0.107 sec
     gradient                   ...        0 min,  0.076 sec
 * total energy  :  -134.2048191 Eh     change       -0.3574386E-01 Eh
   gradient norm :     0.0631131 Eh/α   predicted    -0.3404115E-01 (  -4.76%)
   displ. norm   :     0.7414720 α      lambda       -0.2907517E-01
   maximum displ.:     0.2721312 α      in ANC's #34, #6, #10, ...

........................................................................
.............................. CYCLE    7 ..............................
........................................................................
   1   -136.4661258 -0.136466E+03  0.384E-01    1.21       0.0  T
   2   -136.4664898 -0.364016E-03  0.234E-01    1.24       1.0  T
   3   -136.4645539  0.193587E-02  0.148E-01    1.24       1.0  T
   4   -136.4660904 -0.153646E-02  0.736E-02    1.24       1.0  T
   5   -136.4669128 -0.822361E-03  0.173E-02    1.24       1.0  T
   6   -136.4669149 -0.213578E-05  0.104E-02    1.24       1.1  T
   7   -136.4669163 -0.141989E-05  0.415E-03    1.24       2.8  T
   8   -136.4669171 -0.829708E-06  0.228E-03    1.24       5.1  T
   9   -136.4669173 -0.208147E-06  0.138E-03    1.24       8.4  T
  10   -136.4669174 -0.368520E-07  0.934E-04    1.24      12.4  T
  11   -136.4669174 -0.303274E-07  0.404E-04    1.24      28.7  T
     SCC iter.                  ...        0 min,  0.108 sec
     gradient                   ...        0 min,  0.076 sec
 * total energy  :  -134.2286699 Eh     change       -0.2385077E-01 Eh
   gradient norm :     0.0514948 Eh/α   predicted    -0.2253009E-01 (  -5.54%)
   displ. norm   :     0.7506976 α      lambda       -0.2007094E-01
   maximum displ.:     0.2880633 α      in ANC's #6, #10, #34, ...

........................................................................
.............................. CYCLE    8 ..............................
........................................................................
   1   -136.4858311 -0.136486E+03  0.337E-01    1.29       0.0  T
   2   -136.4860178 -0.186723E-03  0.211E-01    1.30       1.0  T
   3   -136.4844006  0.161722E-02  0.123E-01    1.29       1.0  T
   4   -136.4857626 -0.136201E-02  0.599E-02    1.30       1.0  T
   5   -136.4862563 -0.493718E-03  0.201E-02    1.30       1.0  T
   6   -136.4862564 -0.537921E-07  0.123E-02    1.30       1.0  T
   7   -136.4862589 -0.250285E-05  0.603E-03    1.30       1.9  T
   8   -136.4862620 -0.316164E-05  0.308E-03    1.30       3.8  T
   9   -136.4862623 -0.281491E-06  0.185E-03    1.30       6.3  T
  10   -136.4862623 -0.387908E-07  0.102E-03    1.30      11.4  T
  11   -136.4862624 -0.331455E-07  0.572E-04    1.30      20.3  T
  12   -136.4862624 -0.174100E-07  0.303E-04    1.30      38.4  T
     SCC iter.                  ...        0 min,  0.116 sec
     gradient                   ...        0 min,  0.076 sec
 * total energy  :  -134.2451399 Eh     change       -0.1647004E-01 Eh
   gradient norm :     0.0353244 Eh/α   predicted    -0.1569096E-01 (  -4.73%)
   displ. norm   :     0.7643659 α      lambda       -0.1384118E-01
   maximum displ.:     0.3659820 α      in ANC's #6, #10, #13, ...

........................................................................
.............................. CYCLE    9 ..............................
........................................................................
   1   -136.5010990 -0.136501E+03  0.286E-01    1.33       0.0  T
   2   -136.5012021 -0.103145E-03  0.184E-01    1.33       1.0  T
   3   -136.5004024  0.799683E-03  0.935E-02    1.33       1.0  T
   4   -136.5011087 -0.706241E-03  0.452E-02    1.33       1.0  T
   5   -136.5012970 -0.188347E-03  0.237E-02    1.33       1.0  T
   6   -136.5012989 -0.185529E-05  0.136E-02    1.33       1.0  T
   7   -136.5013082 -0.932496E-05  0.541E-03    1.33       2.1  T
   8   -136.5013106 -0.234966E-05  0.287E-03    1.33       4.0  T
   9   -136.5013107 -0.126195E-06  0.182E-03    1.33       6.4  T
  10   -136.5013107 -0.672833E-07  0.920E-04    1.33      12.6  T
  11   -136.5013108 -0.522307E-07  0.505E-04    1.33      23.0  T
     SCC iter.                  ...        0 min,  0.106 sec
     gradient                   ...        0 min,  0.076 sec
 * total energy  :  -134.2565042 Eh     change       -0.1136428E-01 Eh
   gradient norm :     0.0252321 Eh/α   predicted    -0.1096399E-01 (  -3.52%)
   displ. norm   :     0.7979843 α      lambda       -0.1068232E-01
   maximum displ.:     0.4421831 α      in ANC's #6, #10, #13, ...

........................................................................
.............................. CYCLE   10 ..............................
........................................................................
   1   -136.5103875 -0.136510E+03  0.275E-01    1.35       0.0  T
   2   -136.5104213 -0.337366E-04  0.185E-01    1.35       1.0  T
   3   -136.5085615  0.185982E-02  0.118E-01    1.34       1.0  T
   4   -136.5104566 -0.189512E-02  0.431E-02    1.35       1.0  T
   5   -136.5105726 -0.116068E-03  0.263E-02    1.35       1.0  T
   6   -136.5105745 -0.187211E-05  0.138E-02    1.35       1.0  T
   7   -136.5105877 -0.131785E-04  0.576E-03    1.35       2.0  T
   8   -136.5105905 -0.285806E-05  0.326E-03    1.35       3.6  T
   9   -136.5105907 -0.138497E-06  0.206E-03    1.35       5.6  T
  10   -136.5105908 -0.714867E-07  0.104E-03    1.35      11.2  T
  11   -136.5105908 -0.505979E-07  0.631E-04    1.35      18.4  T
  12   -136.5105908 -0.801586E-08  0.385E-04    1.35      30.2  T
     SCC iter.                  ...        0 min,  0.119 sec
     gradient                   ...        0 min,  0.076 sec
 * total energy  :  -134.2643936 Eh     change       -0.7889404E-02 Eh
   gradient norm :     0.0262785 Eh/α   predicted    -0.8742304E-02 (  10.81%)
   displ. norm   :     0.7848802 α      lambda       -0.9481648E-02
   maximum displ.:     0.4681166 α      in ANC's #6, #10, #13, ...

........................................................................
.............................. CYCLE   11 ..............................
........................................................................
   1   -136.5171109 -0.136517E+03  0.241E-01    1.37       0.0  T
   2   -136.5171824 -0.715368E-04  0.164E-01    1.37       1.0  T
   3   -136.5165853  0.597129E-03  0.860E-02    1.36       1.0  T
   4   -136.5172277 -0.642387E-03  0.371E-02    1.37       1.0  T
   5   -136.5172623 -0.345958E-04  0.244E-02    1.37       1.0  T
   6   -136.5172689 -0.659702E-05  0.127E-02    1.37       1.0  T
   7   -136.5172819 -0.130019E-04  0.443E-03    1.37       2.6  T
   8   -136.5172827 -0.862377E-06  0.303E-03    1.37       3.8  T
   9   -136.5172828 -0.494407E-07  0.161E-03    1.37       7.2  T
  10   -136.5172828 -0.432564E-07  0.964E-04    1.37      12.1  T
  11   -136.5172829 -0.440801E-07  0.569E-04    1.37      20.4  T
     SCC iter.                  ...        0 min,  0.108 sec
     gradient                   ...        0 min,  0.076 sec
 * total energy  :  -134.2713824 Eh     change       -0.6988784E-02 Eh
   gradient norm :     0.0242597 Eh/α   predicted    -0.7661352E-02 (   9.62%)
   displ. norm   :     0.7337909 α      lambda       -0.6327873E-02
   maximum displ.:     0.5039578 α      in ANC's #6, #10, #13, ...

........................................................................
.............................. CYCLE   12 ..............................
........................................................................
   1   -136.5184606 -0.136518E+03  0.184E-01    1.37       0.0  T
   2   -136.5184736 -0.130174E-04  0.123E-01    1.37       1.0  T
   3   -136.5179208  0.552839E-03  0.688E-02    1.37       1.0  T
   4   -136.5184747 -0.553911E-03  0.271E-02    1.37       1.0  T
   5   -136.5185060 -0.312759E-04  0.178E-02    1.37       1.0  T
   6   -136.5185103 -0.428354E-05  0.999E-03    1.37       1.2  T
   7   -136.5185175 -0.722482E-05  0.238E-03    1.37       4.9  T
   8   -136.5185177 -0.219350E-06  0.143E-03    1.37       8.1  T
   9   -136.5185177 -0.293559E-08  0.998E-04    1.37      11.7  T
  10   -136.5185178 -0.708006E-07  0.501E-04    1.37      23.2  T
     SCC iter.                  ...        0 min,  0.097 sec
     gradient                   ...        0 min,  0.076 sec
 * total energy  :  -134.2769232 Eh     change       -0.5540863E-02 Eh
   gradient norm :     0.0230294 Eh/α   predicted    -0.4867558E-02 ( -12.15%)
   displ. norm   :     0.7720977 α      lambda       -0.6384037E-02
   maximum displ.:     0.5379646 α      in ANC's #6, #10, #5, ...

........................................................................
.............................. CYCLE   13 ..............................
........................................................................
   1   -136.5223397 -0.136522E+03  0.189E-01    1.37       0.0  T
   2   -136.5223604 -0.206549E-04  0.127E-01    1.37       1.0  T
   3   -136.5216153  0.745069E-03  0.797E-02    1.36       1.0  T
   4   -136.5223411 -0.725853E-03  0.324E-02    1.37       1.0  T
   5   -136.5224277 -0.865549E-04  0.177E-02    1.37       1.0  T
   6   -136.5224292 -0.153040E-05  0.103E-02    1.37       1.1  T
   7   -136.5224351 -0.586759E-05  0.381E-03    1.37       3.0  T
   8   -136.5224358 -0.706044E-06  0.240E-03    1.37       4.8  T
   9   -136.5224359 -0.997252E-07  0.159E-03    1.37       7.3  T
  10   -136.5224360 -0.830972E-07  0.858E-04    1.37      13.6  T
  11   -136.5224360 -0.317633E-07  0.482E-04    1.37      24.1  T
     SCC iter.                  ...        0 min,  0.106 sec
     gradient                   ...        0 min,  0.076 sec
 * total energy  :  -134.2822513 Eh     change       -0.5328086E-02 Eh
   gradient norm :     0.0176936 Eh/α   predicted    -0.5094905E-02 (  -4.38%)
   displ. norm   :     0.7948927 α      lambda       -0.5535777E-02
   maximum displ.:     0.5898036 α      in ANC's #6, #5, #10, ...

........................................................................
.............................. CYCLE   14 ..............................
........................................................................
   1   -136.5192163 -0.136519E+03  0.204E-01    1.36       0.0  T
   2   -136.5192413 -0.249800E-04  0.133E-01    1.35       1.0  T
   3   -136.5187348  0.506517E-03  0.658E-02    1.35       1.0  T
   4   -136.5192344 -0.499634E-03  0.268E-02    1.35       1.0  T
   5   -136.5192791 -0.447008E-04  0.167E-02    1.35       1.0  T
   6   -136.5192820 -0.288372E-05  0.980E-03    1.35       1.2  T
   7   -136.5192890 -0.695118E-05  0.336E-03    1.35       3.5  T
   8   -136.5192894 -0.378508E-06  0.226E-03    1.35       5.1  T
   9   -136.5192895 -0.106805E-06  0.141E-03    1.35       8.2  T
  10   -136.5192895 -0.763812E-07  0.741E-04    1.35      15.7  T
  11   -136.5192896 -0.228612E-07  0.403E-04    1.35      28.8  T
     SCC iter.                  ...        0 min,  0.106 sec
     gradient                   ...        0 min,  0.076 sec
 * total energy  :  -134.2866267 Eh     change       -0.4375376E-02 Eh
   gradient norm :     0.0170437 Eh/α   predicted    -0.4516795E-02 (   3.23%)
   displ. norm   :     0.7828792 α      lambda       -0.4747213E-02
   maximum displ.:     0.5891616 α      in ANC's #6, #5, #13, ...

........................................................................
.............................. CYCLE   15 ..............................
........................................................................
   1   -136.5102718 -0.136510E+03  0.207E-01    1.35       0.0  T
   2   -136.5103325 -0.607383E-04  0.137E-01    1.35       1.0  T
   3   -136.5100768  0.255757E-03  0.622E-02    1.35       1.0  T
   4   -136.5103546 -0.277849E-03  0.305E-02    1.35       1.0  T
   5   -136.5103746 -0.199941E-04  0.220E-02    1.35       1.0  T
   6   -136.5103904 -0.158258E-04  0.112E-02    1.35       1.0  T
   7   -136.5103960 -0.560590E-05  0.503E-03    1.35       2.3  T
   8   -136.5103968 -0.711211E-06  0.353E-03    1.35       3.3  T
   9   -136.5103969 -0.108645E-06  0.167E-03    1.35       7.0  T
  10   -136.5103969 -0.494719E-07  0.981E-04    1.35      11.9  T
  11   -136.5103970 -0.610482E-07  0.536E-04    1.35      21.7  T
     SCC iter.                  ...        0 min,  0.107 sec
     gradient                   ...        0 min,  0.076 sec
 * total energy  :  -134.2896349 Eh     change       -0.3008169E-02 Eh
   gradient norm :     0.0209059 Eh/α   predicted    -0.3828392E-02 (  27.27%)
   displ. norm   :     0.6762155 α      lambda       -0.3928654E-02
   maximum displ.:     0.5164359 α      in ANC's #6, #5, #13, ...

........................................................................
.............................. CYCLE   16 ..............................
........................................................................
   1   -136.5088605 -0.136509E+03  0.157E-01    1.35       0.0  T
   2   -136.5088537  0.683377E-05  0.105E-01    1.35       1.0  T
   3   -136.5079760  0.877692E-03  0.782E-02    1.35       1.0  T
   4   -136.5089004 -0.924377E-03  0.247E-02    1.36       1.0  T
   5   -136.5089377 -0.373138E-04  0.155E-02    1.35       1.0  T
   6   -136.5089383 -0.659654E-06  0.893E-03    1.35       1.3  T
   7   -136.5089428 -0.444688E-05  0.327E-03    1.35       3.6  T
   8   -136.5089432 -0.412791E-06  0.228E-03    1.35       5.1  T
   9   -136.5089433 -0.784761E-07  0.146E-03    1.35       8.0  T
  10   -136.5089433 -0.667970E-07  0.773E-04    1.35      15.0  T
  11   -136.5089434 -0.210183E-07  0.465E-04    1.35      25.0  T
     SCC iter.                  ...        0 min,  0.106 sec
     gradient                   ...        0 min,  0.076 sec
 * total energy  :  -134.2925324 Eh     change       -0.2897527E-02 Eh
   gradient norm :     0.0147691 Eh/α   predicted    -0.2862555E-02 (  -1.21%)
   displ. norm   :     0.6931852 α      lambda       -0.2577244E-02
   maximum displ.:     0.5550011 α      in ANC's #6, #5, #13, ...

........................................................................
.............................. CYCLE   17 ..............................
........................................................................
   1   -136.5129400 -0.136513E+03  0.148E-01    1.35       0.0  T
   2   -136.5129469 -0.691070E-05  0.919E-02    1.35       1.0  T
   3   -136.5127797  0.167165E-03  0.379E-02    1.35       1.0  T
   4   -136.5129435 -0.163799E-03  0.152E-02    1.35       1.0  T
   5   -136.5129563 -0.127839E-04  0.982E-03    1.35       1.2  T
   6   -136.5129582 -0.184719E-05  0.507E-03    1.35       2.3  T
   7   -136.5129600 -0.184170E-05  0.172E-03    1.35       6.8  T
   8   -136.5129601 -0.627340E-07  0.117E-03    1.35       9.9  T
   9   -136.5129601 -0.282653E-07  0.685E-04    1.35      17.0  T
  10   -136.5129601 -0.190520E-07  0.384E-04    1.35      30.3  T
     SCC iter.                  ...        0 min,  0.097 sec
     gradient                   ...        0 min,  0.076 sec
 * total energy  :  -134.2945899 Eh     change       -0.2057537E-02 Eh
   gradient norm :     0.0123734 Eh/α   predicted    -0.1907815E-02 (  -7.28%)
   displ. norm   :     0.6969772 α      lambda       -0.2222620E-02
   maximum displ.:     0.5631051 α      in ANC's #6, #5, #13, ...

........................................................................
.............................. CYCLE   18 ..............................
........................................................................
   1   -136.5160799 -0.136516E+03  0.148E-01    1.35       0.0  T
   2   -136.5160859 -0.599888E-05  0.910E-02    1.35       1.0  T
   3   -136.5159027  0.183270E-03  0.401E-02    1.35       1.0  T
   4   -136.5160892 -0.186595E-03  0.144E-02    1.35       1.0  T
   5   -136.5160987 -0.949324E-05  0.903E-03    1.35       1.3  T
   6   -136.5160988 -0.627695E-07  0.545E-03    1.35       2.1  T
   7   -136.5161005 -0.172981E-05  0.145E-03    1.35       8.0  T
   8   -136.5161006 -0.482264E-07  0.938E-04    1.35      12.4  T
   9   -136.5161006 -0.228935E-07  0.539E-04    1.35      21.6  T
     SCC iter.                  ...        0 min,  0.088 sec
     gradient                   ...        0 min,  0.076 sec
 * total energy  :  -134.2963102 Eh     change       -0.1720281E-02 Eh
   gradient norm :     0.0142259 Eh/α   predicted    -0.1651165E-02 (  -4.02%)
   displ. norm   :     0.6881528 α      lambda       -0.2059922E-02
   maximum displ.:     0.5485790 α      in ANC's #6, #5, #13, ...

........................................................................
.............................. CYCLE   19 ..............................
........................................................................
   1   -136.5166423 -0.136517E+03  0.138E-01    1.36       0.0  T
   2   -136.5166469 -0.458865E-05  0.831E-02    1.36       1.0  T
   3   -136.5164889  0.158010E-03  0.330E-02    1.36       1.0  T
   4   -136.5166467 -0.157867E-03  0.105E-02    1.36       1.1  T
   5   -136.5166571 -0.103795E-04  0.557E-03    1.36       2.1  T
   6   -136.5166569  0.191029E-06  0.368E-03    1.36       3.2  T
   7   -136.5166578 -0.871962E-06  0.147E-03    1.36       7.9  T
   8   -136.5166579 -0.132014E-06  0.767E-04    1.36      15.2  T
   9   -136.5166579 -0.204388E-07  0.432E-04    1.36      26.9  T
     SCC iter.                  ...        0 min,  0.088 sec
     gradient                   ...        0 min,  0.076 sec
 * total energy  :  -134.2979028 Eh     change       -0.1592635E-02 Eh
   gradient norm :     0.0167636 Eh/α   predicted    -0.1517708E-02 (  -4.70%)
   displ. norm   :     0.6889391 α      lambda       -0.1919416E-02
   maximum displ.:     0.5291691 α      in ANC's #6, #5, #10, ...

........................................................................
.............................. CYCLE   20 ..............................
........................................................................
   1   -136.5236623 -0.136524E+03  0.139E-01    1.36       0.0  T
   2   -136.5236680 -0.572682E-05  0.824E-02    1.36       1.0  T
   3   -136.5235812  0.868398E-04  0.269E-02    1.36       1.0  T
   4   -136.5236638 -0.826144E-04  0.930E-03    1.36       1.2  T
   5   -136.5236743 -0.105371E-04  0.396E-03    1.36       2.9  T
   6   -136.5236745 -0.145214E-06  0.232E-03    1.36       5.0  T
   7   -136.5236747 -0.274582E-06  0.977E-04    1.36      11.9  T
   8   -136.5236748 -0.439309E-07  0.511E-04    1.36      22.7  T
     SCC iter.                  ...        0 min,  0.080 sec
     gradient                   ...        0 min,  0.076 sec
 * total energy  :  -134.2994022 Eh     change       -0.1499363E-02 Eh
   gradient norm :     0.0193814 Eh/α   predicted    -0.1415226E-02 (  -5.61%)
   displ. norm   :     0.6934035 α      lambda       -0.1877295E-02
   maximum displ.:     0.4704719 α      in ANC's #6, #5, #10, ...
 * RMSD in coord.:     1.2412443 α      energy gain  -0.9872278E+00 Eh

generating ANC from model Hessian ...
Using Lindh-Hessian (1995)
 Shifting diagonal of input Hessian by    1.0018659585392444E-002
 Lowest  eigenvalues of input Hessian
    0.010000    0.010005    0.000000    0.000000    0.000000    0.000000
    0.000000    0.000000    0.010113    0.010354    0.011330    0.011560
    0.011643    0.011955    0.012599    0.012879    0.013304    0.013819
 Highest eigenvalues
    2.140614    2.140942    2.143208    2.145072    2.148489    2.653668


........................................................................
.............................. CYCLE   21 ..............................
........................................................................
   1   -136.5294917 -0.136529E+03  0.137E-01    1.35       0.0  T
   2   -136.5294992 -0.747856E-05  0.812E-02    1.35       1.0  T
   3   -136.5294600  0.391973E-04  0.202E-02    1.35       1.0  T
   4   -136.5294952 -0.352483E-04  0.971E-03    1.35       1.2  T
   5   -136.5295031 -0.793067E-05  0.501E-03    1.35       2.3  T
   6   -136.5295035 -0.317650E-06  0.261E-03    1.35       4.5  T
   7   -136.5295037 -0.249112E-06  0.117E-03    1.35       9.9  T
   8   -136.5295038 -0.575111E-07  0.717E-04    1.35      16.2  T
   9   -136.5295038 -0.101982E-07  0.392E-04    1.35      29.7  T
     SCC iter.                  ...        0 min,  0.087 sec
     gradient                   ...        0 min,  0.076 sec
 * total energy  :  -134.3008478 Eh     change       -0.1445640E-02 Eh
   gradient norm :     0.0191555 Eh/α   predicted     0.0000000E+00 (-100.00%)
   displ. norm   :     0.1833445 α      lambda       -0.9330487E-03
   maximum displ.:     0.1313213 α      in ANC's #7, #12, #5, ...

........................................................................
.............................. CYCLE   22 ..............................
........................................................................
   1   -136.5296274 -0.136530E+03  0.527E-02    1.34       0.0  T
   2   -136.5296295 -0.207248E-05  0.324E-02    1.34       1.0  T
   3   -136.5296020  0.274717E-04  0.156E-02    1.34       1.0  T
   4   -136.5296289 -0.268825E-04  0.530E-03    1.34       2.2  T
   5   -136.5296322 -0.330001E-05  0.231E-03    1.34       5.0  T
   6   -136.5296322 -0.616014E-07  0.141E-03    1.34       8.3  T
   7   -136.5296323 -0.788368E-07  0.703E-04    1.34      16.5  T
   8   -136.5296324 -0.521253E-07  0.245E-04    1.34      47.5  T
     SCC iter.                  ...        0 min,  0.078 sec
     gradient                   ...        0 min,  0.076 sec
 * total energy  :  -134.3015762 Eh     change       -0.7283231E-03 Eh
   gradient norm :     0.0097747 Eh/α   predicted    -0.4822699E-03 ( -33.78%)
   displ. norm   :     0.3686741 α      lambda       -0.1029601E-02
   maximum displ.:     0.2718508 α      in ANC's #7, #12, #5, ...

........................................................................
.............................. CYCLE   23 ..............................
........................................................................
   1   -136.5301089 -0.136530E+03  0.898E-02    1.33       0.0  T
   2   -136.5301131 -0.414579E-05  0.543E-02    1.33       1.0  T
   3   -136.5300399  0.731622E-04  0.244E-02    1.33       1.0  T
   4   -136.5301117 -0.717678E-04  0.795E-03    1.33       1.5  T
   5   -136.5301194 -0.772666E-05  0.338E-03    1.33       3.4  T
   6   -136.5301196 -0.170431E-06  0.212E-03    1.33       5.5  T
   7   -136.5301197 -0.158316E-06  0.101E-03    1.33      11.5  T
   8   -136.5301198 -0.971156E-07  0.372E-04    1.33      31.3  T
   9   -136.5301198 -0.200581E-08  0.243E-04    1.33      47.9  T
     SCC iter.                  ...        0 min,  0.087 sec
     gradient                   ...        0 min,  0.076 sec
 * total energy  :  -134.3022996 Eh     change       -0.7234632E-03 Eh
   gradient norm :     0.0077127 Eh/α   predicted    -0.5847728E-03 ( -19.17%)
   displ. norm   :     0.3171835 α      lambda       -0.5335652E-03
   maximum displ.:     0.2419780 α      in ANC's #7, #5, #12, ...

........................................................................
.............................. CYCLE   24 ..............................
........................................................................
   1   -136.5315951 -0.136532E+03  0.703E-02    1.33       0.0  T
   2   -136.5315963 -0.128407E-05  0.421E-02    1.33       1.0  T
   3   -136.5315684  0.279384E-04  0.144E-02    1.33       1.0  T
   4   -136.5315961 -0.276679E-04  0.498E-03    1.33       2.3  T
   5   -136.5315983 -0.224131E-05  0.281E-03    1.33       4.1  T
   6   -136.5315984 -0.645009E-07  0.166E-03    1.33       7.0  T
   7   -136.5315985 -0.133418E-06  0.625E-04    1.33      18.6  T
   8   -136.5315985 -0.266905E-07  0.309E-04    1.33      37.6  T
     SCC iter.                  ...        0 min,  0.079 sec
     gradient                   ...        0 min,  0.076 sec
 * total energy  :  -134.3027343 Eh     change       -0.4346415E-03 Eh
   gradient norm :     0.0106061 Eh/α   predicted    -0.2936275E-03 ( -32.44%)
   displ. norm   :     0.3405042 α      lambda       -0.5415959E-03
   maximum displ.:     0.2559322 α      in ANC's #7, #5, #6, ...

........................................................................
.............................. CYCLE   25 ..............................
........................................................................
   1   -136.5345749 -0.136535E+03  0.707E-02    1.32       0.0  T
   2   -136.5345760 -0.109598E-05  0.422E-02    1.32       1.0  T
   3   -136.5345669  0.910940E-05  0.961E-03    1.32       1.2  T
   4   -136.5345761 -0.927107E-05  0.429E-03    1.32       2.7  T
   5   -136.5345766 -0.439745E-06  0.309E-03    1.32       3.8  T
   6   -136.5345769 -0.326087E-06  0.136E-03    1.32       8.5  T
   7   -136.5345770 -0.102448E-06  0.499E-04    1.32      23.3  T
   8   -136.5345770 -0.736679E-08  0.277E-04    1.32      42.0  T
     SCC iter.                  ...        0 min,  0.078 sec
     gradient                   ...        0 min,  0.076 sec
 * total energy  :  -134.3031943 Eh     change       -0.4600475E-03 Eh
   gradient norm :     0.0089584 Eh/α   predicted    -0.3021997E-03 ( -34.31%)
   displ. norm   :     0.4050714 α      lambda       -0.5740233E-03
   maximum displ.:     0.3048932 α      in ANC's #7, #5, #6, ...

........................................................................
.............................. CYCLE   26 ..............................
........................................................................
   1   -136.5375069 -0.136538E+03  0.832E-02    1.32       0.0  T
   2   -136.5375085 -0.160873E-05  0.496E-02    1.32       1.0  T
   3   -136.5374980  0.104663E-04  0.109E-02    1.32       1.1  T
   4   -136.5375082 -0.101413E-04  0.481E-03    1.32       2.4  T
   5   -136.5375092 -0.104043E-05  0.319E-03    1.32       3.6  T
   6   -136.5375095 -0.321308E-06  0.146E-03    1.32       8.0  T
   7   -136.5375097 -0.155356E-06  0.592E-04    1.32      19.6  T
   8   -136.5375097 -0.147348E-07  0.321E-04    1.32      36.2  T
     SCC iter.                  ...        0 min,  0.079 sec
     gradient                   ...        0 min,  0.076 sec
 * total energy  :  -134.3036659 Eh     change       -0.4715936E-03 Eh
   gradient norm :     0.0051901 Eh/α   predicted    -0.3341061E-03 ( -29.15%)
   displ. norm   :     0.4243010 α      lambda       -0.4611797E-03
   maximum displ.:     0.3165506 α      in ANC's #7, #5, #6, ...

........................................................................
.............................. CYCLE   27 ..............................
........................................................................
   1   -136.5386435 -0.136539E+03  0.830E-02    1.32       0.0  T
   2   -136.5386447 -0.121959E-05  0.496E-02    1.32       1.0  T
   3   -136.5386174  0.272423E-04  0.142E-02    1.32       1.0  T
   4   -136.5386441 -0.266414E-04  0.495E-03    1.32       2.3  T
   5   -136.5386464 -0.226126E-05  0.248E-03    1.32       4.7  T
   6   -136.5386464 -0.761794E-07  0.116E-03    1.32      10.1  T
   7   -136.5386465 -0.978239E-07  0.432E-04    1.32      26.9  T
   8   -136.5386465 -0.115447E-07  0.213E-04    1.32      54.7  T
     SCC iter.                  ...        0 min,  0.079 sec
     gradient                   ...        0 min,  0.076 sec
 * total energy  :  -134.3040485 Eh     change       -0.3826204E-03 Eh
   gradient norm :     0.0038640 Eh/α   predicted    -0.2721072E-03 ( -28.88%)
   displ. norm   :     0.3978373 α      lambda       -0.3520801E-03
   maximum displ.:     0.2930640 α      in ANC's #7, #5, #6, ...

........................................................................
.............................. CYCLE   28 ..............................
........................................................................
   1   -136.5387987 -0.136539E+03  0.750E-02    1.32       0.0  T
   2   -136.5387995 -0.858985E-06  0.449E-02    1.32       1.0  T
   3   -136.5387697  0.297906E-04  0.142E-02    1.32       1.0  T
   4   -136.5387992 -0.294465E-04  0.490E-03    1.32       2.4  T
   5   -136.5388013 -0.207884E-05  0.254E-03    1.32       4.6  T
   6   -136.5388013 -0.354820E-07  0.133E-03    1.32       8.8  T
   7   -136.5388014 -0.101317E-06  0.459E-04    1.32      25.3  T
   8   -136.5388014 -0.577225E-08  0.252E-04    1.32      46.1  T
     SCC iter.                  ...        0 min,  0.078 sec
     gradient                   ...        0 min,  0.076 sec
 * total energy  :  -134.3043487 Eh     change       -0.3001248E-03 Eh
   gradient norm :     0.0043039 Eh/α   predicted    -0.2039030E-03 ( -32.06%)
   displ. norm   :     0.3954257 α      lambda       -0.3042463E-03
   maximum displ.:     0.2844305 α      in ANC's #7, #5, #6, ...

........................................................................
.............................. CYCLE   29 ..............................
........................................................................
   1   -136.5385584 -0.136539E+03  0.730E-02    1.32       0.0  T
   2   -136.5385592 -0.860899E-06  0.441E-02    1.32       1.0  T
   3   -136.5385336  0.256265E-04  0.137E-02    1.32       1.0  T
   4   -136.5385588 -0.251698E-04  0.563E-03    1.32       2.1  T
   5   -136.5385606 -0.184116E-05  0.348E-03    1.32       3.3  T
   6   -136.5385608 -0.158609E-06  0.175E-03    1.32       6.6  T
   7   -136.5385610 -0.191492E-06  0.548E-04    1.32      21.2  T
   8   -136.5385610 -0.689755E-08  0.301E-04    1.32      38.6  T
     SCC iter.                  ...        0 min,  0.078 sec
     gradient                   ...        0 min,  0.076 sec
 * total energy  :  -134.3046073 Eh     change       -0.2586437E-03 Eh
   gradient norm :     0.0042998 Eh/α   predicted    -0.1759096E-03 ( -31.99%)
   displ. norm   :     0.4111180 α      lambda       -0.2655647E-03
   maximum displ.:     0.2907278 α      in ANC's #7, #5, #6, ...

........................................................................
.............................. CYCLE   30 ..............................
........................................................................
   1   -136.5379945 -0.136538E+03  0.754E-02    1.32       0.0  T
   2   -136.5379956 -0.108658E-05  0.458E-02    1.32       1.0  T
   3   -136.5379769  0.187297E-04  0.131E-02    1.32       1.0  T
   4   -136.5379954 -0.185713E-04  0.608E-03    1.32       1.9  T
   5   -136.5379964 -0.908230E-06  0.417E-03    1.32       2.8  T
   6   -136.5379968 -0.479766E-06  0.197E-03    1.32       5.9  T
   7   -136.5379972 -0.342424E-06  0.590E-04    1.32      19.7  T
   8   -136.5379972 -0.133826E-07  0.328E-04    1.32      35.4  T
     SCC iter.                  ...        0 min,  0.079 sec
     gradient                   ...        0 min,  0.076 sec
 * total energy  :  -134.3048248 Eh     change       -0.2174493E-03 Eh
   gradient norm :     0.0037526 Eh/α   predicted    -0.1552252E-03 ( -28.62%)
   displ. norm   :     0.3848704 α      lambda       -0.1905486E-03
   maximum displ.:     0.2714637 α      in ANC's #7, #5, #6, ...

........................................................................
.............................. CYCLE   31 ..............................
........................................................................
   1   -136.5375135 -0.136538E+03  0.701E-02    1.32       0.0  T
   2   -136.5375146 -0.112004E-05  0.425E-02    1.32       1.0  T
   3   -136.5375026  0.119938E-04  0.115E-02    1.32       1.0  T
   4   -136.5375150 -0.124565E-04  0.526E-03    1.32       2.2  T
   5   -136.5375154 -0.336859E-06  0.355E-03    1.32       3.3  T
   6   -136.5375156 -0.224596E-06  0.158E-03    1.32       7.4  T
   7   -136.5375158 -0.215657E-06  0.559E-04    1.32      20.8  T
   8   -136.5375158 -0.210400E-07  0.332E-04    1.32      35.0  T
     SCC iter.                  ...        0 min,  0.081 sec
     gradient                   ...        0 min,  0.076 sec
 * total energy  :  -134.3049739 Eh     change       -0.1491105E-03 Eh
   gradient norm :     0.0030572 Eh/α   predicted    -0.1093936E-03 ( -26.64%)
   displ. norm   :     0.3019162 α      lambda       -0.1104943E-03
   maximum displ.:     0.2154775 α      in ANC's #7, #5, #6, ...

........................................................................
.............................. CYCLE   32 ..............................
........................................................................
   1   -136.5376846 -0.136538E+03  0.537E-02    1.32       0.0  T
   2   -136.5376854 -0.755691E-06  0.323E-02    1.32       1.0  T
   3   -136.5376774  0.794013E-05  0.883E-03    1.32       1.3  T
   4   -136.5376857 -0.821621E-05  0.363E-03    1.32       3.2  T
   5   -136.5376860 -0.363908E-06  0.249E-03    1.32       4.7  T
   6   -136.5376861 -0.741333E-07  0.121E-03    1.32       9.6  T
   7   -136.5376862 -0.100604E-06  0.421E-04    1.32      27.6  T
   8   -136.5376862 -0.874579E-08  0.244E-04    1.32      47.7  T
     SCC iter.                  ...        0 min,  0.078 sec
     gradient                   ...        0 min,  0.076 sec
 * total energy  :  -134.3050599 Eh     change       -0.8602874E-04 Eh
   gradient norm :     0.0024721 Eh/α   predicted    -0.6028416E-04 ( -29.93%)
   displ. norm   :     0.2233969 α      lambda       -0.6899039E-04
   maximum displ.:     0.1622447 α      in ANC's #7, #5, #1, ...

........................................................................
.............................. CYCLE   33 ..............................
........................................................................
   1   -136.5384334 -0.136538E+03  0.388E-02    1.32       0.0  T
   2   -136.5384337 -0.384792E-06  0.231E-02    1.32       1.0  T
   3   -136.5384270  0.675177E-05  0.695E-03    1.32       1.7  T
   4   -136.5384338 -0.676004E-05  0.238E-03    1.32       4.9  T
   5   -136.5384342 -0.485616E-06  0.141E-03    1.32       8.2  T
   6   -136.5384343 -0.250213E-07  0.814E-04    1.32      14.3  T
   7   -136.5384343 -0.315616E-07  0.332E-04    1.32      35.0  T
     SCC iter.                  ...        0 min,  0.069 sec
     gradient                   ...        0 min,  0.076 sec
 * total energy  :  -134.3051161 Eh     change       -0.5616892E-04 Eh
   gradient norm :     0.0021604 Eh/α   predicted    -0.3621944E-04 ( -35.52%)
   displ. norm   :     0.1955439 α      lambda       -0.6090427E-04
   maximum displ.:     0.1422495 α      in ANC's #7, #1, #5, ...

........................................................................
.............................. CYCLE   34 ..............................
........................................................................
   1   -136.5394187 -0.136539E+03  0.338E-02    1.32       0.0  T
   2   -136.5394190 -0.269232E-06  0.202E-02    1.32       1.0  T
   3   -136.5394138  0.520041E-05  0.588E-03    1.32       2.0  T
   4   -136.5394190 -0.518683E-05  0.201E-03    1.32       5.8  T
   5   -136.5394194 -0.380475E-06  0.113E-03    1.32      10.3  T
   6   -136.5394194 -0.179082E-07  0.641E-04    1.32      18.1  T
   7   -136.5394194 -0.164379E-07  0.265E-04    1.32      43.9  T
     SCC iter.                  ...        0 min,  0.069 sec
     gradient                   ...        0 min,  0.075 sec
 * total energy  :  -134.3051675 Eh     change       -0.5140747E-04 Eh
   gradient norm :     0.0021641 Eh/α   predicted    -0.3161827E-04 ( -38.49%)
   displ. norm   :     0.2105757 α      lambda       -0.6768218E-04
   maximum displ.:     0.1489067 α      in ANC's #7, #1, #5, ...

........................................................................
.............................. CYCLE   35 ..............................
........................................................................
   1   -136.5404262 -0.136540E+03  0.373E-02    1.32       0.0  T
   2   -136.5404265 -0.253903E-06  0.225E-02    1.32       1.0  T
   3   -136.5404212  0.527888E-05  0.619E-03    1.32       1.9  T
   4   -136.5404265 -0.526258E-05  0.255E-03    1.32       4.6  T
   5   -136.5404268 -0.320649E-06  0.171E-03    1.32       6.8  T
   6   -136.5404269 -0.573037E-07  0.821E-04    1.32      14.2  T
   7   -136.5404269 -0.390652E-07  0.297E-04    1.32      39.2  T
     SCC iter.                  ...        0 min,  0.068 sec
     gradient                   ...        0 min,  0.076 sec
 * total energy  :  -134.3052248 Eh     change       -0.5737746E-04 Eh
   gradient norm :     0.0023173 Eh/α   predicted    -0.3534814E-04 ( -38.39%)
   displ. norm   :     0.2375945 α      lambda       -0.7386877E-04
   maximum displ.:     0.1604424 α      in ANC's #7, #1, #12, ...

........................................................................
.............................. CYCLE   36 ..............................
........................................................................
   1   -136.5412080 -0.136541E+03  0.431E-02    1.32       0.0  T
   2   -136.5412083 -0.317337E-06  0.262E-02    1.32       1.0  T
   3   -136.5412058  0.255935E-05  0.557E-03    1.32       2.1  T
   4   -136.5412083 -0.256322E-05  0.294E-03    1.32       3.9  T
   5   -136.5412084 -0.380020E-07  0.203E-03    1.32       5.7  T
   6   -136.5412086 -0.188805E-06  0.846E-04    1.32      13.7  T
   7   -136.5412086 -0.708450E-07  0.287E-04    1.32      40.5  T
     SCC iter.                  ...        0 min,  0.068 sec
     gradient                   ...        0 min,  0.076 sec
 * total energy  :  -134.3052866 Eh     change       -0.6178294E-04 Eh
   gradient norm :     0.0023101 Eh/α   predicted    -0.3901983E-04 ( -36.84%)
   displ. norm   :     0.2526527 α      lambda       -0.7146820E-04
   maximum displ.:     0.1632821 α      in ANC's #7, #1, #12, ...

........................................................................
.............................. CYCLE   37 ..............................
........................................................................
   1   -136.5416715 -0.136542E+03  0.459E-02    1.32       0.0  T
   2   -136.5416719 -0.382364E-06  0.279E-02    1.32       1.0  T
   3   -136.5416697  0.213028E-05  0.562E-03    1.32       2.1  T
   4   -136.5416720 -0.225825E-05  0.288E-03    1.32       4.0  T
   5   -136.5416720  0.171978E-07  0.185E-03    1.32       6.3  T
   6   -136.5416721 -0.140360E-06  0.797E-04    1.32      14.6  T
   7   -136.5416722 -0.680054E-07  0.300E-04    1.32      38.8  T
     SCC iter.                  ...        0 min,  0.070 sec
     gradient                   ...        0 min,  0.076 sec
 * total energy  :  -134.3053458 Eh     change       -0.5920790E-04 Eh
   gradient norm :     0.0020135 Eh/α   predicted    -0.3801562E-04 ( -35.79%)
   displ. norm   :     0.2492045 α      lambda       -0.6372750E-04
   maximum displ.:     0.1685206 α      in ANC's #1, #7, #11, ...

........................................................................
.............................. CYCLE   38 ..............................
........................................................................
   1   -136.5418129 -0.136542E+03  0.449E-02    1.32       0.0  T
   2   -136.5418133 -0.355149E-06  0.272E-02    1.32       1.0  T
   3   -136.5418069  0.636935E-05  0.714E-03    1.32       1.6  T
   4   -136.5418133 -0.635087E-05  0.284E-03    1.32       4.1  T
   5   -136.5418137 -0.394425E-06  0.184E-03    1.32       6.3  T
   6   -136.5418138 -0.858182E-07  0.823E-04    1.32      14.1  T
   7   -136.5418138 -0.537100E-07  0.303E-04    1.32      38.4  T
     SCC iter.                  ...        0 min,  0.069 sec
     gradient                   ...        0 min,  0.076 sec
 * total energy  :  -134.3053987 Eh     change       -0.5288926E-04 Eh
   gradient norm :     0.0016102 Eh/α   predicted    -0.3384492E-04 ( -36.01%)
   displ. norm   :     0.3519570 α      lambda       -0.5609916E-04
   maximum displ.:     0.2470653 α      in ANC's #1, #7, #6, ...

........................................................................
.............................. CYCLE   39 ..............................
........................................................................
   1   -136.5415631 -0.136542E+03  0.629E-02    1.32       0.0  T
   2   -136.5415637 -0.628728E-06  0.382E-02    1.32       1.0  T
   3   -136.5415389  0.248230E-04  0.129E-02    1.32       1.0  T
   4   -136.5415638 -0.249068E-04  0.436E-03    1.32       2.7  T
   5   -136.5415652 -0.138056E-05  0.257E-03    1.32       4.5  T
   6   -136.5415653 -0.102424E-06  0.121E-03    1.32       9.6  T
   7   -136.5415654 -0.913194E-07  0.503E-04    1.32      23.1  T
   8   -136.5415654 -0.280817E-07  0.197E-04    1.32      59.1  T
     SCC iter.                  ...        0 min,  0.078 sec
     gradient                   ...        0 min,  0.075 sec
 * total energy  :  -134.3054616 Eh     change       -0.6291372E-04 Eh
   gradient norm :     0.0017643 Eh/α   predicted    -0.2959877E-04 ( -52.95%)
   displ. norm   :     0.2135210 α      lambda       -0.3268113E-04
   maximum displ.:     0.1572462 α      in ANC's #1, #7, #6, ...

........................................................................
.............................. CYCLE   40 ..............................
........................................................................
   1   -136.5415839 -0.136542E+03  0.384E-02    1.32       0.0  T
   2   -136.5415841 -0.184939E-06  0.240E-02    1.32       1.0  T
   3   -136.5415703  0.137773E-04  0.975E-03    1.32       1.2  T
   4   -136.5415843 -0.139224E-04  0.344E-03    1.32       3.4  T
   5   -136.5415848 -0.529537E-06  0.230E-03    1.32       5.1  T
   6   -136.5415849 -0.105117E-06  0.105E-03    1.32      11.1  T
   7   -136.5415850 -0.780799E-07  0.432E-04    1.32      26.9  T
   8   -136.5415850 -0.150029E-07  0.231E-04    1.32      50.4  T
     SCC iter.                  ...        0 min,  0.079 sec
     gradient                   ...        0 min,  0.076 sec
 * total energy  :  -134.3055018 Eh     change       -0.4013114E-04 Eh
   gradient norm :     0.0017724 Eh/α   predicted    -0.1667524E-04 ( -58.45%)
   displ. norm   :     0.1755102 α      lambda       -0.3074602E-04
   maximum displ.:     0.1322201 α      in ANC's #1, #7, #12, ...

........................................................................
.............................. CYCLE   41 ..............................
........................................................................
   1   -136.5412689 -0.136541E+03  0.331E-02    1.32       0.0  T
   2   -136.5412691 -0.270028E-06  0.212E-02    1.32       1.0  T
   3   -136.5412639  0.528832E-05  0.729E-03    1.32       1.6  T
   4   -136.5412691 -0.524310E-05  0.337E-03    1.32       3.5  T
   5   -136.5412693 -0.167174E-06  0.233E-03    1.32       5.0  T
   6   -136.5412695 -0.195913E-06  0.105E-03    1.32      11.0  T
   7   -136.5412696 -0.113825E-06  0.346E-04    1.32      33.6  T
   8   -136.5412696 -0.669326E-08  0.215E-04    1.32      54.0  T
     SCC iter.                  ...        0 min,  0.078 sec
     gradient                   ...        0 min,  0.076 sec
 * total energy  :  -134.3055379 Eh     change       -0.3614397E-04 Eh
   gradient norm :     0.0015783 Eh/α   predicted    -0.1558631E-04 ( -56.88%)
   displ. norm   :     0.1523243 α      lambda       -0.2583545E-04
   maximum displ.:     0.1177426 α      in ANC's #1, #7, #12, ...

........................................................................
.............................. CYCLE   42 ..............................
........................................................................
   1   -136.5406680 -0.136541E+03  0.287E-02    1.32       0.0  T
   2   -136.5406683 -0.270042E-06  0.183E-02    1.32       1.0  T
   3   -136.5406655  0.278422E-05  0.594E-03    1.32       2.0  T
   4   -136.5406685 -0.291847E-05  0.278E-03    1.32       4.2  T
   5   -136.5406685 -0.753301E-07  0.178E-03    1.32       6.5  T
   6   -136.5406686 -0.589381E-07  0.760E-04    1.32      15.3  T
   7   -136.5406686 -0.595690E-07  0.275E-04    1.32      42.2  T
     SCC iter.                  ...        0 min,  0.069 sec
     gradient                   ...        0 min,  0.076 sec
 * total energy  :  -134.3055673 Eh     change       -0.2940723E-04 Eh
   gradient norm :     0.0013174 Eh/α   predicted    -0.1305473E-04 ( -55.61%)
   displ. norm   :     0.1181802 α      lambda       -0.1917257E-04
   maximum displ.:     0.0940992 α      in ANC's #1, #5, #7, ...
 * RMSD in coord.:     0.6175720 α      energy gain  -0.6165116E-02 Eh

generating ANC from model Hessian ...
Using Lindh-Hessian (1995)
 Shifting diagonal of input Hessian by    1.0044642190292033E-002
 Lowest  eigenvalues of input Hessian
    0.010000    0.010031    0.000000    0.000000    0.000000    0.000000
    0.000000    0.000000    0.010146    0.010329    0.011213    0.011241
    0.011425    0.011950    0.012647    0.013046    0.013404    0.013798
 Highest eigenvalues
    2.147410    2.152416    2.153227    2.154346    2.155722    2.670728


........................................................................
.............................. CYCLE   43 ..............................
........................................................................
   1   -136.5405729 -0.136541E+03  0.216E-02    1.32       0.0  T
   2   -136.5405730 -0.994043E-07  0.133E-02    1.32       1.0  T
   3   -136.5405706  0.237973E-05  0.427E-03    1.32       2.7  T
   4   -136.5405729 -0.231998E-05  0.179E-03    1.32       6.5  T
   5   -136.5405731 -0.186036E-06  0.115E-03    1.32      10.1  T
   6   -136.5405731 -0.233418E-07  0.578E-04    1.32      20.1  T
   7   -136.5405731 -0.237418E-07  0.178E-04    1.32      65.4  T
     SCC iter.                  ...        0 min,  0.070 sec
     gradient                   ...        0 min,  0.076 sec
 * total energy  :  -134.3055923 Eh     change       -0.2494024E-04 Eh
   gradient norm :     0.0011151 Eh/α   predicted     0.0000000E+00 (-100.00%)
   displ. norm   :     0.0451376 α      lambda       -0.1156119E-05
   maximum displ.:     0.0322980 α      in ANC's #1, #12, #7, ...

........................................................................
.............................. CYCLE   44 ..............................
........................................................................
   1   -136.5405860 -0.136541E+03  0.987E-03    1.32       0.0  T
   2   -136.5405860 -0.208243E-07  0.635E-03    1.32       1.8  T
   3   -136.5405851  0.972451E-06  0.300E-03    1.32       3.9  T
   4   -136.5405860 -0.983397E-06  0.119E-03    1.32       9.7  T
   5   -136.5405861 -0.256069E-07  0.858E-04    1.32      13.5  T
   6   -136.5405861 -0.185098E-07  0.401E-04    1.32      29.0  T
     SCC iter.                  ...        0 min,  0.059 sec
     gradient                   ...        0 min,  0.076 sec
 * total energy  :  -134.3056087 Eh     change       -0.1648207E-04 Eh
   gradient norm :     0.0008026 Eh/α   predicted    -0.6183452E-05 ( -62.48%)
   displ. norm   :     0.1436968 α      lambda       -0.3316421E-04
   maximum displ.:     0.0953874 α      in ANC's #1, #12, #7, ...

........................................................................
.............................. CYCLE   45 ..............................
........................................................................
   1   -136.5410619 -0.136541E+03  0.310E-02    1.32       0.0  T
   2   -136.5410621 -0.206783E-06  0.201E-02    1.32       1.0  T
   3   -136.5410509  0.111502E-04  0.984E-03    1.32       1.2  T
   4   -136.5410621 -0.111933E-04  0.387E-03    1.32       3.0  T
   5   -136.5410625 -0.396628E-06  0.278E-03    1.32       4.2  T
   6   -136.5410627 -0.200116E-06  0.130E-03    1.32       8.9  T
   7   -136.5410629 -0.152421E-06  0.381E-04    1.32      30.5  T
   8   -136.5410629 -0.121334E-07  0.188E-04    1.32      61.8  T
     SCC iter.                  ...        0 min,  0.079 sec
     gradient                   ...        0 min,  0.076 sec
 * total energy  :  -134.3056441 Eh     change       -0.3538702E-04 Eh
   gradient norm :     0.0010693 Eh/α   predicted    -0.1673839E-04 ( -52.70%)
   displ. norm   :     0.1473507 α      lambda       -0.2396488E-04
   maximum displ.:     0.1042304 α      in ANC's #1, #7, #12, ...

........................................................................
.............................. CYCLE   46 ..............................
........................................................................
   1   -136.5417219 -0.136542E+03  0.314E-02    1.32       0.0  T
   2   -136.5417221 -0.202049E-06  0.198E-02    1.32       1.0  T
   3   -136.5417133  0.888203E-05  0.856E-03    1.32       1.4  T
   4   -136.5417223 -0.908837E-05  0.321E-03    1.32       3.6  T
   5   -136.5417226 -0.241655E-06  0.230E-03    1.32       5.1  T
   6   -136.5417227 -0.118842E-06  0.108E-03    1.32      10.8  T
   7   -136.5417228 -0.982375E-07  0.378E-04    1.32      30.7  T
   8   -136.5417228 -0.116846E-07  0.195E-04    1.32      59.5  T
     SCC iter.                  ...        0 min,  0.079 sec
     gradient                   ...        0 min,  0.076 sec
 * total energy  :  -134.3056668 Eh     change       -0.2267397E-04 Eh
   gradient norm :     0.0011909 Eh/α   predicted    -0.1210186E-04 ( -46.63%)
   displ. norm   :     0.0820228 α      lambda       -0.1229754E-04
   maximum displ.:     0.0648837 α      in ANC's #1, #5, #11, ...

........................................................................
.............................. CYCLE   47 ..............................
........................................................................
   1   -136.5418801 -0.136542E+03  0.152E-02    1.32       0.0  T
   2   -136.5418801 -0.562636E-07  0.935E-03    1.32       1.2  T
   3   -136.5418795  0.599880E-06  0.247E-03    1.32       4.7  T
   4   -136.5418801 -0.617361E-06  0.108E-03    1.32      10.8  T
   5   -136.5418801 -0.218385E-07  0.758E-04    1.32      15.3  T
   6   -136.5418802 -0.235055E-07  0.284E-04    1.32      40.9  T
     SCC iter.                  ...        0 min,  0.060 sec
     gradient                   ...        0 min,  0.076 sec
 * total energy  :  -134.3056830 Eh     change       -0.1619984E-04 Eh
   gradient norm :     0.0008876 Eh/α   predicted    -0.6170935E-05 ( -61.91%)
   displ. norm   :     0.0871681 α      lambda       -0.1656239E-04
   maximum displ.:     0.0689813 α      in ANC's #1, #5, #11, ...

........................................................................
.............................. CYCLE   48 ..............................
........................................................................
   1   -136.5418193 -0.136542E+03  0.181E-02    1.32       0.0  T
   2   -136.5418193 -0.496255E-07  0.113E-02    1.32       1.0  T
   3   -136.5418183  0.101283E-05  0.312E-03    1.32       3.7  T
   4   -136.5418193 -0.990871E-06  0.145E-03    1.32       8.0  T
   5   -136.5418193 -0.308280E-07  0.105E-03    1.32      11.1  T
   6   -136.5418194 -0.633245E-07  0.362E-04    1.32      32.1  T
   7   -136.5418194 -0.962615E-08  0.123E-04    1.32      94.9  T
     SCC iter.                  ...        0 min,  0.071 sec
     gradient                   ...        0 min,  0.076 sec
 * total energy  :  -134.3057046 Eh     change       -0.2157998E-04 Eh
   gradient norm :     0.0005126 Eh/α   predicted    -0.8310307E-05 ( -61.49%)
   displ. norm   :     0.1211632 α      lambda       -0.1942004E-04
   maximum displ.:     0.0940309 α      in ANC's #1, #5, #12, ...

........................................................................
.............................. CYCLE   49 ..............................
........................................................................
   1   -136.5413611 -0.136541E+03  0.245E-02    1.32       0.0  T
   2   -136.5413612 -0.933239E-07  0.154E-02    1.32       1.0  T
   3   -136.5413580  0.317320E-05  0.522E-03    1.32       2.2  T
   4   -136.5413611 -0.313799E-05  0.233E-03    1.32       5.0  T
   5   -136.5413612 -0.116156E-06  0.162E-03    1.32       7.2  T
   6   -136.5413613 -0.110529E-06  0.653E-04    1.32      17.8  T
   7   -136.5413614 -0.331667E-07  0.197E-04    1.32      59.1  T
     SCC iter.                  ...        0 min,  0.069 sec
     gradient                   ...        0 min,  0.076 sec
 * total energy  :  -134.3057277 Eh     change       -0.2310658E-04 Eh
   gradient norm :     0.0007899 Eh/α   predicted    -0.9775546E-05 ( -57.69%)
   displ. norm   :     0.1088423 α      lambda       -0.1382007E-04
   maximum displ.:     0.0876733 α      in ANC's #1, #5, #12, ...

........................................................................
.............................. CYCLE   50 ..............................
........................................................................
   1   -136.5409909 -0.136541E+03  0.218E-02    1.32       0.0  T
   2   -136.5409910 -0.967121E-07  0.136E-02    1.32       1.0  T
   3   -136.5409900  0.964762E-06  0.333E-03    1.32       3.5  T
   4   -136.5409909 -0.937710E-06  0.186E-03    1.32       6.3  T
   5   -136.5409910 -0.432987E-07  0.121E-03    1.32       9.6  T
   6   -136.5409911 -0.816880E-07  0.500E-04    1.32      23.3  T
   7   -136.5409911 -0.239697E-07  0.165E-04    1.32      70.5  T
     SCC iter.                  ...        0 min,  0.069 sec
     gradient                   ...        0 min,  0.076 sec
 * total energy  :  -134.3057434 Eh     change       -0.1573778E-04 Eh
   gradient norm :     0.0009031 Eh/α   predicted    -0.6948306E-05 ( -55.85%)
   displ. norm   :     0.0728578 α      lambda       -0.8962605E-05
   maximum displ.:     0.0609987 α      in ANC's #1, #5, #9, ...

........................................................................
.............................. CYCLE   51 ..............................
........................................................................
   1   -136.5408887 -0.136541E+03  0.138E-02    1.32       0.0  T
   2   -136.5408888 -0.395149E-07  0.850E-03    1.32       1.4  T
   3   -136.5408886  0.112270E-06  0.142E-03    1.32       8.2  T
   4   -136.5408887 -0.102515E-06  0.921E-04    1.32      12.6  T
   5   -136.5408888 -0.157014E-07  0.610E-04    1.32      19.0  T
     SCC iter.                  ...        0 min,  0.050 sec
     gradient                   ...        0 min,  0.076 sec
 * total energy  :  -134.3057549 Eh     change       -0.1147944E-04 Eh
   gradient norm :     0.0007222 Eh/α   predicted    -0.4492770E-05 ( -60.86%)
   displ. norm   :     0.0579873 α      lambda       -0.7698696E-05
   maximum displ.:     0.0495889 α      in ANC's #1, #5, #4, ...

........................................................................
.............................. CYCLE   52 ..............................
........................................................................
   1   -136.5409481 -0.136541E+03  0.103E-02    1.32       0.0  T
   2   -136.5409481 -0.182621E-07  0.629E-03    1.32       1.8  T
   3   -136.5409478  0.307156E-06  0.163E-03    1.32       7.1  T
   4   -136.5409481 -0.293601E-06  0.734E-04    1.32      15.8  T
   5   -136.5409481 -0.251177E-07  0.506E-04    1.32      23.0  T
     SCC iter.                  ...        0 min,  0.050 sec
     gradient                   ...        0 min,  0.076 sec
 * total energy  :  -134.3057654 Eh     change       -0.1053187E-04 Eh
   gradient norm :     0.0005580 Eh/α   predicted    -0.3858047E-05 ( -63.37%)
   displ. norm   :     0.0605497 α      lambda       -0.8132213E-05
   maximum displ.:     0.0506071 α      in ANC's #1, #5, #12, ...

........................................................................
.............................. CYCLE   53 ..............................
........................................................................
   1   -136.5410740 -0.136541E+03  0.113E-02    1.32       0.0  T
   2   -136.5410740 -0.501331E-08  0.714E-03    1.32       1.6  T
   3   -136.5410727  0.130318E-05  0.310E-03    1.32       3.8  T
   4   -136.5410740 -0.132930E-05  0.105E-03    1.32      11.1  T
   5   -136.5410740 -0.218573E-07  0.765E-04    1.32      15.2  T
   6   -136.5410740 -0.205735E-07  0.292E-04    1.32      39.7  T
     SCC iter.                  ...        0 min,  0.060 sec
     gradient                   ...        0 min,  0.076 sec
 * total energy  :  -134.3057765 Eh     change       -0.1107813E-04 Eh
   gradient norm :     0.0006037 Eh/α   predicted    -0.4076078E-05 ( -63.21%)
   displ. norm   :     0.0639876 α      lambda       -0.8002065E-05
   maximum displ.:     0.0534911 α      in ANC's #1, #12, #7, ...

........................................................................
.............................. CYCLE   54 ..............................
........................................................................
   1   -136.5412534 -0.136541E+03  0.118E-02    1.32       0.0  T
   2   -136.5412534 -0.130779E-07  0.749E-03    1.32       1.6  T
   3   -136.5412525  0.888030E-06  0.269E-03    1.32       4.3  T
   4   -136.5412534 -0.900746E-06  0.106E-03    1.32      11.0  T
   5   -136.5412534 -0.422145E-08  0.775E-04    1.32      15.0  T
   6   -136.5412534 -0.320308E-07  0.269E-04    1.32      43.1  T
     SCC iter.                  ...        0 min,  0.060 sec
     gradient                   ...        0 min,  0.076 sec
 * total energy  :  -134.3057875 Eh     change       -0.1096500E-04 Eh
   gradient norm :     0.0006708 Eh/α   predicted    -0.4012255E-05 ( -63.41%)
   displ. norm   :     0.0645822 α      lambda       -0.7961276E-05
[...]
    47   6 C       48   7 N                                       1.3688403
    47   6 C       49   6 C                                       1.3802272
    49   6 C       50   6 C                                       1.3796650
    50   6 C       51   6 C                                       1.4348350
    51   6 C       52   6 C                                       1.3507393
    52   6 C       53   6 C                                       1.4350227
    50   6 C       54   7 N                                       1.3660134
    53   6 C       54   7 N                                       1.3653207
    53   6 C       55   6 C                                       1.3804251
    55   6 C       56   6 C                                       1.3803486
    56   6 C       57   6 C                                       1.4350755 (max)
    57   6 C       58   6 C                                       1.3507966
    58   6 C       59   6 C                                       1.4346605
    56   6 C       60   7 N                                       1.3655730
    59   6 C       60   7 N                                       1.3657498
    59   6 C       61   6 C                                       1.3798884
    40   6 C       62   6 C                                       1.4321688
    61   6 C       62   6 C                                       1.3799644
    42   6 C       63   7 N                                       1.3619809
    62   6 C       63   7 N                                       1.3694432
    40   6 C       64   1 H                                       1.0726512
    41   6 C       65   1 H                                       1.0721422
    45   6 C       66   1 H                                       1.0717969 (min)
    46   6 C       67   1 H                                       1.0726527
    49   6 C       68   1 H                                       1.0792723
    51   6 C       69   1 H                                       1.0728792
    52   6 C       70   1 H                                       1.0728626
    55   6 C       71   1 H                                       1.0791263
    57   6 C       72   1 H                                       1.0728602
    58   6 C       73   1 H                                       1.0728780
    61   6 C       74   1 H                                       1.0792801

 * 3 distinct bonds (by element types)

   Z      Z             #   av. dist./Å        max./Å        min./Å
   1 H    6 C          22     1.0743975     1.0792874     1.0717969
   6 C    6 C          41     1.3929045     1.4350755     1.2126223
   6 C    7 N          16     1.3657514     1.3694432     1.3619809

           -------------------------------------------------
          |               Frequency Printout                |
           -------------------------------------------------
 projected vibrational frequencies (cm⁻¹)
eigval :       -0.00    -0.00    -0.00    -0.00     0.00     0.00
eigval :       -5.63     5.47     9.33    20.97    27.22    29.03
eigval :       36.61    58.83    68.50    84.74    99.27   103.25
eigval :      114.29   120.34   126.03   140.51   177.04   178.39
eigval :      188.35   214.21   225.63   226.22   230.40   231.36
eigval :      237.38   238.70   245.55   246.34   248.08   252.02
eigval :      273.03   273.90   274.52   275.16   279.86   312.29
eigval :      324.82   326.60   329.90   343.26   345.51   354.75
eigval :      365.14   373.68   382.39   386.73   388.59   389.80
eigval :      398.17   402.41   404.65   422.15   423.57   426.26
eigval :      434.38   436.84   462.38   463.24   500.40   516.97
eigval :      606.26   616.52   616.79   622.56   623.01   626.31
eigval :      626.38   639.41   639.80   644.59   645.58   658.18
eigval :      658.33   665.85   667.02   671.89   673.97   721.83
eigval :      722.25   723.77   724.30   757.09   761.03   764.70
eigval :      768.24   778.36   778.98   781.29   781.83   792.99
eigval :      800.08   800.38   803.88   806.50   807.32   811.75
eigval :      813.47   819.63   820.99   827.21   828.63   834.52
eigval :      835.41   837.98   838.72   844.55   845.24   845.70
eigval :      847.71   847.89   848.00   848.06   856.78   886.86
eigval :      955.87   987.61   988.87  1001.70  1002.46  1016.23
eigval :     1019.87  1020.71  1022.97  1027.33  1028.23  1036.08
eigval :     1036.68  1037.11  1041.66  1058.03  1063.35  1067.85
eigval :     1068.80  1070.82  1072.02  1073.92  1075.05  1096.59
eigval :     1135.16  1141.03  1141.31  1156.66  1171.91  1172.61
eigval :     1175.38  1189.04  1223.73  1226.76  1243.26  1245.31
eigval :     1281.02  1282.70  1294.64  1303.37  1304.47  1306.78
eigval :     1316.08  1317.32  1327.80  1330.75  1332.23  1333.40
eigval :     1339.55  1346.76  1350.89  1356.91  1359.06  1359.31
eigval :     1370.81  1461.98  1465.44  1467.36  1478.08  1486.15
eigval :     1498.32  1513.20  1514.24  1515.64  1518.92  1530.18
eigval :     1532.10  1532.56  1541.30  1544.10  1545.30  1560.60
eigval :     1562.58  1570.58  1571.97  1581.38  1582.96  1613.52
eigval :     1615.28  2266.39  3095.64  3095.96  3096.25  3096.36
eigval :     3097.35  3097.56  3150.23  3150.29  3150.60  3150.66
eigval :     3156.45  3156.66  3156.84  3157.25  3164.01  3164.10
eigval :     3164.67  3165.23  3173.00  3174.90  3175.45  3176.54
 reduced masses (amu)
   1: 17.88   2: 18.40   3: 18.55   4: 18.88   5: 17.40   6: 13.39   7: 11.48   8: 11.32
   9: 11.25  10: 11.54  11: 10.99  12: 11.19  13: 11.19  14: 13.31  15: 13.97  16: 18.95
  17: 29.53  18: 26.96  19: 11.10  20: 10.53  21: 10.73  22: 11.17  23: 12.70  24: 12.43
  25: 12.29  26: 14.85  27: 12.42  28: 12.28  29: 15.97  30: 13.33  31: 12.34  32: 12.43
  33: 24.58  34: 11.12  35: 10.81  36: 14.16  37: 41.54  38: 40.90  39: 41.81  40: 41.45
  41: 24.31  42: 12.49  43: 13.28  44: 14.55  45: 15.57  46: 12.18  47: 12.09  48: 12.01
  49: 11.10  50: 12.55  51: 14.71  52: 13.11  53: 10.53  54: 10.51  55: 16.58  56: 16.15
  57: 15.78  58: 11.07  59: 10.49  60: 14.31  61: 10.22  62: 10.42  63: 11.81  64: 11.78
  65: 11.75  66: 11.71  67: 11.61  68: 11.34  69: 11.32  70: 10.89  71: 10.88  72: 10.84
  73: 10.84  74: 11.19  75: 11.20  76: 11.02  77: 11.05  78: 11.37  79: 11.38  80: 11.56
  81: 11.57  82: 11.49  83: 11.36  84: 10.98  85: 10.97  86: 11.09  87: 11.04  88: 11.15
  89: 11.15  90: 11.26  91: 11.31  92: 11.37  93: 11.35  94: 10.97  95: 10.97  96: 11.67
  97:  4.79  98:  3.87  99: 10.14 100:  4.09 101:  3.92 102:  4.06 103:  4.28 104:  4.32
 105:  4.25 106:  3.86 107:  3.95 108:  3.95 109:  3.99 110:  4.05 111:  4.10 112:  3.49
 113:  3.44 114:  3.51 115:  3.48 116:  3.49 117:  3.49 118:  3.49 119:  3.47 120: 11.08
 121: 11.80 122: 12.38 123: 12.27 124: 11.96 125: 12.09 126: 11.66 127:  9.79 128:  9.21
 129:  8.83 130: 10.30 131:  9.74 132:  8.69 133:  9.34 134:  9.29 135:  9.02 136:  2.28
 137:  2.16 138:  1.56 139:  1.78 140:  1.75 141:  1.86 142:  1.96 143:  2.04 144:  8.20
 145:  5.25 146:  5.48 147:  5.50 148:  6.72 149:  6.33 150:  7.10 151:  7.17 152:  8.02
 153:  8.67 154:  8.74 155:  8.44 156:  8.49 157:  9.00 158:  8.89 159: 11.25 160: 10.65
 161: 10.58 162: 10.71 163: 10.36 164: 10.30 165: 11.58 166: 11.46 167: 10.11 168: 10.19
 169: 11.59 170: 12.18 171: 10.46 172:  9.70 173:  9.22 174:  9.22 175: 11.14 176: 11.57
 177: 11.54 178: 11.53 179: 11.49 180: 11.64 181: 11.78 182: 11.74 183: 11.49 184: 11.48
 185: 11.72 186: 11.81 187: 11.70 188: 11.83 189: 11.82 190: 11.67 191: 11.67 192: 11.59
 193: 11.60 194: 11.60 195: 11.60 196: 11.62 197: 11.63 198: 11.77 199: 11.77 200: 12.01
 201:  1.82 202:  1.82 203:  1.82 204:  1.82 205:  1.82 206:  1.82 207:  1.81 208:  1.81
 209:  1.81 210:  1.81 211:  1.82 212:  1.83 213:  1.83 214:  1.83 215:  1.98 216:  1.98
 217:  1.98 218:  1.98 219:  1.96 220:  1.95 221:  1.95 222:  1.95
 IR intensities (km·mol⁻¹)
   1:  1.65   2:  2.29   3:  0.04   4:  1.39   5:  1.44   6:  0.49   7: 10.50   8:  2.54
   9:  0.31  10:  1.18  11:  3.19  12:  0.22  13:  1.24  14:  0.32  15:  7.78  16:  0.16
  17:  3.79  18:  0.64  19:  1.50  20:  3.03  21:  2.55  22:  2.41  23:  0.08  24:  0.04
  25:  0.94  26:  0.89  27:  0.57  28:  1.90  29:  1.26  30:  1.26  31:  2.13  32:  1.04
  33:  0.24  34:  4.05  35:  3.60  36:  0.15  37:  0.14  38:  3.14  39:  1.49  40:  0.90
  41: 15.42  42:  1.29  43:  0.00  44: 10.24  45:  1.07  46:  0.32  47:  3.77  48: 15.88
  49:  2.27  50:  0.15  51:  5.83  52:  3.92  53:  5.43  54:  9.67  55: 14.33  56:  2.48
  57: 24.75  58:  4.91  59:  4.50  60:  1.47  61:  0.73  62:  1.00  63:  0.27  64:  0.82
  65:  2.74  66:  6.33  67:  1.94  68:  6.45  69: 17.33  70:  4.36  71:  2.22  72:  1.49
  73:  0.28  74:  6.57  75:  0.92  76:  3.20  77:  2.42  78:  5.40  79:  4.94  80:  0.70
  81: 25.84  82: 24.13  83: 13.41  84:  0.51  85: 14.12  86:  0.47  87:  9.65  88:  0.18
  89:  4.30  90:  0.16  91:  1.20  92:  1.79  93: 30.71  94:  0.42  95:  0.77  96:  0.11
  97: 15.34  98: 34.95  99: 13.43 100:  3.16 101:  0.66 102: 11.06 103:  0.18 104:  0.88
 105:  0.28 106:  7.73 107:  0.64 108:  2.33 109:  0.52 110:127.63 111:  6.49 112: 10.07
 113:  4.34 114:  2.06 115:  0.84 116:  4.29 117:  1.40 118:  0.21 119:  0.68 120:  0.08
 121:  0.48 122:  1.21 123: 21.28 124:  2.12 125: 11.04 126:  0.30 127:  2.50 128:  1.78
 129:  0.21 130:  0.79 131:  7.18 132:  2.23 133:  4.43 134:  0.33 135: 30.10 136:  0.64
 137:  0.16 138: 17.28 139:  0.19 140:  0.38 141: 12.58 142: 12.83 143:  3.11 144:  0.39
 145: 42.40 146:  5.93 147: 26.84 148:  1.00 149: 24.78 150:  3.39 151: 18.22 152:  0.03
 153:  0.05 154:  0.42 155:  2.53 156:  0.04 157:  0.78 158: 26.93 159: 22.62 160:  1.73
 161: 43.28 162:  0.87 163:  0.18 164:  0.01 165:  1.71 166:  0.04 167:  0.28 168:  3.92
 169: 59.86 170:  0.13 171: 20.50 172:  0.14 173:  0.19 174:  0.93 175: 38.14 176:  0.07
 177:  1.64 178: 44.72 179:  3.62 180:  0.08 181:  6.05 182:  0.18 183:  0.80 184:  1.26
 185:  3.07 186:  1.34 187:  0.99 188: 16.28 189:  4.11 190: 24.95 191: 84.34 192:  1.00
 193: 12.65 194:  1.50 195:  3.92 196: 80.61 197: 32.12 198:  0.65 199:  1.92 200:  0.00
Refinement of some symmetry elements was terminated before convergence was reached.
Some symmetry elements may remain unidentified.
Molecule has no symmetry elements
It seems to be the C1 point group
 201:  3.50 202:  0.05 203:  1.41 204:  0.61 205:  0.05 206: 17.21 207: 17.07 208: 19.40
 209: 21.53 210: 21.37 211: 76.47 212: 65.37 213:  1.46 214: 47.07 215:136.27 216:218.29
 217:385.09 218:  3.24 219: 59.85 220: 19.91 221: 39.32 222: 29.86
 Raman intensities (amu)
   1:  0.00   2:  0.00   3:  0.00   4:  0.00   5:  0.00   6:  0.00   7:  0.00   8:  0.00
   9:  0.00  10:  0.00  11:  0.00  12:  0.00  13:  0.00  14:  0.00  15:  0.00  16:  0.00
  17:  0.00  18:  0.00  19:  0.00  20:  0.00  21:  0.00  22:  0.00  23:  0.00  24:  0.00
  25:  0.00  26:  0.00  27:  0.00  28:  0.00  29:  0.00  30:  0.00  31:  0.00  32:  0.00
  33:  0.00  34:  0.00  35:  0.00  36:  0.00  37:  0.00  38:  0.00  39:  0.00  40:  0.00
  41:  0.00  42:  0.00  43:  0.00  44:  0.00  45:  0.00  46:  0.00  47:  0.00  48:  0.00
  49:  0.00  50:  0.00  51:  0.00  52:  0.00  53:  0.00  54:  0.00  55:  0.00  56:  0.00
  57:  0.00  58:  0.00  59:  0.00  60:  0.00  61:  0.00  62:  0.00  63:  0.00  64:  0.00
  65:  0.00  66:  0.00  67:  0.00  68:  0.00  69:  0.00  70:  0.00  71:  0.00  72:  0.00
  73:  0.00  74:  0.00  75:  0.00  76:  0.00  77:  0.00  78:  0.00  79:  0.00  80:  0.00
  81:  0.00  82:  0.00  83:  0.00  84:  0.00  85:  0.00  86:  0.00  87:  0.00  88:  0.00
  89:  0.00  90:  0.00  91:  0.00  92:  0.00  93:  0.00  94:  0.00  95:  0.00  96:  0.00
  97:  0.00  98:  0.00  99:  0.00 100:  0.00 101:  0.00 102:  0.00 103:  0.00 104:  0.00
 105:  0.00 106:  0.00 107:  0.00 108:  0.00 109:  0.00 110:  0.00 111:  0.00 112:  0.00
 113:  0.00 114:  0.00 115:  0.00 116:  0.00 117:  0.00 118:  0.00 119:  0.00 120:  0.00
 121:  0.00 122:  0.00 123:  0.00 124:  0.00 125:  0.00 126:  0.00 127:  0.00 128:  0.00
 129:  0.00 130:  0.00 131:  0.00 132:  0.00 133:  0.00 134:  0.00 135:  0.00 136:  0.00
 137:  0.00 138:  0.00 139:  0.00 140:  0.00 141:  0.00 142:  0.00 143:  0.00 144:  0.00
 145:  0.00 146:  0.00 147:  0.00 148:  0.00 149:  0.00 150:  0.00 151:  0.00 152:  0.00
 153:  0.00 154:  0.00 155:  0.00 156:  0.00 157:  0.00 158:  0.00 159:  0.00 160:  0.00
 161:  0.00 162:  0.00 163:  0.00 164:  0.00 165:  0.00 166:  0.00 167:  0.00 168:  0.00
 169:  0.00 170:  0.00 171:  0.00 172:  0.00 173:  0.00 174:  0.00 175:  0.00 176:  0.00
 177:  0.00 178:  0.00 179:  0.00 180:  0.00 181:  0.00 182:  0.00 183:  0.00 184:  0.00
 185:  0.00 186:  0.00 187:  0.00 188:  0.00 189:  0.00 190:  0.00 191:  0.00 192:  0.00
 193:  0.00 194:  0.00 195:  0.00 196:  0.00 197:  0.00 198:  0.00 199:  0.00 200:  0.00
 201:  0.00 202:  0.00 203:  0.00 204:  0.00 205:  0.00 206:  0.00 207:  0.00 208:  0.00
 209:  0.00 210:  0.00 211:  0.00 212:  0.00 213:  0.00 214:  0.00 215:  0.00 216:  0.00
 217:  0.00 218:  0.00 219:  0.00 220:  0.00 221:  0.00 222:  0.00
 output can be read by thermo (or use thermo option).
 writing <g98.out> molden fake output.
 recommended (thermochemical) frequency scaling factor: 1.0
           -------------------------------------------------
          |             Thermodynamic Functions             |
           -------------------------------------------------

c1  symmetry found (for desy threshold:  0.10E+00) used in thermo
 inverting freq            1   5.6346852092442932     

          ...................................................
          :                      SETUP                      :
          :.................................................:
          :  # frequencies                         216      :
          :  # imaginary freq.                       0      :
          :  linear?                             false      :
          :  only rotor calc.                    false      :
          :  symmetry                               c1      :
          :  rotational number                       1      :
          :  scaling factor                  1.0000000      :
          :  rotor cutoff                   50.0000000 cm⁻¹ :
          :  imag. cutoff                  -20.0000000 cm⁻¹ :
          :.................................................:

    mode    ω/cm⁻¹     T·S(HO)/kcal·mol⁻¹    T·S(FR)/kcal·mol⁻¹   T·S(vib)
   ------------------------------------------------------------------------
       1      5.63    -2.72833 (  0.02%)    -1.70323 ( 99.98%)    -1.70339
       2      5.47    -2.74604 (  0.01%)    -1.71208 ( 99.99%)    -1.71223
       3      9.33    -2.42967 (  0.12%)    -1.55390 ( 99.88%)    -1.55496
       4     20.97    -1.94990 (  3.00%)    -1.31393 ( 97.00%)    -1.33302
       5     27.22    -1.79563 (  8.07%)    -1.23671 ( 91.93%)    -1.28182
       6     29.03    -1.75752 ( 10.20%)    -1.21763 ( 89.80%)    -1.27270
       7     36.61    -1.62033 ( 22.32%)    -1.14889 ( 77.68%)    -1.25413
       8     58.83    -1.34054 ( 65.71%)    -1.00839 ( 34.29%)    -1.22663
       9     68.50    -1.25105 ( 77.89%)    -0.96329 ( 22.11%)    -1.18742
      10     84.74    -1.12643 ( 89.19%)    -0.90027 ( 10.81%)    -1.10198
      11     99.27    -1.03417 ( 93.95%)    -0.85338 (  6.05%)    -1.02324
      12    103.25    -1.01130 ( 94.79%)    -0.84172 (  5.21%)    -1.00246
      13    114.29    -0.95250 ( 96.47%)    -0.81164 (  3.53%)    -0.94752
      14    120.34    -0.92274 ( 97.11%)    -0.79636 (  2.89%)    -0.91909
      15    126.03    -0.89617 ( 97.58%)    -0.78268 (  2.42%)    -0.89343
      16    140.51    -0.83390 ( 98.42%)    -0.75046 (  1.58%)    -0.83258
      17    177.04    -0.70344 ( 99.37%)    -0.68199 (  0.63%)    -0.70331
      18    178.39    -0.69921 ( 99.39%)    -0.67974 (  0.61%)    -0.69909
      19    188.35    -0.66906 ( 99.51%)    -0.66366 (  0.49%)    -0.66904
      20    214.21    -0.59854 ( 99.70%)    -0.62554 (  0.30%)    -0.59862
      21    225.63    -0.57049 ( 99.76%)    -0.61015 (  0.24%)    -0.57058
      22    226.22    -0.56909 ( 99.76%)    -0.60938 (  0.24%)    -0.56919
      23    230.40    -0.55927 ( 99.78%)    -0.60395 (  0.22%)    -0.55937
      24    231.36    -0.55704 ( 99.78%)    -0.60271 (  0.22%)    -0.55714
      25    237.38    -0.54335 ( 99.80%)    -0.59510 (  0.20%)    -0.54345
      26    238.70    -0.54040 ( 99.81%)    -0.59346 (  0.19%)    -0.54051
      27    245.55    -0.52542 ( 99.83%)    -0.58508 (  0.17%)    -0.52552
      28    246.34    -0.52374 ( 99.83%)    -0.58414 (  0.17%)    -0.52384
      29    248.08    -0.52003 ( 99.84%)    -0.58205 (  0.16%)    -0.52014
      30    252.02    -0.51175 ( 99.85%)    -0.57738 (  0.15%)    -0.51185
      31    273.03    -0.47017 ( 99.89%)    -0.55366 (  0.11%)    -0.47026
      32    273.90    -0.46853 ( 99.89%)    -0.55272 (  0.11%)    -0.46863
      33    274.52    -0.46737 ( 99.89%)    -0.55205 (  0.11%)    -0.46747
      34    275.16    -0.46618 ( 99.89%)    -0.55136 (  0.11%)    -0.46627
      35    279.86    -0.45751 ( 99.90%)    -0.54634 (  0.10%)    -0.45760
   ------------------------------------------------------------------------

   temp. (K)  partition function   enthalpy   heat capacity  entropy
                                   cal/mol     cal/K/mol   cal/K/mol   J/K/mol
 298.15  VIB  0.581E+18            23176.184    156.989    141.757
         ROT  0.125E+09              888.752      2.981     40.038
         INT  0.729E+26            24064.936    159.970    181.795
         TR   0.201E+29             1481.254      4.968     45.727
         TOT                       25546.1900   164.9377   227.5225   951.9543

       T/K    H(0)-H(T)+PV         H(T)/Eh          T*S/Eh         G(T)/Eh
   ------------------------------------------------------------------------
    298.15    0.407104E-01    0.561817E+00    0.108103E+00    0.453714E+00
   ------------------------------------------------------------------------

         :::::::::::::::::::::::::::::::::::::::::::::::::::::
         ::                  THERMODYNAMIC                  ::
         :::::::::::::::::::::::::::::::::::::::::::::::::::::
         :: total free energy        -133.852475959499 Eh   ::
         ::.................................................::
         :: total energy             -134.306189622876 Eh   ::
         :: zero point energy           0.521106519395 Eh   ::
         :: G(RRHO) w/o ZPVE           -0.067392856018 Eh   ::
         :: G(RRHO) contrib.            0.453713663377 Eh   ::
         :::::::::::::::::::::::::::::::::::::::::::::::::::::
imag cut-off (cm-1) :    5.00
 found            1  significant imaginary frequency
 writing imag mode distorted coords to xtbhess.xyz
 for further optimization.

optimized geometry written to: xtbopt.xyz


           -------------------------------------------------
          | TOTAL ENERGY             -134.306189622876 Eh   |
          | TOTAL ENTHALPY           -133.744372658429 Eh   |
          | TOTAL FREE ENERGY        -133.852475959499 Eh   |
          | GRADIENT NORM               0.000186890779 Eh/α |
          | HOMO-LUMO GAP               1.332109529667 eV   |
           -------------------------------------------------

------------------------------------------------------------------------
 * finished run on 2021/11/19 at 10:37:42.113     
------------------------------------------------------------------------
 total:
 * wall-time:     0 d,  0 h,  1 min, 24.049 sec
 *  cpu-time:     0 d,  0 h,  1 min, 24.048 sec
 * ratio c/w:     1.000 speedup
 SCF:
 * wall-time:     0 d,  0 h,  0 min,  0.485 sec
 *  cpu-time:     0 d,  0 h,  0 min,  0.485 sec
 * ratio c/w:     1.000 speedup
 ANC optimizer:
 * wall-time:     0 d,  0 h,  0 min, 16.408 sec
 *  cpu-time:     0 d,  0 h,  0 min, 16.406 sec
 * ratio c/w:     1.000 speedup
 analytical hessian:
 * wall-time:     0 d,  0 h,  1 min,  7.092 sec
 *  cpu-time:     0 d,  0 h,  1 min,  7.093 sec
 * ratio c/w:     1.000 speedup

