74
 energy: -133.312174361054 gnorm: 2.266346044157 xtb: 6.4.1 (bd6e46d)
Ni        9.61674700000000    0.02433600000000   -0.00470500000000
C        11.94573800000000   -3.12245800000000    1.31798400000000
C        12.86184500000000   -2.17825000000000    1.26770200000000
C        12.45066600000000   -1.12434600000000    0.34641000000000
C        13.06953600000000    0.00000000000000    0.00000000000000
C        12.36549400000000    1.21994800000000   -0.36410500000000
C        12.69360400000000    2.18000300000000   -1.21157900000000
C        11.65882500000000    3.19628900000000   -1.22847700000000
C        10.72255700000000    2.81982700000000   -0.38158500000000
N        11.12454700000000    1.58681600000000    0.18223200000000
C         9.46148200000000    3.46482600000000   -0.00243300000000
C         8.36626500000000    2.83004300000000    0.34832700000000
C         7.29264000000000    3.14799900000000    1.31735500000000
C         6.45507700000000    2.15124500000000    1.24018900000000
C         6.89337400000000    1.14756200000000    0.25973700000000
N         7.99831200000000    1.58641500000000   -0.22455600000000
C         6.28253900000000   -0.10570900000000   -0.15381100000000
C         6.94670000000000   -1.21021500000000   -0.40823600000000
C         6.57285100000000   -2.27315700000000   -1.36576300000000
C         7.52159800000000   -3.16691200000000   -1.27674400000000
C         8.50732200000000   -2.72946300000000   -0.29386600000000
N         8.15427600000000   -1.58365700000000    0.20293100000000
C         9.73821000000000   -3.38553300000000    0.15185500000000
C        10.86125200000000   -2.73967200000000    0.41897600000000
N        11.18985200000000   -1.49223100000000   -0.17942800000000
H        12.00600000000000   -4.03223800000000    1.93553000000000
H        13.77817300000000   -2.21819900000000    1.84575000000000
H        13.62097000000000    2.19679900000000   -1.81272200000000
H        11.67572400000000    4.10097700000000   -1.84109800000000
H         9.41376000000000    4.55962900000000   -0.00621100000000
H         7.23981800000000    4.02672400000000    1.94234700000000
H         5.54344600000000    2.11557600000000    1.85751300000000
H         5.18428900000000   -0.10279800000000   -0.25308200000000
H         5.70399500000000   -2.32562200000000   -2.01471300000000
H         7.51875200000000   -4.08322100000000   -1.87550300000000
H         9.70272800000000   -4.48133400000000    0.26378000000000
C        14.04471100000000    0.00000000000000    0.00000000000000
C        15.26091700000000    0.00000000000000    0.00000000000000
Ni       19.72483700000000   -0.00926700000000   -0.16365300000000
C        17.17896800000000    3.22807700000000    1.12819700000000
C        16.25260800000000    2.30090300000000    0.98365000000000
C        16.85462100000000    1.13212300000000    0.32690600000000
C        16.26166900000000    0.00000000000000    0.00000000000000
C        16.89398300000000   -1.31318700000000   -0.02189100000000
C        16.37332000000000   -2.53274800000000    0.09962100000000
C        17.40886700000000   -3.53403100000000    0.01105400000000
C        18.56224200000000   -2.87856200000000   -0.16665800000000
N        18.27578900000000   -1.50783700000000   -0.19098400000000
C        19.90386600000000   -3.45018400000000   -0.31499700000000
C        21.04606000000000   -2.84495400000000   -0.14565100000000
C        22.32477200000000   -3.26380600000000    0.49090500000000
C        23.12464800000000   -2.25815800000000    0.35269600000000
C        22.47628600000000   -1.13258800000000   -0.35664800000000
N        21.28615700000000   -1.53013100000000   -0.61496100000000
C        22.98561100000000    0.18176500000000   -0.74347000000000
C        22.32622900000000    1.31092600000000   -0.64654000000000
C        22.72403600000000    2.59563200000000   -1.26695000000000
C        21.81683900000000    3.45875700000000   -0.92580900000000
C        20.81028100000000    2.79054400000000   -0.08741500000000
N        21.14020500000000    1.55184600000000    0.05002200000000
C        19.61483300000000    3.36180400000000    0.52614500000000
C        18.44821000000000    2.75141800000000    0.58563900000000
N        18.19719500000000    1.44905400000000    0.10130900000000
H        16.98734400000000    4.21027900000000    1.59597300000000
H        15.21029300000000    2.42575500000000    1.31558600000000
H        15.28730400000000   -2.69977300000000    0.24779800000000
H        17.23679100000000   -4.59554100000000    0.08059900000000
H        19.96479400000000   -4.51830000000000   -0.60107600000000
H        22.47792100000000   -4.22712500000000    0.95200800000000
H        24.14695400000000   -2.26091500000000    0.71966400000000
H        24.01967700000000    0.14843600000000   -1.14041600000000
H        23.60010100000000    2.79831100000000   -1.88991800000000
H        21.85649100000000    4.50999700000000   -1.24743700000000
H        19.70143100000000    4.35147900000000    0.95670400000000
74
 energy: -133.849442363017 gnorm: 0.561655550698 xtb: 6.4.1 (bd6e46d)
Ni        9.61915744813745    0.02501124433437   -0.00403995860261
C        11.94233913042835   -3.13213057981962    1.31462240886673
C        12.86580639904055   -2.17451696346906    1.26577536654764
C        12.38920278116180   -1.15301310036462    0.35293885800968
C        12.90989320355193    0.01218455291000   -0.00067192598158
C        12.31772168442822    1.23221077199345   -0.36186494512430
C        12.69782492976254    2.19676203755218   -1.22271748879173
C        11.67605580030211    3.20078956653093   -1.23802811049421
C        10.71334446154677    2.81132898136750   -0.37555643506447
N        11.10128338345182    1.58050478154685    0.18201656576198
C         9.47324064714943    3.46854601142160   -0.00416504015734
C         8.35676685546145    2.82027166163717    0.34977200857713
C         7.29686901752996    3.15370610260614    1.30923713483581
C         6.43936989226329    2.14482776143945    1.24294939404591
C         6.88827731284129    1.14792389926180    0.26846551206667
N         8.02005999721125    1.57667036423003   -0.21844804420197
C         6.27400693890546   -0.09162775926127   -0.14978121227178
C         6.95026838745388   -1.21586156450706   -0.41144849933741
C         6.56683396122500   -2.27005004733968   -1.35960113996745
C         7.52757979721652   -3.17957748369857   -1.27680220794838
C         8.51314922942183   -2.73622400493124   -0.29784501339838
N         8.16051863312448   -1.56875293488597    0.19254581389978
C         9.72556838866840   -3.39277796639960    0.14785481050311
C        10.86519779019758   -2.73473868230039    0.42126837717646
N        11.17663044781057   -1.49485080654500   -0.16404741925341
H        12.00292633774898   -4.02966127637307    1.93204124020606
H        13.77839840059082   -2.21247242888406    1.84398521045210
H        13.61824471608885    2.19803023465678   -1.81169400400439
H        11.67803033580089    4.09951420449855   -1.84114721949634
H         9.41913455518791    4.55883955845708   -0.00372210164665
H         7.24239110307087    4.02587606971499    1.94037007010512
H         5.54304362230132    2.11175759316049    1.85620684764426
H         5.18564445244796   -0.10025339827857   -0.25528890833700
H         5.70512022099362   -2.32181763031719   -2.01181974517922
H         7.52314542915904   -4.08373087013040   -1.87363416686182
H         9.70080323817768   -4.47969131567518    0.26447918893197
C        14.13024294783019    0.00519792131685   -0.00213493525655
C        15.19479461619696   -0.00571284311317   -0.00368302868097
Ni       19.72189279263507   -0.00953161264748   -0.16469920684854
C        17.18243194278019    3.23688177792958    1.13073444260499
C        16.25029443743667    2.29712903738610    0.98063846570969
C        16.91163912025305    1.16272208308821    0.33190927392846
C        16.40678017420094   -0.01364742670873   -0.00060856890031
C        16.94164338008444   -1.32387192236434   -0.02337184912338
C        16.36809152652462   -2.54806334781058    0.10051109927804
C        17.39265080830392   -3.53540964124429    0.01073848194435
C        18.57007415140083   -2.87008463501808   -0.17487660643321
N        18.29468514309477   -1.50437012196726   -0.18900564484435
C        19.88859692120329   -3.45652095539955   -0.31583296483212
C        21.05810666571215   -2.83352688139023   -0.14785766293398
C        22.31523523569390   -3.27014490105717    0.48168612870590
C        23.13966518447227   -2.24756379453143    0.35088497765719
C        22.48247818205524   -1.13438473457618   -0.35141952373652
N        21.26594194315323   -1.52096437175863   -0.60310419875784
C        22.99463526167595    0.16669890797063   -0.74298640535817
C        22.32441011653250    1.31658291165774   -0.64964365312780
C        22.73076628646235    2.58943193370644   -1.26612788917508
C        21.81015972935397    3.47164655084776   -0.92127516753177
C        20.80799322732373    2.79763743853425   -0.08692114187812
N        21.13479329213974    1.53802876788904    0.04204685694257
C        19.62548764809180    3.36669311740896    0.52372388834910
C        18.44144053417213    2.74368529314030    0.58854817308577
N        18.20901369204020    1.45313872451901    0.10523543288579
H        16.99130158069992    4.20767293507916    1.59397049179255
H        15.21418079165388    2.42007348898344    1.31198595472830
H        15.29231855697653   -2.70171592754080    0.24698718470337
H        17.23553345203066   -4.59543959815618    0.08082103281406
H        19.95947607299804   -4.51830774691627   -0.59221004579434
H        22.47565546866741   -4.22608022361199    0.95116220278169
H        24.14960631864353   -2.25718457534482    0.72012172859157
H        24.01739249840816    0.14900678551430   -1.13953561908324
H        23.59817977922049    2.79391002029882   -1.88775209727305
H        21.85183613243365    4.50918663989500   -1.24441514351227
H        19.70255045758384    4.35419234185266    0.95355331506828
74
 energy: -134.019048821524 gnorm: 0.328645014729 xtb: 6.4.1 (bd6e46d)
Ni        9.61816179708272    0.02463988694415   -0.00215154599541
C        11.93729960190545   -3.14899953581942    1.30364467564564
C        12.86238948820477   -2.17693834629857    1.25807860666526
C        12.31193236759288   -1.17303368974342    0.36807499287858
C        12.79543375884639    0.02959901221501   -0.00138422770431
C        12.24464655094998    1.24562627676380   -0.36649661747117
C        12.69410240780077    2.22553730292505   -1.23145940830266
C        11.69765550200636    3.20990985425877   -1.24368020236772
C        10.69764249216693    2.80472066984418   -0.37542921077260
N        11.03579466121726    1.56957359883637    0.16415543132481
C         9.48669016947072    3.47049585370373   -0.00415148833341
C         8.35296821912364    2.80376126365802    0.35260013647935
C         7.29563768975126    3.15741042041513    1.28869786973745
C         6.41712177822222    2.14072486856241    1.24070582155835
C         6.88666198457894    1.14625325027289    0.28615989382464
N         8.06107409140875    1.54674490094690   -0.18590517624140
C         6.26527522978312   -0.07270582660932   -0.14291415129839
C         6.95471266101997   -1.21325924289766   -0.41868428075349
C         6.56122287645299   -2.27157629542707   -1.34268531166491
C         7.53122658137743   -3.19747456504122   -1.27072748413335
C         8.52082838820069   -2.74238378907717   -0.30853181775474
N         8.18076515506639   -1.53845659284882    0.15503756753118
C         9.70293910677801   -3.40852670663685    0.14297799354973
C        10.85199943482825   -2.74117907661883    0.42988625069636
N        11.11975733118480   -1.50223889395477   -0.12043413758622
H        11.99391935874217   -4.02982569729096    1.92426795285586
H        13.77575045025275   -2.19526690630780    1.83535910356886
H        13.61091500663839    2.20222784512786   -1.80856408586783
H        11.68611712531846    4.10045842693114   -1.84317418196223
H         9.43411648220210    4.55710101794762    0.00180136855933
H         7.25004050123151    4.02260382945266    1.93057627743023
H         5.53583298417345    2.10127744819440    1.85462624966983
H         5.18579527001721   -0.09090631903924   -0.25964598004810
H         5.70753293584165   -2.31146107898933   -2.00150023488294
H         7.53525471247413   -4.09003555344829   -1.86930162553371
H         9.69131153443484   -4.48410822750546    0.26438779529352
C        14.05226622518726    0.01601040424305   -0.00619412573634
C        15.26577641892465   -0.01726529420478   -0.00529577868938
Ni       19.72056622556302   -0.00734561140395   -0.16863494438068
C        17.19289357287425    3.24745738306379    1.13272266299442
C        16.26076207014079    2.29643398011437    0.96830799583138
C        16.98446284420404    1.18757232127725    0.33801823971720
C        16.52166335525797   -0.03367297874668    0.00806443493328
C        17.01562504685761   -1.33692262536002   -0.02814753912490
C        16.37499758603309   -2.56619083947608    0.09634205394111
C        17.37482865151182   -3.53549433925735    0.00306161773205
C        18.58341015612849   -2.86590963661847   -0.19200370715837
N        18.34787184414086   -1.50606442188809   -0.17951134459001
C        19.87209530855534   -3.46218651924356   -0.31511435772522
C        21.06353512689005   -2.81613990808422   -0.15326242083319
C        22.30630233184243   -3.27051105678464    0.45594361663036
C        23.15749620605105   -2.23687254180676    0.34098054535331
C        22.48673803371839   -1.13489923343262   -0.33908882693644
N        21.23195682429283   -1.49478652400219   -0.56218353006963
C        23.00540260113747    0.14647212612126   -0.73937102143799
C        22.32175895288449    1.31467500466992   -0.65948657342783
C        22.73430283178106    2.58295737227575   -1.25800132199004
C        21.80613470226042    3.48472961412757   -0.90780838974539
C        20.80691523379683    2.80369646507740   -0.08718684895654
N        21.11916816956432    1.51590778447781    0.01182890236892
C        19.64448903295522    3.37895615300341    0.52096338029041
C        18.45056098422575    2.74331112259697    0.59911704475876
N        18.25627214637880    1.46832007387857    0.11884391872551
H        17.00313606015177    4.20644493818122    1.59129190017278
H        15.22772649387414    2.40093649671802    1.29867597250872
H        15.30706843694302   -2.70471797400399    0.24403448972846
H        17.23052818693405   -4.59527336093665    0.08085862711267
H        19.94429556429399   -4.52172264947024   -0.56544274519015
H        22.46705947486248   -4.21953913820962    0.94350248312825
H        24.15882776495323   -2.24685024823749    0.72024895450917
H        24.01712165152184    0.14799510161271   -1.13609562795212
H        23.59407726287674    2.78140391126208   -1.88144825201963
H        21.83858061290566    4.51120958965410   -1.23468764098058
H        19.70862532117768    4.36758367536595    0.94194433791328
74
 energy: -134.109273726173 gnorm: 0.189394987915 xtb: 6.4.1 (bd6e46d)
Ni        9.60389611397017    0.02345067135846    0.00181379812026
C        11.92738255154720   -3.16988362563677    1.28763060752914
C        12.85013718654573   -2.17867322125968    1.24995975911784
C        12.26708789957657   -1.17880627522052    0.38751379974961
C        12.76137838212266    0.04797558278134   -0.00335714137943
C        12.18653816631323    1.25573637131261   -0.37384695818737
C        12.68406600647593    2.25595214466735   -1.23393053058884
C        11.71561146819442    3.22752673717975   -1.24082420297307
C        10.67218116531665    2.80387174556135   -0.38441513867256
N        10.95567808989892    1.54980910497737    0.10822514280195
C         9.49608397066730    3.47188275714720   -0.00359796736782
C         8.35929348563453    2.77823448974418    0.36658991363977
C         7.29289359088376    3.15636820401013    1.26154329954223
C         6.39314277934020    2.13998426809910    1.22847732919553
C         6.89094998181744    1.13708101197242    0.31385334805007
N         8.11549643622527    1.50106548764578   -0.12465957827478
C         6.26261063694349   -0.05418746609833   -0.13499774454689
C         6.96637354968194   -1.20115731174012   -0.43824277859990
C         6.55680279795503   -2.27341687627846   -1.32128674854534
C         7.52759469375935   -3.21639991935410   -1.25683969600192
C         8.52749843836515   -2.74532195043872   -0.32769377058391
N         8.21234817493748   -1.49629988796122    0.09204007670568
C         9.67078684856932   -3.43117753895704    0.13966900327493
C        10.82205739117826   -2.75595267132824    0.45110221877033
N        11.05123641856957   -1.50012282648910   -0.04196303831578
H        11.98062438415015   -4.04155900343699    1.90748012112311
H        13.76681025780227   -2.17117193584251    1.81783777206114
H        13.59932285011104    2.21088855284827   -1.79878956106595
H        11.69601003475552    4.11241255894705   -1.84041762697058
H         9.44945476713715    4.55494243599654    0.00559111994328
H         7.25864169694852    4.01882559712849    1.90690546158777
H         5.52017684241844    2.08773885661539    1.84494505967380
H         5.18785978620886   -0.07759872023922   -0.25911993554898
H         5.70675841723616   -2.29758995328972   -1.98060763599088
H         7.54890357350743   -4.10355419020498   -1.85660921560049
H         9.66885634040272   -4.50021419607342    0.25873159148543
C        14.04970665629434    0.02583726519124   -0.01044911265826
C        15.25859439410794   -0.02994388984113   -0.00245973433405
Ni       19.72398238137539   -0.00510088809051   -0.17351919076046
C        17.21589978625175    3.25687359473875    1.13260309363553
C        16.28368812672916    2.29559365507047    0.95238446294584
C        17.02240439219303    1.20111271066267    0.33837808674571
C        16.55410845580631   -0.05636123908988    0.02454077475262
C        17.07614294280383   -1.34586727444580   -0.03412111113423
C        16.39259283621844   -2.58202867687989    0.08456095078998
C        17.36543499535241   -3.53651482095765   -0.01593803022802
C        18.60534574438907   -2.86834896304732   -0.20840443909175
N        18.40436771949024   -1.51256908900088   -0.16173658109943
C        19.86057480688722   -3.46806834158230   -0.30871225361677
C        21.06131816301548   -2.79125947877690   -0.15210764720462
C        22.29628961815639   -3.26271200896444    0.41899436066552
C        23.17265611169308   -2.22700195519753    0.31836420832504
C        22.48680105403638   -1.12807079972512   -0.31707076761827
N        21.19173124634486   -1.45657128977371   -0.49729408658833
C        23.01236626395633    0.12721799190050   -0.73226670115537
C        22.31148510461982    1.30688476438438   -0.68127538770414
C        22.73411788302880    2.57346085382059   -1.24614221028325
C        21.80838813628072    3.49277854858885   -0.88431490035136
C        20.80770424531908    2.80653383683974   -0.09242306464072
N        21.09327801849501    1.48814304113306   -0.04086215827626
C        19.67339595882187    3.39749607204271    0.51831724030054
C        18.47535808998306    2.74941260651173    0.61711032852138
N        18.30257834696623    1.47941619015832    0.14742687049717
H        17.02831171937188    4.20987521377783    1.58634079350798
H        15.25311738326922    2.37255231901394    1.27376464781925
H        15.33278339108968   -2.70718910622130    0.23761893006697
H        17.22968680802986   -4.59630660399848    0.07451124404104
H        19.92800734321222   -4.53045402520097   -0.51817065508446
H        22.45386417425251   -4.20621489968256    0.92007864385997
H        24.16951726420902   -2.23218433981174    0.71061491805448
H        24.02071945198627    0.14626764598551   -1.12158230304028
H        23.59033463891691    2.76158962973941   -1.86940801622285
H        21.82177633268752    4.51480679318763   -1.21128394683731
H        19.72484983919125    4.39625394939648    0.91522559024378
74
 energy: -134.169075234562 gnorm: 0.090674384061 xtb: 6.4.1 (bd6e46d)
Ni        9.57282084903131    0.02191376630713    0.01017326207412
C        11.91060204859279   -3.18279517652733    1.27696670887111
C        12.82383851680789   -2.17420523719406    1.23830894060712
C        12.21109515412810   -1.16080437668560    0.42042124561585
C        12.73039161014107    0.06248593790991   -0.00544788773740
C        12.11919245072862    1.24295999475942   -0.39330978448157
C        12.66417200112361    2.27180382517864   -1.22952322965121
C        11.72251098342566    3.24867420229476   -1.23439071159086
C        10.63469366723922    2.80430865328925   -0.40445925213885
N        10.87274266961128    1.52698834939992    0.03411284513910
C         9.49270596547600    3.47486289873795   -0.00442148148451
C         8.37219317466638    2.74534854257304    0.39528685402858
C         7.29130886736624    3.14912647396318    1.24212121481695
C         6.37458602719060    2.14019590017197    1.21317260968461
C         6.89714611033545    1.11990467915087    0.34629856701609
N         8.16221856893901    1.45674670032537   -0.05511646053247
C         6.26752881239601   -0.04190365898386   -0.12752007448250
C         6.98711878994862   -1.18276433886376   -0.47251505575485
C         6.55507411785372   -2.27093441754127   -1.30906695947711
C         7.51608534794571   -3.23027697873956   -1.23999311619467
C         8.53190972088752   -2.74389032685915   -0.35092217822352
N         8.24336170634962   -1.45404495845500    0.02255726850761
C         9.63832557374138   -3.44794943600395    0.13774473032795
C        10.78017491225430   -2.75975382249460    0.48934439003801
N        10.97084610790042   -1.48466110164203    0.04072170101453
H        11.97183134402510   -4.06278439061772    1.88302987422561
H        13.75275924976409   -2.14377929243526    1.78381615615232
H        13.58879094978848    2.21322389258657   -1.77473444842073
H        11.70379598357123    4.13835676017131   -1.82763650869360
H         9.45089619778340    4.55448244132951    0.00285746396229
H         7.26124076731565    4.02014307170856    1.87367247999833
H         5.49667133971563    2.07770030094760    1.82184005322002
H         5.19325618407261   -0.06976171083766   -0.24559450500904
H         5.69730572634119   -2.28557117373660   -1.95501311622527
H         7.55430682938934   -4.12322947838383   -1.83094360348456
H         9.64397282714807   -4.51816842078528    0.23963960264393
C        14.05125475494647    0.03315051903823   -0.01420527441543
C        15.24571337382923   -0.04260460502096    0.00473398867083
Ni       19.74646075145579   -0.00849526620751   -0.16564968877800
C        17.24769284152430    3.25833760513127    1.13220346367626
C        16.32255802420746    2.28586405760767    0.93436927870419
C        17.06370955964669    1.19494412269180    0.34362241537988
C        16.57635871768566   -0.07693391481662    0.04925246865886
C        17.13823190099703   -1.33977382946001   -0.03332620389740
C        16.41969083567584   -2.58209813906749    0.06703348051497
C        17.36752086541394   -3.53918344215330   -0.03959559272661
C        18.63485578792627   -2.87429058380446   -0.21510547869904
N        18.46180226366762   -1.51874265195910   -0.14709364822906
C        19.86314614146024   -3.47785800854395   -0.29380973738383
C        21.05611085547311   -2.76126459060922   -0.13785000044013
C        22.28879260949822   -3.24958697246098    0.38816533179663
C        23.18262467420972   -2.21896162231469    0.29297924474780
C        22.48544991782864   -1.11347483662366   -0.29094933799394
N        21.16157230835179   -1.42250825504714   -0.43609138821198
C        23.01284232249711    0.11493142700146   -0.72264581228014
C        22.29105516210161    1.29835759480400   -0.71496531786509
C        22.73182225868768    2.56265839480571   -1.24011117688733
C        21.81780105287762    3.49466807533759   -0.85959910646935
C        20.80833116804137    2.80725385628289   -0.10429032374184
N        21.06491742553770    1.46319016937160   -0.10061459410704
C        19.70391686225881    3.41581032044991    0.51210193901153
C        18.50914673517276    2.75140414464560    0.64035488544096
N        18.35806252137220    1.47511209408604    0.18389068327982
H        17.05896987356152    4.21428185264820    1.57915138388279
H        15.28743505830496    2.33620033386793    1.23568309169459
H        15.36210572728765   -2.69436242144365    0.22639108939525
H        17.23759639499205   -4.60002073481648    0.05824968981864
H        19.92631018640873   -4.54302662835428   -0.46575093586313
H        22.44503161444490   -4.19492360379315    0.88285462190437
H        24.18036627109000   -2.21836175592772    0.68575044094455
H        24.02797261129161    0.14789400265824   -1.09112077634099
H        23.59314182349846    2.74027858254402   -1.85599590296727
H        21.81214365205936    4.52038016800665   -1.17402529182943
H        19.74583894172139    4.42980444742608    0.87453349724366
74
 energy: -134.204819095469 gnorm: 0.063113257377 xtb: 6.4.1 (bd6e46d)
Ni        9.54069049710534    0.01654210404983    0.01716608061145
C        11.88761030562624   -3.18521279409263    1.27577540796608
C        12.78888084347285   -2.16500156949210    1.23283238449527
C        12.15609259982908   -1.13059690738119    0.46158090754930
C        12.70521164550694    0.07045344251451   -0.00552788330363
C        12.06430632124277    1.22132158847187   -0.42569093829519
C        12.64048384987970    2.27607513277719   -1.22783179803881
C        11.71513713830095    3.26406024797450   -1.23244178419249
C        10.59623287059051    2.79949455869935   -0.43682404594327
N        10.80620731077578    1.50208193556657   -0.04519251762493
C         9.47694371430238    3.47507848732358   -0.00275175872443
C         8.38071141624674    2.71749902031955    0.42933857106863
C         7.28071104204227    3.14294167195731    1.23363862537217
C         6.35882668252937    2.13974545810993    1.20560346658711
C         6.90260312824545    1.09703197519382    0.38358860422814
N         8.18864299125532    1.42071583888371    0.01458071761239
C         6.27288620135826   -0.03923333279846   -0.12244500575053
C         7.00170516074555   -1.16647640635329   -0.51030433969367
C         6.54673280687494   -2.26887041575397   -1.30852389179721
C         7.49712139649936   -3.23782451126426   -1.23118793947401
C         8.53208671361089   -2.73805221447893   -0.37983462637591
N         8.26248684573338   -1.42566915488635   -0.04187767480457
C         9.61064300800023   -3.45386744781196    0.13635844126561
C        10.73472083716845   -2.75239198101441    0.53464518210675
N        10.89868077156298   -1.45782034491927    0.12304400172973
H        11.96848379339314   -4.09075374573108    1.84594101466126
H        13.73722031363271   -2.12132052345551    1.74263263347622
H        13.58167490631856    2.21935462622049   -1.74411931271160
H        11.71437685710205    4.17369355915540   -1.79907484651327
H         9.43909337985209    4.55294223363518    0.00189412006929
H         7.24887640715063    4.03340067839546    1.83449411154301
H         5.46043158330830    2.07752188947026    1.78633055263196
H         5.19753608248149   -0.06603687567835   -0.22501143414285
H         5.67117596944409   -2.28066536068736   -1.92788700021369
H         7.54099544345812   -4.15081154959431   -1.79280249241821
H         9.61513393052771   -4.52909966915694    0.21053229118107
C        14.04944282213921    0.03736142238871   -0.01451886728717
C        15.23599065679542   -0.05174069180757    0.01668382355673
Ni       19.76835962616035   -0.00926003369368   -0.15141571061490
C        17.28285055912756    3.25351620054975    1.13310495428965
C        16.36584241019215    2.27514323408630    0.92189847716345
C        17.10312302941344    1.17688563554796    0.35916448771474
C        16.58875944270679   -0.08974857372030    0.07714007966232
C        17.18235339096216   -1.33008134942468   -0.02816864190288
C        16.44836524614039   -2.57499228740690    0.04754239830241
C        17.38108797612376   -3.54180460495034   -0.06375955516006
C        18.66025111220118   -2.87827931378722   -0.21570641663817
N        18.50374951777219   -1.52078258193720   -0.13332037773782
C        19.88157769211906   -3.48810718731578   -0.27197785164340
C        21.05613243061802   -2.73763327171313   -0.11594662303559
C        22.29765452201427   -3.23953870672198    0.36508342225060
C        23.19444127539698   -2.21365035571175    0.27347785248890
C        22.48505227910509   -1.09395187299364   -0.26242552276802
N        21.14773885286739   -1.39577034597383   -0.37851018055942
C        23.01205277474622    0.11366703404828   -0.71553314781546
C        22.27421255321635    1.29246160677104   -0.75067957788327
C        22.73641059428600    2.55612599430113   -1.24268609187592
C        21.83534936415001    3.49340093740753   -0.84518986709041
C        20.81066456448156    2.80481178254460   -0.12527840860764
N        21.04524723519392    1.44888916451279   -0.15584609789515
C        19.73016000792676    3.42660484235240    0.50183710999662
C        18.54532072909043    2.74559349372500    0.66497284009919
N        18.40671330303250    1.45768508398397    0.22615652696042
H        17.09520282890673    4.21751316585530    1.56701612708520
H        15.32280297856867    2.30528725685050    1.19207889068379
H        15.39079288691867   -2.67702365967307    0.20753799645407
H        17.25228725357088   -4.60332756577738    0.02825936411429
H        19.94240994799840   -4.55944271556069   -0.40195338855785
H        22.45117378189490   -4.19535706046513    0.83283705420290
H        24.20008784086344   -2.20875512585469    0.64535638143504
H        24.04018946924652    0.15189881671196   -1.04882040362394