74
 energy: -134.306189622729 gnorm: 0.000187096738 xtb: 6.4.1 (bd6e46d)
Ni        9.21582758378870   -0.05765475332779    0.03127145786448
C        11.64206403511499   -3.46765891633080    0.60176367624320
C        12.61007129948204   -2.52651676473597    0.53158735776273
C        11.95215916415170   -1.28093430859491    0.27638893153968
C        12.64414185792644   -0.08523655792731    0.06564999006647
C        11.97576566563833    1.12087354511746   -0.16397520698550
C        12.65890156499685    2.35440629514694   -0.41341366119016
C        11.70720642674741    3.31022826214266   -0.50663705824396
C        10.44816239150525    2.65241302774390   -0.32463488115339
N        10.62649813609033    1.30787465030822   -0.13678047677229
C         9.24268808345136    3.32359968656169   -0.31180361200417
C         8.02539885193507    2.68987053230846   -0.17211834362555
C         6.77174821498985    3.38753644409707   -0.16186854719887
C         5.80731327114061    2.44590037669479   -0.07671505343008
C         6.47590266308604    1.17685898309682   -0.03369415576503
N         7.83082516416721    1.34115634080625   -0.07721165133475
C         5.80636336953275   -0.02928774083815    0.00553389499848
C         6.45502607662161   -1.24646515472143    0.05367319216539
C         5.76481442558643   -2.50424305374171    0.08488704729114
C         6.71210733449184   -3.46201296259331    0.18174097081033
C         7.97695078551251   -2.78538416788131    0.21121963271203
N         7.80624622839816   -1.43342384160455    0.11649956884100
C         9.18136523345259   -3.43964514208555    0.36660895116878
C        10.39737292642396   -2.78843593645135    0.40069714735910
N        10.60077471342579   -1.44623948414922    0.22225578694070
H        11.73864400949125   -4.52197308675392    0.77401983596518
H        13.66963433805647   -2.63856053053702    0.64826617415240
H        13.72212060274694    2.44914157697202   -0.51289035417138
H        11.82391209715824    4.36181510572896   -0.68305220612981
H         9.25366367578427    4.39714040999599   -0.42242238312182
H         6.67117073407517    4.45421288953890   -0.21779428112131
H         4.74216329772007    2.57087891295288   -0.04740287713333
H         4.72730166912450   -0.02027772962605   -0.00240862171963
H         4.69826224635156   -2.61137420551133    0.04009840382251
H         6.59294610175716   -4.52695532266788    0.23421132929303
H         9.17292365225759   -4.51354865025987    0.47394596409867
C        14.04661199090734   -0.09035359480679    0.08462723706374
C        15.25905278962653   -0.08202930556268    0.10388802049308
Ni       20.08005956545395    0.05873587900614   -0.03273011611508
C        17.55593310178843    3.32820215917771    0.82756509400034
C        16.61628684657297    2.36573440092018    0.68838864549118
C        17.31156196754741    1.16252663684978    0.34339207822072
C        16.66117502074911   -0.05331230689214    0.11003364924480
C        17.37311333207587   -1.24072687975349   -0.08084045674479
C        16.73828683531127   -2.51640088589592   -0.21970001003355
C        17.72676478369608   -3.43829038388372   -0.25426157605148
C        18.96106571827231   -2.71675225782881   -0.17103667632324
N        18.72948856135142   -1.37103796292641   -0.07538747083229
C        20.19725374681152   -3.32926540579621   -0.21219279952234
C        21.38451131256973   -2.62894692733191   -0.27092155998679
C        22.66385349795090   -3.26008879387252   -0.42485340594485
C        23.56969862729087   -2.26733689541452   -0.56044465413340
C        22.84363949798033   -1.03329133266383   -0.46421666709993
N        21.51142594769238   -1.26887472789365   -0.28034657660166
C        23.44471092460541    0.20736176673181   -0.53539655427668
C        22.75542452620177    1.38601324711034   -0.33284466101804
C        23.38903385402927    2.67337437220588   -0.30672578572579
C        22.43174157629153    3.56822875603332    0.02111349098418
C        21.21277011526842    2.82711815575174    0.17314809539209
N        21.42305136311531    1.49706696556975   -0.05492679656997
C        20.00634515794194    3.40969742775771    0.50365095628434
C        18.81838514666024    2.70938715414186    0.55481931434911
N        18.65525164916247    1.37692885575138    0.28404792519886
H        17.42767747408981    4.36250311237322    1.08124318182745
H        15.55511495242037    2.43492478954351    0.82482807955038
H        15.67815168672680   -2.66191082965906   -0.28043576079218
H        17.65023708286478   -4.50469166384931   -0.34095421879777
H        20.23375755546878   -4.40744534753451   -0.24419595867978
H        22.81853642426212   -4.32167337590088   -0.43831410145290
H        24.63065230630508   -2.33668318137015   -0.70398023151993
H        24.50683283902120    0.25613428510312   -0.71987357707793
H        24.43039060340876    2.84044474758191   -0.50343028709518
H        22.51532833743474    4.63039697142281    0.14712588264335
H        19.98421036741640    4.47057611986888    0.70086162493817
