      -----------------------------------------------------------      
     |                   =====================                   |     
     |                           x T B                           |     
     |                   =====================                   |     
     |                         S. Grimme                         |     
     |          Mulliken Center for Theoretical Chemistry        |     
     |                    University of Bonn                     |     
      -----------------------------------------------------------      

   * xtb version 6.4.1 (bd6e46d) compiled by 'conda@4901f00b25ba' on 2021-06-10

   xtb is free software: you can redistribute it and/or modify it under
   the terms of the GNU Lesser General Public License as published by
   the Free Software Foundation, either version 3 of the License, or
   (at your option) any later version.
   
   xtb is distributed in the hope that it will be useful,
   but WITHOUT ANY WARRANTY; without even the implied warranty of
   MERCHANTABILITY or FITNESS FOR A PARTICULAR PURPOSE.  See the
   GNU Lesser General Public License for more details.
   
   Cite this work as:
   * C. Bannwarth, E. Caldeweyher, S. Ehlert, A. Hansen, P. Pracht,
     J. Seibert, S. Spicher, S. Grimme, WIREs Comput. Mol. Sci., 2020, 11,
     e01493. DOI: 10.1002/wcms.1493
   
   for GFN2-xTB:
   * C. Bannwarth, S. Ehlert and S. Grimme., J. Chem. Theory Comput., 2019,
     15, 1652-1671. DOI: 10.1021/acs.jctc.8b01176
   for GFN1-xTB:
   * S. Grimme, C. Bannwarth, P. Shushkov, J. Chem. Theory Comput., 2017,
     13, 1989-2009. DOI: 10.1021/acs.jctc.7b00118
   for GFN0-xTB:
   * P. Pracht, E. Caldeweyher, S. Ehlert, S. Grimme, ChemRxiv, 2019, preprint.
     DOI: 10.26434/chemrxiv.8326202.v1
   for GFN-FF:
   * S. Spicher and S. Grimme, Angew. Chem. Int. Ed., 2020, 59, 15665-15673.
     DOI: 10.1002/anie.202004239
   
   for DFT-D4:
   * E. Caldeweyher, C. Bannwarth and S. Grimme, J. Chem. Phys., 2017,
     147, 034112. DOI: 10.1063/1.4993215
   * E. Caldeweyher, S. Ehlert, A. Hansen, H. Neugebauer, S. Spicher,
     C. Bannwarth and S. Grimme, J. Chem. Phys., 2019, 150, 154122.
     DOI: 10.1063/1.5090222
   * E. Caldeweyher, J.-M. Mewes, S. Ehlert and S. Grimme, Phys. Chem. Chem. Phys.
     2020, 22, 8499-8512. DOI: 10.1039/D0CP00502A
   
   for sTDA-xTB:
   * S. Grimme and C. Bannwarth, J. Chem. Phys., 2016, 145, 054103.
     DOI: 10.1063/1.4959605
   
   in the mass-spec context:
   * V. Asgeirsson, C. Bauer and S. Grimme, Chem. Sci., 2017, 8, 4879.
     DOI: 10.1039/c7sc00601b
   * J. Koopman and S. Grimme, ACS Omega 2019, 4, 12, 15120-15133.
     DOI: 10.1021/acsomega.9b02011
   
   for metadynamics refer to:
   * S. Grimme, J. Chem. Theory Comput., 2019, 155, 2847-2862
     DOI: 10.1021/acs.jctc.9b00143
   
   for SPH calculations refer to:
   * S. Spicher and S. Grimme, J. Chem. Theory Comput., 2021, 17, 1701-1714
     DOI: 10.1021/acs.jctc.0c01306
   
   with help from (in alphabetical order)
   P. Atkinson, C. Bannwarth, F. Bohle, G. Brandenburg, E. Caldeweyher
   M. Checinski, S. Dohm, S. Ehlert, S. Ehrlich, I. Gerasimov, J. Koopman
   C. Lavigne, S. Lehtola, F. März, M. Müller, F. Musil, H. Neugebauer
   J. Pisarek, C. Plett, P. Pracht, J. Seibert, P. Shushkov, S. Spicher
   M. Stahn, M. Steiner, T. Strunk, J. Stückrath, T. Rose, and J. Unsleber
   
 * started run on 2021/11/19 at 14:59:36.501     

           -------------------------------------------------
          |                Calculation Setup                |
           -------------------------------------------------

          program call               : /home/jeff/miniconda3/bin/xtb /home/jeff/chem/final-year-proejct/_4_4_outenergy/input_structure.xyz --gfn 2 --parallel 1 --etemp 300 --chrg 0 --uhf 0 -I det_control.in
          coordinate file            : /home/jeff/chem/final-year-proejct/_4_4_outenergy/input_structure.xyz
          omp threads                :                     1
          number of atoms            :                   158
          number of electrons        :                   498
          charge                     :                     0
          spin                       :                   0.0
          first test random number   :      0.25755385789808

   ID    Z sym.   atoms
    1    6 C      1-8, 10-14, 16-20, 22, 23, 38-45, 47-51, 53-57, 59, 60,
                  75-94, 96-100, 102-106, 108, 109, 123-130, 132-136,
                  138-142, 144, 145
    2    7 N      9, 15, 21, 24, 46, 52, 58, 61, 95, 101, 107, 110, 131, 137,
                  143, 146
    3    1 H      25-37, 62-74, 111-122, 147-158

           -------------------------------------------------
          |                 G F N 2 - x T B                 |
           -------------------------------------------------

        Reference                      10.1021/acs.jctc.8b01176
      * Hamiltonian:
        H0-scaling (s, p, d)           1.850000    2.230000    2.230000
        zeta-weighting                 0.500000
      * Dispersion:
        s8                             2.700000
        a1                             0.520000
        a2                             5.000000
        s9                             5.000000
      * Repulsion:
        kExp                           1.500000    1.000000
        rExp                           1.000000
      * Coulomb:
        alpha                          2.000000
        third order                    shell-resolved
        anisotropic                    true
        a3                             3.000000
        a5                             4.000000
        cn-shift                       1.200000
        cn-exp                         4.000000
        max-rad                        5.000000


          ...................................................
          :                      SETUP                      :
          :.................................................:
          :  # basis functions                 482          :
          :  # atomic orbitals                 482          :
          :  # shells                          266          :
          :  # electrons                       498          :
          :  max. iterations                   250          :
          :  Hamiltonian                  GFN2-xTB          :
          :  restarted?                      false          :
          :  GBSA solvation                  false          :
          :  PC potential                    false          :
          :  electronic temp.          300.0000000     K    :
          :  accuracy                    1.0000000          :
          :  -> integral cutoff          0.2500000E+02      :
          :  -> integral neglect         0.1000000E-07      :
          :  -> SCF convergence          0.1000000E-05 Eh   :
          :  -> wf. convergence          0.1000000E-03 e    :
          :  Broyden damping             0.4000000          :
          ...................................................

 iter      E             dE          RMSdq      gap      omega  full diag
   1   -273.5537555 -0.273554E+03  0.516E+00    0.66       0.0  T
   2   -273.9495176 -0.395762E+00  0.331E+00    0.91       1.0  T
   3   -273.8683283  0.811893E-01  0.143E+00    0.75       1.0  T
   4   -273.9448387 -0.765104E-01  0.586E-01    0.90       1.0  T
   5   -274.0200310 -0.751923E-01  0.205E-01    0.89       1.0  T
   6   -274.0300958 -0.100648E-01  0.849E-02    0.89       1.0  T
   7   -274.0308832 -0.787366E-03  0.532E-02    0.89       1.0  T
   8   -274.0312965 -0.413276E-03  0.215E-02    0.89       1.0  T
   9   -274.0313462 -0.497171E-04  0.107E-02    0.89       1.0  T
  10   -274.0313486 -0.242048E-05  0.602E-03    0.89       1.3  T
  11   -274.0313575 -0.887085E-05  0.179E-03    0.89       4.4  T
  12   -274.0313583 -0.833494E-06  0.769E-04    0.89      10.4  T
  13   -274.0313584 -0.114312E-06  0.338E-04    0.89      23.5  T

   *** convergence criteria satisfied after 13 iterations ***

         #    Occupation            Energy/Eh            Energy/eV
      -------------------------------------------------------------
         1        2.0000           -0.6850453             -18.6410
       ...           ...                  ...                  ...
       243        2.0000           -0.3699176             -10.0660
       244        2.0000           -0.3688511             -10.0370
       245        2.0000           -0.3684824             -10.0269
       246        2.0000           -0.3635243              -9.8920
       247        2.0000           -0.3554098              -9.6712
       248        2.0000           -0.3544290              -9.6445
       249        2.0000           -0.3464406              -9.4271 (HOMO)
       250                         -0.3137389              -8.5373 (LUMO)
       251                         -0.3046310              -8.2894
       252                         -0.3022683              -8.2251
       253                         -0.2987406              -8.1291
       254                         -0.2984176              -8.1204
       ...                                ...                  ...
       482                          1.6334375              44.4481
      -------------------------------------------------------------
                  HL-Gap            0.0327017 Eh            0.8899 eV
             Fermi-level           -0.3300896 Eh           -8.9822 eV

 SCC (total)                   0 d,  0 h,  0 min,  1.011 sec
 SCC setup                      ...        0 min,  0.004 sec (  0.416%)
 Dispersion                     ...        0 min,  0.009 sec (  0.880%)
 classical contributions        ...        0 min,  0.001 sec (  0.116%)
 integral evaluation            ...        0 min,  0.072 sec (  7.110%)
 iterations                     ...        0 min,  0.694 sec ( 68.597%)
 molecular gradient             ...        0 min,  0.225 sec ( 22.274%)
 printout                       ...        0 min,  0.006 sec (  0.606%)

         :::::::::::::::::::::::::::::::::::::::::::::::::::::
         ::                     SUMMARY                     ::
         :::::::::::::::::::::::::::::::::::::::::::::::::::::
         :: total energy            -268.920904202253 Eh    ::
         :: gradient norm              0.000940063154 Eh/a0 ::
         :: HOMO-LUMO gap              0.889859288387 eV    ::
         ::.................................................::
         :: SCC energy              -274.031358429315 Eh    ::
         :: -> isotropic ES            0.136411305356 Eh    ::
         :: -> anisotropic ES         -0.013240047093 Eh    ::
         :: -> anisotropic XC          0.186326532874 Eh    ::
         :: -> dispersion             -0.221581390220 Eh    ::
         :: repulsion energy           5.113893629763 Eh    ::
         :: add. restraining           0.000000000000 Eh    ::
         :: total charge               0.000000000015 e     ::
         :::::::::::::::::::::::::::::::::::::::::::::::::::::

           -------------------------------------------------
          |                Property Printout                |
           -------------------------------------------------

    * Orbital Energies and Occupations

         #    Occupation            Energy/Eh            Energy/eV
      -------------------------------------------------------------
         1        2.0000           -0.6850453             -18.6410
       ...           ...                  ...                  ...
       237        2.0000           -0.3732285             -10.1561
       238        2.0000           -0.3722002             -10.1281
       239        2.0000           -0.3719300             -10.1207
       240        2.0000           -0.3713503             -10.1050
       241        2.0000           -0.3709282             -10.0935
       242        2.0000           -0.3699787             -10.0676
       243        2.0000           -0.3699176             -10.0660
       244        2.0000           -0.3688511             -10.0370
       245        2.0000           -0.3684824             -10.0269
       246        2.0000           -0.3635243              -9.8920
       247        2.0000           -0.3554098              -9.6712
       248        2.0000           -0.3544290              -9.6445
       249        2.0000           -0.3464406              -9.4271 (HOMO)
       250                         -0.3137389              -8.5373 (LUMO)
       251                         -0.3046310              -8.2894
       252                         -0.3022683              -8.2251
       253                         -0.2987406              -8.1291
       254                         -0.2984176              -8.1204
       255                         -0.2977538              -8.1023
       256                         -0.2971951              -8.0871
       257                         -0.2944406              -8.0121
       258                         -0.2706074              -7.3636
       259                         -0.2628926              -7.1537
       260                         -0.2608596              -7.0984
       ...                                ...                  ...
       482                          1.6334375              44.4481
      -------------------------------------------------------------
                  HL-Gap            0.0327017 Eh            0.8899 eV
             Fermi-level           -0.3300896 Eh           -8.9822 eV

     #   Z          covCN         q      C6AA      α(0)
     1   6 C        3.016    -0.055    29.335     8.884
     2   6 C        3.009    -0.053    29.293     8.878
     3   6 C        3.195     0.087    25.576     8.245
     4   6 C        2.952     0.012    27.753     8.641
     5   6 C        3.097     0.064    26.457     8.430
     6   6 C        3.026    -0.050    29.210     8.865
     7   6 C        3.033    -0.052    29.250     8.871
     8   6 C        3.073     0.065    26.478     8.437
     9   7 N        2.785    -0.082    22.824     7.095
    10   6 C        2.899    -0.056    29.380     8.887
    11   6 C        3.171     0.087    25.714     8.284
    12   6 C        3.012    -0.054    29.316     8.882
    13   6 C        3.010    -0.054    29.318     8.882
    14   6 C        3.174     0.086    25.706     8.281
    15   7 N        1.870    -0.321    29.183     8.008
    16   6 C        2.899    -0.057    29.415     8.893
    17   6 C        3.073     0.065    26.469     8.435
    18   6 C        3.026    -0.051    29.238     8.869
    19   6 C        3.031    -0.051    29.230     8.868
    20   6 C        3.068     0.066    26.461     8.435
    21   7 N        2.787    -0.081    22.818     7.095
    22   6 C        2.899    -0.056    29.379     8.887
    23   6 C        3.175     0.086    25.715     8.282
    24   7 N        1.870    -0.325    29.289     8.022
    25   1 H        0.926     0.019     2.754     2.595
    26   1 H        0.926     0.021     2.715     2.577
    27   1 H        0.926     0.043     2.405     2.425
    28   1 H        0.926     0.041     2.429     2.437
    29   1 H        0.860     0.214     1.037     1.595
    30   1 H        0.925     0.047     2.361     2.403
    31   1 H        0.926     0.019     2.743     2.590
    32   1 H        0.926     0.019     2.742     2.590
    33   1 H        0.926     0.046     2.371     2.408
    34   1 H        0.926     0.042     2.424     2.435
    35   1 H        0.926     0.042     2.425     2.435
    36   1 H        0.860     0.214     1.036     1.595
    37   1 H        0.925     0.047     2.361     2.403
    38   6 C        3.016    -0.055    29.335     8.884
    39   6 C        3.009    -0.053    29.293     8.878
    40   6 C        3.196     0.087    25.563     8.243
    41   6 C        2.952     0.012    27.751     8.640
    42   6 C        3.097     0.064    26.454     8.429
    43   6 C        3.027    -0.050    29.215     8.866
    44   6 C        3.034    -0.052    29.255     8.872
    45   6 C        3.073     0.064    26.489     8.439
    46   7 N        2.785    -0.081    22.814     7.094
    47   6 C        2.899    -0.055    29.365     8.885
    48   6 C        3.171     0.087    25.718     8.285
    49   6 C        3.012    -0.054    29.316     8.882
    50   6 C        3.010    -0.054    29.318     8.882
    51   6 C        3.174     0.086    25.706     8.281
    52   7 N        1.870    -0.321    29.173     8.006
    53   6 C        2.899    -0.057    29.408     8.892
    54   6 C        3.074     0.065    26.469     8.435
    55   6 C        3.026    -0.051    29.239     8.870
    56   6 C        3.031    -0.051    29.230     8.868
    57   6 C        3.069     0.066    26.461     8.435
    58   7 N        2.787    -0.081    22.811     7.094
    59   6 C        2.899    -0.055    29.362     8.885
    60   6 C        3.175     0.086    25.720     8.282
    61   7 N        1.870    -0.325    29.277     8.020
    62   1 H        0.926     0.019     2.751     2.594
    63   1 H        0.926     0.021     2.713     2.576
    64   1 H        0.926     0.043     2.414     2.430
    65   1 H        0.926     0.041     2.433     2.439
    66   1 H        0.860     0.214     1.037     1.595
    67   1 H        0.925     0.047     2.359     2.402
    68   1 H        0.926     0.019     2.742     2.589
    69   1 H        0.926     0.019     2.741     2.589
    70   1 H        0.926     0.046     2.368     2.406
    71   1 H        0.926     0.042     2.423     2.434
    72   1 H        0.926     0.042     2.423     2.434
    73   1 H        0.860     0.214     1.036     1.594
    74   1 H        0.925     0.047     2.356     2.400
    75   6 C        1.995    -0.021    31.600     9.078
    76   6 C        1.963    -0.011    31.364     9.044
    77   6 C        1.963    -0.010    31.337     9.040
    78   6 C        1.993    -0.022    31.631     9.083
    79   6 C        1.994    -0.022    31.630     9.083
    80   6 C        1.963    -0.011    31.353     9.042
    81   6 C        1.963    -0.011    31.351     9.042
    82   6 C        1.994    -0.022    31.630     9.083
    83   6 C        1.994    -0.023    31.644     9.085
    84   6 C        1.963    -0.011    31.351     9.042
    85   6 C        1.963    -0.011    31.373     9.045
    86   6 C        1.996    -0.022    31.622     9.081
    87   6 C        3.017    -0.054    29.328     8.883
    88   6 C        3.008    -0.053    29.291     8.878
    89   6 C        3.196     0.087    25.576     8.245
    90   6 C        2.952     0.012    27.740     8.639
    91   6 C        3.100     0.063    26.461     8.430
    92   6 C        3.024    -0.050    29.213     8.866
    93   6 C        3.036    -0.052    29.246     8.870
    94   6 C        3.072     0.065    26.481     8.437
    95   7 N        2.785    -0.082    22.829     7.096
    96   6 C        2.899    -0.053    29.324     8.879
    97   6 C        3.174     0.086    25.729     8.285
    98   6 C        3.017    -0.054    29.329     8.883
    99   6 C        3.009    -0.053    29.294     8.878
   100   6 C        3.197     0.087    25.563     8.242
   101   7 N        1.870    -0.324    29.261     8.018
   102   6 C        2.952     0.012    27.751     8.640
   103   6 C        3.099     0.064    26.457     8.429
   104   6 C        3.025    -0.050    29.216     8.866
   105   6 C        3.036    -0.052    29.250     8.871
   106   6 C        3.072     0.064    26.489     8.439
   107   7 N        2.786    -0.082    22.828     7.096
   108   6 C        2.899    -0.053    29.325     8.879
   109   6 C        3.173     0.086    25.728     8.285
   110   7 N        1.870    -0.324    29.263     8.019
   111   1 H        0.926     0.019     2.750     2.593
   112   1 H        0.926     0.021     2.711     2.575
   113   1 H        0.926     0.043     2.405     2.425
   114   1 H        0.926     0.041     2.430     2.437
   115   1 H        0.860     0.215     1.035     1.594
   116   1 H        0.925     0.048     2.349     2.397
   117   1 H        0.926     0.019     2.748     2.592
   118   1 H        0.926     0.021     2.713     2.576
   119   1 H        0.926     0.043     2.415     2.430
   120   1 H        0.926     0.041     2.434     2.440
   121   1 H        0.860     0.214     1.036     1.594
   122   1 H        0.925     0.048     2.351     2.398
   123   6 C        3.017    -0.054    29.329     8.883
   124   6 C        3.009    -0.053    29.295     8.879
   125   6 C        3.197     0.087    25.565     8.242
   126   6 C        2.952     0.012    27.749     8.640
   127   6 C        3.099     0.064    26.459     8.430
   128   6 C        3.025    -0.050    29.220     8.867
   129   6 C        3.037    -0.052    29.252     8.871
   130   6 C        3.072     0.064    26.492     8.439
   131   7 N        2.786    -0.082    22.825     7.096
   132   6 C        2.899    -0.053    29.312     8.877
   133   6 C        3.173     0.085    25.735     8.286
   134   6 C        3.017    -0.054    29.330     8.884
   135   6 C        3.008    -0.053    29.290     8.878
   136   6 C        3.196     0.087    25.568     8.243
   137   7 N        1.870    -0.324    29.255     8.018
   138   6 C        2.952     0.012    27.743     8.639
   139   6 C        3.100     0.063    26.460     8.430
   140   6 C        3.025    -0.050    29.223     8.867
   141   6 C        3.037    -0.052    29.253     8.871
   142   6 C        3.073     0.064    26.493     8.439
   143   7 N        2.786    -0.081    22.819     7.095
   144   6 C        2.899    -0.053    29.311     8.877
   145   6 C        3.173     0.085    25.735     8.286
   146   7 N        1.870    -0.324    29.253     8.017
   147   1 H        0.926     0.019     2.749     2.593
   148   1 H        0.926     0.021     2.714     2.576
   149   1 H        0.926     0.042     2.416     2.431
   150   1 H        0.926     0.041     2.435     2.440
   151   1 H        0.860     0.214     1.035     1.594
   152   1 H        0.925     0.048     2.349     2.397
   153   1 H        0.926     0.019     2.751     2.593
   154   1 H        0.926     0.021     2.714     2.576
   155   1 H        0.926     0.042     2.418     2.431
   156   1 H        0.926     0.041     2.435     2.440
   157   1 H        0.860     0.215     1.035     1.594
   158   1 H        0.925     0.048     2.348     2.396

 Mol. C6AA /au·bohr⁶  :     416769.957535
 Mol. C8AA /au·bohr⁸  :   10721698.224053
 Mol. α(0) /au        :       1038.637468


Wiberg/Mayer (AO) data.
largest (>0.10) Wiberg bond orders for each atom

 ---------------------------------------------------------------------------
     #   Z sym  total        # sym  WBO       # sym  WBO       # sym  WBO
 ---------------------------------------------------------------------------
     1   6 C    3.961 --     2 C    1.718    23 C    1.114    25 H    0.973
     2   6 C    3.962 --     1 C    1.718     3 C    1.120    26 H    0.971
     3   6 C    3.921 --    24 N    1.354     4 C    1.255     2 C    1.120
     4   6 C    3.942 --     5 C    1.255     3 C    1.255    75 C    1.172
     5   6 C    3.906 --     4 C    1.255     6 C    1.234     9 N    1.223
     6   6 C    3.956 --     7 C    1.596     5 C    1.234    27 H    0.972
     7   6 C    3.950 --     6 C    1.596     8 C    1.222    28 H    0.973
     8   6 C    3.918 --    10 C    1.345     7 C    1.222     9 N    1.203
     9   7 N    3.591 --     5 C    1.223     8 C    1.203    29 H    0.900
    10   6 C    3.925 --    11 C    1.357     8 C    1.345    30 H    0.964
    11   6 C    3.939 --    10 C    1.357    15 N    1.324    12 C    1.107
    12   6 C    3.963 --    13 C    1.731    11 C    1.107    31 H    0.973
    13   6 C    3.962 --    12 C    1.731    14 C    1.109    32 H    0.973
    14   6 C    3.938 --    16 C    1.354    15 N    1.326    13 C    1.109
    15   7 N    3.005 --    14 C    1.326    11 C    1.324
    16   6 C    3.927 --    14 C    1.354    17 C    1.348    33 H    0.965
    17   6 C    3.921 --    16 C    1.348    18 C    1.215    21 N    1.210
    18   6 C    3.950 --    19 C    1.610    17 C    1.215    34 H    0.973
    19   6 C    3.953 --    18 C    1.610    20 C    1.214    35 H    0.973
    20   6 C    3.917 --    22 C    1.345    19 C    1.214    21 N    1.211
    21   7 N    3.588 --    20 C    1.211    17 C    1.210    36 H    0.900
    22   6 C    3.938 --    23 C    1.362    20 C    1.345    37 H    0.964
    23   6 C    3.926 --    22 C    1.362    24 N    1.305     1 C    1.114
    24   7 N    3.011 --     3 C    1.354    23 C    1.305
    25   1 H    0.999 --     1 C    0.973
    26   1 H    0.999 --     2 C    0.971
    27   1 H    0.998 --     6 C    0.972
    28   1 H    0.998 --     7 C    0.973
    29   1 H    0.954 --     9 N    0.900
    30   1 H    0.997 --    10 C    0.964
    31   1 H    0.999 --    12 C    0.973
    32   1 H    0.999 --    13 C    0.973
    33   1 H    0.997 --    16 C    0.965
    34   1 H    0.998 --    18 C    0.973
    35   1 H    0.998 --    19 C    0.973
    36   1 H    0.954 --    21 N    0.900
    37   1 H    0.997 --    22 C    0.964
    38   6 C    3.960 --    39 C    1.717    60 C    1.115    62 H    0.973
    39   6 C    3.961 --    38 C    1.717    40 C    1.121    63 H    0.971
    40   6 C    3.917 --    61 N    1.362    41 C    1.244    39 C    1.121
    41   6 C    3.939 --    42 C    1.247    40 C    1.244    86 C    1.192
    42   6 C    3.902 --    41 C    1.247    43 C    1.238    46 N    1.226
    43   6 C    3.955 --    44 C    1.592    42 C    1.238    64 H    0.972
    44   6 C    3.948 --    43 C    1.592    45 C    1.224    65 H    0.973
    45   6 C    3.918 --    47 C    1.344    44 C    1.224    46 N    1.202
    46   7 N    3.590 --    42 C    1.226    45 C    1.202    66 H    0.900
    47   6 C    3.920 --    48 C    1.357    45 C    1.344    67 H    0.964
    48   6 C    3.939 --    47 C    1.357    52 N    1.324    49 C    1.107
    49   6 C    3.963 --    50 C    1.731    48 C    1.107    68 H    0.973
    50   6 C    3.962 --    49 C    1.731    51 C    1.109    69 H    0.973
    51   6 C    3.938 --    53 C    1.354    52 N    1.325    50 C    1.109
    52   7 N    3.001 --    51 C    1.325    48 C    1.324
    53   6 C    3.922 --    51 C    1.354    54 C    1.347    70 H    0.965
    54   6 C    3.921 --    53 C    1.347    55 C    1.216    58 N    1.210
    55   6 C    3.949 --    56 C    1.608    54 C    1.216    71 H    0.973
    56   6 C    3.953 --    55 C    1.608    57 C    1.215    72 H    0.973
    57   6 C    3.916 --    59 C    1.342    56 C    1.215    58 N    1.211
    58   7 N    3.586 --    57 C    1.211    54 C    1.210    73 H    0.900
    59   6 C    3.937 --    60 C    1.367    57 C    1.342    74 H    0.964
    60   6 C    3.924 --    59 C    1.367    61 N    1.299    38 C    1.115
    61   7 N    3.009 --    40 C    1.362    60 C    1.299
    62   1 H    0.999 --    38 C    0.973
    63   1 H    0.999 --    39 C    0.971
    64   1 H    0.998 --    43 C    0.972
    65   1 H    0.998 --    44 C    0.973
    66   1 H    0.954 --    46 N    0.900
    67   1 H    0.997 --    47 C    0.964
    68   1 H    0.999 --    49 C    0.973
    69   1 H    0.999 --    50 C    0.973
    70   1 H    0.997 --    53 C    0.965
    71   1 H    0.998 --    55 C    0.973
    72   1 H    0.998 --    56 C    0.973
    73   1 H    0.954 --    58 N    0.900
    74   1 H    0.997 --    59 C    0.964
    75   6 C    3.908 --    76 C    2.479     4 C    1.172    78 C    0.198
    76   6 C    3.922 --    75 C    2.479    77 C    1.292
    77   6 C    3.918 --    78 C    2.477    76 C    1.292
    78   6 C    3.910 --    77 C    2.477    90 C    1.176    75 C    0.198
    79   6 C    3.915 --    80 C    2.459   102 C    1.194    82 C    0.201
    80   6 C    3.921 --    79 C    2.459    81 C    1.310
    81   6 C    3.920 --    82 C    2.458    80 C    1.310
    82   6 C    3.915 --    81 C    2.458   126 C    1.194    79 C    0.201
    83   6 C    3.918 --    84 C    2.459   138 C    1.196    86 C    0.202
    84   6 C    3.921 --    83 C    2.459    85 C    1.311
    85   6 C    3.925 --    86 C    2.461    84 C    1.311
    86   6 C    3.916 --    85 C    2.461    41 C    1.192    83 C    0.202
    87   6 C    3.962 --    88 C    1.717   109 C    1.114   111 H    0.973
    88   6 C    3.962 --    87 C    1.717    89 C    1.122   112 H    0.971
    89   6 C    3.921 --   110 N    1.355    90 C    1.252    88 C    1.122
    90   6 C    3.927 --    89 C    1.252    91 C    1.252    78 C    1.176
    91   6 C    3.906 --    90 C    1.252    92 C    1.238    95 N    1.223
    92   6 C    3.952 --    93 C    1.591    91 C    1.238   113 H    0.972
    93   6 C    3.951 --    92 C    1.591    94 C    1.226   114 H    0.973
    94   6 C    3.914 --    96 C    1.337    93 C    1.226    95 N    1.205
    95   7 N    3.586 --    91 C    1.223    94 C    1.205   115 H    0.898
    96   6 C    3.926 --    97 C    1.371    94 C    1.337   116 H    0.963
    97   6 C    3.926 --    96 C    1.371   101 N    1.296    98 C    1.115
    98   6 C    3.961 --    99 C    1.716    97 C    1.115   117 H    0.973
    99   6 C    3.961 --    98 C    1.716   100 C    1.123   118 H    0.972
   100   6 C    3.917 --   101 N    1.362   102 C    1.242    99 C    1.123
   101   7 N    3.004 --   100 C    1.362    97 C    1.296
   102   6 C    3.929 --   103 C    1.246   100 C    1.242    79 C    1.194
   103   6 C    3.903 --   102 C    1.246   104 C    1.240   107 N    1.226
   104   6 C    3.953 --   105 C    1.589   103 C    1.240   119 H    0.972
   105   6 C    3.949 --   104 C    1.589   106 C    1.226   120 H    0.973
   106   6 C    3.915 --   108 C    1.339   105 C    1.226   107 N    1.203
   107   7 N    3.587 --   103 C    1.226   106 C    1.203   121 H    0.898
   108   6 C    3.922 --   109 C    1.367   106 C    1.339   122 H    0.963
   109   6 C    3.928 --   108 C    1.367   110 N    1.301    87 C    1.114
   110   7 N    3.001 --    89 C    1.355   109 C    1.301
   111   1 H    0.999 --    87 C    0.973
   112   1 H    0.999 --    88 C    0.971
   113   1 H    0.998 --    92 C    0.972
   114   1 H    0.998 --    93 C    0.973
   115   1 H    0.954 --    95 N    0.898
   116   1 H    0.997 --    96 C    0.963
   117   1 H    0.999 --    98 C    0.973
   118   1 H    0.999 --    99 C    0.972
   119   1 H    0.998 --   104 C    0.972
   120   1 H    0.998 --   105 C    0.973
   121   1 H    0.954 --   107 N    0.898
   122   1 H    0.997 --   108 C    0.963
   123   6 C    3.961 --   124 C    1.716   145 C    1.115   147 H    0.973
   124   6 C    3.961 --   123 C    1.716   125 C    1.123   148 H    0.972
   125   6 C    3.917 --   146 N    1.363   126 C    1.241   124 C    1.123
   126   6 C    3.925 --   127 C    1.245   125 C    1.241    82 C    1.194
   127   6 C    3.904 --   126 C    1.245   128 C    1.241   131 N    1.226
   128   6 C    3.952 --   129 C    1.587   127 C    1.241   149 H    0.972
   129   6 C    3.949 --   128 C    1.587   130 C    1.228   150 H    0.973
   130   6 C    3.914 --   132 C    1.336   129 C    1.228   131 N    1.203
   131   7 N    3.586 --   127 C    1.226   130 C    1.203   151 H    0.897
   132   6 C    3.923 --   133 C    1.371   130 C    1.336   152 H    0.963
   133   6 C    3.926 --   132 C    1.371   137 N    1.295   134 C    1.115
   134   6 C    3.961 --   135 C    1.716   133 C    1.115   153 H    0.973
   135   6 C    3.961 --   134 C    1.716   136 C    1.123   154 H    0.972
   136   6 C    3.917 --   137 N    1.362   138 C    1.242   135 C    1.123
   137   7 N    3.000 --   136 C    1.362   133 C    1.295
   138   6 C    3.926 --   139 C    1.243   136 C    1.242    83 C    1.196
   139   6 C    3.903 --   138 C    1.243   140 C    1.242   143 N    1.227
   140   6 C    3.952 --   141 C    1.587   139 C    1.242   155 H    0.972
   141   6 C    3.949 --   140 C    1.587   142 C    1.228   156 H    0.973
   142   6 C    3.914 --   144 C    1.335   141 C    1.228   143 N    1.203
   143   7 N    3.586 --   139 C    1.227   142 C    1.203   157 H    0.897
   144   6 C    3.923 --   145 C    1.372   142 C    1.335   158 H    0.963
   145   6 C    3.927 --   144 C    1.372   146 N    1.295   123 C    1.115
   146   7 N    3.000 --   125 C    1.363   145 C    1.295
   147   1 H    0.999 --   123 C    0.973
   148   1 H    0.999 --   124 C    0.972
   149   1 H    0.998 --   128 C    0.972
   150   1 H    0.998 --   129 C    0.973
   151   1 H    0.954 --   131 N    0.897
   152   1 H    0.997 --   132 C    0.963
   153   1 H    0.999 --   134 C    0.973
   154   1 H    0.999 --   135 C    0.972
   155   1 H    0.998 --   140 C    0.972
   156   1 H    0.998 --   141 C    0.973
   157   1 H    0.954 --   143 N    0.897
   158   1 H    0.997 --   144 C    0.963
 ---------------------------------------------------------------------------

Topologies differ in total number of bonds
Writing topology from bond orders to xtbtopo.mol

molecular dipole:
                 x           y           z       tot (Debye)
 q only:        0.029       0.080       0.011
   full:        0.032       0.099       0.015       0.268
molecular quadrupole (traceless):
                xx          xy          yy          xz          yz          zz
 q only:       45.556       3.261     -24.347     -15.986       9.488     -21.209
  q+dip:       93.372       0.850     -47.674     -12.170      28.403     -45.698
   full:       64.969       0.326     -33.472      -9.843      16.858     -31.498


           -------------------------------------------------
          | TOTAL ENERGY             -268.920904202253 Eh   |
          | GRADIENT NORM               0.000940063154 Eh/α |
          | HOMO-LUMO GAP               0.889859288387 eV   |
           -------------------------------------------------

------------------------------------------------------------------------
 * finished run on 2021/11/19 at 14:59:37.585     
------------------------------------------------------------------------
 total:
 * wall-time:     0 d,  0 h,  0 min,  1.084 sec
 *  cpu-time:     0 d,  0 h,  0 min,  1.084 sec
 * ratio c/w:     1.000 speedup
 SCF:
 * wall-time:     0 d,  0 h,  0 min,  1.013 sec
 *  cpu-time:     0 d,  0 h,  0 min,  1.013 sec
 * ratio c/w:     1.000 speedup

