      -----------------------------------------------------------      
     |                   =====================                   |     
     |                           x T B                           |     
     |                   =====================                   |     
     |                         S. Grimme                         |     
     |          Mulliken Center for Theoretical Chemistry        |     
     |                    University of Bonn                     |     
      -----------------------------------------------------------      

   * xtb version 6.4.1 (bd6e46d) compiled by 'conda@4901f00b25ba' on 2021-06-10

   xtb is free software: you can redistribute it and/or modify it under
   the terms of the GNU Lesser General Public License as published by
   the Free Software Foundation, either version 3 of the License, or
   (at your option) any later version.
   
   xtb is distributed in the hope that it will be useful,
   but WITHOUT ANY WARRANTY; without even the implied warranty of
   MERCHANTABILITY or FITNESS FOR A PARTICULAR PURPOSE.  See the
   GNU Lesser General Public License for more details.
   
   Cite this work as:
   * C. Bannwarth, E. Caldeweyher, S. Ehlert, A. Hansen, P. Pracht,
     J. Seibert, S. Spicher, S. Grimme, WIREs Comput. Mol. Sci., 2020, 11,
     e01493. DOI: 10.1002/wcms.1493
   
   for GFN2-xTB:
   * C. Bannwarth, S. Ehlert and S. Grimme., J. Chem. Theory Comput., 2019,
     15, 1652-1671. DOI: 10.1021/acs.jctc.8b01176
   for GFN1-xTB:
   * S. Grimme, C. Bannwarth, P. Shushkov, J. Chem. Theory Comput., 2017,
     13, 1989-2009. DOI: 10.1021/acs.jctc.7b00118
   for GFN0-xTB:
   * P. Pracht, E. Caldeweyher, S. Ehlert, S. Grimme, ChemRxiv, 2019, preprint.
     DOI: 10.26434/chemrxiv.8326202.v1
   for GFN-FF:
   * S. Spicher and S. Grimme, Angew. Chem. Int. Ed., 2020, 59, 15665-15673.
     DOI: 10.1002/anie.202004239
   
   for DFT-D4:
   * E. Caldeweyher, C. Bannwarth and S. Grimme, J. Chem. Phys., 2017,
     147, 034112. DOI: 10.1063/1.4993215
   * E. Caldeweyher, S. Ehlert, A. Hansen, H. Neugebauer, S. Spicher,
     C. Bannwarth and S. Grimme, J. Chem. Phys., 2019, 150, 154122.
     DOI: 10.1063/1.5090222
   * E. Caldeweyher, J.-M. Mewes, S. Ehlert and S. Grimme, Phys. Chem. Chem. Phys.
     2020, 22, 8499-8512. DOI: 10.1039/D0CP00502A
   
   for sTDA-xTB:
   * S. Grimme and C. Bannwarth, J. Chem. Phys., 2016, 145, 054103.
     DOI: 10.1063/1.4959605
   
   in the mass-spec context:
   * V. Asgeirsson, C. Bauer and S. Grimme, Chem. Sci., 2017, 8, 4879.
     DOI: 10.1039/c7sc00601b
   * J. Koopman and S. Grimme, ACS Omega 2019, 4, 12, 15120-15133.
     DOI: 10.1021/acsomega.9b02011
   
   for metadynamics refer to:
   * S. Grimme, J. Chem. Theory Comput., 2019, 155, 2847-2862
     DOI: 10.1021/acs.jctc.9b00143
   
   for SPH calculations refer to:
   * S. Spicher and S. Grimme, J. Chem. Theory Comput., 2021, 17, 1701-1714
     DOI: 10.1021/acs.jctc.0c01306
   
   with help from (in alphabetical order)
   P. Atkinson, C. Bannwarth, F. Bohle, G. Brandenburg, E. Caldeweyher
   M. Checinski, S. Dohm, S. Ehlert, S. Ehrlich, I. Gerasimov, J. Koopman
   C. Lavigne, S. Lehtola, F. März, M. Müller, F. Musil, H. Neugebauer
   J. Pisarek, C. Plett, P. Pracht, J. Seibert, P. Shushkov, S. Spicher
   M. Stahn, M. Steiner, T. Strunk, J. Stückrath, T. Rose, and J. Unsleber
   
 * started run on 2021/11/21 at 21:09:33.670     

           -------------------------------------------------
          |                Calculation Setup                |
           -------------------------------------------------

          program call               : /home/jeff/miniconda3/bin/xtb /home/jeff/chem/final-year-proejct/Co+2_2_3_outenergy/input_structure.xyz --gfn 2 --parallel 1 --etemp 300 --chrg 0 --uhf 0 -I det_control.in
          coordinate file            : /home/jeff/chem/final-year-proejct/Co+2_2_3_outenergy/input_structure.xyz
          omp threads                :                     1
          number of atoms            :                   111
          number of electrons        :                   375
          charge                     :                     0
          spin                       :                   0.5
          first test random number   :      0.36568529832704

   ID    Z sym.   atoms
    1   27 Co     1, 37, 77
    2    6 C      2-9, 11-15, 17-21, 23, 24, 38-45, 47-51, 53-57, 59, 60,
                  73-76, 78-85, 87-91, 93-97, 99, 100
    3    7 N      10, 16, 22, 25, 46, 52, 58, 61, 86, 92, 98, 101
    4    1 H      26-36, 62-72, 102-111

           -------------------------------------------------
          |                 G F N 2 - x T B                 |
           -------------------------------------------------

        Reference                      10.1021/acs.jctc.8b01176
      * Hamiltonian:
        H0-scaling (s, p, d)           1.850000    2.230000    2.230000
        zeta-weighting                 0.500000
      * Dispersion:
        s8                             2.700000
        a1                             0.520000
        a2                             5.000000
        s9                             5.000000
      * Repulsion:
        kExp                           1.500000    1.000000
        rExp                           1.000000
      * Coulomb:
        alpha                          2.000000
        third order                    shell-resolved
        anisotropic                    true
        a3                             3.000000
        a5                             4.000000
        cn-shift                       1.200000
        cn-exp                         4.000000
        max-rad                        5.000000


          ...................................................
          :                      SETUP                      :
          :.................................................:
          :  # basis functions                 366          :
          :  # atomic orbitals                 363          :
          :  # shells                          193          :
          :  # electrons                       375          :
          :  max. iterations                   250          :
          :  Hamiltonian                  GFN2-xTB          :
          :  restarted?                      false          :
          :  GBSA solvation                  false          :
          :  PC potential                    false          :
          :  electronic temp.          300.0000000     K    :
          :  accuracy                    1.0000000          :
          :  -> integral cutoff          0.2500000E+02      :
          :  -> integral neglect         0.1000000E-07      :
          :  -> SCF convergence          0.1000000E-05 Eh   :
          :  -> wf. convergence          0.1000000E-03 e    :
          :  Broyden damping             0.4000000          :
          ...................................................

 iter      E             dE          RMSdq      gap      omega  full diag
   1   -202.1971387 -0.202197E+03  0.699E+00    0.30       0.0  T
   2   -190.2323484  0.119648E+02  0.938E+00    0.11       1.0  T
   3   -183.4327038  0.679964E+01  0.923E+00    0.14       1.0  T
   4   -199.3593868 -0.159267E+02  0.576E+00    0.11       1.0  T
   5   -186.2093209  0.131501E+02  0.769E+00    0.26       1.0  T
   6   -190.9277713 -0.471845E+01  0.532E+00    0.00       1.0  T
   7   -202.1081017 -0.111803E+02  0.321E+00    0.21       1.0  T
   8   -202.0534128  0.546888E-01  0.300E+00    0.14       1.0  T
   9   -202.4141178 -0.360705E+00  0.279E+00    0.30       1.0  T
  10   -202.4612933 -0.471756E-01  0.273E+00    0.30       1.0  T
  11   -202.5073645 -0.460711E-01  0.262E+00    0.28       1.0  T
  12   -202.6859099 -0.178545E+00  0.209E+00    0.22       1.0  T
  13   -202.6256541  0.602559E-01  0.215E+00    0.15       1.0  T
  14   -202.6921291 -0.664751E-01  0.224E+00    0.18       1.0  T
  15   -202.5503014  0.141828E+00  0.174E+00    0.06       1.0  T
  16   -202.5757479 -0.254465E-01  0.178E+00    0.03       1.0  T
  17   -202.7660320 -0.190284E+00  0.139E+00    0.01       1.0  T
  18   -202.8408113 -0.747792E-01  0.117E+00    0.03       1.0  T
  19   -202.0371799  0.803631E+00  0.249E+00    0.04       1.0  T
  20   -202.4939689 -0.456789E+00  0.189E+00    0.04       1.0  T
  21   -202.3460863  0.147883E+00  0.206E+00    0.04       1.0  T
  22   -201.8871145  0.458972E+00  0.269E+00    0.02       1.0  T
  23   -201.9108290 -0.237144E-01  0.263E+00    0.02       1.0  T
  24   -201.9976421 -0.868131E-01  0.242E+00    0.04       1.0  T
  25   -202.0431441 -0.455020E-01  0.232E+00    0.05       1.0  T
  26   -202.1016131 -0.584689E-01  0.224E+00    0.05       1.0  T
  27   -202.5178531 -0.416240E+00  0.173E+00    0.05       1.0  T
  28   -202.2392522  0.278601E+00  0.208E+00    0.05       1.0  T
  29   -202.6428991 -0.403647E+00  0.150E+00    0.04       1.0  T
  30   -202.4468501  0.196049E+00  0.178E+00    0.04       1.0  T
  31   -202.7811387 -0.334289E+00  0.121E+00    0.01       1.0  T
  32   -202.6993226  0.818161E-01  0.134E+00    0.04       1.0  T
  33   -202.8017447 -0.102422E+00  0.113E+00    0.03       1.0  T
  34   -202.6883491  0.113396E+00  0.136E+00    0.04       1.0  T
  35   -202.6877675  0.581548E-03  0.136E+00    0.04       1.0  T
  36   -202.9046732 -0.216906E+00  0.854E-01    0.04       1.0  T
  37   -202.9487673 -0.440940E-01  0.677E-01    0.02       1.0  T
  38   -202.9909483 -0.421810E-01  0.490E-01    0.02       1.0  T
  39   -203.0121647 -0.212165E-01  0.330E-01    0.01       1.0  T
  40   -203.0186153 -0.645059E-02  0.272E-01    0.01       1.0  T
  41   -203.0302055 -0.115903E-01  0.970E-02    0.01       1.0  T
  42   -203.0313671 -0.116155E-02  0.528E-02    0.01       1.0  T
  43   -203.0314988 -0.131720E-03  0.461E-02    0.01       1.0  T
  44   -203.0316839 -0.185068E-03  0.319E-02    0.01       1.0  T
  45   -203.0317100 -0.261512E-04  0.304E-02    0.01       1.0  T
  46   -203.0317968 -0.867239E-04  0.176E-02    0.00       1.0  T
  47   -203.0317889  0.787455E-05  0.190E-02    0.01       1.0  T
  48   -203.0317782  0.106491E-04  0.203E-02    0.00       1.0  T
  49   -203.0318368 -0.585161E-04  0.788E-03    0.00       1.2  T
  50   -203.0318212  0.155672E-04  0.118E-02    0.01       1.0  T
  51   -203.0318339 -0.126926E-04  0.701E-03    0.00       1.4  T
  52   -203.0318352 -0.129435E-05  0.557E-03    0.01       1.7  T
  53   -203.0318362 -0.102556E-05  0.441E-03    0.00       2.2  T
  54   -203.0318373 -0.110071E-05  0.277E-03    0.00       3.4  T
  55   -203.0318378 -0.541137E-06  0.158E-03    0.00       6.0  T
  56   -203.0318380 -0.168377E-06  0.112E-03    0.00       8.4  T
  57   -203.0318378  0.190663E-06  0.143E-03    0.00       6.6  T
  58   -203.0318380 -0.138003E-06  0.110E-03    0.00       8.7  T
  59   -203.0318381 -0.172366E-06  0.420E-04    0.00      22.6  T
  60   -203.0318381 -0.621557E-08  0.336E-04    0.00      28.3  T

   *** convergence criteria satisfied after 60 iterations ***

         #    Occupation            Energy/Eh            Energy/eV
      -------------------------------------------------------------
         1        2.0000           -0.6688142             -18.1994
       ...           ...                  ...                  ...
       182        1.9001           -0.3465923              -9.4313
       183        1.8719           -0.3463394              -9.4244
       184        1.8253           -0.3460173              -9.4156
       185        1.8239           -0.3460088              -9.4154
       186        1.8222           -0.3459982              -9.4151
       187        1.4296           -0.3446250              -9.3777
       188        1.3817           -0.3445115              -9.3746 (HOMO)
       189        1.3004           -0.3443290              -9.3697 (LUMO)
       190                         -0.3100472              -8.4368
       191                         -0.2987724              -8.1300
       192                         -0.2959495              -8.0532
       193                         -0.2959480              -8.0532
       ...                                ...                  ...
       363                          1.4119701              38.4217
      -------------------------------------------------------------
                  HL-Gap            0.0001825 Eh            0.0050 eV
             Fermi-level           -0.3437113 Eh           -9.3529 eV

 SCC (total)                   0 d,  0 h,  0 min,  1.918 sec
 SCC setup                      ...        0 min,  0.002 sec (  0.120%)
 Dispersion                     ...        0 min,  0.005 sec (  0.245%)
 classical contributions        ...        0 min,  0.001 sec (  0.041%)
 integral evaluation            ...        0 min,  0.049 sec (  2.544%)
 iterations                     ...        0 min,  1.694 sec ( 88.336%)
 molecular gradient             ...        0 min,  0.164 sec (  8.554%)
 printout                       ...        0 min,  0.003 sec (  0.159%)

         :::::::::::::::::::::::::::::::::::::::::::::::::::::
         ::                     SUMMARY                     ::
         :::::::::::::::::::::::::::::::::::::::::::::::::::::
         :: total energy            -199.609333003405 Eh    ::
         :: gradient norm              0.000437023136 Eh/a0 ::
         :: HOMO-LUMO gap              0.004966310435 eV    ::
         ::.................................................::
         :: SCC energy              -203.031838136869 Eh    ::
         :: -> isotropic ES            0.048546403279 Eh    ::
         :: -> anisotropic ES          0.026382385395 Eh    ::
         :: -> anisotropic XC          0.100462812857 Eh    ::
         :: -> dispersion             -0.184499604105 Eh    ::
         :: repulsion energy           3.425018785932 Eh    ::
         :: add. restraining           0.000000000000 Eh    ::
         :: total charge               0.000000000000 e     ::
         :::::::::::::::::::::::::::::::::::::::::::::::::::::

           -------------------------------------------------
          |                Property Printout                |
           -------------------------------------------------

    * Orbital Energies and Occupations

         #    Occupation            Energy/Eh            Energy/eV
      -------------------------------------------------------------
         1        2.0000           -0.6688142             -18.1994
       ...           ...                  ...                  ...
       176        2.0000           -0.3643077              -9.9133
       177        1.9999           -0.3537995              -9.6274
       178        1.9183           -0.3467945              -9.4368
       179        1.9153           -0.3467579              -9.4358
       180        1.9086           -0.3466822              -9.4337
       181        1.9028           -0.3466197              -9.4320
       182        1.9001           -0.3465923              -9.4313
       183        1.8719           -0.3463394              -9.4244
       184        1.8253           -0.3460173              -9.4156
       185        1.8239           -0.3460088              -9.4154
       186        1.8222           -0.3459982              -9.4151
       187        1.4296           -0.3446250              -9.3777
       188        1.3817           -0.3445115              -9.3746 (HOMO)
       189        1.3004           -0.3443290              -9.3697 (LUMO)
       190                         -0.3100472              -8.4368
       191                         -0.2987724              -8.1300
       192                         -0.2959495              -8.0532
       193                         -0.2959480              -8.0532
       194                         -0.2958672              -8.0510
       195                         -0.2875936              -7.8258
       196                         -0.2645866              -7.1998
       197                         -0.2615983              -7.1185
       198                         -0.2570454              -6.9946
       199                         -0.2565485              -6.9810
       ...                                ...                  ...
       363                          1.4119701              38.4217
      -------------------------------------------------------------
                  HL-Gap            0.0001825 Eh            0.0050 eV
             Fermi-level           -0.3437113 Eh           -9.3529 eV

     #   Z          covCN         q      C6AA      α(0)
     1  27 Co       3.088     0.099   140.949    24.324
     2   6 C        3.023    -0.053    29.295     8.878
     3   6 C        3.021    -0.052    29.268     8.874
     4   6 C        3.189     0.072    25.943     8.309
     5   6 C        2.956     0.019    27.580     8.614
     6   6 C        3.187     0.072    25.948     8.311
     7   6 C        3.023    -0.051    29.236     8.869
     8   6 C        3.023    -0.053    29.298     8.879
     9   6 C        3.176     0.071    26.020     8.330
    10   7 N        2.640    -0.130    23.825     7.249
    11   6 C        2.904    -0.050    29.230     8.865
    12   6 C        3.172     0.072    26.015     8.331
    13   6 C        3.021    -0.052    29.274     8.875
    14   6 C        3.021    -0.052    29.277     8.876
    15   6 C        3.172     0.073    26.009     8.330
    16   7 N        2.640    -0.129    23.799     7.245
    17   6 C        2.904    -0.051    29.270     8.871
    18   6 C        3.173     0.073    26.009     8.330
    19   6 C        3.021    -0.052    29.277     8.876
    20   6 C        3.021    -0.052    29.275     8.875
    21   6 C        3.172     0.072    26.018     8.332
    22   7 N        2.641    -0.128    23.796     7.245
    23   6 C        2.904    -0.049    29.228     8.865
    24   6 C        3.175     0.071    26.027     8.332
    25   7 N        2.640    -0.129    23.816     7.248
    26   1 H        0.926     0.034     2.526     2.485
    27   1 H        0.926     0.036     2.501     2.473
    28   1 H        0.926     0.034     2.526     2.485
    29   1 H        0.926     0.034     2.528     2.486
    30   1 H        0.926     0.050     2.325     2.384
    31   1 H        0.926     0.034     2.523     2.484
    32   1 H        0.926     0.034     2.525     2.485
    33   1 H        0.926     0.049     2.333     2.388
    34   1 H        0.926     0.034     2.525     2.485
    35   1 H        0.926     0.034     2.524     2.484
    36   1 H        0.926     0.050     2.324     2.384
    37  27 Co       3.091     0.099   140.949    24.324
    38   6 C        3.023    -0.053    29.295     8.878
    39   6 C        3.021    -0.052    29.268     8.874
    40   6 C        3.188     0.072    25.946     8.310
    41   6 C        2.956     0.019    27.578     8.614
    42   6 C        3.186     0.072    25.953     8.312
    43   6 C        3.022    -0.051    29.236     8.869
    44   6 C        3.023    -0.053    29.298     8.879
    45   6 C        3.175     0.071    26.024     8.331
    46   7 N        2.641    -0.130    23.824     7.249
    47   6 C        2.904    -0.049    29.228     8.865
    48   6 C        3.172     0.072    26.018     8.332
    49   6 C        3.020    -0.052    29.274     8.875
    50   6 C        3.021    -0.052    29.277     8.875
    51   6 C        3.172     0.073    26.013     8.331
    52   7 N        2.642    -0.128    23.797     7.245
    53   6 C        2.904    -0.051    29.268     8.871
    54   6 C        3.172     0.073    26.010     8.331
    55   6 C        3.021    -0.052    29.277     8.875
    56   6 C        3.021    -0.052    29.275     8.875
    57   6 C        3.172     0.072    26.020     8.332
    58   7 N        2.642    -0.128    23.793     7.244
    59   6 C        2.904    -0.049    29.225     8.864
    60   6 C        3.175     0.071    26.030     8.332
    61   7 N        2.641    -0.129    23.814     7.248
    62   1 H        0.926     0.034     2.526     2.485
    63   1 H        0.926     0.036     2.501     2.473
    64   1 H        0.926     0.034     2.525     2.485
    65   1 H        0.926     0.034     2.527     2.486
    66   1 H        0.926     0.050     2.324     2.384
    67   1 H        0.926     0.035     2.523     2.484
    68   1 H        0.926     0.034     2.524     2.485
    69   1 H        0.926     0.049     2.332     2.388
    70   1 H        0.926     0.034     2.524     2.485
    71   1 H        0.926     0.034     2.524     2.484
    72   1 H        0.926     0.050     2.324     2.384
    73   6 C        1.989    -0.029    31.828     9.111
    74   6 C        1.990    -0.029    31.815     9.109
    75   6 C        1.990    -0.029    31.812     9.109
    76   6 C        1.989    -0.029    31.830     9.111
    77  27 Co       3.058     0.098   140.973    24.326
    78   6 C        3.024    -0.053    29.293     8.878
    79   6 C        3.023    -0.052    29.272     8.875
    80   6 C        3.194     0.072    25.896     8.297
    81   6 C        2.956     0.019    27.591     8.615
    82   6 C        3.192     0.072    25.908     8.301
    83   6 C        3.024    -0.051    29.237     8.869
    84   6 C        3.024    -0.053    29.296     8.878
    85   6 C        3.181     0.071    25.992     8.322
    86   7 N        2.632    -0.131    23.846     7.253
    87   6 C        2.905    -0.048    29.194     8.860
    88   6 C        3.180     0.071    25.995     8.323
    89   6 C        3.024    -0.053    29.293     8.878
    90   6 C        3.023    -0.052    29.270     8.874
    91   6 C        3.194     0.072    25.898     8.298
    92   7 N        2.632    -0.131    23.841     7.252
    93   6 C        2.956     0.019    27.591     8.616
    94   6 C        3.192     0.072    25.906     8.301
    95   6 C        3.024    -0.051    29.239     8.870
    96   6 C        3.024    -0.053    29.296     8.878
    97   6 C        3.181     0.071    25.990     8.322
    98   7 N        2.632    -0.131    23.845     7.252
    99   6 C        2.905    -0.048    29.194     8.860
   100   6 C        3.181     0.071    25.994     8.323
   101   7 N        2.632    -0.130    23.838     7.251
   102   1 H        0.926     0.034     2.529     2.487
   103   1 H        0.926     0.036     2.500     2.472
   104   1 H        0.926     0.034     2.534     2.489
   105   1 H        0.926     0.034     2.531     2.488
   106   1 H        0.926     0.050     2.320     2.382
   107   1 H        0.926     0.034     2.529     2.487
   108   1 H        0.926     0.036     2.501     2.473
   109   1 H        0.926     0.034     2.533     2.489
   110   1 H        0.926     0.034     2.531     2.488
   111   1 H        0.926     0.050     2.319     2.382

 Mol. C6AA /au·bohr⁶  :     232935.354212
 Mol. C8AA /au·bohr⁸  :    6763883.238937
 Mol. α(0) /au        :        793.162710


Wiberg/Mayer (AO) data.
largest (>0.10) Wiberg bond orders for each atom

 ---------------------------------------------------------------------------
     #   Z sym  total        # sym  WBO       # sym  WBO       # sym  WBO
 ---------------------------------------------------------------------------
     1  27 Co   3.368 --    22 N    0.726    16 N    0.726    25 N    0.724
                            10 N    0.723
     2   6 C    3.953 --     3 C    1.641    24 C    1.174    26 H    0.972
     3   6 C    3.958 --     2 C    1.641     4 C    1.183    27 H    0.969
     4   6 C    3.922 --    25 N    1.262     5 C    1.258     3 C    1.183
     5   6 C    3.945 --     6 C    1.263     4 C    1.258    73 C    1.167
     6   6 C    3.922 --     5 C    1.263    10 N    1.259     7 C    1.182
     7   6 C    3.957 --     8 C    1.642     6 C    1.182    28 H    0.967
     8   6 C    3.953 --     7 C    1.642     9 C    1.174    29 H    0.972
     9   6 C    3.930 --    11 C    1.356    10 N    1.229     8 C    1.174
    10   7 N    3.514 --     6 C    1.259     9 C    1.229     1 Co   0.723
    11   6 C    3.936 --    12 C    1.358     9 C    1.356    30 H    0.964
    12   6 C    3.935 --    11 C    1.358    16 N    1.238    13 C    1.166
    13   6 C    3.957 --    14 C    1.657    12 C    1.166    31 H    0.972
    14   6 C    3.955 --    13 C    1.657    15 C    1.165    32 H    0.972
    15   6 C    3.937 --    17 C    1.356    16 N    1.242    14 C    1.165
    16   7 N    3.510 --    15 C    1.242    12 C    1.238     1 Co   0.726
    17   6 C    3.933 --    18 C    1.356    15 C    1.356    33 H    0.964
    18   6 C    3.937 --    17 C    1.356    22 N    1.241    19 C    1.165
    19   6 C    3.955 --    20 C    1.656    18 C    1.165    34 H    0.972
    20   6 C    3.957 --    19 C    1.656    21 C    1.166    35 H    0.972
    21   6 C    3.935 --    23 C    1.356    22 N    1.239    20 C    1.166
    22   7 N    3.510 --    18 C    1.241    21 C    1.239     1 Co   0.726
    23   6 C    3.937 --    24 C    1.359    21 C    1.356    36 H    0.964
    24   6 C    3.930 --    23 C    1.359    25 N    1.226     2 C    1.174
    25   7 N    3.514 --     4 C    1.262    24 C    1.226     1 Co   0.724
    26   1 H    0.998 --     2 C    0.972
    27   1 H    0.998 --     3 C    0.969
    28   1 H    0.998 --     7 C    0.967
    29   1 H    0.998 --     8 C    0.972
    30   1 H    0.996 --    11 C    0.964
    31   1 H    0.998 --    13 C    0.972
    32   1 H    0.998 --    14 C    0.972
    33   1 H    0.996 --    17 C    0.964
    34   1 H    0.998 --    19 C    0.972
    35   1 H    0.998 --    20 C    0.972
    36   1 H    0.996 --    23 C    0.964
    37  27 Co   3.372 --    58 N    0.726    52 N    0.726    61 N    0.724
                            46 N    0.723
    38   6 C    3.953 --    39 C    1.641    60 C    1.174    62 H    0.972
    39   6 C    3.958 --    38 C    1.641    40 C    1.183    63 H    0.969
    40   6 C    3.922 --    61 N    1.262    41 C    1.258    39 C    1.183
    41   6 C    3.944 --    42 C    1.262    40 C    1.258    76 C    1.167
    42   6 C    3.922 --    41 C    1.262    46 N    1.259    43 C    1.182
    43   6 C    3.958 --    44 C    1.641    42 C    1.182    64 H    0.967
    44   6 C    3.954 --    43 C    1.641    45 C    1.174    65 H    0.972
    45   6 C    3.930 --    47 C    1.356    46 N    1.229    44 C    1.174
    46   7 N    3.514 --    42 C    1.259    45 C    1.229    37 Co   0.723
    47   6 C    3.936 --    48 C    1.357    45 C    1.356    66 H    0.964
    48   6 C    3.935 --    47 C    1.357    52 N    1.238    49 C    1.166
    49   6 C    3.957 --    50 C    1.657    48 C    1.166    67 H    0.972
    50   6 C    3.955 --    49 C    1.657    51 C    1.165    68 H    0.972
    51   6 C    3.937 --    53 C    1.356    52 N    1.242    50 C    1.165
    52   7 N    3.510 --    51 C    1.242    48 C    1.238    37 Co   0.726
    53   6 C    3.933 --    54 C    1.356    51 C    1.356    69 H    0.964
    54   6 C    3.937 --    53 C    1.356    58 N    1.241    55 C    1.165
    55   6 C    3.955 --    56 C    1.656    54 C    1.165    70 H    0.972
    56   6 C    3.957 --    55 C    1.656    57 C    1.166    71 H    0.972
    57   6 C    3.935 --    59 C    1.356    58 N    1.239    56 C    1.166
    58   7 N    3.510 --    54 C    1.241    57 C    1.239    37 Co   0.726
    59   6 C    3.936 --    60 C    1.359    57 C    1.356    72 H    0.964
    60   6 C    3.930 --    59 C    1.359    61 N    1.226    38 C    1.174
    61   7 N    3.514 --    40 C    1.262    60 C    1.226    37 Co   0.724
    62   1 H    0.998 --    38 C    0.972
    63   1 H    0.998 --    39 C    0.969
    64   1 H    0.998 --    43 C    0.967
    65   1 H    0.998 --    44 C    0.972
    66   1 H    0.996 --    47 C    0.964
    67   1 H    0.998 --    49 C    0.972
    68   1 H    0.998 --    50 C    0.972
    69   1 H    0.996 --    53 C    0.964
    70   1 H    0.998 --    55 C    0.972
    71   1 H    0.998 --    56 C    0.972
    72   1 H    0.996 --    59 C    0.964
    73   6 C    3.926 --    74 C    2.583     5 C    1.167
    74   6 C    3.927 --    73 C    2.583    81 C    1.166
    75   6 C    3.927 --    76 C    2.582    93 C    1.166
    76   6 C    3.926 --    75 C    2.582    41 C    1.167
    77  27 Co   3.320 --   101 N    0.719    98 N    0.719    92 N    0.719
                            86 N    0.719
    78   6 C    3.954 --    79 C    1.642   100 C    1.174   102 H    0.972
    79   6 C    3.956 --    78 C    1.642    80 C    1.182   103 H    0.969
    80   6 C    3.922 --   101 N    1.264    81 C    1.259    79 C    1.182
    81   6 C    3.937 --    82 C    1.263    80 C    1.259    74 C    1.166
    82   6 C    3.923 --    81 C    1.263    86 N    1.262    83 C    1.182
    83   6 C    3.956 --    84 C    1.642    82 C    1.182   104 H    0.967
    84   6 C    3.954 --    83 C    1.642    85 C    1.174   105 H    0.972
    85   6 C    3.929 --    87 C    1.357    86 N    1.229    84 C    1.174
    86   7 N    3.506 --    82 C    1.262    85 C    1.229    77 Co   0.719
    87   6 C    3.932 --    88 C    1.360    85 C    1.357   106 H    0.963
    88   6 C    3.929 --    87 C    1.360    92 N    1.226    89 C    1.174
    89   6 C    3.954 --    90 C    1.642    88 C    1.174   107 H    0.972
    90   6 C    3.956 --    89 C    1.642    91 C    1.182   108 H    0.969
    91   6 C    3.922 --    92 N    1.264    93 C    1.259    90 C    1.182
    92   7 N    3.506 --    91 C    1.264    88 C    1.226    77 Co   0.719
    93   6 C    3.937 --    94 C    1.262    91 C    1.259    75 C    1.166
    94   6 C    3.923 --    93 C    1.262    98 N    1.262    95 C    1.182
    95   6 C    3.956 --    96 C    1.642    94 C    1.182   109 H    0.967
    96   6 C    3.954 --    95 C    1.642    97 C    1.175   110 H    0.972
    97   6 C    3.929 --    99 C    1.357    98 N    1.228    96 C    1.175
    98   7 N    3.506 --    94 C    1.262    97 C    1.228    77 Co   0.719
    99   6 C    3.932 --   100 C    1.360    97 C    1.357   111 H    0.963
   100   6 C    3.929 --    99 C    1.360   101 N    1.226    78 C    1.174
   101   7 N    3.506 --    80 C    1.264   100 C    1.226    77 Co   0.719
   102   1 H    0.998 --    78 C    0.972
   103   1 H    0.998 --    79 C    0.969
   104   1 H    0.998 --    83 C    0.967
   105   1 H    0.998 --    84 C    0.972
   106   1 H    0.996 --    87 C    0.963
   107   1 H    0.998 --    89 C    0.972
   108   1 H    0.998 --    90 C    0.969
   109   1 H    0.998 --    95 C    0.967
   110   1 H    0.998 --    96 C    0.972
   111   1 H    0.996 --    99 C    0.963
 ---------------------------------------------------------------------------

Topologies differ in total number of bonds
Writing topology from bond orders to xtbtopo.mol

molecular dipole:
                 x           y           z       tot (Debye)
 q only:        0.016      -0.002      -0.009
   full:        0.016      -0.003      -0.028       0.083
molecular quadrupole (traceless):
                xx          xy          yy          xz          yz          zz
 q only:       25.111       1.784       2.589      -0.650       0.689     -27.700
  q+dip:       49.864       3.620      12.635      -2.071       1.695     -62.499
   full:       34.130       2.437       5.493      -2.090       1.028     -39.623


           -------------------------------------------------
          | TOTAL ENERGY             -199.609333003405 Eh   |
          | GRADIENT NORM               0.000437023136 Eh/α |
          | HOMO-LUMO GAP               0.004966310435 eV   |
           -------------------------------------------------

------------------------------------------------------------------------
 * finished run on 2021/11/21 at 21:09:35.643     
------------------------------------------------------------------------
 total:
 * wall-time:     0 d,  0 h,  0 min,  1.972 sec
 *  cpu-time:     0 d,  0 h,  0 min,  1.972 sec
 * ratio c/w:     1.000 speedup
 SCF:
 * wall-time:     0 d,  0 h,  0 min,  1.919 sec
 *  cpu-time:     0 d,  0 h,  0 min,  1.919 sec
 * ratio c/w:     1.000 speedup

