      -----------------------------------------------------------      
     |                   =====================                   |     
     |                           x T B                           |     
     |                   =====================                   |     
     |                         S. Grimme                         |     
     |          Mulliken Center for Theoretical Chemistry        |     
     |                    University of Bonn                     |     
      -----------------------------------------------------------      

   * xtb version 6.4.1 (bd6e46d) compiled by 'conda@4901f00b25ba' on 2021-06-10

   xtb is free software: you can redistribute it and/or modify it under
   the terms of the GNU Lesser General Public License as published by
   the Free Software Foundation, either version 3 of the License, or
   (at your option) any later version.
   
   xtb is distributed in the hope that it will be useful,
   but WITHOUT ANY WARRANTY; without even the implied warranty of
   MERCHANTABILITY or FITNESS FOR A PARTICULAR PURPOSE.  See the
   GNU Lesser General Public License for more details.
   
   Cite this work as:
   * C. Bannwarth, E. Caldeweyher, S. Ehlert, A. Hansen, P. Pracht,
     J. Seibert, S. Spicher, S. Grimme, WIREs Comput. Mol. Sci., 2020, 11,
     e01493. DOI: 10.1002/wcms.1493
   
   for GFN2-xTB:
   * C. Bannwarth, S. Ehlert and S. Grimme., J. Chem. Theory Comput., 2019,
     15, 1652-1671. DOI: 10.1021/acs.jctc.8b01176
   for GFN1-xTB:
   * S. Grimme, C. Bannwarth, P. Shushkov, J. Chem. Theory Comput., 2017,
     13, 1989-2009. DOI: 10.1021/acs.jctc.7b00118
   for GFN0-xTB:
   * P. Pracht, E. Caldeweyher, S. Ehlert, S. Grimme, ChemRxiv, 2019, preprint.
     DOI: 10.26434/chemrxiv.8326202.v1
   for GFN-FF:
   * S. Spicher and S. Grimme, Angew. Chem. Int. Ed., 2020, 59, 15665-15673.
     DOI: 10.1002/anie.202004239
   
   for DFT-D4:
   * E. Caldeweyher, C. Bannwarth and S. Grimme, J. Chem. Phys., 2017,
     147, 034112. DOI: 10.1063/1.4993215
   * E. Caldeweyher, S. Ehlert, A. Hansen, H. Neugebauer, S. Spicher,
     C. Bannwarth and S. Grimme, J. Chem. Phys., 2019, 150, 154122.
     DOI: 10.1063/1.5090222
   * E. Caldeweyher, J.-M. Mewes, S. Ehlert and S. Grimme, Phys. Chem. Chem. Phys.
     2020, 22, 8499-8512. DOI: 10.1039/D0CP00502A
   
   for sTDA-xTB:
   * S. Grimme and C. Bannwarth, J. Chem. Phys., 2016, 145, 054103.
     DOI: 10.1063/1.4959605
   
   in the mass-spec context:
   * V. Asgeirsson, C. Bauer and S. Grimme, Chem. Sci., 2017, 8, 4879.
     DOI: 10.1039/c7sc00601b
   * J. Koopman and S. Grimme, ACS Omega 2019, 4, 12, 15120-15133.
     DOI: 10.1021/acsomega.9b02011
   
   for metadynamics refer to:
   * S. Grimme, J. Chem. Theory Comput., 2019, 155, 2847-2862
     DOI: 10.1021/acs.jctc.9b00143
   
   for SPH calculations refer to:
   * S. Spicher and S. Grimme, J. Chem. Theory Comput., 2021, 17, 1701-1714
     DOI: 10.1021/acs.jctc.0c01306
   
   with help from (in alphabetical order)
   P. Atkinson, C. Bannwarth, F. Bohle, G. Brandenburg, E. Caldeweyher
   M. Checinski, S. Dohm, S. Ehlert, S. Ehrlich, I. Gerasimov, J. Koopman
   C. Lavigne, S. Lehtola, F. März, M. Müller, F. Musil, H. Neugebauer
   J. Pisarek, C. Plett, P. Pracht, J. Seibert, P. Shushkov, S. Spicher
   M. Stahn, M. Steiner, T. Strunk, J. Stückrath, T. Rose, and J. Unsleber
   
 * started run on 2021/11/21 at 19:15:31.252     

           -------------------------------------------------
          |                Calculation Setup                |
           -------------------------------------------------

          program call               : /home/jeff/miniconda3/bin/xtb /home/jeff/chem/final-year-proejct/Zn+2_6_6_outenergy/input_structure.xyz --gfn 2 --parallel 1 --etemp 300 --chrg 0 --uhf 0 -I det_control.in
          coordinate file            : /home/jeff/chem/final-year-proejct/Zn+2_6_6_outenergy/input_structure.xyz
          omp threads                :                     1
          number of atoms            :                   242
          number of electrons        :                   794
          charge                     :                     0
          spin                       :                   0.0
          first test random number   :      0.01018121857754

   ID    Z sym.   atoms
    1   30 Zn     1, 37, 103, 138, 173, 208
    2    6 C      2-9, 11-15, 17-21, 23, 24, 38-45, 47-51, 53-57, 59, 60,
                  73-102, 104-111, 113-117, 119-123, 125, 126, 139-146,
                  148-152, 154-158, 160, 161, 174-181, 183-187, 189-193, 195,
                  196, 209-216, 218-222, 224-228, 230, 231
    3    7 N      10, 16, 22, 25, 46, 52, 58, 61, 112, 118, 124, 127, 147,
                  153, 159, 162, 182, 188, 194, 197, 217, 223, 229, 232
    4    1 H      26-36, 62-72, 128-137, 163-172, 198-207, 233-242

           -------------------------------------------------
          |                 G F N 2 - x T B                 |
           -------------------------------------------------

        Reference                      10.1021/acs.jctc.8b01176
      * Hamiltonian:
        H0-scaling (s, p, d)           1.850000    2.230000    2.230000
        zeta-weighting                 0.500000
      * Dispersion:
        s8                             2.700000
        a1                             0.520000
        a2                             5.000000
        s9                             5.000000
      * Repulsion:
        kExp                           1.500000    1.000000
        rExp                           1.000000
      * Coulomb:
        alpha                          2.000000
        third order                    shell-resolved
        anisotropic                    true
        a3                             3.000000
        a5                             4.000000
        cn-shift                       1.200000
        cn-exp                         4.000000
        max-rad                        5.000000


          ...................................................
          :                      SETUP                      :
          :.................................................:
          :  # basis functions                 782          :
          :  # atomic orbitals                 782          :
          :  # shells                          422          :
          :  # electrons                       794          :
          :  max. iterations                   250          :
          :  Hamiltonian                  GFN2-xTB          :
          :  restarted?                      false          :
          :  GBSA solvation                  false          :
          :  PC potential                    false          :
          :  electronic temp.          300.0000000     K    :
          :  accuracy                    1.0000000          :
          :  -> integral cutoff          0.2500000E+02      :
          :  -> integral neglect         0.1000000E-07      :
          :  -> SCF convergence          0.1000000E-05 Eh   :
          :  -> wf. convergence          0.1000000E-03 e    :
          :  Broyden damping             0.4000000          :
          ...................................................

 iter      E             dE          RMSdq      gap      omega  full diag
   1   -432.9037420 -0.432904E+03  0.740E+00    0.86       0.0  T
   2   -433.7226598 -0.818918E+00  0.396E+00    0.83       1.0  T
   3   -433.3680637  0.354596E+00  0.250E+00    0.94       1.0  T
   4   -434.3811738 -0.101311E+01  0.406E-01    0.86       1.0  T
   5   -434.3873824 -0.620863E-02  0.279E-01    0.89       1.0  T
   6   -434.3889076 -0.152519E-02  0.175E-01    0.88       1.0  T
   7   -434.3891337 -0.226068E-03  0.114E-01    0.88       1.0  T
   8   -434.3929856 -0.385192E-02  0.377E-02    0.88       1.0  T
   9   -434.3933239 -0.338314E-03  0.147E-02    0.88       1.0  T
  10   -434.3933500 -0.261185E-04  0.747E-03    0.88       1.0  T
  11   -434.3933576 -0.758449E-05  0.289E-03    0.88       2.2  T
  12   -434.3933586 -0.101537E-05  0.116E-03    0.88       5.5  T
  13   -434.3933587 -0.436599E-07  0.769E-04    0.88       8.4  T
  14   -434.3933588 -0.930858E-07  0.354E-04    0.88      18.2  T

   *** convergence criteria satisfied after 14 iterations ***

         #    Occupation            Energy/Eh            Energy/eV
      -------------------------------------------------------------
         1        2.0000           -0.6692046             -18.2100
       ...           ...                  ...                  ...
       391        2.0000           -0.3697288             -10.0608
       392        2.0000           -0.3691497             -10.0451
       393        2.0000           -0.3658520              -9.9553
       394        2.0000           -0.3614075              -9.8344
       395        2.0000           -0.3566767              -9.7057
       396        2.0000           -0.3524105              -9.5896
       397        2.0000           -0.3495513              -9.5118 (HOMO)
       398                         -0.3171590              -8.6303 (LUMO)
       399                         -0.3135505              -8.5321
       400                         -0.3089273              -8.4063
       401                         -0.3039775              -8.2716
       402                         -0.3007706              -8.1844
       ...                                ...                  ...
       782                          1.7142422              46.6469
      -------------------------------------------------------------
                  HL-Gap            0.0323923 Eh            0.8814 eV
             Fermi-level           -0.3333426 Eh           -9.0707 eV

 SCC (total)                   0 d,  0 h,  0 min,  3.146 sec
 SCC setup                      ...        0 min,  0.010 sec (  0.332%)
 Dispersion                     ...        0 min,  0.022 sec (  0.697%)
 classical contributions        ...        0 min,  0.002 sec (  0.061%)
 integral evaluation            ...        0 min,  0.166 sec (  5.273%)
 iterations                     ...        0 min,  2.515 sec ( 79.960%)
 molecular gradient             ...        0 min,  0.406 sec ( 12.920%)
 printout                       ...        0 min,  0.024 sec (  0.756%)

         :::::::::::::::::::::::::::::::::::::::::::::::::::::
         ::                     SUMMARY                     ::
         :::::::::::::::::::::::::::::::::::::::::::::::::::::
         :: total energy            -426.079352426172 Eh    ::
         :: gradient norm              0.000616483475 Eh/a0 ::
         :: HOMO-LUMO gap              0.881439423073 eV    ::
         ::.................................................::
         :: SCC energy              -434.393358751539 Eh    ::
         :: -> isotropic ES            0.390303607868 Eh    ::
         :: -> anisotropic ES          0.052027918119 Eh    ::
         :: -> anisotropic XC          0.267624888226 Eh    ::
         :: -> dispersion             -0.383824273728 Eh    ::
         :: repulsion energy           8.320417953491 Eh    ::
         :: add. restraining           0.000000000000 Eh    ::
         :: total charge              -0.000000000004 e     ::
         :::::::::::::::::::::::::::::::::::::::::::::::::::::

           -------------------------------------------------
          |                Property Printout                |
           -------------------------------------------------

    * Orbital Energies and Occupations

         #    Occupation            Energy/Eh            Energy/eV
      -------------------------------------------------------------
         1        2.0000           -0.6692046             -18.2100
       ...           ...                  ...                  ...
       385        2.0000           -0.3803193             -10.3490
       386        2.0000           -0.3715706             -10.1110
       387        2.0000           -0.3715691             -10.1109
       388        2.0000           -0.3712831             -10.1031
       389        2.0000           -0.3712799             -10.1030
       390        2.0000           -0.3697435             -10.0612
       391        2.0000           -0.3697288             -10.0608
       392        2.0000           -0.3691497             -10.0451
       393        2.0000           -0.3658520              -9.9553
       394        2.0000           -0.3614075              -9.8344
       395        2.0000           -0.3566767              -9.7057
       396        2.0000           -0.3524105              -9.5896
       397        2.0000           -0.3495513              -9.5118 (HOMO)
       398                         -0.3171590              -8.6303 (LUMO)
       399                         -0.3135505              -8.5321
       400                         -0.3089273              -8.4063
       401                         -0.3039775              -8.2716
       402                         -0.3007706              -8.1844
       403                         -0.3007706              -8.1844
       404                         -0.3004857              -8.1766
       405                         -0.3004840              -8.1766
       406                         -0.2994747              -8.1491
       407                         -0.2990467              -8.1375
       408                         -0.2990338              -8.1371
       ...                                ...                  ...
       782                          1.7142422              46.6469
      -------------------------------------------------------------
                  HL-Gap            0.0323923 Eh            0.8814 eV
             Fermi-level           -0.3333426 Eh           -9.0707 eV

     #   Z          covCN         q      C6AA      α(0)
     1  30 Zn       3.042     0.245   122.297    21.603
     2   6 C        3.020    -0.052    29.264     8.874
     3   6 C        3.018    -0.050    29.231     8.869
     4   6 C        3.166     0.077    25.940     8.323
     5   6 C        2.953     0.017    27.641     8.623
     6   6 C        3.166     0.077    25.940     8.323
     7   6 C        3.018    -0.050    29.229     8.868
     8   6 C        3.020    -0.052    29.264     8.874
     9   6 C        3.149     0.076    26.050     8.349
    10   7 N        2.632    -0.177    24.840     7.402
    11   6 C        2.901    -0.050    29.233     8.865
    12   6 C        3.145     0.077    26.036     8.348
    13   6 C        3.017    -0.051    29.243     8.870
    14   6 C        3.018    -0.051    29.246     8.871
    15   6 C        3.145     0.077    26.027     8.347
    16   7 N        2.635    -0.175    24.790     7.395
    17   6 C        2.901    -0.051    29.276     8.872
    18   6 C        3.145     0.077    26.027     8.347
    19   6 C        3.018    -0.051    29.246     8.871
    20   6 C        3.017    -0.051    29.243     8.870
    21   6 C        3.145     0.077    26.036     8.348
    22   7 N        2.635    -0.175    24.790     7.395
    23   6 C        2.901    -0.050    29.233     8.865
    24   6 C        3.149     0.076    26.050     8.349
    25   7 N        2.632    -0.177    24.838     7.402
    26   1 H        0.926     0.034     2.533     2.489
    27   1 H        0.926     0.036     2.505     2.475
    28   1 H        0.926     0.036     2.505     2.475
    29   1 H        0.926     0.034     2.533     2.489
    30   1 H        0.926     0.049     2.328     2.386
    31   1 H        0.926     0.034     2.524     2.485
    32   1 H        0.926     0.034     2.526     2.485
    33   1 H        0.926     0.049     2.336     2.390
    34   1 H        0.926     0.034     2.526     2.485
    35   1 H        0.926     0.034     2.524     2.485
    36   1 H        0.926     0.049     2.328     2.386
    37  30 Zn       3.042     0.245   122.297    21.603
    38   6 C        3.020    -0.052    29.264     8.874
    39   6 C        3.018    -0.050    29.230     8.869
    40   6 C        3.166     0.077    25.940     8.323
    41   6 C        2.953     0.017    27.642     8.623
    42   6 C        3.166     0.077    25.939     8.323
    43   6 C        3.018    -0.050    29.229     8.868
    44   6 C        3.020    -0.052    29.264     8.874
    45   6 C        3.149     0.076    26.049     8.349
    46   7 N        2.631    -0.177    24.840     7.402
    47   6 C        2.901    -0.050    29.233     8.865
    48   6 C        3.145     0.077    26.036     8.348
    49   6 C        3.017    -0.051    29.243     8.870
    50   6 C        3.018    -0.051    29.246     8.871
    51   6 C        3.145     0.077    26.027     8.347
    52   7 N        2.635    -0.175    24.790     7.395
    53   6 C        2.901    -0.051    29.276     8.872
    54   6 C        3.145     0.077    26.027     8.347
    55   6 C        3.018    -0.051    29.246     8.871
    56   6 C        3.017    -0.051    29.243     8.870
    57   6 C        3.145     0.077    26.036     8.348
    58   7 N        2.635    -0.175    24.791     7.395
    59   6 C        2.901    -0.050    29.233     8.865
    60   6 C        3.149     0.076    26.049     8.349
    61   7 N        2.632    -0.177    24.839     7.402
    62   1 H        0.926     0.034     2.533     2.489
    63   1 H        0.926     0.036     2.505     2.475
    64   1 H        0.926     0.036     2.506     2.475
    65   1 H        0.926     0.034     2.533     2.489
    66   1 H        0.926     0.049     2.328     2.386
    67   1 H        0.926     0.034     2.524     2.485
    68   1 H        0.926     0.034     2.526     2.485
    69   1 H        0.926     0.049     2.336     2.390
    70   1 H        0.926     0.034     2.526     2.485
    71   1 H        0.926     0.034     2.525     2.485
    72   1 H        0.926     0.049     2.328     2.386
    73   6 C        1.997    -0.019    31.544     9.070
    74   6 C        1.963    -0.011    31.355     9.043
    75   6 C        1.964    -0.002    31.120     9.009
    76   6 C        1.964    -0.003    31.140     9.012
    77   6 C        1.963    -0.010    31.335     9.040
    78   6 C        1.996    -0.020    31.567     9.073
    79   6 C        1.996    -0.019    31.550     9.071
    80   6 C        1.963    -0.010    31.342     9.041
    81   6 C        1.964    -0.002    31.122     9.009
    82   6 C        1.964    -0.002    31.128     9.010
    83   6 C        1.963    -0.010    31.337     9.040
    84   6 C        1.996    -0.019    31.555     9.072
    85   6 C        1.997    -0.019    31.552     9.071
    86   6 C        1.963    -0.010    31.339     9.040
    87   6 C        1.965    -0.002    31.124     9.009
    88   6 C        1.965    -0.002    31.124     9.009
    89   6 C        1.963    -0.010    31.339     9.040
    90   6 C        1.997    -0.019    31.552     9.071
    91   6 C        1.997    -0.019    31.555     9.072
    92   6 C        1.963    -0.010    31.337     9.040
    93   6 C        1.964    -0.002    31.128     9.010
    94   6 C        1.965    -0.002    31.123     9.009
    95   6 C        1.963    -0.010    31.343     9.041
    96   6 C        1.997    -0.019    31.550     9.071
    97   6 C        1.996    -0.020    31.566     9.073
    98   6 C        1.963    -0.010    31.335     9.040
    99   6 C        1.964    -0.003    31.139     9.012
   100   6 C        1.964    -0.002    31.119     9.009
   101   6 C        1.963    -0.011    31.355     9.043
   102   6 C        1.997    -0.019    31.543     9.070
   103  30 Zn       3.038     0.247   122.273    21.600
   104   6 C        3.021    -0.052    29.259     8.873
   105   6 C        3.019    -0.050    29.229     8.868
   106   6 C        3.167     0.078    25.930     8.321
   107   6 C        2.953     0.017    27.630     8.622
   108   6 C        3.167     0.078    25.929     8.321
   109   6 C        3.019    -0.050    29.228     8.868
   110   6 C        3.021    -0.052    29.259     8.873
   111   6 C        3.151     0.075    26.053     8.348
   112   7 N        2.632    -0.177    24.841     7.402
   113   6 C        2.901    -0.048    29.179     8.857
   114   6 C        3.151     0.075    26.054     8.349
   115   6 C        3.021    -0.052    29.258     8.873
   116   6 C        3.018    -0.051    29.231     8.869
   117   6 C        3.167     0.078    25.927     8.320
   118   7 N        2.632    -0.177    24.842     7.402
   119   6 C        2.953     0.017    27.639     8.623
   120   6 C        3.167     0.078    25.927     8.320
   121   6 C        3.018    -0.050    29.230     8.869
   122   6 C        3.021    -0.052    29.258     8.873
   123   6 C        3.151     0.075    26.054     8.349
   124   7 N        2.632    -0.177    24.842     7.402
   125   6 C        2.901    -0.048    29.179     8.857
   126   6 C        3.151     0.075    26.053     8.348
   127   7 N        2.632    -0.177    24.840     7.402
   128   1 H        0.926     0.034     2.530     2.487
   129   1 H        0.926     0.036     2.503     2.474
   130   1 H        0.926     0.036     2.503     2.474
   131   1 H        0.926     0.034     2.530     2.487
   132   1 H        0.925     0.050     2.319     2.381
   133   1 H        0.926     0.034     2.530     2.487
   134   1 H        0.926     0.036     2.505     2.475
   135   1 H        0.926     0.036     2.505     2.475
   136   1 H        0.926     0.034     2.530     2.487
   137   1 H        0.925     0.050     2.319     2.381
   138  30 Zn       3.038     0.247   122.272    21.600
   139   6 C        3.021    -0.052    29.258     8.873
   140   6 C        3.019    -0.050    29.229     8.868
   141   6 C        3.167     0.078    25.927     8.320
   142   6 C        2.953     0.017    27.634     8.622
   143   6 C        3.167     0.078    25.928     8.320
   144   6 C        3.019    -0.050    29.229     8.868
   145   6 C        3.021    -0.052    29.258     8.873
   146   6 C        3.151     0.075    26.053     8.348
   147   7 N        2.632    -0.177    24.840     7.402
   148   6 C        2.901    -0.047    29.176     8.857
   149   6 C        3.151     0.075    26.052     8.348
   150   6 C        3.021    -0.052    29.258     8.873
   151   6 C        3.019    -0.050    29.230     8.868
   152   6 C        3.167     0.078    25.927     8.320
   153   7 N        2.632    -0.177    24.840     7.402
   154   6 C        2.953     0.017    27.636     8.622
   155   6 C        3.168     0.078    25.926     8.320
   156   6 C        3.019    -0.050    29.229     8.868
   157   6 C        3.021    -0.052    29.258     8.873
   158   6 C        3.151     0.075    26.052     8.348
   159   7 N        2.632    -0.177    24.840     7.402
   160   6 C        2.901    -0.047    29.177     8.857
   161   6 C        3.151     0.075    26.052     8.348
   162   7 N        2.632    -0.177    24.840     7.402
   163   1 H        0.926     0.034     2.529     2.487
   164   1 H        0.926     0.036     2.503     2.474
   165   1 H        0.926     0.036     2.503     2.474
   166   1 H        0.926     0.034     2.529     2.487
   167   1 H        0.925     0.050     2.317     2.381
   168   1 H        0.926     0.034     2.529     2.487
   169   1 H        0.926     0.036     2.504     2.474
   170   1 H        0.926     0.036     2.504     2.474
   171   1 H        0.926     0.034     2.529     2.487
   172   1 H        0.925     0.050     2.317     2.381
   173  30 Zn       3.038     0.247   122.272    21.600
   174   6 C        3.021    -0.052    29.258     8.873
   175   6 C        3.019    -0.050    29.229     8.868
   176   6 C        3.168     0.078    25.926     8.320
   177   6 C        2.953     0.017    27.636     8.622
   178   6 C        3.168     0.078    25.926     8.320
   179   6 C        3.019    -0.050    29.230     8.869
   180   6 C        3.021    -0.052    29.257     8.873
   181   6 C        3.151     0.075    26.052     8.348
   182   7 N        2.632    -0.177    24.840     7.402
   183   6 C        2.901    -0.047    29.176     8.857
   184   6 C        3.151     0.075    26.052     8.348
   185   6 C        3.021    -0.052    29.258     8.873
   186   6 C        3.019    -0.050    29.229     8.868
   187   6 C        3.167     0.078    25.927     8.320
   188   7 N        2.632    -0.177    24.840     7.402
   189   6 C        2.953     0.017    27.634     8.622
   190   6 C        3.167     0.078    25.927     8.320
   191   6 C        3.019    -0.050    29.229     8.868
   192   6 C        3.021    -0.052    29.258     8.873
   193   6 C        3.151     0.075    26.052     8.348
   194   7 N        2.632    -0.177    24.840     7.402
   195   6 C        2.901    -0.047    29.176     8.857
   196   6 C        3.151     0.075    26.052     8.348
   197   7 N        2.632    -0.177    24.840     7.402
   198   1 H        0.926     0.034     2.529     2.487
   199   1 H        0.926     0.036     2.504     2.474
   200   1 H        0.926     0.036     2.504     2.474
   201   1 H        0.926     0.034     2.529     2.487
   202   1 H        0.925     0.050     2.317     2.381
   203   1 H        0.926     0.034     2.529     2.487
   204   1 H        0.926     0.036     2.503     2.474
   205   1 H        0.926     0.036     2.503     2.474
   206   1 H        0.926     0.034     2.529     2.487
   207   1 H        0.925     0.050     2.317     2.381
   208  30 Zn       3.038     0.247   122.273    21.600
   209   6 C        3.021    -0.052    29.258     8.873
   210   6 C        3.018    -0.051    29.231     8.869
   211   6 C        3.167     0.078    25.927     8.320
   212   6 C        2.953     0.017    27.639     8.623
   213   6 C        3.167     0.078    25.927     8.320
   214   6 C        3.018    -0.050    29.230     8.869
   215   6 C        3.021    -0.052    29.258     8.873
   216   6 C        3.151     0.075    26.053     8.349
   217   7 N        2.632    -0.177    24.842     7.402
   218   6 C        2.901    -0.048    29.179     8.857
   219   6 C        3.151     0.075    26.052     8.348
   220   6 C        3.021    -0.052    29.259     8.873
   221   6 C        3.018    -0.050    29.229     8.868
   222   6 C        3.167     0.078    25.930     8.321
   223   7 N        2.632    -0.177    24.841     7.402
   224   6 C        2.953     0.017    27.630     8.622
   225   6 C        3.167     0.078    25.929     8.320
   226   6 C        3.019    -0.050    29.228     8.868
   227   6 C        3.021    -0.052    29.259     8.873
   228   6 C        3.151     0.075    26.052     8.348
   229   7 N        2.632    -0.177    24.841     7.402
   230   6 C        2.901    -0.048    29.179     8.857
   231   6 C        3.151     0.075    26.053     8.349
   232   7 N        2.632    -0.177    24.842     7.402
   233   1 H        0.926     0.034     2.530     2.487
   234   1 H        0.926     0.036     2.505     2.475
   235   1 H        0.926     0.036     2.505     2.475
   236   1 H        0.926     0.034     2.530     2.487
   237   1 H        0.925     0.050     2.319     2.381
   238   1 H        0.926     0.034     2.530     2.487
   239   1 H        0.926     0.036     2.503     2.474
   240   1 H        0.926     0.036     2.503     2.474
   241   1 H        0.926     0.034     2.530     2.487
   242   1 H        0.925     0.050     2.319     2.381

 Mol. C6AA /au·bohr⁶  :    1171072.599072
 Mol. C8AA /au·bohr⁸  :   33396710.112283
 Mol. α(0) /au        :       1767.176171


Wiberg/Mayer (AO) data.
largest (>0.10) Wiberg bond orders for each atom

 ---------------------------------------------------------------------------
     #   Z sym  total        # sym  WBO       # sym  WBO       # sym  WBO
 ---------------------------------------------------------------------------
     1  30 Zn   2.081 --    16 N    0.491    22 N    0.491    25 N    0.489
                            10 N    0.489
     2   6 C    3.953 --     3 C    1.650    24 C    1.171    26 H    0.972
     3   6 C    3.957 --     2 C    1.650     4 C    1.179    27 H    0.971
     4   6 C    3.910 --    25 N    1.286     5 C    1.250     3 C    1.179
     5   6 C    3.942 --     6 C    1.251     4 C    1.250    73 C    1.187
     6   6 C    3.910 --    10 N    1.286     5 C    1.251     7 C    1.179
     7   6 C    3.957 --     8 C    1.650     6 C    1.179    28 H    0.971
     8   6 C    3.953 --     7 C    1.650     9 C    1.171    29 H    0.972
     9   6 C    3.924 --    11 C    1.358    10 N    1.247     8 C    1.171
    10   7 N    3.467 --     6 C    1.286     9 C    1.247     1 Zn   0.489
    11   6 C    3.931 --     9 C    1.358    12 C    1.354    30 H    0.964
    12   6 C    3.929 --    11 C    1.354    16 N    1.261    13 C    1.163
    13   6 C    3.957 --    14 C    1.666    12 C    1.163    31 H    0.972
    14   6 C    3.955 --    13 C    1.666    15 C    1.162    32 H    0.972
    15   6 C    3.932 --    17 C    1.354    16 N    1.263    14 C    1.162
    16   7 N    3.464 --    15 C    1.263    12 C    1.261     1 Zn   0.491
    17   6 C    3.926 --    18 C    1.354    15 C    1.354    33 H    0.964
    18   6 C    3.932 --    17 C    1.354    22 N    1.263    19 C    1.162
    19   6 C    3.955 --    20 C    1.666    18 C    1.162    34 H    0.972
    20   6 C    3.957 --    19 C    1.666    21 C    1.163    35 H    0.972
    21   6 C    3.929 --    23 C    1.354    22 N    1.261    20 C    1.163
    22   7 N    3.464 --    18 C    1.263    21 C    1.261     1 Zn   0.491
    23   6 C    3.931 --    24 C    1.358    21 C    1.354    36 H    0.964
    24   6 C    3.924 --    23 C    1.358    25 N    1.247     2 C    1.171
    25   7 N    3.467 --     4 C    1.286    24 C    1.247     1 Zn   0.489
    26   1 H    0.998 --     2 C    0.972
    27   1 H    0.998 --     3 C    0.971
    28   1 H    0.998 --     7 C    0.971
    29   1 H    0.998 --     8 C    0.972
    30   1 H    0.996 --    11 C    0.964
    31   1 H    0.998 --    13 C    0.972
    32   1 H    0.998 --    14 C    0.972
    33   1 H    0.996 --    17 C    0.964
    34   1 H    0.998 --    19 C    0.972
    35   1 H    0.998 --    20 C    0.972
    36   1 H    0.996 --    23 C    0.964
    37  30 Zn   2.081 --    52 N    0.491    58 N    0.491    61 N    0.489
                            46 N    0.489
    38   6 C    3.953 --    39 C    1.650    60 C    1.171    62 H    0.972
    39   6 C    3.957 --    38 C    1.650    40 C    1.179    63 H    0.971
    40   6 C    3.911 --    61 N    1.286    41 C    1.251    39 C    1.179
    41   6 C    3.942 --    42 C    1.251    40 C    1.251   102 C    1.187
    42   6 C    3.911 --    46 N    1.286    41 C    1.251    43 C    1.179
    43   6 C    3.957 --    44 C    1.650    42 C    1.179    64 H    0.971
    44   6 C    3.953 --    43 C    1.650    45 C    1.171    65 H    0.972
    45   6 C    3.924 --    47 C    1.358    46 N    1.247    44 C    1.171
    46   7 N    3.467 --    42 C    1.286    45 C    1.247    37 Zn   0.489
    47   6 C    3.931 --    45 C    1.358    48 C    1.354    66 H    0.964
    48   6 C    3.929 --    47 C    1.354    52 N    1.261    49 C    1.163
    49   6 C    3.957 --    50 C    1.666    48 C    1.163    67 H    0.972
    50   6 C    3.955 --    49 C    1.666    51 C    1.162    68 H    0.972
    51   6 C    3.932 --    53 C    1.354    52 N    1.263    50 C    1.162
    52   7 N    3.464 --    51 C    1.263    48 C    1.261    37 Zn   0.491
    53   6 C    3.926 --    54 C    1.354    51 C    1.354    69 H    0.964
    54   6 C    3.932 --    53 C    1.354    58 N    1.263    55 C    1.162
    55   6 C    3.955 --    56 C    1.666    54 C    1.162    70 H    0.972
    56   6 C    3.957 --    55 C    1.666    57 C    1.163    71 H    0.972
    57   6 C    3.929 --    59 C    1.354    58 N    1.261    56 C    1.163
    58   7 N    3.464 --    54 C    1.263    57 C    1.261    37 Zn   0.491
    59   6 C    3.931 --    60 C    1.358    57 C    1.354    72 H    0.964
    60   6 C    3.924 --    59 C    1.358    61 N    1.247    38 C    1.171
    61   7 N    3.467 --    40 C    1.286    60 C    1.247    37 Zn   0.489
    62   1 H    0.998 --    38 C    0.972
    63   1 H    0.998 --    39 C    0.971
    64   1 H    0.998 --    43 C    0.971
    65   1 H    0.998 --    44 C    0.972
    66   1 H    0.996 --    47 C    0.964
    67   1 H    0.998 --    49 C    0.972
    68   1 H    0.998 --    50 C    0.972
    69   1 H    0.996 --    53 C    0.964
    70   1 H    0.998 --    55 C    0.972
    71   1 H    0.998 --    56 C    0.972
    72   1 H    0.996 --    59 C    0.964
    73   6 C    3.883 --    74 C    2.442     5 C    1.187    76 C    0.193
    74   6 C    3.927 --    73 C    2.442    75 C    1.332
    75   6 C    3.918 --    76 C    2.356    74 C    1.332    78 C    0.192
    76   6 C    3.920 --    75 C    2.356    77 C    1.333    73 C    0.193
    77   6 C    3.924 --    78 C    2.440    76 C    1.333
    78   6 C    3.884 --    77 C    2.440   107 C    1.190    75 C    0.192
    79   6 C    3.882 --    80 C    2.438   119 C    1.191    82 C    0.192
    80   6 C    3.924 --    79 C    2.438    81 C    1.335
    81   6 C    3.918 --    82 C    2.353    80 C    1.335    84 C    0.192
    82   6 C    3.918 --    81 C    2.353    83 C    1.335    79 C    0.192
    83   6 C    3.924 --    84 C    2.438    82 C    1.335
    84   6 C    3.883 --    83 C    2.438   142 C    1.191    81 C    0.192
    85   6 C    3.882 --    86 C    2.438   154 C    1.191    88 C    0.192
    86   6 C    3.924 --    85 C    2.438    87 C    1.335
    87   6 C    3.918 --    88 C    2.353    86 C    1.335    90 C    0.192
    88   6 C    3.918 --    87 C    2.353    89 C    1.335    85 C    0.192
    89   6 C    3.924 --    90 C    2.438    88 C    1.335
    90   6 C    3.882 --    89 C    2.438   177 C    1.191    87 C    0.192
    91   6 C    3.883 --    92 C    2.438   189 C    1.191    94 C    0.192
    92   6 C    3.924 --    91 C    2.438    93 C    1.335
    93   6 C    3.918 --    94 C    2.353    92 C    1.335    96 C    0.192
    94   6 C    3.918 --    93 C    2.353    95 C    1.335    91 C    0.192
    95   6 C    3.924 --    96 C    2.438    94 C    1.335
    96   6 C    3.882 --    95 C    2.438   212 C    1.191    93 C    0.192
    97   6 C    3.884 --    98 C    2.440   224 C    1.190   100 C    0.192
    98   6 C    3.924 --    97 C    2.440    99 C    1.333
    99   6 C    3.920 --   100 C    2.357    98 C    1.333   102 C    0.193
   100   6 C    3.918 --    99 C    2.357   101 C    1.332    97 C    0.192
   101   6 C    3.927 --   102 C    2.443   100 C    1.332
   102   6 C    3.883 --   101 C    2.443    41 C    1.187    99 C    0.193
   103  30 Zn   2.076 --   124 N    0.489   112 N    0.489   118 N    0.489
                           127 N    0.489
   104   6 C    3.954 --   105 C    1.648   126 C    1.173   128 H    0.972
   105   6 C    3.955 --   104 C    1.648   106 C    1.181   129 H    0.971
   106   6 C    3.911 --   127 N    1.287   107 C    1.248   105 C    1.181
   107   6 C    3.930 --   108 C    1.248   106 C    1.248    78 C    1.190
   108   6 C    3.911 --   112 N    1.287   107 C    1.248   109 C    1.181
   109   6 C    3.955 --   110 C    1.648   108 C    1.181   130 H    0.971
   110   6 C    3.954 --   109 C    1.648   111 C    1.173   131 H    0.972
   111   6 C    3.923 --   113 C    1.356   112 N    1.245   110 C    1.173
   112   7 N    3.460 --   108 C    1.287   111 C    1.245   103 Zn   0.489
   113   6 C    3.926 --   114 C    1.357   111 C    1.356   132 H    0.964
   114   6 C    3.923 --   113 C    1.357   118 N    1.244   115 C    1.173
   115   6 C    3.954 --   116 C    1.648   114 C    1.173   133 H    0.972
   116   6 C    3.955 --   115 C    1.648   117 C    1.181   134 H    0.971
   117   6 C    3.911 --   118 N    1.288   119 C    1.248   116 C    1.181
   118   7 N    3.460 --   117 C    1.288   114 C    1.244   103 Zn   0.489
   119   6 C    3.930 --   120 C    1.248   117 C    1.248    79 C    1.191
   120   6 C    3.911 --   124 N    1.288   119 C    1.248   121 C    1.181
   121   6 C    3.955 --   122 C    1.648   120 C    1.181   135 H    0.971
   122   6 C    3.954 --   121 C    1.648   123 C    1.173   136 H    0.972
   123   6 C    3.923 --   125 C    1.357   124 N    1.244   122 C    1.173
   124   7 N    3.460 --   120 C    1.288   123 C    1.244   103 Zn   0.489
   125   6 C    3.926 --   123 C    1.357   126 C    1.356   137 H    0.964
   126   6 C    3.923 --   125 C    1.356   127 N    1.245   104 C    1.173
   127   7 N    3.460 --   106 C    1.287   126 C    1.245   103 Zn   0.489
   128   1 H    0.998 --   104 C    0.972
   129   1 H    0.998 --   105 C    0.971
   130   1 H    0.998 --   109 C    0.971
   131   1 H    0.998 --   110 C    0.972
   132   1 H    0.996 --   113 C    0.964
   133   1 H    0.998 --   115 C    0.972
   134   1 H    0.998 --   116 C    0.971
   135   1 H    0.998 --   121 C    0.971
   136   1 H    0.998 --   122 C    0.972
   137   1 H    0.996 --   125 C    0.964
   138  30 Zn   2.076 --   159 N    0.489   147 N    0.489   153 N    0.489
                           162 N    0.489
   139   6 C    3.953 --   140 C    1.648   161 C    1.173   163 H    0.972
   140   6 C    3.955 --   139 C    1.648   141 C    1.181   164 H    0.971
   141   6 C    3.911 --   162 N    1.288   142 C    1.248   140 C    1.181
   142   6 C    3.930 --   141 C    1.248   143 C    1.248    84 C    1.191
   143   6 C    3.911 --   147 N    1.288   142 C    1.248   144 C    1.181
   144   6 C    3.955 --   145 C    1.648   143 C    1.181   165 H    0.971
   145   6 C    3.953 --   144 C    1.648   146 C    1.173   166 H    0.972
   146   6 C    3.923 --   148 C    1.356   147 N    1.244   145 C    1.173
   147   7 N    3.460 --   143 C    1.288   146 C    1.244   138 Zn   0.489
   148   6 C    3.925 --   149 C    1.356   146 C    1.356   167 H    0.964
   149   6 C    3.923 --   148 C    1.356   153 N    1.244   150 C    1.173
   150   6 C    3.953 --   151 C    1.648   149 C    1.173   168 H    0.972
   151   6 C    3.955 --   150 C    1.648   152 C    1.181   169 H    0.971
   152   6 C    3.911 --   153 N    1.288   154 C    1.247   151 C    1.181
   153   7 N    3.460 --   152 C    1.288   149 C    1.244   138 Zn   0.489
   154   6 C    3.930 --   155 C    1.248   152 C    1.247    85 C    1.191
   155   6 C    3.911 --   159 N    1.288   154 C    1.248   156 C    1.181
   156   6 C    3.955 --   157 C    1.648   155 C    1.181   170 H    0.971
   157   6 C    3.953 --   156 C    1.648   158 C    1.173   171 H    0.972
   158   6 C    3.923 --   160 C    1.356   159 N    1.244   157 C    1.173
   159   7 N    3.460 --   155 C    1.288   158 C    1.244   138 Zn   0.489
   160   6 C    3.925 --   158 C    1.356   161 C    1.356   172 H    0.964
   161   6 C    3.923 --   160 C    1.356   162 N    1.244   139 C    1.173
   162   7 N    3.460 --   141 C    1.288   161 C    1.244   138 Zn   0.489
   163   1 H    0.998 --   139 C    0.972
   164   1 H    0.998 --   140 C    0.971
   165   1 H    0.998 --   144 C    0.971
   166   1 H    0.998 --   145 C    0.972
   167   1 H    0.996 --   148 C    0.964
   168   1 H    0.998 --   150 C    0.972
   169   1 H    0.998 --   151 C    0.971
   170   1 H    0.998 --   156 C    0.971
   171   1 H    0.998 --   157 C    0.972
   172   1 H    0.996 --   160 C    0.964
   173  30 Zn   2.076 --   197 N    0.489   188 N    0.489   182 N    0.489
                           194 N    0.489
   174   6 C    3.953 --   175 C    1.648   196 C    1.173   198 H    0.972
   175   6 C    3.955 --   174 C    1.648   176 C    1.181   199 H    0.971
   176   6 C    3.911 --   197 N    1.288   177 C    1.248   175 C    1.181
   177   6 C    3.930 --   176 C    1.248   178 C    1.247    90 C    1.191
   178   6 C    3.911 --   182 N    1.288   177 C    1.247   179 C    1.181
   179   6 C    3.955 --   180 C    1.648   178 C    1.181   200 H    0.971
   180   6 C    3.953 --   179 C    1.648   181 C    1.173   201 H    0.972
   181   6 C    3.923 --   183 C    1.356   182 N    1.244   180 C    1.173
   182   7 N    3.460 --   178 C    1.288   181 C    1.244   173 Zn   0.489
   183   6 C    3.925 --   181 C    1.356   184 C    1.356   202 H    0.964
   184   6 C    3.923 --   183 C    1.356   188 N    1.244   185 C    1.173
   185   6 C    3.953 --   186 C    1.648   184 C    1.173   203 H    0.972
   186   6 C    3.955 --   185 C    1.648   187 C    1.181   204 H    0.971
   187   6 C    3.911 --   188 N    1.288   189 C    1.248   186 C    1.181
   188   7 N    3.460 --   187 C    1.288   184 C    1.244   173 Zn   0.489
   189   6 C    3.930 --   190 C    1.248   187 C    1.248    91 C    1.191
   190   6 C    3.911 --   194 N    1.288   189 C    1.248   191 C    1.181
   191   6 C    3.955 --   192 C    1.648   190 C    1.181   205 H    0.971
   192   6 C    3.953 --   191 C    1.648   193 C    1.173   206 H    0.972
   193   6 C    3.923 --   195 C    1.356   194 N    1.244   192 C    1.173
   194   7 N    3.460 --   190 C    1.288   193 C    1.244   173 Zn   0.489
   195   6 C    3.925 --   196 C    1.356   193 C    1.356   207 H    0.964
   196   6 C    3.923 --   195 C    1.356   197 N    1.244   174 C    1.173
   197   7 N    3.460 --   176 C    1.288   196 C    1.244   173 Zn   0.489
   198   1 H    0.998 --   174 C    0.972
   199   1 H    0.998 --   175 C    0.971
   200   1 H    0.998 --   179 C    0.971
   201   1 H    0.998 --   180 C    0.972
   202   1 H    0.996 --   183 C    0.964
   203   1 H    0.998 --   185 C    0.972
   204   1 H    0.998 --   186 C    0.971
   205   1 H    0.998 --   191 C    0.971
   206   1 H    0.998 --   192 C    0.972
   207   1 H    0.996 --   195 C    0.964
   208  30 Zn   2.076 --   217 N    0.489   223 N    0.489   229 N    0.489
                           232 N    0.489
   209   6 C    3.954 --   210 C    1.648   231 C    1.173   233 H    0.972
   210   6 C    3.955 --   209 C    1.648   211 C    1.181   234 H    0.971
   211   6 C    3.911 --   232 N    1.288   212 C    1.248   210 C    1.181
   212   6 C    3.930 --   213 C    1.248   211 C    1.248    96 C    1.191
   213   6 C    3.911 --   217 N    1.288   212 C    1.248   214 C    1.181
   214   6 C    3.955 --   215 C    1.648   213 C    1.181   235 H    0.971
   215   6 C    3.954 --   214 C    1.648   216 C    1.173   236 H    0.972
   216   6 C    3.923 --   218 C    1.357   217 N    1.244   215 C    1.173
   217   7 N    3.460 --   213 C    1.288   216 C    1.244   208 Zn   0.489
   218   6 C    3.926 --   216 C    1.357   219 C    1.356   237 H    0.964
   219   6 C    3.923 --   218 C    1.356   223 N    1.245   220 C    1.173
   220   6 C    3.954 --   221 C    1.648   219 C    1.173   238 H    0.972
   221   6 C    3.955 --   220 C    1.648   222 C    1.181   239 H    0.971
   222   6 C    3.911 --   223 N    1.287   224 C    1.248   221 C    1.181
   223   7 N    3.460 --   222 C    1.287   219 C    1.245   208 Zn   0.489
   224   6 C    3.930 --   225 C    1.248   222 C    1.248    97 C    1.190
   225   6 C    3.911 --   229 N    1.287   224 C    1.248   226 C    1.181
   226   6 C    3.955 --   227 C    1.648   225 C    1.181   240 H    0.971
   227   6 C    3.954 --   226 C    1.648   228 C    1.173   241 H    0.972
   228   6 C    3.923 --   230 C    1.356   229 N    1.245   227 C    1.173
   229   7 N    3.460 --   225 C    1.287   228 C    1.245   208 Zn   0.489
   230   6 C    3.926 --   231 C    1.357   228 C    1.356   242 H    0.964
   231   6 C    3.923 --   230 C    1.357   232 N    1.244   209 C    1.173
   232   7 N    3.460 --   211 C    1.288   231 C    1.244   208 Zn   0.489
   233   1 H    0.998 --   209 C    0.972
   234   1 H    0.998 --   210 C    0.971
   235   1 H    0.998 --   214 C    0.971
   236   1 H    0.998 --   215 C    0.972
   237   1 H    0.996 --   218 C    0.964
   238   1 H    0.998 --   220 C    0.972
   239   1 H    0.998 --   221 C    0.971
   240   1 H    0.998 --   226 C    0.971
   241   1 H    0.998 --   227 C    0.972
   242   1 H    0.996 --   230 C    0.964
 ---------------------------------------------------------------------------

Topologies differ in total number of bonds
Writing topology from bond orders to xtbtopo.mol

molecular dipole:
                 x           y           z       tot (Debye)
 q only:       -0.001      -0.001      -0.002
   full:       -0.001      -0.002      -0.005       0.013
molecular quadrupole (traceless):
                xx          xy          yy          xz          yz          zz
 q only:      122.612       0.509     -25.569      -0.155      -3.565     -97.043
  q+dip:      220.450       0.606     -19.185      -0.254      -8.934    -201.264
   full:      160.023       0.588     -30.473      -0.251      -4.931    -129.550


           -------------------------------------------------
          | TOTAL ENERGY             -426.079352426172 Eh   |
          | GRADIENT NORM               0.000616483475 Eh/α |
          | HOMO-LUMO GAP               0.881439423073 eV   |
           -------------------------------------------------

------------------------------------------------------------------------
 * finished run on 2021/11/21 at 19:15:34.532     
------------------------------------------------------------------------
 total:
 * wall-time:     0 d,  0 h,  0 min,  3.280 sec
 *  cpu-time:     0 d,  0 h,  0 min,  3.280 sec
 * ratio c/w:     1.000 speedup
 SCF:
 * wall-time:     0 d,  0 h,  0 min,  3.149 sec
 *  cpu-time:     0 d,  0 h,  0 min,  3.149 sec
 * ratio c/w:     1.000 speedup

