      -----------------------------------------------------------      
     |                   =====================                   |     
     |                           x T B                           |     
     |                   =====================                   |     
     |                         S. Grimme                         |     
     |          Mulliken Center for Theoretical Chemistry        |     
     |                    University of Bonn                     |     
      -----------------------------------------------------------      

   * xtb version 6.4.1 (bd6e46d) compiled by 'conda@4901f00b25ba' on 2021-06-10

   xtb is free software: you can redistribute it and/or modify it under
   the terms of the GNU Lesser General Public License as published by
   the Free Software Foundation, either version 3 of the License, or
   (at your option) any later version.
   
   xtb is distributed in the hope that it will be useful,
   but WITHOUT ANY WARRANTY; without even the implied warranty of
   MERCHANTABILITY or FITNESS FOR A PARTICULAR PURPOSE.  See the
   GNU Lesser General Public License for more details.
   
   Cite this work as:
   * C. Bannwarth, E. Caldeweyher, S. Ehlert, A. Hansen, P. Pracht,
     J. Seibert, S. Spicher, S. Grimme, WIREs Comput. Mol. Sci., 2020, 11,
     e01493. DOI: 10.1002/wcms.1493
   
   for GFN2-xTB:
   * C. Bannwarth, S. Ehlert and S. Grimme., J. Chem. Theory Comput., 2019,
     15, 1652-1671. DOI: 10.1021/acs.jctc.8b01176
   for GFN1-xTB:
   * S. Grimme, C. Bannwarth, P. Shushkov, J. Chem. Theory Comput., 2017,
     13, 1989-2009. DOI: 10.1021/acs.jctc.7b00118
   for GFN0-xTB:
   * P. Pracht, E. Caldeweyher, S. Ehlert, S. Grimme, ChemRxiv, 2019, preprint.
     DOI: 10.26434/chemrxiv.8326202.v1
   for GFN-FF:
   * S. Spicher and S. Grimme, Angew. Chem. Int. Ed., 2020, 59, 15665-15673.
     DOI: 10.1002/anie.202004239
   
   for DFT-D4:
   * E. Caldeweyher, C. Bannwarth and S. Grimme, J. Chem. Phys., 2017,
     147, 034112. DOI: 10.1063/1.4993215
   * E. Caldeweyher, S. Ehlert, A. Hansen, H. Neugebauer, S. Spicher,
     C. Bannwarth and S. Grimme, J. Chem. Phys., 2019, 150, 154122.
     DOI: 10.1063/1.5090222
   * E. Caldeweyher, J.-M. Mewes, S. Ehlert and S. Grimme, Phys. Chem. Chem. Phys.
     2020, 22, 8499-8512. DOI: 10.1039/D0CP00502A
   
   for sTDA-xTB:
   * S. Grimme and C. Bannwarth, J. Chem. Phys., 2016, 145, 054103.
     DOI: 10.1063/1.4959605
   
   in the mass-spec context:
   * V. Asgeirsson, C. Bauer and S. Grimme, Chem. Sci., 2017, 8, 4879.
     DOI: 10.1039/c7sc00601b
   * J. Koopman and S. Grimme, ACS Omega 2019, 4, 12, 15120-15133.
     DOI: 10.1021/acsomega.9b02011
   
   for metadynamics refer to:
   * S. Grimme, J. Chem. Theory Comput., 2019, 155, 2847-2862
     DOI: 10.1021/acs.jctc.9b00143
   
   for SPH calculations refer to:
   * S. Spicher and S. Grimme, J. Chem. Theory Comput., 2021, 17, 1701-1714
     DOI: 10.1021/acs.jctc.0c01306
   
   with help from (in alphabetical order)
   P. Atkinson, C. Bannwarth, F. Bohle, G. Brandenburg, E. Caldeweyher
   M. Checinski, S. Dohm, S. Ehlert, S. Ehrlich, I. Gerasimov, J. Koopman
   C. Lavigne, S. Lehtola, F. März, M. Müller, F. Musil, H. Neugebauer
   J. Pisarek, C. Plett, P. Pracht, J. Seibert, P. Shushkov, S. Spicher
   M. Stahn, M. Steiner, T. Strunk, J. Stückrath, T. Rose, and J. Unsleber
   
 * started run on 2021/11/18 at 18:59:26.465     

           -------------------------------------------------
          |                Calculation Setup                |
           -------------------------------------------------

          program call               : /home/jeff/miniconda3/bin/xtb input_structure_1.xyz --gfn 2 --ohess normal --parallel 1 --etemp 300 --chrg 0 --uhf 0 -I det_control.in
          hostname                   : jelfscompute1
          coordinate file            : input_structure_1.xyz
          omp threads                :                     1
          number of atoms            :                   154
          number of electrons        :                   498
          charge                     :                     0
          spin                       :                   0.0
          first test random number   :      0.69631005105342

   ID    Z sym.   atoms
    1   30 Zn     1, 37, 85, 120
    2    6 C      2-9, 11-15, 17-21, 23, 24, 38-45, 47-51, 53-57, 59, 60,
                  73-84, 86-93, 95-99, 101-105, 107, 108, 121-128, 130-134,
                  136-140, 142, 143
    3    7 N      10, 16, 22, 25, 46, 52, 58, 61, 94, 100, 106, 109, 129,
                  135, 141, 144
    4    1 H      26-36, 62-72, 110-119, 145-154

molecular fragmentation (1/2 indicates fragments):
111111111111111111111111111111111111222222222222222222222222222222222222
222222222222222222222222222222222222222222222222222222222222222222222222
2222222222
# atoms in fragment 1/2:    36   118
 fragment masses (1/2) :      372.71     1260.23
CMA distance (Bohr)    :  52.958
constraining FC (au)   :  0.0500

           -------------------------------------------------
          |                 G F N 2 - x T B                 |
           -------------------------------------------------

        Reference                      10.1021/acs.jctc.8b01176
      * Hamiltonian:
        H0-scaling (s, p, d)           1.850000    2.230000    2.230000
        zeta-weighting                 0.500000
      * Dispersion:
        s8                             2.700000
        a1                             0.520000
        a2                             5.000000
        s9                             5.000000
      * Repulsion:
        kExp                           1.500000    1.000000
        rExp                           1.000000
      * Coulomb:
        alpha                          2.000000
        third order                    shell-resolved
        anisotropic                    true
        a3                             3.000000
        a5                             4.000000
        cn-shift                       1.200000
        cn-exp                         4.000000
        max-rad                        5.000000


          ...................................................
          :                      SETUP                      :
          :.................................................:
          :  # basis functions                 490          :
          :  # atomic orbitals                 490          :
          :  # shells                          266          :
          :  # electrons                       498          :
          :  max. iterations                   250          :
          :  Hamiltonian                  GFN2-xTB          :
          :  restarted?                      false          :
          :  GBSA solvation                  false          :
          :  PC potential                    false          :
          :  electronic temp.          300.0000000     K    :
          :  accuracy                    1.0000000          :
          :  -> integral cutoff          0.2500000E+02      :
          :  -> integral neglect         0.1000000E-07      :
          :  -> SCF convergence          0.1000000E-05 Eh   :
          :  -> wf. convergence          0.1000000E-03 e    :
          :  Broyden damping             0.4000000          :
          ...................................................

 iter      E             dE          RMSdq      gap      omega  full diag
   1   -270.1644903 -0.270164E+03  0.701E+00    0.08       0.0  T
   2   -261.3572003  0.880729E+01  0.514E+00    0.03       1.0  T
   3   -243.7376836  0.176195E+02  0.730E+00    0.05       1.0  T
   4   -189.6973999  0.540403E+02  0.802E+00    0.11       1.0  T
   5   -243.7069322 -0.540095E+02  0.552E+00    0.01       1.0  T
   6   -269.0654950 -0.253586E+02  0.308E+00    0.04       1.0  T
   7   -269.3545327 -0.289038E+00  0.249E+00    0.06       1.0  T
   8   -270.8932666 -0.153873E+01  0.177E+00    0.09       1.0  T
   9   -270.2613158  0.631951E+00  0.169E+00    0.02       1.0  T
  10   -270.9910861 -0.729770E+00  0.155E+00    0.36       1.0  T
  11   -271.0597799 -0.686938E-01  0.130E+00    0.31       1.0  T
  12   -271.1246844 -0.649045E-01  0.102E+00    0.32       1.0  T
  13   -271.3095241 -0.184840E+00  0.446E-01    0.33       1.0  T
  14   -271.3274983 -0.179742E-01  0.401E-01    0.14       1.0  T
  15   -271.3448885 -0.173902E-01  0.323E-01    0.15       1.0  T
  16   -271.3100353  0.348532E-01  0.453E-01    0.02       1.0  T
  17   -271.2635626  0.464726E-01  0.510E-01    0.01       1.0  T
  18   -271.3441311 -0.805685E-01  0.275E-01    0.05       1.0  T
  19   -271.1002338  0.243897E+00  0.677E-01    0.09       1.0  T
  20   -271.2227635 -0.122530E+00  0.500E-01    0.03       1.0  T
  21   -271.3545211 -0.131758E+00  0.189E-01    0.04       1.0  T
  22   -271.3543850  0.136092E-03  0.174E-01    0.04       1.0  T
  23   -271.3666962 -0.123112E-01  0.103E-01    0.07       1.0  T
  24   -271.3686123 -0.191607E-02  0.878E-02    0.08       1.0  T
  25   -271.3689243 -0.312046E-03  0.771E-02    0.08       1.0  T
  26   -271.3694096 -0.485221E-03  0.501E-02    0.08       1.0  T
  27   -271.3698061 -0.396595E-03  0.384E-02    0.08       1.0  T
  28   -271.3697168  0.893057E-04  0.382E-02    0.08       1.0  T
  29   -271.3698540 -0.137141E-03  0.327E-02    0.08       1.0  T
  30   -271.3699319 -0.778847E-04  0.282E-02    0.08       1.0  T
  31   -271.3699551 -0.232297E-04  0.262E-02    0.08       1.0  T
  32   -271.3700821 -0.126957E-03  0.209E-02    0.08       1.0  T
  33   -271.3701892 -0.107186E-03  0.147E-02    0.08       1.0  T
  34   -271.3702679 -0.786770E-04  0.834E-03    0.08       1.0  T
  35   -271.3703022 -0.342704E-04  0.314E-03    0.09       2.6  T
  36   -271.3703076 -0.537043E-05  0.802E-04    0.09      10.0  T
  37   -271.3703072  0.380379E-06  0.111E-03    0.09       7.2  T
  38   -271.3703076 -0.412039E-06  0.656E-04    0.09      12.3  T
  39   -271.3703078 -0.208500E-06  0.144E-04    0.09      55.9  T

   *** convergence criteria satisfied after 39 iterations ***

         #    Occupation            Energy/Eh            Energy/eV
      -------------------------------------------------------------
         1        2.0000           -0.6828026             -18.5800
       ...           ...                  ...                  ...
       243        2.0000           -0.3665879              -9.9754
       244        2.0000           -0.3611366              -9.8270
       245        2.0000           -0.3610872              -9.8257
       246        2.0000           -0.3521437              -9.5823
       247        2.0000           -0.3520590              -9.5800
       248        2.0000           -0.3468744              -9.4389
       249        1.5704           -0.3378781              -9.1941 (HOMO)
       250        0.2227           -0.3346736              -9.1069 (LUMO)
       251        0.2069           -0.3345950              -9.1048
       252                         -0.3168911              -8.6230
       253                         -0.3168060              -8.6207
       254                         -0.3153664              -8.5816
       ...                                ...                  ...
       490                          1.6204574              44.0949
      -------------------------------------------------------------
                  HL-Gap            0.0032045 Eh            0.0872 eV
             Fermi-level           -0.3366466 Eh           -9.1606 eV

 SCC (total)                   0 d,  0 h,  0 min,  2.354 sec
 SCC setup                      ...        0 min,  0.004 sec (  0.179%)
 Dispersion                     ...        0 min,  0.010 sec (  0.435%)
 classical contributions        ...        0 min,  0.001 sec (  0.047%)
 integral evaluation            ...        0 min,  0.075 sec (  3.183%)
 iterations                     ...        0 min,  2.048 sec ( 86.993%)
 molecular gradient             ...        0 min,  0.210 sec (  8.904%)
 printout                       ...        0 min,  0.006 sec (  0.257%)

         :::::::::::::::::::::::::::::::::::::::::::::::::::::
         ::                     SUMMARY                     ::
         :::::::::::::::::::::::::::::::::::::::::::::::::::::
         :: total energy            -266.301527930790 Eh    ::
         :: gradient norm              0.733823691569 Eh/a0 ::
         :: HOMO-LUMO gap              0.087198515154 eV    ::
         ::.................................................::
         :: SCC energy              -271.370307797947 Eh    ::
         :: -> isotropic ES            0.272760420577 Eh    ::
         :: -> anisotropic ES          0.032985377310 Eh    ::
         :: -> anisotropic XC          0.175832848794 Eh    ::
         :: -> dispersion             -0.235968324999 Eh    ::
         :: repulsion energy           5.068486119017 Eh    ::
         :: add. restraining           0.000000000000 Eh    ::
         :: total charge              -0.000000000016 e     ::
         :::::::::::::::::::::::::::::::::::::::::::::::::::::

      ----------------------------------------------------------- 
     |                   =====================                   |
     |                        A N C O P T                        |
     |                   =====================                   |
     |               Approximate Normal Coordinate               |
     |                Rational Function Optimizer                |
      ----------------------------------------------------------- 

          ...................................................
          :                      SETUP                      :
          :.................................................:
          :   optimization level            normal          :
          :   max. optcycles                   462          :
          :   ANC micro-cycles                  20          :
          :   degrees of freedom               456          :
          :.................................................:
          :   RF solver                   davidson          :
          :   write xtbopt.log                true          :
          :   linear?                        false          :
          :   energy convergence         0.5000000E-05 Eh   :
          :   grad. convergence          0.1000000E-02 Eh/α :
          :   maximium RF displ.         1.0000000          :
          :   Hlow (freq-cutoff)         0.1000000E-01      :
          :   Hmax (freq-cutoff)         5.0000000          :
          :   S6 in model hess.         20.0000000          :
          ...................................................

generating ANC from model Hessian ...
Using Lindh-Hessian (1995)
 Shifting diagonal of input Hessian by    1.0124424357260908E-002
 Lowest  eigenvalues of input Hessian
    0.010000    0.010039    0.010094    0.010097    0.010101    0.010107
    0.010107    0.010112    0.010115    0.010117    0.010120    0.000000
    0.000000    0.000000    0.000000    0.000000    0.000000    0.010135
 Highest eigenvalues
    2.239936    2.250060    2.576437    2.785520    2.844620    2.909723


........................................................................
.............................. CYCLE    1 ..............................
........................................................................
   1   -271.3703078 -0.271370E+03  0.119E-04    0.09       0.0  T
   2   -271.3703064  0.142257E-05  0.143E-03    0.09       5.6  T
   3   -271.3703076 -0.119869E-05  0.585E-04    0.09      13.8  T
   4   -271.3703077 -0.123131E-06  0.396E-04    0.09      20.3  T
   5   -271.3703077 -0.501141E-07  0.298E-04    0.09      27.1  T
     SCC iter.                  ...        0 min,  0.264 sec
     gradient                   ...        0 min,  0.209 sec
 * total energy  :  -266.3015279 Eh     change        0.4946918E-07 Eh
   gradient norm :     0.7338259 Eh/α   predicted     0.0000000E+00 (-100.00%)
   displ. norm   :     0.5448769 α      lambda       -0.3138228E+00
   maximum displ.:     0.1459848 α      in ANC's #158, #157, #156, ...

........................................................................
.............................. CYCLE    2 ..............................
........................................................................
   1   -271.3510963 -0.271351E+03  0.388E-01    0.07       0.0  T
   2   -271.2588663  0.922299E-01  0.542E-01    0.02       1.0  T
   3   -270.9985027  0.260364E+00  0.763E-01    0.02       1.0  T
   4   -271.2728010 -0.274298E+00  0.546E-01    0.25       1.0  T
   5   -271.3425985 -0.697975E-01  0.286E-01    0.06       1.0  T
   6   -271.1630832  0.179515E+00  0.670E-01    0.04       1.0  T
   7   -271.3421162 -0.179033E+00  0.271E-01    0.16       1.0  T
   8   -271.3461826 -0.406648E-02  0.216E-01    0.07       1.0  T
   9   -271.3567299 -0.105473E-01  0.180E-01    0.06       1.0  T
  10   -271.3627832 -0.605331E-02  0.118E-01    0.12       1.0  T
  11   -271.3664776 -0.369436E-02  0.757E-02    0.10       1.0  T
  12   -271.3684952 -0.201759E-02  0.406E-02    0.08       1.0  T
  13   -271.3691573 -0.662085E-03  0.198E-02    0.08       1.0  T
  14   -271.3692458 -0.884982E-04  0.104E-02    0.08       1.0  T
  15   -271.3692557 -0.993412E-05  0.103E-02    0.08       1.0  T
  16   -271.3692937 -0.379998E-04  0.569E-03    0.08       1.4  T
  17   -271.3692727  0.210555E-04  0.705E-03    0.08       1.1  T
  18   -271.3692997 -0.270236E-04  0.355E-03    0.08       2.3  T
  19   -271.3693050 -0.535399E-05  0.172E-03    0.08       4.7  T
  20   -271.3693062 -0.118529E-05  0.754E-04    0.08      10.7  T
  21   -271.3693066 -0.367348E-06  0.177E-04    0.08      45.5  T
  22   -271.3693066  0.545896E-08  0.195E-04    0.08      41.3  T
     SCC iter.                  ...        0 min,  1.141 sec
     gradient                   ...        0 min,  0.209 sec
 * total energy  :  -266.5476393 Eh     change       -0.2461115E+00 Eh
   gradient norm :     0.3988776 Eh/α   predicted    -0.2035492E+00 ( -17.29%)
   displ. norm   :     0.6283480 α      lambda       -0.1942495E+00
   maximum displ.:     0.1967925 α      in ANC's #158, #157, #156, ...

........................................................................
.............................. CYCLE    3 ..............................
........................................................................
   1   -271.4107105 -0.271411E+03  0.411E-01    0.05       0.0  T
   2   -271.3273519  0.833586E-01  0.606E-01    0.11       1.0  T
   3   -271.2898743  0.374776E-01  0.746E-01    0.09       1.0  T
   4   -271.2773715  0.125028E-01  0.568E-01    0.04       1.0  T
   5   -271.3743167 -0.969452E-01  0.364E-01    0.08       1.0  T
   6   -271.3849840 -0.106673E-01  0.330E-01    0.14       1.0  T
   7   -271.0215059  0.363478E+00  0.796E-01    0.14       1.0  T
   8   -271.4066254 -0.385120E+00  0.251E-01    0.09       1.0  T
   9   -271.3958489  0.107766E-01  0.228E-01    0.04       1.0  T
  10   -271.4188636 -0.230147E-01  0.117E-01    0.07       1.0  T
  11   -271.4247912 -0.592767E-02  0.504E-02    0.07       1.0  T
  12   -271.4256088 -0.817547E-03  0.306E-02    0.06       1.0  T
  13   -271.4258487 -0.239959E-03  0.191E-02    0.06       1.0  T
  14   -271.4260031 -0.154392E-03  0.863E-03    0.06       1.0  T
  15   -271.4260389 -0.357930E-04  0.535E-03    0.06       1.5  T
  16   -271.4260443 -0.540568E-05  0.379E-03    0.06       2.1  T
  17   -271.4260496 -0.523596E-05  0.128E-03    0.06       6.3  T
  18   -271.4260490  0.563429E-06  0.151E-03    0.06       5.3  T
  19   -271.4260502 -0.124121E-05  0.721E-04    0.06      11.2  T
  20   -271.4260504 -0.147061E-06  0.451E-04    0.06      17.9  T
  21   -271.4260504 -0.317920E-07  0.365E-04    0.06      22.1  T
     SCC iter.                  ...        0 min,  1.089 sec
     gradient                   ...        0 min,  0.209 sec
 * total energy  :  -266.6885601 Eh     change       -0.1409207E+00 Eh
   gradient norm :     0.1542590 Eh/α   predicted    -0.1354717E+00 (  -3.87%)
   displ. norm   :     0.6952042 α      lambda       -0.8668654E-01
   maximum displ.:     0.2273995 α      in ANC's #158, #157, #156, ...

........................................................................
.............................. CYCLE    4 ..............................
........................................................................
   1   -271.4923897 -0.271492E+03  0.340E-01    0.09       0.0  T
   2   -270.8420137  0.650376E+00  0.129E+00    0.13       1.0  T
   3   -270.7836455  0.583682E-01  0.109E+00    0.21       1.0  T
   4   -271.4503199 -0.666674E+00  0.447E-01    0.11       1.0  T
   5   -271.4481247  0.219520E-02  0.418E-01    0.17       1.0  T
   6   -271.3313424  0.116782E+00  0.588E-01    0.03       1.0  T
   7   -271.4655604 -0.134218E+00  0.295E-01    0.19       1.0  T
   8   -271.4632779  0.228248E-02  0.298E-01    0.03       1.0  T
   9   -271.4908693 -0.275914E-01  0.169E-01    0.09       1.0  T
  10   -271.4985595 -0.769024E-02  0.105E-01    0.07       1.0  T
  11   -271.4996508 -0.109124E-02  0.946E-02    0.06       1.0  T
  12   -271.5014202 -0.176944E-02  0.790E-02    0.06       1.0  T
  13   -271.5031578 -0.173753E-02  0.473E-02    0.05       1.0  T
  14   -271.5036205 -0.462773E-03  0.413E-02    0.05       1.0  T
  15   -271.5040076 -0.387095E-03  0.284E-02    0.05       1.0  T
  16   -271.5042338 -0.226201E-03  0.178E-02    0.06       1.0  T
  17   -271.5043750 -0.141188E-03  0.347E-03    0.06       2.3  T
  18   -271.5043790 -0.398068E-05  0.164E-03    0.06       4.9  T
  19   -271.5043771  0.187405E-05  0.248E-03    0.06       3.2  T
  20   -271.5043796 -0.251514E-05  0.876E-04    0.06       9.2  T
  21   -271.5043796 -0.700874E-08  0.638E-04    0.06      12.6  T
  22   -271.5043798 -0.132681E-06  0.487E-04    0.06      16.5  T
     SCC iter.                  ...        0 min,  1.141 sec
     gradient                   ...        0 min,  0.209 sec
 * total energy  :  -266.7568916 Eh     change       -0.6833159E-01 Eh
   gradient norm :     0.0853344 Eh/α   predicted    -0.6429152E-01 (  -5.91%)
   displ. norm   :     0.7535028 α      lambda       -0.5525784E-01
   maximum displ.:     0.2255559 α      in ANC's #84, #25, #158, ...

........................................................................
.............................. CYCLE    5 ..............................
........................................................................
   1   -271.5551737 -0.271555E+03  0.331E-01    0.11       0.0  T
   2   -270.8849759  0.670198E+00  0.125E+00    0.00       1.0  T
   3   -271.3831536 -0.498178E+00  0.598E-01    0.01       1.0  T
   4   -271.5125984 -0.129445E+00  0.412E-01    0.10       1.0  T
   5   -271.5145515 -0.195314E-02  0.436E-01    0.09       1.0  T
   6   -271.5227538 -0.820233E-02  0.356E-01    0.21       1.0  T
   7   -271.5461051 -0.233513E-01  0.219E-01    0.11       1.0  T
   8   -271.5488396 -0.273446E-02  0.208E-01    0.06       1.0  T
   9   -271.5640303 -0.151907E-01  0.881E-02    0.08       1.0  T
  10   -271.5656233 -0.159298E-02  0.718E-02    0.08       1.0  T
  11   -271.5656308 -0.746298E-05  0.717E-02    0.08       1.0  T
  12   -271.5666853 -0.105453E-02  0.495E-02    0.08       1.0  T
  13   -271.5674509 -0.765639E-03  0.244E-02    0.06       1.0  T
  14   -271.5677434 -0.292505E-03  0.138E-02    0.06       1.0  T
  15   -271.5677335  0.994066E-05  0.115E-02    0.06       1.0  T
  16   -271.5678198 -0.862709E-04  0.321E-03    0.07       2.5  T
  17   -271.5678170  0.279328E-05  0.334E-03    0.07       2.4  T
  18   -271.5678218 -0.484581E-05  0.185E-03    0.07       4.4  T
  19   -271.5678220 -0.212460E-06  0.153E-03    0.07       5.3  T
  20   -271.5678232 -0.119513E-05  0.247E-04    0.07      32.6  T
  21   -271.5678232  0.597709E-08  0.206E-04    0.07      39.1  T
  22   -271.5678232 -0.707712E-08  0.216E-04    0.07      37.3  T
     SCC iter.                  ...        0 min,  1.140 sec
     gradient                   ...        0 min,  0.209 sec
 * total energy  :  -266.8028292 Eh     change       -0.4593755E-01 Eh
   gradient norm :     0.0690075 Eh/α   predicted    -0.4331569E-01 (  -5.71%)
   displ. norm   :     0.7885793 α      lambda       -0.4012489E-01
   maximum displ.:     0.3050170 α      in ANC's #25, #84, #82, ...

........................................................................
.............................. CYCLE    6 ..............................
........................................................................
   1   -271.6109647 -0.271611E+03  0.320E-01    0.12       0.0  T
   2   -270.8227903  0.788174E+00  0.127E+00    0.05       1.0  T
   3   -271.5818391 -0.759049E+00  0.314E-01    0.18       1.0  T
   4   -271.5188540  0.629851E-01  0.640E-01    0.14       1.0  T
   5   -271.6021490 -0.832950E-01  0.209E-01    0.17       1.0  T
   6   -271.5978037  0.434524E-02  0.231E-01    0.09       1.0  T
   7   -271.6071727 -0.936898E-02  0.167E-01    0.13       1.0  T
   8   -271.6120755 -0.490277E-02  0.126E-01    0.09       1.0  T
   9   -271.6159635 -0.388807E-02  0.940E-02    0.10       1.0  T
  10   -271.6161838 -0.220280E-03  0.901E-02    0.09       1.0  T
  11   -271.6168141 -0.630302E-03  0.824E-02    0.09       1.0  T
  12   -271.6198508 -0.303663E-02  0.214E-02    0.08       1.0  T
  13   -271.6200092 -0.158494E-03  0.110E-02    0.07       1.0  T
  14   -271.6200318 -0.225222E-04  0.698E-03    0.08       1.2  T
  15   -271.6200346 -0.287075E-05  0.356E-03    0.08       2.3  T
  16   -271.6200347 -0.108334E-06  0.351E-03    0.08       2.3  T
  17   -271.6200379 -0.316775E-05  0.205E-03    0.08       3.9  T
  18   -271.6200401 -0.213494E-05  0.763E-04    0.08      10.6  T
  19   -271.6200388  0.126206E-05  0.152E-03    0.08       5.3  T
  20   -271.6200401 -0.129433E-05  0.447E-04    0.08      18.0  T
  21   -271.6200402 -0.910422E-07  0.205E-04    0.08      39.2  T
  22   -271.6200402  0.139843E-07  0.242E-04    0.08      33.3  T
     SCC iter.                  ...        0 min,  1.141 sec
     gradient                   ...        0 min,  0.209 sec
 * total energy  :  -266.8369316 Eh     change       -0.3410241E-01 Eh
   gradient norm :     0.0532500 Eh/α   predicted    -0.3253843E-01 (  -4.59%)
   displ. norm   :     0.8123660 α      lambda       -0.3013765E-01
   maximum displ.:     0.3957970 α      in ANC's #25, #84, #82, ...

........................................................................
.............................. CYCLE    7 ..............................
........................................................................
   1   -271.6514338 -0.271651E+03  0.310E-01    0.14       0.0  T
   2   -270.8779009  0.773533E+00  0.121E+00    0.02       1.0  T
   3   -271.6237926 -0.745892E+00  0.355E-01    0.18       1.0  T
   4   -271.4444771  0.179315E+00  0.867E-01    0.22       1.0  T
   5   -271.6335121 -0.189035E+00  0.292E-01    0.20       1.0  T
   6   -271.6325262  0.985895E-03  0.312E-01    0.11       1.0  T
   7   -271.6424745 -0.994829E-02  0.202E-01    0.14       1.0  T
   8   -271.6458853 -0.341077E-02  0.177E-01    0.16       1.0  T
   9   -271.6507888 -0.490349E-02  0.127E-01    0.11       1.0  T
  10   -271.6510772 -0.288440E-03  0.125E-01    0.12       1.0  T
  11   -271.6513273 -0.250069E-03  0.122E-01    0.12       1.0  T
  12   -271.6536307 -0.230336E-02  0.100E-01    0.12       1.0  T
  13   -271.6459370  0.769369E-02  0.140E-01    0.05       1.0  T
  14   -271.6582894 -0.123525E-01  0.230E-02    0.09       1.0  T
  15   -271.6579257  0.363767E-03  0.311E-02    0.08       1.0  T
  16   -271.6584868 -0.561087E-03  0.113E-02    0.09       1.0  T
  17   -271.6585063 -0.195003E-04  0.802E-03    0.09       1.0  T
  18   -271.6585386 -0.323210E-04  0.181E-03    0.09       4.5  T
  19   -271.6585236  0.149378E-04  0.535E-03    0.09       1.5  T
  20   -271.6585331 -0.948292E-05  0.348E-03    0.09       2.3  T
  21   -271.6585376 -0.444906E-05  0.206E-03    0.09       3.9  T
  22   -271.6585399 -0.233688E-05  0.211E-04    0.09      38.1  T
  23   -271.6585397  0.199132E-06  0.594E-04    0.09      13.6  T
  24   -271.6585399 -0.178281E-06  0.275E-04    0.09      29.3  T
     SCC iter.                  ...        0 min,  1.247 sec
     gradient                   ...        0 min,  0.210 sec
 * total energy  :  -266.8630394 Eh     change       -0.2610781E-01 Eh
   gradient norm :     0.0403260 Eh/α   predicted    -0.2501335E-01 (  -4.19%)
   displ. norm   :     0.8453640 α      lambda       -0.2384957E-01
   maximum displ.:     0.4987712 α      in ANC's #25, #84, #82, ...

........................................................................
.............................. CYCLE    8 ..............................
........................................................................
   1   -271.6724317 -0.271672E+03  0.304E-01    0.16       0.0  T
   2   -270.9640061  0.708426E+00  0.113E+00    0.01       1.0  T
   3   -271.6351840 -0.671178E+00  0.427E-01    0.18       1.0  T
   4   -271.5925116  0.426723E-01  0.568E-01    0.18       1.0  T
   5   -271.6472443 -0.547327E-01  0.342E-01    0.28       1.0  T
   6   -271.6580039 -0.107596E-01  0.293E-01    0.17       1.0  T
   7   -271.6665706 -0.856666E-02  0.185E-01    0.11       1.0  T
   8   -271.6674653 -0.894785E-03  0.185E-01    0.19       1.0  T
   9   -271.6740760 -0.661070E-02  0.119E-01    0.14       1.0  T
  10   -271.6747019 -0.625904E-03  0.108E-01    0.14       1.0  T
  11   -271.6748906 -0.188644E-03  0.106E-01    0.14       1.0  T
  12   -271.6768666 -0.197606E-02  0.809E-02    0.13       1.0  T
  13   -271.6711858  0.568082E-02  0.114E-01    0.07       1.0  T
  14   -271.6793410 -0.815520E-02  0.330E-02    0.11       1.0  T
  15   -271.6797048 -0.363727E-03  0.193E-02    0.11       1.0  T
  16   -271.6796306  0.741450E-04  0.205E-02    0.10       1.0  T
  17   -271.6798774 -0.246755E-03  0.470E-03    0.10       1.7  T
  18   -271.6798265  0.508252E-04  0.987E-03    0.11       1.0  T
  19   -271.6798833 -0.568037E-04  0.247E-03    0.11       3.3  T
  20   -271.6798868 -0.344579E-05  0.102E-03    0.11       7.9  T
  21   -271.6798874 -0.567147E-06  0.546E-04    0.11      14.8  T
  22   -271.6798875 -0.124181E-06  0.188E-04    0.11      42.8  T
     SCC iter.                  ...        0 min,  1.142 sec
     gradient                   ...        0 min,  0.209 sec
 * total energy  :  -266.8844602 Eh     change       -0.2142075E-01 Eh
   gradient norm :     0.0345586 Eh/α   predicted    -0.2044672E-01 (  -4.55%)
   displ. norm   :     0.8949045 α      lambda       -0.2116797E-01
   maximum displ.:     0.5883721 α      in ANC's #25, #12, #23, ...

........................................................................
.............................. CYCLE    9 ..............................
........................................................................
   1   -271.6816350 -0.271682E+03  0.301E-01    0.21       0.0  T
   2   -271.2321137  0.449521E+00  0.905E-01    0.01       1.0  T
   3   -271.6520589 -0.419945E+00  0.388E-01    0.40       1.0  T
   4   -271.6354952  0.165638E-01  0.459E-01    0.30       1.0  T
   5   -271.6563152 -0.208200E-01  0.356E-01    0.29       1.0  T
   6   -271.6760740 -0.197588E-01  0.211E-01    0.31       1.0  T
   7   -271.6806334 -0.455940E-02  0.152E-01    0.29       1.0  T
   8   -271.6837384 -0.310494E-02  0.116E-01    0.23       1.0  T
   9   -271.6855316 -0.179319E-02  0.910E-02    0.21       1.0  T
  10   -271.6859700 -0.438448E-03  0.835E-02    0.20       1.0  T
  11   -271.6876642 -0.169423E-02  0.586E-02    0.17       1.0  T
  12   -271.6889675 -0.130330E-02  0.178E-02    0.12       1.0  T
  13   -271.6886454  0.322141E-03  0.271E-02    0.13       1.0  T
  14   -271.6891082 -0.462755E-03  0.750E-03    0.13       1.1  T
  15   -271.6891154 -0.728700E-05  0.424E-03    0.13       1.9  T
  16   -271.6891168 -0.138086E-05  0.258E-03    0.13       3.1  T
  17   -271.6891201 -0.330051E-05  0.553E-04    0.13      14.6  T
  18   -271.6891202 -0.451476E-07  0.424E-04    0.13      19.0  T
  19   -271.6891202 -0.325748E-07  0.322E-04    0.13      25.0  T
     SCC iter.                  ...        0 min,  0.986 sec
     gradient                   ...        0 min,  0.210 sec
 * total energy  :  -266.9046339 Eh     change       -0.2017378E-01 Eh
   gradient norm :     0.0329637 Eh/α   predicted    -0.1906022E-01 (  -5.52%)
   displ. norm   :     0.9530959 α      lambda       -0.2191935E-01
   maximum displ.:     0.6420677 α      in ANC's #25, #12, #23, ...

........................................................................
.............................. CYCLE   10 ..............................
........................................................................
   1   -271.6854324 -0.271685E+03  0.316E-01    0.28       0.0  T
   2   -271.3322012  0.353231E+00  0.803E-01    0.05       1.0  T
   3   -271.6566965 -0.324495E+00  0.370E-01    0.21       1.0  T
   4   -271.6589442 -0.224763E-02  0.367E-01    0.30       1.0  T
   5   -271.6639823 -0.503816E-02  0.350E-01    0.44       1.0  T
   6   -271.6814563 -0.174739E-01  0.183E-01    0.29       1.0  T
   7   -271.6847320 -0.327578E-02  0.153E-01    0.21       1.0  T
   8   -271.6872100 -0.247797E-02  0.117E-01    0.27       1.0  T
   9   -271.6890913 -0.188129E-02  0.850E-02    0.25       1.0  T
  10   -271.6893819 -0.290568E-03  0.783E-02    0.26       1.0  T
  11   -271.6903393 -0.957413E-03  0.598E-02    0.26       1.0  T
  12   -271.6915935 -0.125422E-02  0.220E-02    0.20       1.0  T
  13   -271.6916506 -0.570996E-04  0.152E-02    0.16       1.0  T
  14   -271.6916316  0.190080E-04  0.175E-02    0.20       1.0  T
  15   -271.6917028 -0.711999E-04  0.122E-02    0.16       1.0  T
  16   -271.6917596 -0.568096E-04  0.719E-03    0.17       1.1  T
  17   -271.6917871 -0.274748E-04  0.180E-03    0.18       4.5  T
  18   -271.6917882 -0.115717E-05  0.738E-04    0.17      10.9  T
  19   -271.6917883 -0.420393E-07  0.626E-04    0.17      12.9  T
  20   -271.6917885 -0.184539E-06  0.220E-04    0.18      36.6  T
     SCC iter.                  ...        0 min,  1.037 sec
     gradient                   ...        0 min,  0.209 sec
 * total energy  :  -266.9270237 Eh     change       -0.2238973E-01 Eh
   gradient norm :     0.0351559 Eh/α   predicted    -0.2091538E-01 (  -6.58%)
   displ. norm   :     0.9420396 α      lambda       -0.2360106E-01
   maximum displ.:     0.6270819 α      in ANC's #25, #12, #52, ...

........................................................................
.............................. CYCLE   11 ..............................
........................................................................
   1   -271.6770591 -0.271677E+03  0.307E-01    0.37       0.0  T
   2   -271.6556957  0.213635E-01  0.335E-01    0.15       1.0  T
   3   -271.6583818 -0.268611E-02  0.331E-01    0.41       1.0  T
   4   -271.6626274 -0.424566E-02  0.270E-01    0.49       1.0  T
   5   -271.6797675 -0.171401E-01  0.564E-02    0.34       1.0  T
   6   -271.6800538 -0.286307E-03  0.443E-02    0.28       1.0  T
   7   -271.6804403 -0.386447E-03  0.139E-02    0.28       1.0  T
   8   -271.6804557 -0.153826E-04  0.120E-02    0.26       1.0  T
   9   -271.6804687 -0.130135E-04  0.792E-03    0.27       1.0  T
  10   -271.6804696 -0.864937E-06  0.568E-03    0.26       1.4  T
  11   -271.6804726 -0.306426E-05  0.253E-03    0.27       3.2  T
  12   -271.6804739 -0.126261E-05  0.118E-03    0.26       6.8  T
  13   -271.6804741 -0.182585E-06  0.695E-04    0.26      11.6  T
  14   -271.6804741 -0.745322E-07  0.268E-04    0.26      30.0  T
     SCC iter.                  ...        0 min,  0.727 sec
     gradient                   ...        0 min,  0.209 sec
 * total energy  :  -266.9522533 Eh     change       -0.2522966E-01 Eh
   gradient norm :     0.0476765 Eh/α   predicted    -0.2227278E-01 ( -11.72%)
   displ. norm   :     0.9044310 α      lambda       -0.2769209E-01
   maximum displ.:     0.5721427 α      in ANC's #25, #12, #28, ...

........................................................................
.............................. CYCLE   12 ..............................
........................................................................
   1   -271.6693713 -0.271669E+03  0.301E-01    0.53       0.0  T
   2   -271.6619184  0.745287E-02  0.254E-01    0.44       1.0  T
   3   -271.6531642  0.875422E-02  0.311E-01    0.55       1.0  T
   4   -271.6650390 -0.118748E-01  0.169E-01    0.59       1.0  T
   5   -271.6712912 -0.625221E-02  0.400E-02    0.52       1.0  T
   6   -271.6715096 -0.218397E-03  0.138E-02    0.51       1.0  T
   7   -271.6715465 -0.369191E-04  0.667E-03    0.52       1.2  T
   8   -271.6715513 -0.480010E-05  0.344E-03    0.51       2.3  T
   9   -271.6715515 -0.160721E-06  0.223E-03    0.52       3.6  T
  10   -271.6715526 -0.108179E-05  0.762E-04    0.51      10.6  T
  11   -271.6715527 -0.949242E-07  0.452E-04    0.51      17.8  T
  12   -271.6715527 -0.359781E-07  0.240E-04    0.51      33.6  T
     SCC iter.                  ...        0 min,  0.624 sec
     gradient                   ...        0 min,  0.209 sec
 * total energy  :  -266.9826222 Eh     change       -0.3036885E-01 Eh
   gradient norm :     0.0621011 Eh/α   predicted    -0.2517218E-01 ( -17.11%)
   displ. norm   :     0.8716989 α      lambda       -0.3403198E-01
   maximum displ.:     0.5152436 α      in ANC's #25, #12, #28, ...

........................................................................
.............................. CYCLE   13 ..............................
........................................................................
   1   -271.6633315 -0.271663E+03  0.287E-01    0.86       0.0  T
   2   -271.6600828  0.324872E-02  0.213E-01    0.81       1.0  T
   3   -271.6529412  0.714155E-02  0.259E-01    0.91       1.0  T
   4   -271.6630646 -0.101233E-01  0.925E-02    0.92       1.0  T
   5   -271.6646428 -0.157820E-02  0.389E-02    0.88       1.0  T
   6   -271.6649240 -0.281261E-03  0.743E-03    0.88       1.1  T
   7   -271.6649306 -0.656630E-05  0.455E-03    0.88       1.8  T
   8   -271.6649329 -0.228166E-05  0.266E-03    0.88       3.0  T
   9   -271.6649340 -0.108438E-05  0.132E-03    0.88       6.1  T
  10   -271.6649342 -0.281942E-06  0.512E-04    0.88      15.7  T
  11   -271.6649343 -0.160374E-07  0.346E-04    0.88      23.3  T
     SCC iter.                  ...        0 min,  0.571 sec
     gradient                   ...        0 min,  0.209 sec
 * total energy  :  -267.0193170 Eh     change       -0.3669480E-01 Eh
   gradient norm :     0.0739105 Eh/α   predicted    -0.2994593E-01 ( -18.39%)
   displ. norm   :     0.8542519 α      lambda       -0.4027701E-01
   maximum displ.:     0.4780787 α      in ANC's #25, #12, #28, ...

........................................................................
.............................. CYCLE   14 ..............................
........................................................................
   1   -271.6615651 -0.271662E+03  0.263E-01    1.16       0.0  T
   2   -271.6599273  0.163782E-02  0.190E-01    1.17       1.0  T
   3   -271.6554947  0.443259E-02  0.207E-01    1.17       1.0  T
   4   -271.6624065 -0.691184E-02  0.429E-02    1.17       1.0  T
   5   -271.6626041 -0.197603E-03  0.277E-02    1.17       1.0  T
   6   -271.6627491 -0.145003E-03  0.620E-03    1.17       1.3  T
   7   -271.6627528 -0.366523E-05  0.407E-03    1.17       2.0  T
   8   -271.6627550 -0.217189E-05  0.216E-03    1.17       3.7  T
   9   -271.6627557 -0.771854E-06  0.903E-04    1.17       8.9  T
  10   -271.6627558 -0.101486E-06  0.439E-04    1.17      18.4  T
     SCC iter.                  ...        0 min,  0.519 sec
     gradient                   ...        0 min,  0.209 sec
 * total energy  :  -267.0611431 Eh     change       -0.4182610E-01 Eh
   gradient norm :     0.0780874 Eh/α   predicted    -0.3483462E-01 ( -16.72%)
   displ. norm   :     0.8480453 α      lambda       -0.4234505E-01
   maximum displ.:     0.4706922 α      in ANC's #25, #12, #28, ...

........................................................................
.............................. CYCLE   15 ..............................
........................................................................
   1   -271.6654568 -0.271665E+03  0.241E-01    1.17       0.0  T
   2   -271.6642366  0.122019E-02  0.180E-01    1.18       1.0  T
   3   -271.6615793  0.265730E-02  0.169E-01    1.18       1.0  T
   4   -271.6662743 -0.469500E-02  0.301E-02    1.18       1.0  T
   5   -271.6663995 -0.125257E-03  0.137E-02    1.18       1.0  T
   6   -271.6664406 -0.410511E-04  0.564E-03    1.18       1.4  T
   7   -271.6664446 -0.396894E-05  0.330E-03    1.18       2.4  T
   8   -271.6664454 -0.834005E-06  0.162E-03    1.18       5.0  T
   9   -271.6664458 -0.401150E-06  0.745E-04    1.18      10.8  T
  10   -271.6664459 -0.964177E-07  0.366E-04    1.18      22.0  T
     SCC iter.                  ...        0 min,  0.519 sec
     gradient                   ...        0 min,  0.209 sec
 * total energy  :  -267.1006600 Eh     change       -0.3951692E-01 Eh
   gradient norm :     0.0747870 Eh/α   predicted    -0.3639940E-01 (  -7.89%)
   displ. norm   :     0.9170382 α      lambda       -0.5021196E-01
   maximum displ.:     0.4180264 α      in ANC's #12, #25, #28, ...

........................................................................
.............................. CYCLE   16 ..............................
........................................................................
   1   -271.7013020 -0.271701E+03  0.294E-01    1.10       0.0  T
   2   -271.6996643  0.163772E-02  0.220E-01    1.10       1.0  T
   3   -271.6951833  0.448101E-02  0.203E-01    1.10       1.0  T
   4   -271.7023927 -0.720941E-02  0.443E-02    1.10       1.0  T
   5   -271.7026872 -0.294507E-03  0.169E-02    1.10       1.0  T
   6   -271.7027633 -0.761241E-04  0.730E-03    1.10       1.1  T
   7   -271.7027711 -0.774866E-05  0.386E-03    1.10       2.1  T
   8   -271.7027722 -0.110702E-05  0.231E-03    1.10       3.5  T
   9   -271.7027731 -0.894698E-06  0.818E-04    1.10       9.8  T
  10   -271.7027732 -0.103342E-06  0.381E-04    1.10      21.2  T
     SCC iter.                  ...        0 min,  0.520 sec
     gradient                   ...        0 min,  0.209 sec
 * total energy  :  -267.1436261 Eh     change       -0.4296612E-01 Eh
   gradient norm :     0.0845731 Eh/α   predicted    -0.4621918E-01 (   7.57%)
   displ. norm   :     0.8294090 α      lambda       -0.4124058E-01
   maximum displ.:     0.4525708 α      in ANC's #25, #12, #13, ...

........................................................................
.............................. CYCLE   17 ..............................
........................................................................
   1   -271.7123614 -0.271712E+03  0.216E-01    1.05       0.0  T
   2   -271.7110493  0.131214E-02  0.180E-01    1.05       1.0  T
   3   -271.7105977  0.451534E-03  0.126E-01    1.05       1.0  T
   4   -271.7129385 -0.234078E-02  0.426E-02    1.05       1.0  T
   5   -271.7133037 -0.365135E-03  0.956E-03    1.05       1.0  T
   6   -271.7133166 -0.129097E-04  0.529E-03    1.05       1.5  T
   7   -271.7133202 -0.366100E-05  0.301E-03    1.05       2.7  T
   8   -271.7133210 -0.782428E-06  0.128E-03    1.05       6.3  T
   9   -271.7133214 -0.337547E-06  0.470E-04    1.05      17.1  T
  10   -271.7133214 -0.394843E-07  0.209E-04    1.05      38.6  T
     SCC iter.                  ...        0 min,  0.520 sec
     gradient                   ...        0 min,  0.209 sec
 * total energy  :  -267.1729402 Eh     change       -0.2931408E-01 Eh
   gradient norm :     0.0859019 Eh/α   predicted    -0.3480539E-01 (  18.73%)
   displ. norm   :     0.7057919 α      lambda       -0.3112588E-01
   maximum displ.:     0.3995306 α      in ANC's #25, #12, #13, ...

........................................................................
.............................. CYCLE   18 ..............................
........................................................................
   1   -271.7594294 -0.271759E+03  0.158E-01    1.07       0.0  T
   2   -271.7593639  0.654766E-04  0.107E-01    1.07       1.0  T
   3   -271.7579268  0.143712E-02  0.886E-02    1.07       1.0  T
   4   -271.7595119 -0.158511E-02  0.280E-02    1.07       1.0  T
   5   -271.7596802 -0.168356E-03  0.689E-03    1.07       1.2  T
   6   -271.7596893 -0.909461E-05  0.345E-03    1.07       2.3  T
   7   -271.7596906 -0.125459E-05  0.227E-03    1.07       3.6  T
   8   -271.7596911 -0.557721E-06  0.703E-04    1.07      11.5  T
   9   -271.7596912 -0.648414E-07  0.307E-04    1.07      26.2  T
     SCC iter.                  ...        0 min,  0.468 sec
     gradient                   ...        0 min,  0.209 sec
 * total energy  :  -267.1980751 Eh     change       -0.2513487E-01 Eh
   gradient norm :     0.0558720 Eh/α   predicted    -0.2331556E-01 (  -7.24%)
   displ. norm   :     0.8758244 α      lambda       -0.2835436E-01
   maximum displ.:     0.5198305 α      in ANC's #12, #25, #13, ...

........................................................................
.............................. CYCLE   19 ..............................
........................................................................
   1   -271.8169627 -0.271817E+03  0.161E-01    1.06       0.0  T
   2   -271.8169141  0.486838E-04  0.103E-01    1.06       1.0  T
   3   -271.8149711  0.194291E-02  0.911E-02    1.06       1.0  T
   4   -271.8170043 -0.203318E-02  0.248E-02    1.06       1.0  T
   5   -271.8171441 -0.139728E-03  0.462E-03    1.06       1.7  T
   6   -271.8171471 -0.305156E-05  0.231E-03    1.06       3.5  T
   7   -271.8171472 -0.106210E-06  0.166E-03    1.06       4.9  T
   8   -271.8171476 -0.409462E-06  0.598E-04    1.06      13.5  T
   9   -271.8171477 -0.842348E-07  0.256E-04    1.06      31.5  T
     SCC iter.                  ...        0 min,  0.468 sec
     gradient                   ...        0 min,  0.209 sec
 * total energy  :  -267.2225213 Eh     change       -0.2444626E-01 Eh
   gradient norm :     0.0484075 Eh/α   predicted    -0.2505205E-01 (   2.48%)
   displ. norm   :     0.9056381 α      lambda       -0.2491034E-01
   maximum displ.:     0.5284070 α      in ANC's #12, #25, #13, ...

........................................................................
.............................. CYCLE   20 ..............................
........................................................................
   1   -271.8682471 -0.271868E+03  0.165E-01    1.03       0.0  T
   2   -271.8681290  0.118081E-03  0.104E-01    1.03       1.0  T
   3   -271.8647049  0.342410E-02  0.100E-01    1.04       1.0  T
   4   -271.8683096 -0.360464E-02  0.186E-02    1.03       1.0  T
   5   -271.8683967 -0.871565E-04  0.418E-03    1.03       1.9  T
   6   -271.8683994 -0.270268E-05  0.240E-03    1.03       3.4  T
   7   -271.8684001 -0.640088E-06  0.153E-03    1.03       5.3  T
   8   -271.8684003 -0.236845E-06  0.689E-04    1.03      11.7  T
   9   -271.8684004 -0.715565E-07  0.199E-04    1.03      40.4  T
     SCC iter.                  ...        0 min,  0.469 sec
     gradient                   ...        0 min,  0.209 sec
 * total energy  :  -267.2438988 Eh     change       -0.2137746E-01 Eh
   gradient norm :     0.0428907 Eh/α   predicted    -0.2267068E-01 (   6.05%)
   displ. norm   :     0.9290895 α      lambda       -0.2380493E-01
   maximum displ.:     0.5331037 α      in ANC's #25, #12, #13, ...
 * RMSD in coord.:     1.0334259 α      energy gain  -0.9423709E+00 Eh

generating ANC from model Hessian ...
Using Lindh-Hessian (1995)
 Shifting diagonal of input Hessian by    1.0007834097140173E-002
 Lowest  eigenvalues of input Hessian
    0.010000    0.010002    0.010003    0.010003    0.010004    0.010006
    0.010006    0.010006    0.000000    0.000000    0.000000    0.000000
    0.000000    0.000000    0.010008    0.010039    0.010059    0.010119
 Highest eigenvalues
    2.117773    2.139939    2.284236    2.586253    2.622654    2.778871


........................................................................
.............................. CYCLE   21 ..............................
........................................................................
   1   -271.9002599 -0.271900E+03  0.184E-01    1.01       0.0  T
   2   -271.9001362  0.123691E-03  0.116E-01    1.01       1.0  T
   3   -271.8958354  0.430083E-02  0.110E-01    1.01       1.0  T
   4   -271.9003162 -0.448083E-02  0.168E-02    1.01       1.0  T
   5   -271.9003889 -0.726467E-04  0.502E-03    1.01       1.6  T
   6   -271.9003942 -0.534770E-05  0.242E-03    1.01       3.3  T
   7   -271.9003946 -0.371536E-06  0.166E-03    1.01       4.8  T
   8   -271.9003949 -0.344552E-06  0.620E-04    1.01      13.0  T
   9   -271.9003950 -0.603275E-07  0.181E-04    1.01      44.5  T
     SCC iter.                  ...        0 min,  0.468 sec
     gradient                   ...        0 min,  0.210 sec
 * total energy  :  -267.2631024 Eh     change       -0.1920362E-01 Eh
   gradient norm :     0.0424535 Eh/α   predicted     0.0000000E+00 (-100.00%)
   displ. norm   :     0.7174293 α      lambda       -0.1655304E-01
   maximum displ.:     0.3542989 α      in ANC's #20, #16, #35, ...

........................................................................
.............................. CYCLE   22 ..............................
........................................................................
   1   -271.9276942 -0.271928E+03  0.104E-01    1.00       0.0  T
   2   -271.9276650  0.292012E-04  0.647E-02    1.00       1.0  T
   3   -271.9266981  0.966882E-03  0.596E-02    1.00       1.0  T
   4   -271.9277087 -0.101056E-02  0.909E-03    1.00       1.0  T
   5   -271.9277303 -0.216050E-04  0.314E-03    1.00       2.6  T
   6   -271.9277320 -0.176894E-05  0.129E-03    1.00       6.2  T
   7   -271.9277321 -0.822866E-07  0.707E-04    1.00      11.4  T
   8   -271.9277322 -0.598758E-07  0.394E-04    1.00      20.4  T
     SCC iter.                  ...        0 min,  0.416 sec
     gradient                   ...        0 min,  0.210 sec
 * total energy  :  -267.2785954 Eh     change       -0.1549303E-01 Eh
   gradient norm :     0.0277135 Eh/α   predicted    -0.1253665E-01 ( -19.08%)
   displ. norm   :     0.9347187 α      lambda       -0.1943812E-01
   maximum displ.:     0.4641154 α      in ANC's #20, #16, #35, ...

........................................................................
.............................. CYCLE   23 ..............................
........................................................................
   1   -271.9567631 -0.271957E+03  0.156E-01    1.00       0.0  T
   2   -271.9567138  0.492757E-04  0.960E-02    0.99       1.0  T
   3   -271.9548519  0.186187E-02  0.830E-02    1.00       1.0  T
   4   -271.9567886 -0.193671E-02  0.115E-02    0.99       1.0  T
   5   -271.9568226 -0.340094E-04  0.396E-03    0.99       2.0  T
   6   -271.9568253 -0.270623E-05  0.176E-03    0.99       4.6  T
   7   -271.9568255 -0.162730E-06  0.903E-04    0.99       8.9  T
   8   -271.9568256 -0.101501E-06  0.478E-04    0.99      16.9  T
     SCC iter.                  ...        0 min,  0.416 sec
     gradient                   ...        0 min,  0.210 sec
 * total energy  :  -267.2959882 Eh     change       -0.1739281E-01 Eh
   gradient norm :     0.0245112 Eh/α   predicted    -0.1821059E-01 (   4.70%)
   displ. norm   :     0.9352769 α      lambda       -0.1790115E-01
   maximum displ.:     0.4715662 α      in ANC's #20, #16, #35, ...

........................................................................
.............................. CYCLE   24 ..............................
........................................................................
   1   -271.9839304 -0.271984E+03  0.165E-01    0.99       0.0  T
   2   -271.9838932  0.371861E-04  0.997E-02    0.99       1.0  T
   3   -271.9822107  0.168247E-02  0.730E-02    0.99       1.0  T
   4   -271.9839539 -0.174317E-02  0.788E-03    0.99       1.0  T
   5   -271.9839686 -0.147350E-04  0.303E-03    0.99       2.7  T
   6   -271.9839698 -0.114828E-05  0.168E-03    0.99       4.8  T
   7   -271.9839700 -0.226136E-06  0.800E-04    0.99      10.1  T
   8   -271.9839701 -0.101725E-06  0.353E-04    0.99      22.9  T
     SCC iter.                  ...        0 min,  0.417 sec
     gradient                   ...        0 min,  0.210 sec
 * total energy  :  -267.3120675 Eh     change       -0.1607921E-01 Eh
   gradient norm :     0.0280617 Eh/α   predicted    -0.1678003E-01 (   4.36%)
   displ. norm   :     0.9239438 α      lambda       -0.1568453E-01
   maximum displ.:     0.4852432 α      in ANC's #20, #16, #35, ...

........................................................................
.............................. CYCLE   25 ..............................
........................................................................
   1   -272.0111607 -0.272011E+03  0.137E-01    0.99       0.0  T
   2   -272.0111420  0.187440E-04  0.822E-02    0.99       1.0  T
   3   -272.0100879  0.105404E-02  0.517E-02    0.99       1.0  T
   4   -272.0111777 -0.108977E-02  0.649E-03    0.99       1.2  T
   5   -272.0111871 -0.943866E-05  0.211E-03    0.99       3.8  T
   6   -272.0111875 -0.333034E-06  0.144E-03    0.99       5.6  T
   7   -272.0111877 -0.216232E-06  0.832E-04    0.99       9.7  T
   8   -272.0111878 -0.127095E-06  0.179E-04    0.99      44.9  T
     SCC iter.                  ...        0 min,  0.417 sec
     gradient                   ...        0 min,  0.210 sec
 * total energy  :  -267.3269534 Eh     change       -0.1488593E-01 Eh
   gradient norm :     0.0254638 Eh/α   predicted    -0.1453699E-01 (  -2.34%)
   displ. norm   :     0.9382163 α      lambda       -0.1508316E-01
   maximum displ.:     0.4984552 α      in ANC's #20, #16, #35, ...

........................................................................
.............................. CYCLE   26 ..............................
........................................................................
   1   -272.0406908 -0.272041E+03  0.152E-01    0.99       0.0  T
   2   -272.0406767  0.141643E-04  0.917E-02    0.99       1.0  T
   3   -272.0395722  0.110444E-02  0.556E-02    0.99       1.0  T
   4   -272.0407067 -0.113452E-02  0.980E-03    0.99       1.0  T
   5   -272.0407301 -0.233608E-04  0.235E-03    0.99       3.4  T
   6   -272.0407306 -0.538686E-06  0.137E-03    0.99       5.9  T
   7   -272.0407306  0.314241E-07  0.109E-03    0.99       7.4  T
   8   -272.0407309 -0.251379E-06  0.295E-04    0.99      27.3  T
   9   -272.0407309 -0.134668E-07  0.107E-04    0.99      75.4  T
     SCC iter.                  ...        0 min,  0.468 sec
     gradient                   ...        0 min,  0.210 sec
 * total energy  :  -267.3408131 Eh     change       -0.1385976E-01 Eh
   gradient norm :     0.0184567 Eh/α   predicted    -0.1418006E-01 (   2.31%)
   displ. norm   :     0.9405657 α      lambda       -0.1420177E-01
   maximum displ.:     0.5154411 α      in ANC's #16, #20, #21, ...

........................................................................
.............................. CYCLE   27 ..............................
........................................................................
   1   -272.0709143 -0.272071E+03  0.156E-01    1.00       0.0  T
   2   -272.0709046  0.964970E-05  0.937E-02    1.00       1.0  T
   3   -272.0699176  0.987036E-03  0.536E-02    1.00       1.0  T
   4   -272.0709279 -0.101034E-02  0.104E-02    1.00       1.0  T
   5   -272.0709546 -0.266547E-04  0.231E-03    1.00       3.5  T
   6   -272.0709551 -0.504316E-06  0.134E-03    1.00       6.0  T
   7   -272.0709551  0.382466E-07  0.104E-03    1.00       7.8  T
   8   -272.0709553 -0.222798E-06  0.312E-04    1.00      25.8  T
   9   -272.0709553 -0.154921E-07  0.109E-04    1.00      74.1  T
     SCC iter.                  ...        0 min,  0.468 sec
     gradient                   ...        0 min,  0.210 sec
 * total energy  :  -267.3537877 Eh     change       -0.1297458E-01 Eh
   gradient norm :     0.0179992 Eh/α   predicted    -0.1338278E-01 (   3.15%)
   displ. norm   :     0.9386967 α      lambda       -0.1264688E-01
   maximum displ.:     0.5303831 α      in ANC's #16, #20, #21, ...

........................................................................
.............................. CYCLE   28 ..............................
........................................................................
   1   -272.0927365 -0.272093E+03  0.133E-01    1.00       0.0  T
   2   -272.0927264  0.100857E-04  0.790E-02    1.00       1.0  T
   3   -272.0920720  0.654480E-03  0.455E-02    1.00       1.0  T
   4   -272.0927509 -0.678915E-03  0.576E-03    1.00       1.4  T
   5   -272.0927585 -0.762940E-05  0.200E-03    1.00       4.0  T
   6   -272.0927588 -0.332759E-06  0.130E-03    1.00       6.2  T
   7   -272.0927590 -0.209223E-06  0.638E-04    1.00      12.6  T
   8   -272.0927591 -0.713729E-07  0.248E-04    1.00      32.5  T
     SCC iter.                  ...        0 min,  0.418 sec
     gradient                   ...        0 min,  0.210 sec
 * total energy  :  -267.3658749 Eh     change       -0.1208717E-01 Eh
   gradient norm :     0.0165105 Eh/α   predicted    -0.1189535E-01 (  -1.59%)
   displ. norm   :     0.9421240 α      lambda       -0.1185546E-01
   maximum displ.:     0.5525156 α      in ANC's #16, #20, #21, ...

........................................................................
.............................. CYCLE   29 ..............................
........................................................................
   1   -272.1197019 -0.272120E+03  0.125E-01    1.01       0.0  T
   2   -272.1196964  0.550468E-05  0.740E-02    1.01       1.0  T
   3   -272.1192565  0.439866E-03  0.400E-02    1.01       1.0  T
   4   -272.1197138 -0.457313E-03  0.484E-03    1.01       1.7  T
   5   -272.1197193 -0.549033E-05  0.183E-03    1.01       4.4  T
   6   -272.1197197 -0.340219E-06  0.118E-03    1.01       6.8  T
   7   -272.1197199 -0.211221E-06  0.463E-04    1.01      17.4  T
   8   -272.1197199 -0.354096E-07  0.196E-04    1.01      41.2  T
     SCC iter.                  ...        0 min,  0.417 sec
     gradient                   ...        0 min,  0.211 sec
 * total energy  :  -267.3772292 Eh     change       -0.1135428E-01 Eh
   gradient norm :     0.0140294 Eh/α   predicted    -0.1118916E-01 (  -1.45%)
   displ. norm   :     0.9511115 α      lambda       -0.1120458E-01
   maximum displ.:     0.5697674 α      in ANC's #16, #20, #21, ...

........................................................................
.............................. CYCLE   30 ..............................
........................................................................
   1   -272.1464874 -0.272146E+03  0.126E-01    1.01       0.0  T
   2   -272.1464865  0.867418E-06  0.745E-02    1.01       1.0  T
   3   -272.1462224  0.264057E-03  0.309E-02    1.01       1.0  T
   4   -272.1464964 -0.273967E-03  0.421E-03    1.01       1.9  T
   5   -272.1465005 -0.409537E-05  0.164E-03    1.01       4.9  T
   6   -272.1465006 -0.134788E-06  0.115E-03    1.01       7.0  T
   7   -272.1465009 -0.232264E-06  0.366E-04    1.01      22.0  T
   8   -272.1465009 -0.262416E-07  0.157E-04    1.01      51.4  T
     SCC iter.                  ...        0 min,  0.417 sec
     gradient                   ...        0 min,  0.211 sec
 * total energy  :  -267.3878753 Eh     change       -0.1064610E-01 Eh
   gradient norm :     0.0129576 Eh/α   predicted    -0.1067020E-01 (   0.23%)
   displ. norm   :     0.9610584 α      lambda       -0.1081068E-01
   maximum displ.:     0.5782211 α      in ANC's #16, #20, #21, ...

........................................................................
.............................. CYCLE   31 ..............................
........................................................................
   1   -272.1696497 -0.272170E+03  0.145E-01    1.00       0.0  T
   2   -272.1696506 -0.877717E-06  0.860E-02    1.00       1.0  T
   3   -272.1694555  0.195085E-03  0.269E-02    1.00       1.0  T
   4   -272.1696585 -0.202974E-03  0.369E-03    1.00       2.2  T
   5   -272.1696611 -0.266408E-05  0.176E-03    1.00       4.6  T
   6   -272.1696611  0.403122E-08  0.132E-03    1.00       6.1  T
   7   -272.1696615 -0.374373E-06  0.316E-04    1.00      25.5  T
   8   -272.1696615 -0.182589E-07  0.150E-04    1.00      53.9  T
     SCC iter.                  ...        0 min,  0.417 sec
     gradient                   ...        0 min,  0.211 sec
 * total energy  :  -267.3976793 Eh     change       -0.9804032E-02 Eh
   gradient norm :     0.0132959 Eh/α   predicted    -0.1039790E-01 (   6.06%)
   displ. norm   :     0.9377757 α      lambda       -0.1010749E-01
   maximum displ.:     0.5734004 α      in ANC's #16, #20, #21, ...

........................................................................
.............................. CYCLE   32 ..............................
........................................................................
   1   -272.1906398 -0.272191E+03  0.133E-01    1.00       0.0  T
   2   -272.1906420 -0.221463E-05  0.786E-02    1.00       1.0  T
   3   -272.1905316  0.110417E-03  0.206E-02    1.00       1.0  T
   4   -272.1906465 -0.114981E-03  0.346E-03    1.00       2.3  T
   5   -272.1906487 -0.220523E-05  0.163E-03    1.00       4.9  T
   6   -272.1906488 -0.646286E-07  0.112E-03    1.00       7.2  T
   7   -272.1906490 -0.194882E-06  0.312E-04    1.00      25.8  T
   8   -272.1906490 -0.162560E-07  0.107E-04    1.00      75.1  T
     SCC iter.                  ...        0 min,  0.417 sec
     gradient                   ...        0 min,  0.212 sec
 * total energy  :  -267.4070222 Eh     change       -0.9342914E-02 Eh
   gradient norm :     0.0110789 Eh/α   predicted    -0.9498126E-02 (   1.66%)
   displ. norm   :     0.9469606 α      lambda       -0.9062209E-02
   maximum displ.:     0.5930636 α      in ANC's #16, #20, #21, ...

........................................................................
.............................. CYCLE   33 ..............................
........................................................................
   1   -272.2126348 -0.272213E+03  0.114E-01    1.00       0.0  T
   2   -272.2126364 -0.156620E-05  0.673E-02    1.00       1.0  T
   3   -272.2125185  0.117858E-03  0.218E-02    1.00       1.0  T
   4   -272.2126418 -0.123229E-03  0.324E-03    1.00       2.5  T
   5   -272.2126437 -0.196715E-05  0.137E-03    1.00       5.9  T
   6   -272.2126438 -0.369722E-07  0.994E-04    1.00       8.1  T
   7   -272.2126439 -0.137945E-06  0.279E-04    1.00      28.9  T
     SCC iter.                  ...        0 min,  0.364 sec
     gradient                   ...        0 min,  0.211 sec
 * total energy  :  -267.4156430 Eh     change       -0.8620756E-02 Eh
   gradient norm :     0.0095154 Eh/α   predicted    -0.8594300E-02 (  -0.31%)
   displ. norm   :     0.9508232 α      lambda       -0.8361118E-02
   maximum displ.:     0.6024098 α      in ANC's #16, #20, #21, ...

........................................................................
.............................. CYCLE   34 ..............................
........................................................................
   1   -272.2343813 -0.272234E+03  0.112E-01    1.00       0.0  T
   2   -272.2343827 -0.133957E-05  0.659E-02    1.00       1.0  T
   3   -272.2342713  0.111396E-03  0.215E-02    1.00       1.0  T
   4   -272.2343881 -0.116849E-03  0.294E-03    1.00       2.7  T
   5   -272.2343897 -0.152036E-05  0.131E-03    1.00       6.2  T
   6   -272.2343897 -0.188301E-07  0.990E-04    1.00       8.1  T
   7   -272.2343898 -0.143965E-06  0.224E-04    1.00      36.0  T
     SCC iter.                  ...        0 min,  0.366 sec
     gradient                   ...        0 min,  0.211 sec
 * total energy  :  -267.4236298 Eh     change       -0.7986809E-02 Eh
   gradient norm :     0.0088588 Eh/α   predicted    -0.7960054E-02 (  -0.33%)
   displ. norm   :     0.9498138 α      lambda       -0.7727212E-02
   maximum displ.:     0.6073864 α      in ANC's #16, #20, #21, ...

........................................................................
.............................. CYCLE   35 ..............................
........................................................................
   1   -272.2560752 -0.272256E+03  0.111E-01    0.99       0.0  T
   2   -272.2560765 -0.128765E-05  0.652E-02    0.99       1.0  T
   3   -272.2559747  0.101879E-03  0.208E-02    0.99       1.0  T
   4   -272.2560816 -0.106964E-03  0.279E-03    0.99       2.9  T
   5   -272.2560829 -0.130472E-05  0.133E-03    0.99       6.1  T
   6   -272.2560830 -0.546997E-07  0.969E-04    0.99       8.3  T
   7   -272.2560831 -0.141920E-06  0.207E-04    0.99      38.9  T
     SCC iter.                  ...        0 min,  0.365 sec
     gradient                   ...        0 min,  0.212 sec
 * total energy  :  -267.4309861 Eh     change       -0.7356298E-02 Eh
   gradient norm :     0.0083948 Eh/α   predicted    -0.7349135E-02 (  -0.10%)
   displ. norm   :     0.9490501 α      lambda       -0.7132621E-02
   maximum displ.:     0.6103619 α      in ANC's #16, #20, #21, ...

........................................................................
.............................. CYCLE   36 ..............................
........................................................................
   1   -272.2756300 -0.272276E+03  0.110E-01    0.99       0.0  T
   2   -272.2756310 -0.103012E-05  0.651E-02    0.99       1.0  T
   3   -272.2755255  0.105450E-03  0.210E-02    0.99       1.0  T
   4   -272.2756362 -0.110655E-03  0.278E-03    0.99       2.9  T
   5   -272.2756375 -0.126613E-05  0.138E-03    0.99       5.8  T
   6   -272.2756376 -0.983229E-07  0.944E-04    0.99       8.5  T
   7   -272.2756377 -0.128780E-06  0.210E-04    0.99      38.4  T
     SCC iter.                  ...        0 min,  0.365 sec
     gradient                   ...        0 min,  0.212 sec
 * total energy  :  -267.4377432 Eh     change       -0.6757115E-02 Eh
   gradient norm :     0.0079645 Eh/α   predicted    -0.6778480E-02 (   0.32%)
   displ. norm   :     0.9460810 α      lambda       -0.6528356E-02
   maximum displ.:     0.6134499 α      in ANC's #16, #20, #21, ...

........................................................................
.............................. CYCLE   37 ..............................
........................................................................
   1   -272.2945532 -0.272295E+03  0.109E-01    0.99       0.0  T
   2   -272.2945544 -0.113597E-05  0.642E-02    0.99       1.0  T
   3   -272.2944597  0.946893E-04  0.200E-02    0.99       1.0  T
   4   -272.2945590 -0.993253E-04  0.272E-03    0.99       3.0  T
   5   -272.2945602 -0.120907E-05  0.136E-03    0.99       5.9  T
   6   -272.2945603 -0.110671E-06  0.908E-04    0.99       8.9  T
   7   -272.2945604 -0.117640E-06  0.209E-04    0.99      38.5  T
     SCC iter.                  ...        0 min,  0.365 sec
     gradient                   ...        0 min,  0.212 sec
 * total energy  :  -267.4439140 Eh     change       -0.6170770E-02 Eh
   gradient norm :     0.0073941 Eh/α   predicted    -0.6185848E-02 (   0.24%)
   displ. norm   :     0.9434847 α      lambda       -0.5924325E-02
   maximum displ.:     0.6177453 α      in ANC's #16, #20, #21, ...

........................................................................
.............................. CYCLE   38 ..............................
........................................................................
   1   -272.3131644 -0.272313E+03  0.108E-01    0.98       0.0  T
   2   -272.3131653 -0.959421E-06  0.635E-02    0.98       1.0  T
   3   -272.3130668  0.985023E-04  0.203E-02    0.98       1.0  T
   4   -272.3131700 -0.103183E-03  0.281E-03    0.98       2.9  T
   5   -272.3131713 -0.132604E-05  0.137E-03    0.98       5.9  T
   6   -272.3131715 -0.146743E-06  0.861E-04    0.98       9.4  T
   7   -272.3131716 -0.957192E-07  0.224E-04    0.98      36.0  T
     SCC iter.                  ...        0 min,  0.364 sec
     gradient                   ...        0 min,  0.212 sec
 * total energy  :  -267.4495017 Eh     change       -0.5587700E-02 Eh
   gradient norm :     0.0069881 Eh/α   predicted    -0.5598972E-02 (   0.20%)
   displ. norm   :     0.9415508 α      lambda       -0.5350965E-02
   maximum displ.:     0.6201217 α      in ANC's #16, #20, #21, ...

........................................................................
.............................. CYCLE   39 ..............................
........................................................................
   1   -272.3304983 -0.272330E+03  0.107E-01    0.98       0.0  T
   2   -272.3304995 -0.118080E-05  0.632E-02    0.98       1.0  T
   3   -272.3304134  0.860720E-04  0.192E-02    0.98       1.0  T
   4   -272.3305039 -0.904677E-04  0.260E-03    0.98       3.1  T
   5   -272.3305049 -0.106657E-05  0.127E-03    0.98       6.3  T
   6   -272.3305050 -0.804645E-07  0.870E-04    0.98       9.3  T
   7   -272.3305051 -0.106987E-06  0.231E-04    0.98      34.8  T
     SCC iter.                  ...        0 min,  0.365 sec
     gradient                   ...        0 min,  0.212 sec
 * total energy  :  -267.4545172 Eh     change       -0.5015480E-02 Eh
   gradient norm :     0.0066924 Eh/α   predicted    -0.5047347E-02 (   0.64%)
   displ. norm   :     0.9376917 α      lambda       -0.4791471E-02
   maximum displ.:     0.6216156 α      in ANC's #16, #20, #21, ...

........................................................................
.............................. CYCLE   40 ..............................
........................................................................
   1   -272.3471893 -0.272347E+03  0.107E-01    0.97       0.0  T
   2   -272.3471901 -0.850391E-06  0.629E-02    0.97       1.0  T
   3   -272.3470999  0.902191E-04  0.194E-02    0.97       1.0  T
   4   -272.3471946 -0.946831E-04  0.260E-03    0.97       3.1  T
   5   -272.3471956 -0.104417E-05  0.133E-03    0.97       6.0  T
   6   -272.3471958 -0.132870E-06  0.836E-04    0.97       9.6  T
   7   -272.3471959 -0.928702E-07  0.216E-04    0.97      37.2  T
     SCC iter.                  ...        0 min,  0.365 sec
     gradient                   ...        0 min,  0.213 sec
 * total energy  :  -267.4589638 Eh     change       -0.4446674E-02 Eh
   gradient norm :     0.0067837 Eh/α   predicted    -0.4502227E-02 (   1.25%)
   displ. norm   :     0.9316723 α      lambda       -0.4249928E-02
   maximum displ.:     0.6202474 α      in ANC's #16, #20, #21, ...

........................................................................
.............................. CYCLE   41 ..............................
........................................................................
   1   -272.3631758 -0.272363E+03  0.106E-01    0.97       0.0  T
   2   -272.3631768 -0.960003E-06  0.625E-02    0.97       1.0  T
   3   -272.3630938  0.829960E-04  0.189E-02    0.97       1.0  T
   4   -272.3631813 -0.875578E-04  0.238E-03    0.97       3.4  T
   5   -272.3631821 -0.783447E-06  0.117E-03    0.97       6.9  T
   6   -272.3631821 -0.194888E-07  0.884E-04    0.97       9.1  T
   7   -272.3631823 -0.123595E-06  0.225E-04    0.97      35.9  T
     SCC iter.                  ...        0 min,  0.364 sec
     gradient                   ...        0 min,  0.213 sec
 * total energy  :  -267.4628470 Eh     change       -0.3883193E-02 Eh
   gradient norm :     0.0068216 Eh/α   predicted    -0.3969461E-02 (   2.22%)
   displ. norm   :     0.9231145 α      lambda       -0.3725363E-02
   maximum displ.:     0.6145720 α      in ANC's #16, #20, #21, ...

........................................................................
.............................. CYCLE   42 ..............................
........................................................................
   1   -272.3777402 -0.272378E+03  0.106E-01    0.97       0.0  T
   2   -272.3777414 -0.115061E-05  0.624E-02    0.97       1.0  T
   3   -272.3776613  0.801290E-04  0.186E-02    0.97       1.0  T
   4   -272.3777456 -0.843503E-04  0.258E-03    0.97       3.1  T
   5   -272.3777466 -0.958144E-06  0.120E-03    0.97       6.7  T
   6   -272.3777466 -0.461600E-07  0.867E-04    0.97       9.3  T
   7   -272.3777467 -0.104673E-06  0.274E-04    0.97      29.4  T
     SCC iter.                  ...        0 min,  0.364 sec
     gradient                   ...        0 min,  0.213 sec
 * total energy  :  -267.4661923 Eh     change       -0.3345301E-02 Eh
   gradient norm :     0.0065150 Eh/α   predicted    -0.3449947E-02 (   3.13%)
   displ. norm   :     0.9108793 α      lambda       -0.3191004E-02
   maximum displ.:     0.6076826 α      in ANC's #16, #20, #21, ...
 * RMSD in coord.:     1.5905850 α      energy gain  -0.2222935E+00 Eh

generating ANC from model Hessian ...
Using Lindh-Hessian (1995)
 Shifting diagonal of input Hessian by    1.0041267248422622E-002
 Lowest  eigenvalues of input Hessian
    0.010000    0.010005    0.010010    0.010020    0.010025    0.010027
    0.010029    0.010036    0.010039    0.000000    0.000000    0.000000
    0.000000    0.000000    0.000000    0.010059    0.010155    0.010173
 Highest eigenvalues
    2.359857    2.369863    2.371212    2.876617    2.889776    2.891635


........................................................................
.............................. CYCLE   43 ..............................
........................................................................
   1   -272.3919630 -0.272392E+03  0.104E-01    0.96       0.0  T
   2   -272.3919641 -0.113690E-05  0.612E-02    0.96       1.0  T
   3   -272.3918913  0.728684E-04  0.177E-02    0.96       1.0  T
   4   -272.3919678 -0.765770E-04  0.252E-03    0.96       3.2  T
   5   -272.3919688 -0.932697E-06  0.125E-03    0.96       6.4  T
   6   -272.3919689 -0.113507E-06  0.791E-04    0.96      10.2  T
   7   -272.3919690 -0.751974E-07  0.262E-04    0.96      30.7  T
     SCC iter.                  ...        0 min,  0.365 sec
     gradient                   ...        0 min,  0.214 sec
 * total energy  :  -267.4690219 Eh     change       -0.2829591E-02 Eh
   gradient norm :     0.0068258 Eh/α   predicted     0.0000000E+00 (-100.00%)
   displ. norm   :     0.2448147 α      lambda       -0.7637301E-03
   maximum displ.:     0.1497811 α      in ANC's #16, #20, #18, ...

........................................................................
.............................. CYCLE   44 ..............................
........................................................................
   1   -272.3984395 -0.272398E+03  0.286E-02    0.96       0.0  T
   2   -272.3984397 -0.175584E-06  0.168E-02    0.96       1.0  T
   3   -272.3984350  0.472789E-05  0.466E-03    0.96       1.7  T
   4   -272.3984399 -0.496458E-05  0.807E-04    0.96      10.0  T
   5   -272.3984401 -0.115085E-06  0.308E-04    0.96      26.2  T
   6   -272.3984401 -0.194058E-08  0.201E-04    0.96      40.1  T
     SCC iter.                  ...        0 min,  0.313 sec
     gradient                   ...        0 min,  0.214 sec
 * total energy  :  -267.4697423 Eh     change       -0.7204233E-03 Eh
   gradient norm :     0.0034997 Eh/α   predicted    -0.4049721E-03 ( -43.79%)
   displ. norm   :     0.6137140 α      lambda       -0.1703312E-02
   maximum displ.:     0.3514591 α      in ANC's #16, #20, #18, ...

........................................................................
.............................. CYCLE   45 ..............................
........................................................................
   1   -272.4096601 -0.272410E+03  0.709E-02    0.96       0.0  T
   2   -272.4096607 -0.665463E-06  0.417E-02    0.96       1.0  T
   3   -272.4096347  0.260115E-04  0.109E-02    0.96       1.0  T
   4   -272.4096623 -0.275843E-04  0.139E-03    0.96       5.8  T
   5   -272.4096626 -0.240549E-06  0.713E-04    0.96      11.3  T
   6   -272.4096626 -0.100267E-07  0.515E-04    0.96      15.6  T
     SCC iter.                  ...        0 min,  0.313 sec
     gradient                   ...        0 min,  0.214 sec
 * total energy  :  -267.4712935 Eh     change       -0.1551171E-02 Eh
   gradient norm :     0.0057696 Eh/α   predicted    -0.1172427E-02 ( -24.42%)
   displ. norm   :     0.7679159 α      lambda       -0.1876091E-02
   maximum displ.:     0.4334463 α      in ANC's #16, #20, #18, ...

........................................................................
.............................. CYCLE   46 ..............................
........................................................................
   1   -272.4179633 -0.272418E+03  0.965E-02    0.96       0.0  T
   2   -272.4179640 -0.723760E-06  0.569E-02    0.96       1.0  T
   3   -272.4179159  0.481140E-04  0.150E-02    0.96       1.0  T
   4   -272.4179671 -0.511749E-04  0.163E-03    0.96       4.9  T
   5   -272.4179672 -0.107867E-06  0.109E-03    0.96       7.4  T
   6   -272.4179672 -0.145517E-07  0.755E-04    0.96      10.7  T
   7   -272.4179673 -0.105008E-06  0.163E-04    0.96      49.6  T
     SCC iter.                  ...        0 min,  0.366 sec
     gradient                   ...        0 min,  0.215 sec
 * total energy  :  -267.4728392 Eh     change       -0.1545711E-02 Eh
   gradient norm :     0.0084609 Eh/α   predicted    -0.1491206E-02 (  -3.53%)
   displ. norm   :     0.8011702 α      lambda       -0.2048462E-02
   maximum displ.:     0.4479952 α      in ANC's #16, #20, #18, ...

........................................................................
.............................. CYCLE   47 ..............................
........................................................................
   1   -272.4240747 -0.272424E+03  0.109E-01    0.95       0.0  T
   2   -272.4240761 -0.145753E-05  0.646E-02    0.95       1.0  T
   3   -272.4240400  0.361645E-04  0.128E-02    0.95       1.0  T
   4   -272.4240786 -0.386440E-04  0.205E-03    0.95       3.9  T
   5   -272.4240788 -0.220815E-06  0.132E-03    0.95       6.1  T
   6   -272.4240788  0.939042E-08  0.936E-04    0.95       8.6  T
   7   -272.4240790 -0.160496E-06  0.198E-04    0.95      40.8  T
     SCC iter.                  ...        0 min,  0.365 sec
     gradient                   ...        0 min,  0.215 sec
 * total energy  :  -267.4742691 Eh     change       -0.1429875E-02 Eh
   gradient norm :     0.0072513 Eh/α   predicted    -0.1681665E-02 (  17.61%)
   displ. norm   :     0.7463426 α      lambda       -0.1499115E-02
   maximum displ.:     0.4152322 α      in ANC's #16, #20, #18, ...

........................................................................
.............................. CYCLE   48 ..............................
........................................................................
   1   -272.4314436 -0.272431E+03  0.106E-01    0.95       0.0  T
   2   -272.4314451 -0.146859E-05  0.625E-02    0.95       1.0  T
   3   -272.4314204  0.246743E-04  0.103E-02    0.95       1.0  T
   4   -272.4314468 -0.263853E-04  0.181E-03    0.95       4.5  T
   5   -272.4314471 -0.316192E-06  0.110E-03    0.95       7.3  T
   6   -272.4314471 -0.260616E-07  0.769E-04    0.95      10.5  T
   7   -272.4314472 -0.902809E-07  0.164E-04    0.95      49.1  T
     SCC iter.                  ...        0 min,  0.365 sec
     gradient                   ...        0 min,  0.215 sec
[...]
 241:  0.23 242:  0.64 243:  2.69 244:  2.30 245:  3.85 246:  2.80 247:  0.42 248:  0.73
 249:  0.30 250:  3.02 251: 68.97 252: 42.25 253: 17.66 254: 15.62 255: 13.01 256:  7.25
 257:  0.52 258:101.85 259:  4.66 260: 19.26 261:  4.21 262: 50.49 263: 73.34 264: 54.16
 265: 70.00 266: 13.00 267: 11.25 268:  0.81 269:  0.09 270:  4.60 271:  0.03 272: 84.65
 273: 52.61 274:  4.33 275: 19.83 276: 75.66 277: 78.78 278:  2.95 279:259.10 280:  2.37
 281: 34.93 282:  4.00 283:  3.40 284: 13.88 285:  0.01 286: 45.93 287: 44.09 288: 73.51
 289:140.09 290:  5.80 291: 38.29 292: 19.96 293:  9.44 294:  0.57 295: 19.68 296:115.97
 297:284.68 298: 45.15 299: 12.67 300: 43.48 301: 15.88 302:187.64 303:  0.83 304:  6.75
 305: 14.17 306: 10.50 307:  0.49 308: 18.17 309:  0.31 310: 13.09 311:  1.53 312:  0.58
 313:  0.00 314: 17.69 315: 25.63 316:  5.85 317:115.53 318:173.33 319:146.58 320: 50.19
 321:358.43 322:  0.14 323: 59.09 324:  3.35 325:127.22 326: 76.82 327:156.30 328:  0.00
 329:  2.70 330:  0.79 331:  3.40 332: 24.03 333: 23.68 334: 94.69 335:  0.69 336: 16.96
 337: 86.26 338:522.38 339:592.74 340:  0.01 341:  0.38 342: 32.21 343: 19.69 344: 33.24
 345:  0.47 346:  8.98 347:  1.14 348: 24.02 349:  7.94 350:  0.48 351:  0.51 352:  0.01
 353:  2.79 354: 75.32 355: 30.81 356:  6.24 357:  0.40 358:  0.45 359:  7.09 360: 22.90
 361:  0.42 362:  0.01 363:  5.82 364:  2.32 365:  0.39 366: 22.40 367: 30.46 368:253.65
 369: 94.57 370:  8.00 371: 20.10 372: 34.28 373: 50.05 374:  1.77 375:  0.13 376:  1.82
 377:  1.46 378:156.50 379:  4.15 380:  2.80 381: 33.80 382: 21.95 383:  0.01 384:  0.45
 385: 12.69 386:168.14 387:  2.23 388:  2.58 389:  0.91 390:  0.12 391:  5.15 392:  0.66
 393:262.69 394: 38.99 395: 13.85 396: 71.51 397:  7.61 398: 13.88 399: 70.06 400:  6.83
 401:  0.20 402: 13.04 403:  4.56 404:  2.72 405: 13.13 406:  8.90 407:910.52 408:  0.59
 409:455.23 410:  5.63 411:  0.01 412:  0.02 413:  1.12 414:  0.79 415:  0.02 416: 36.76
 417:  1.97 418:  0.53 419:  0.24 420:  0.60 421:  1.29 422:  0.03 423:  1.39 424: 52.38
 425:119.35 426: 57.79 427: 18.10 428:  5.36 429: 35.29 430:  0.23 431:  1.54 432: 10.45
 433:  9.88 434: 11.15 435: 21.49 436: 27.57 437:  9.55 438:  7.34 439:  6.36 440: 13.95
 441:  0.13 442:  0.54 443:  0.88 444:135.05 445:  9.68 446: 14.52 447: 37.46 448:213.15
 449:683.70 450:  4.40 451: 28.83 452: 34.81 453:  5.34 454: 75.79 455:  2.75 456:  1.95
 457: 14.90 458:229.55 459:134.35 460: 14.36 461:  4.68 462:  1.60
 Raman intensities (amu)
   1:  0.00   2:  0.00   3:  0.00   4:  0.00   5:  0.00   6:  0.00   7:  0.00   8:  0.00
   9:  0.00  10:  0.00  11:  0.00  12:  0.00  13:  0.00  14:  0.00  15:  0.00  16:  0.00
  17:  0.00  18:  0.00  19:  0.00  20:  0.00  21:  0.00  22:  0.00  23:  0.00  24:  0.00
  25:  0.00  26:  0.00  27:  0.00  28:  0.00  29:  0.00  30:  0.00  31:  0.00  32:  0.00
  33:  0.00  34:  0.00  35:  0.00  36:  0.00  37:  0.00  38:  0.00  39:  0.00  40:  0.00
  41:  0.00  42:  0.00  43:  0.00  44:  0.00  45:  0.00  46:  0.00  47:  0.00  48:  0.00
  49:  0.00  50:  0.00  51:  0.00  52:  0.00  53:  0.00  54:  0.00  55:  0.00  56:  0.00
  57:  0.00  58:  0.00  59:  0.00  60:  0.00  61:  0.00  62:  0.00  63:  0.00  64:  0.00
  65:  0.00  66:  0.00  67:  0.00  68:  0.00  69:  0.00  70:  0.00  71:  0.00  72:  0.00
  73:  0.00  74:  0.00  75:  0.00  76:  0.00  77:  0.00  78:  0.00  79:  0.00  80:  0.00
  81:  0.00  82:  0.00  83:  0.00  84:  0.00  85:  0.00  86:  0.00  87:  0.00  88:  0.00
  89:  0.00  90:  0.00  91:  0.00  92:  0.00  93:  0.00  94:  0.00  95:  0.00  96:  0.00
  97:  0.00  98:  0.00  99:  0.00 100:  0.00 101:  0.00 102:  0.00 103:  0.00 104:  0.00
 105:  0.00 106:  0.00 107:  0.00 108:  0.00 109:  0.00 110:  0.00 111:  0.00 112:  0.00
 113:  0.00 114:  0.00 115:  0.00 116:  0.00 117:  0.00 118:  0.00 119:  0.00 120:  0.00
 121:  0.00 122:  0.00 123:  0.00 124:  0.00 125:  0.00 126:  0.00 127:  0.00 128:  0.00
 129:  0.00 130:  0.00 131:  0.00 132:  0.00 133:  0.00 134:  0.00 135:  0.00 136:  0.00
 137:  0.00 138:  0.00 139:  0.00 140:  0.00 141:  0.00 142:  0.00 143:  0.00 144:  0.00
 145:  0.00 146:  0.00 147:  0.00 148:  0.00 149:  0.00 150:  0.00 151:  0.00 152:  0.00
 153:  0.00 154:  0.00 155:  0.00 156:  0.00 157:  0.00 158:  0.00 159:  0.00 160:  0.00
Refinement of some symmetry elements was terminated before convergence was reached.
Some symmetry elements may remain unidentified.
Molecule has no symmetry elements
It seems to be the C1 point group
 161:  0.00 162:  0.00 163:  0.00 164:  0.00 165:  0.00 166:  0.00 167:  0.00 168:  0.00
 169:  0.00 170:  0.00 171:  0.00 172:  0.00 173:  0.00 174:  0.00 175:  0.00 176:  0.00
 177:  0.00 178:  0.00 179:  0.00 180:  0.00 181:  0.00 182:  0.00 183:  0.00 184:  0.00
 185:  0.00 186:  0.00 187:  0.00 188:  0.00 189:  0.00 190:  0.00 191:  0.00 192:  0.00
 193:  0.00 194:  0.00 195:  0.00 196:  0.00 197:  0.00 198:  0.00 199:  0.00 200:  0.00
 201:  0.00 202:  0.00 203:  0.00 204:  0.00 205:  0.00 206:  0.00 207:  0.00 208:  0.00
 209:  0.00 210:  0.00 211:  0.00 212:  0.00 213:  0.00 214:  0.00 215:  0.00 216:  0.00
 217:  0.00 218:  0.00 219:  0.00 220:  0.00 221:  0.00 222:  0.00 223:  0.00 224:  0.00
 225:  0.00 226:  0.00 227:  0.00 228:  0.00 229:  0.00 230:  0.00 231:  0.00 232:  0.00
 233:  0.00 234:  0.00 235:  0.00 236:  0.00 237:  0.00 238:  0.00 239:  0.00 240:  0.00
 241:  0.00 242:  0.00 243:  0.00 244:  0.00 245:  0.00 246:  0.00 247:  0.00 248:  0.00
 249:  0.00 250:  0.00 251:  0.00 252:  0.00 253:  0.00 254:  0.00 255:  0.00 256:  0.00
 257:  0.00 258:  0.00 259:  0.00 260:  0.00 261:  0.00 262:  0.00 263:  0.00 264:  0.00
 265:  0.00 266:  0.00 267:  0.00 268:  0.00 269:  0.00 270:  0.00 271:  0.00 272:  0.00
 273:  0.00 274:  0.00 275:  0.00 276:  0.00 277:  0.00 278:  0.00 279:  0.00 280:  0.00
 281:  0.00 282:  0.00 283:  0.00 284:  0.00 285:  0.00 286:  0.00 287:  0.00 288:  0.00
 289:  0.00 290:  0.00 291:  0.00 292:  0.00 293:  0.00 294:  0.00 295:  0.00 296:  0.00
 297:  0.00 298:  0.00 299:  0.00 300:  0.00 301:  0.00 302:  0.00 303:  0.00 304:  0.00
 305:  0.00 306:  0.00 307:  0.00 308:  0.00 309:  0.00 310:  0.00 311:  0.00 312:  0.00
 313:  0.00 314:  0.00 315:  0.00 316:  0.00 317:  0.00 318:  0.00 319:  0.00 320:  0.00
 321:  0.00 322:  0.00 323:  0.00 324:  0.00 325:  0.00 326:  0.00 327:  0.00 328:  0.00
 329:  0.00 330:  0.00 331:  0.00 332:  0.00 333:  0.00 334:  0.00 335:  0.00 336:  0.00
 337:  0.00 338:  0.00 339:  0.00 340:  0.00 341:  0.00 342:  0.00 343:  0.00 344:  0.00
 345:  0.00 346:  0.00 347:  0.00 348:  0.00 349:  0.00 350:  0.00 351:  0.00 352:  0.00
 353:  0.00 354:  0.00 355:  0.00 356:  0.00 357:  0.00 358:  0.00 359:  0.00 360:  0.00
 361:  0.00 362:  0.00 363:  0.00 364:  0.00 365:  0.00 366:  0.00 367:  0.00 368:  0.00
 369:  0.00 370:  0.00 371:  0.00 372:  0.00 373:  0.00 374:  0.00 375:  0.00 376:  0.00
 377:  0.00 378:  0.00 379:  0.00 380:  0.00 381:  0.00 382:  0.00 383:  0.00 384:  0.00
 385:  0.00 386:  0.00 387:  0.00 388:  0.00 389:  0.00 390:  0.00 391:  0.00 392:  0.00
 393:  0.00 394:  0.00 395:  0.00 396:  0.00 397:  0.00 398:  0.00 399:  0.00 400:  0.00
 401:  0.00 402:  0.00 403:  0.00 404:  0.00 405:  0.00 406:  0.00 407:  0.00 408:  0.00
 409:  0.00 410:  0.00 411:  0.00 412:  0.00 413:  0.00 414:  0.00 415:  0.00 416:  0.00
 417:  0.00 418:  0.00 419:  0.00 420:  0.00 421:  0.00 422:  0.00 423:  0.00 424:  0.00
 425:  0.00 426:  0.00 427:  0.00 428:  0.00 429:  0.00 430:  0.00 431:  0.00 432:  0.00
 433:  0.00 434:  0.00 435:  0.00 436:  0.00 437:  0.00 438:  0.00 439:  0.00 440:  0.00
 441:  0.00 442:  0.00 443:  0.00 444:  0.00 445:  0.00 446:  0.00 447:  0.00 448:  0.00
 449:  0.00 450:  0.00 451:  0.00 452:  0.00 453:  0.00 454:  0.00 455:  0.00 456:  0.00
 457:  0.00 458:  0.00 459:  0.00 460:  0.00 461:  0.00 462:  0.00
 output can be read by thermo (or use thermo option).
 writing <g98.out> molden fake output.
 recommended (thermochemical) frequency scaling factor: 1.0
           -------------------------------------------------
          |             Thermodynamic Functions             |
           -------------------------------------------------

c1  symmetry found (for desy threshold:  0.10E+00) used in thermo

          ...................................................
          :                      SETUP                      :
          :.................................................:
          :  # frequencies                         455      :
          :  # imaginary freq.                       1      :
          :  linear?                             false      :
          :  only rotor calc.                    false      :
          :  symmetry                               c1      :
          :  rotational number                       1      :
          :  scaling factor                  1.0000000      :
          :  rotor cutoff                   50.0000000 cm⁻¹ :
          :  imag. cutoff                  -20.0000000 cm⁻¹ :
          :.................................................:

    mode    ω/cm⁻¹     T·S(HO)/kcal·mol⁻¹    T·S(FR)/kcal·mol⁻¹   T·S(vib)
   ------------------------------------------------------------------------
       1      1.19    -3.64921 (  0.00%)    -2.16370 (100.00%)    -2.16370
       2      1.84    -3.39218 (  0.00%)    -2.03520 (100.00%)    -2.03520
       3      3.30    -3.04600 (  0.00%)    -1.86211 (100.00%)    -1.86213
       4      3.98    -2.93362 (  0.00%)    -1.80592 (100.00%)    -1.80597
       5      5.47    -2.74546 (  0.01%)    -1.71184 ( 99.99%)    -1.71198
       6      5.91    -2.69981 (  0.02%)    -1.68901 ( 99.98%)    -1.68920
       7      9.35    -2.42827 (  0.12%)    -1.55322 ( 99.88%)    -1.55429
       8     13.16    -2.22577 (  0.48%)    -1.45195 ( 99.52%)    -1.45565
       9     15.20    -2.14056 (  0.85%)    -1.40933 ( 99.15%)    -1.41552
      10     16.09    -2.10672 (  1.06%)    -1.39240 ( 98.94%)    -1.39998
      11     22.92    -1.89721 (  4.23%)    -1.28757 ( 95.77%)    -1.31337
      12     25.81    -1.82693 (  6.63%)    -1.25239 ( 93.37%)    -1.29051
      13     31.50    -1.70918 ( 13.61%)    -1.19342 ( 86.39%)    -1.26361
      14     34.86    -1.64931 ( 19.11%)    -1.16342 ( 80.89%)    -1.25626
      15     38.21    -1.59506 ( 25.43%)    -1.13623 ( 74.57%)    -1.25291
      16     40.03    -1.56759 ( 29.11%)    -1.12245 ( 70.89%)    -1.25205
      17     41.30    -1.54916 ( 31.76%)    -1.11320 ( 68.24%)    -1.25165
      18     41.39    -1.54782 ( 31.95%)    -1.11253 ( 68.05%)    -1.25162
      19     43.31    -1.52109 ( 36.01%)    -1.09913 ( 63.99%)    -1.25108
      20     44.08    -1.51061 ( 37.66%)    -1.09386 ( 62.34%)    -1.25083
      21     45.41    -1.49316 ( 40.48%)    -1.08511 ( 59.52%)    -1.25028
      22     52.44    -1.40818 ( 54.76%)    -1.04242 ( 45.24%)    -1.24269
      23     62.16    -1.30811 ( 70.49%)    -0.99206 ( 29.51%)    -1.21484
      24     68.73    -1.24909 ( 78.12%)    -0.96231 ( 21.88%)    -1.18633
      25     73.04    -1.21334 ( 82.00%)    -0.94426 ( 18.00%)    -1.16490
      26     73.49    -1.20980 ( 82.35%)    -0.94247 ( 17.65%)    -1.16262
      27     74.93    -1.19842 ( 83.45%)    -0.93672 ( 16.55%)    -1.15512
      28     77.39    -1.17950 ( 85.16%)    -0.92715 ( 14.84%)    -1.14205
      29     85.33    -1.12233 ( 89.46%)    -0.89820 ( 10.54%)    -1.09869
      30     90.99    -1.08490 ( 91.64%)    -0.87920 (  8.36%)    -1.06771
      31    105.27    -1.00010 ( 95.16%)    -0.83600 (  4.84%)    -0.99215
      32    110.35    -0.97281 ( 95.95%)    -0.82205 (  4.05%)    -0.96671
      33    118.19    -0.93314 ( 96.90%)    -0.80170 (  3.10%)    -0.92906
      34    124.63    -0.90259 ( 97.47%)    -0.78599 (  2.53%)    -0.89964
      35    126.43    -0.89437 ( 97.61%)    -0.78175 (  2.39%)    -0.89168
      36    127.44    -0.88979 ( 97.69%)    -0.77939 (  2.31%)    -0.88723
      37    127.62    -0.88897 ( 97.70%)    -0.77897 (  2.30%)    -0.88644
      38    129.25    -0.88167 ( 97.81%)    -0.77519 (  2.19%)    -0.87933
      39    141.91    -0.82827 ( 98.48%)    -0.74753 (  1.52%)    -0.82704
      40    144.55    -0.81777 ( 98.59%)    -0.74207 (  1.41%)    -0.81670
      41    148.99    -0.80057 ( 98.75%)    -0.73310 (  1.25%)    -0.79973
      42    150.46    -0.79500 ( 98.80%)    -0.73019 (  1.20%)    -0.79422
      43    153.48    -0.78372 ( 98.89%)    -0.72430 (  1.11%)    -0.78306
      44    154.83    -0.77878 ( 98.92%)    -0.72171 (  1.08%)    -0.77817
      45    166.24    -0.73868 ( 99.19%)    -0.70064 (  0.81%)    -0.73837
      46    167.47    -0.73456 ( 99.21%)    -0.69847 (  0.79%)    -0.73428
      47    168.16    -0.73225 ( 99.22%)    -0.69725 (  0.78%)    -0.73198
      48    173.85    -0.71362 ( 99.32%)    -0.68739 (  0.68%)    -0.71344
      49    181.26    -0.69034 ( 99.42%)    -0.67502 (  0.58%)    -0.69025
      50    181.26    -0.69034 ( 99.42%)    -0.67502 (  0.58%)    -0.69025
      51    181.68    -0.68905 ( 99.43%)    -0.67433 (  0.57%)    -0.68896
      52    182.39    -0.68688 ( 99.44%)    -0.67318 (  0.56%)    -0.68680
      53    183.18    -0.68446 ( 99.45%)    -0.67189 (  0.55%)    -0.68440
      54    188.78    -0.66779 ( 99.51%)    -0.66298 (  0.49%)    -0.66777
      55    194.85    -0.65031 ( 99.57%)    -0.65359 (  0.43%)    -0.65032
      56    195.99    -0.64712 ( 99.58%)    -0.65188 (  0.42%)    -0.64714
      57    196.76    -0.64496 ( 99.58%)    -0.65071 (  0.42%)    -0.64498
      58    197.95    -0.64165 ( 99.59%)    -0.64893 (  0.41%)    -0.64168
      59    198.08    -0.64127 ( 99.60%)    -0.64872 (  0.40%)    -0.64130
      60    198.44    -0.64027 ( 99.60%)    -0.64819 (  0.40%)    -0.64031
      61    198.63    -0.63976 ( 99.60%)    -0.64791 (  0.40%)    -0.63979
      62    198.90    -0.63900 ( 99.60%)    -0.64750 (  0.40%)    -0.63904
      63    199.82    -0.63649 ( 99.61%)    -0.64614 (  0.39%)    -0.63652
      64    200.27    -0.63525 ( 99.61%)    -0.64548 (  0.39%)    -0.63529
      65    202.85    -0.62823 ( 99.63%)    -0.64168 (  0.37%)    -0.62827
      66    202.89    -0.62812 ( 99.63%)    -0.64162 (  0.37%)    -0.62817
      67    203.64    -0.62610 ( 99.64%)    -0.64053 (  0.36%)    -0.62615
      68    203.93    -0.62533 ( 99.64%)    -0.64011 (  0.36%)    -0.62538
      69    206.33    -0.61893 ( 99.66%)    -0.63664 (  0.34%)    -0.61899
      70    210.00    -0.60932 ( 99.68%)    -0.63142 (  0.32%)    -0.60939
      71    212.72    -0.60233 ( 99.70%)    -0.62761 (  0.30%)    -0.60241
      72    223.13    -0.57649 ( 99.75%)    -0.61345 (  0.25%)    -0.57658
      73    239.83    -0.53790 ( 99.81%)    -0.59207 (  0.19%)    -0.53800
      74    255.26    -0.50505 ( 99.85%)    -0.57359 (  0.15%)    -0.50515
      75    262.06    -0.49136 ( 99.87%)    -0.56581 (  0.13%)    -0.49146
      76    262.35    -0.49077 ( 99.87%)    -0.56548 (  0.13%)    -0.49087
      77    262.88    -0.48973 ( 99.87%)    -0.56489 (  0.13%)    -0.48983
      78    262.95    -0.48958 ( 99.87%)    -0.56480 (  0.13%)    -0.48968
      79    263.75    -0.48802 ( 99.87%)    -0.56391 (  0.13%)    -0.48812
      80    269.43    -0.47699 ( 99.88%)    -0.55759 (  0.12%)    -0.47709
      81    286.34    -0.44587 ( 99.91%)    -0.53956 (  0.09%)    -0.44596
      82    289.51    -0.44032 ( 99.91%)    -0.53630 (  0.09%)    -0.44040
   ------------------------------------------------------------------------

   temp. (K)  partition function   enthalpy   heat capacity  entropy
                                   cal/mol     cal/K/mol   cal/K/mol   J/K/mol
 298.15  VIB  0.209E+48            55027.746    351.611    351.357
         ROT  0.241E+10              888.752      2.981     45.915
         INT  0.505E+57            55916.499    354.592    397.272
         TR   0.638E+29             1481.254      4.968     48.021
         TOT                       57397.7525   359.5597   445.2930  1863.1060

       T/K    H(0)-H(T)+PV         H(T)/Eh          T*S/Eh         G(T)/Eh
   ------------------------------------------------------------------------
    298.15    0.914691E-01    0.114775E+01    0.211573E+00    0.936173E+00
   ------------------------------------------------------------------------

         :::::::::::::::::::::::::::::::::::::::::::::::::::::
         ::                  THERMODYNAMIC                  ::
         :::::::::::::::::::::::::::::::::::::::::::::::::::::
         :: total free energy        -266.541102073279 Eh   ::
         ::.................................................::
         :: total energy             -267.477274836361 Eh   ::
         :: zero point energy           1.056276710794 Eh   ::
         :: G(RRHO) w/o ZPVE           -0.120103947712 Eh   ::
         :: G(RRHO) contrib.            0.936172763082 Eh   ::
         :::::::::::::::::::::::::::::::::::::::::::::::::::::
imag cut-off (cm-1) :    5.00
 found            1  significant imaginary frequency
 writing imag mode distorted coords to xtbhess.xyz
 for further optimization.

optimized geometry written to: xtbopt.xyz


           -------------------------------------------------
          | TOTAL ENERGY             -267.477274836361 Eh   |
          | TOTAL ENTHALPY           -266.329528984772 Eh   |
          | TOTAL FREE ENERGY        -266.541102073279 Eh   |
          | GRADIENT NORM               0.000390624793 Eh/α |
          | HOMO-LUMO GAP               0.939953613080 eV   |
           -------------------------------------------------
########################################################################
[WARNING] Runtime exception occurred
-16- hessian_numhess: Hessian element  318 317  is not symmetric:  -4.827639E-02  -2.802003E-02
-15- hessian_numhess: Hessian element  318 316  is not symmetric:  -9.674785E-04   1.328821E+00
-14- hessian_numhess: Hessian element  318 254  is not symmetric:   1.103691E-03  -1.937202E-02
-13- hessian_numhess: Hessian element  318 253  is not symmetric:  -1.217871E-03  -1.330949E+00
-12- hessian_numhess: Hessian element  317 318  is not symmetric:  -2.802003E-02  -4.827639E-02
-11- hessian_numhess: Hessian element  317 255  is not symmetric:  -1.908513E-02   1.111720E-03
-10- hessian_numhess: Hessian element  316 318  is not symmetric:   1.328821E+00  -9.674785E-04
-9- hessian_numhess: Hessian element  316 255  is not symmetric:  -1.330555E+00  -1.061524E-03
-8- hessian_numhess: Hessian element  255 317  is not symmetric:   1.111720E-03  -1.908513E-02
-7- hessian_numhess: Hessian element  255 316  is not symmetric:  -1.061524E-03  -1.330555E+00
-6- hessian_numhess: Hessian element  255 254  is not symmetric:  -7.051175E-03   1.319196E-02
-5- hessian_numhess: Hessian element  255 253  is not symmetric:  -1.928451E-04   1.329330E+00
-4- hessian_numhess: Hessian element  254 318  is not symmetric:  -1.937202E-02   1.103691E-03
-3- hessian_numhess: Hessian element  254 255  is not symmetric:   1.319196E-02  -7.051175E-03
-2- hessian_numhess: Hessian element  253 318  is not symmetric:  -1.330949E+00  -1.217871E-03
-1- hessian_numhess: Hessian element  253 255  is not symmetric:   1.329330E+00  -1.928451E-04
########################################################################

------------------------------------------------------------------------
 * finished run on 2021/11/18 at 19:08:28.141     
------------------------------------------------------------------------
 total:
 * wall-time:     0 d,  0 h,  9 min,  1.676 sec
 *  cpu-time:     0 d,  0 h,  9 min,  1.673 sec
 * ratio c/w:     1.000 speedup
 SCF:
 * wall-time:     0 d,  0 h,  0 min,  2.356 sec
 *  cpu-time:     0 d,  0 h,  0 min,  2.356 sec
 * ratio c/w:     1.000 speedup
 ANC optimizer:
 * wall-time:     0 d,  0 h,  0 min, 49.930 sec
 *  cpu-time:     0 d,  0 h,  0 min, 49.919 sec
 * ratio c/w:     1.000 speedup
 analytical hessian:
 * wall-time:     0 d,  0 h,  8 min,  9.097 sec
 *  cpu-time:     0 d,  0 h,  8 min,  9.106 sec
 * ratio c/w:     1.000 speedup

