154
 energy: -267.477274836304 gnorm: 0.000390515752 xtb: 6.4.1 (bd6e46d)
Zn       21.71754702883949    0.00185790644644   -0.01013330238064
C        24.24934651288589   -3.43455189511496    0.01527927527684
C        25.20295113018963   -2.47194826199503    0.01632625882413
C        24.51430007637938   -1.21293118438447    0.00834171823114
C        25.15329430051736    0.03776353097107    0.00355831512504
C        24.48806171192533    1.27462098304689   -0.00447943745827
C        25.15038489031613    2.54781753319065   -0.00700589887635
C        24.17695659780027    3.49031229554822   -0.01250786288784
C        22.92352552890683    2.79052519916079   -0.01398733329578
N        23.14473031534495    1.44576647506844   -0.00882201652590
C        21.68271078704153    3.40544255516738   -0.02032571000758
C        20.45553082500627    2.76350848930305   -0.02459676736092
C        19.18261012513202    3.43193327439617   -0.03401400436957
C        18.23529406948139    2.46537119824659   -0.03798425243575
C        18.92880620877441    1.20549921760143   -0.03038452242892
N        20.27077591121763    1.41723352119848   -0.02229730859900
C        18.30974313804363   -0.03388938167299   -0.03104174632212
C        18.95469545882444   -1.25995195389857   -0.02288482092654
C        18.28769027099170   -2.53408616657045   -0.02275299527544
C        19.25501638251648   -3.48056736537202   -0.01315770197389
C        20.51372187271518   -2.78558643262888   -0.00768041276288
N        20.30082879398594   -1.44348692949683   -0.01367910499477
C        21.75397193549076   -3.40177567293257    0.00191100777391
C        22.98168759418812   -2.76112394235749    0.00682743268340
N        23.17483539410075   -1.41206215695077    0.00317268266442
H        24.37754664758014   -4.49984084356295    0.01928823067956
H        26.26977984683421   -2.58570794156719    0.02144619754273
H        26.21463833417687    2.68345732052168   -0.00444048032339
H        24.28280332367273    4.55805149798677   -0.01581008470441
H        21.67228225784813    4.48658412330389   -0.02303695982294
H        19.05087946054048    4.49699799284845   -0.03731175867352
H        17.16787119297625    2.57581563394056   -0.04536600513765
H        17.22880710810096   -0.04530781812501   -0.03828882936308
H        17.22279726054836   -2.66685472843894   -0.02909273158131
H        19.14564691011753   -4.54815324056011   -0.01004880401383
H        21.76600334866390   -4.48289649681187    0.00539917313639
Zn       62.05907759264716    0.03659951173671   -0.00918575628635
C        59.53599899127105    3.42392659340127    0.60587606759292
C        58.58006067632221    2.47889806395427    0.43562311175725
C        59.26570113850075    1.23813409875348    0.21161699801071
C        58.62346659516149    0.00779087500890   -0.00266474648760
C        59.28522855751983   -1.21196407791137   -0.21794952676081
C        58.61976522411937   -2.46439095503047   -0.43810461732608
C        59.59093211147034   -3.39328545092522   -0.61106325227349
C        60.84603848530359   -2.70612916587784   -0.49601712337793
N        60.62818302422885   -1.38242965838969   -0.25598682968852
C        62.08527285896616   -3.31220093349036   -0.61752695396474
C        63.31399585268365   -2.68157678022836   -0.51453868545263
C        64.58520409731857   -3.34009863047604   -0.64735474131116
C        65.53497794695632   -2.39064887994997   -0.47967002250594
C        64.84472180203433   -1.15115565567006   -0.24424607290527
N        63.50220349279532   -1.35776972863016   -0.27232691461546
C        65.46702716966556    0.06617724107247   -0.02044940242474
C        64.82525987477354    1.27253633735859    0.20777765443367
C        65.49551536716974    2.52396080587773    0.43808450367001
C        64.53056945680500    3.45668456433034    0.61282276271423
C        63.27011155223454    2.77603503886760    0.48933036714675
N        63.47958579806802    1.45570248390610    0.24557685841834
C        62.03138808695932    3.38526165610607    0.60068829854588
C        60.80210103223058    2.75812609369059    0.48544413411618
N        60.60570829288884    1.43108722758571    0.24527388235537
H        59.41037271018481    4.47252417829675    0.79568731109133
H        57.51347269875599    2.59310869112095    0.45767483906089
H        57.55519186001791   -2.59670464955745   -0.45631689996260
H        59.48235571389007   -4.44398067120629   -0.79952716137115
H        62.09299140755584   -4.37585541375533   -0.81133062552683
H        64.71417018312751   -4.38746663719860   -0.84242533956850
H        66.60210234510690   -2.50028362115014   -0.50910526455696
H        66.54799914575796    0.07558670401245   -0.02431369896643
H        66.56077039132201    2.65228289748345    0.45948950052065
H        64.64264843400160    4.50623187351066    0.80675040061544
H        62.02196556752209    4.44882096527694    0.79496738284306
C        26.55167928503701    0.05200516755689    0.00560119054189
C        27.76986364660774    0.06028231908007    0.00556474721394
C        29.11165281904775    0.06767906469127    0.00457686052446
C        30.32995130751167    0.07020726470797    0.00342472553779
C        39.99906629534348    0.04671137897581   -0.02154022752757
C        41.21749939565220    0.04147666459539   -0.02238033601697
C        42.55881819030672    0.03576990582175   -0.02241844232094
C        43.77731153776803    0.02973544964958   -0.02138404381894
C        53.44646380197295   -0.01236434391211   -0.00769538172468
C        54.66468663919025   -0.01351455666582   -0.00505615915619
C        56.00669326852569   -0.01119376985062   -0.00290738653261
C        57.22480772023274   -0.00240804460277   -0.00200838236247
Zn       35.16476187342550    0.05926671619056   -0.01168136258396
C        32.66289068724470   -3.37379561729361    0.38850343246788
C        31.70087982998825   -2.42518635779418    0.28251548101838
C        32.37857341231140   -1.16890412568380    0.13746476930834
C        31.72780607855801    0.06832089643784   -0.00087590418742
C        32.38375741031165    1.30201398414910   -0.14457683259316
C        31.71177476101249    2.56124052600139   -0.28944781112853
C        32.67808703968944    3.50448175487954   -0.40443056893136
C        33.93592799014991    2.81848852633828   -0.32852121158371
N        33.72559197501262    1.48110186579759   -0.17084692794589
C        35.17234048151139    3.43673319994661   -0.40468114134503
C        36.40580638637943    2.81233829325279   -0.33437628417121
C        37.66669987229234    3.49203941772811   -0.41467851010558
C        38.62869069455856    2.54365227583787   -0.30613826252283
C        37.95097267875399    1.28759522258655   -0.16042819511770
N        36.61010521197443    1.47346942897772   -0.17997014976608
C        38.60159240128704    0.05061206816829   -0.01925484111071
C        37.94544455707774   -1.18323518566115    0.12428859685890
C        38.61757270909136   -2.44264904688976    0.26753551280029
C        37.65137803514509   -3.38639719031311    0.37901572941550
C        36.39352938141944   -2.70043073185884    0.30348799980833
N        36.60380371209760   -1.36255180174548    0.14859671759559
C        35.15721353770998   -3.31874210429132    0.37753559278612
C        33.92375654719280   -2.69396925317095    0.30823247569488
N        33.71953612383285   -1.35501621215536    0.15541525135674
H        32.54432721898741   -4.43328288795217    0.50958248286281
H        30.63506582053272   -2.54663389926946    0.29900593967128
H        30.64652311105924    2.68819461830755   -0.30024054907288
H        32.56417472679168    4.56403874876715   -0.52898450765417
H        35.17473032093531    4.51064765216713   -0.53061074268616
H        37.78541723833175    4.55135321967950   -0.53683068882451
H        39.69450897218992    2.66519008287475   -0.32107234423730
H        39.68279669487405   -2.56947795883965    0.27902241579041
H        37.76536964645736   -4.44627814944144    0.50102306038978
H        35.15459721378508   -4.39292600086690    0.50106782927191
Zn       48.61149811454874    0.00791288352595   -0.01591021911696
C        46.10148044911060   -3.42055958929528    0.37347055868921
C        45.14175426684044   -2.46953042237916    0.26809962538218
C        45.82243647878810   -1.21499455819399    0.12292695578047
C        45.17479027268627    0.02332384369568   -0.02022202768647
C        45.83387892427186    1.25576528140246   -0.16199496992699
C        45.16477121323617    2.51628697142206   -0.30925281442096
C        46.13321795455101    3.45863151244584   -0.41278901116300
C        47.38941253958707    2.77072288282219   -0.32842808657365
N        47.17595807814043    1.43290376133491   -0.17753912751458
C        48.62712109189521    3.38757688987269   -0.39013032879531
C        49.85912231323341    2.76076107148972   -0.31341573794064
C        51.12166127563441    3.43887321918132   -0.38228940591060
C        52.08141368455664    2.48812678148076   -0.27493377424230
C        51.40074505349292    1.23228010259194   -0.14060116330071
N        50.06016837511519    1.42081422948354   -0.16563322413400
C        52.04838287337069   -0.00728292192126   -0.01005629567775
C        51.38954248204475   -1.24110547214541    0.11759246817008
C        52.05860043788304   -2.50311073030297    0.25270761993793
C        51.09004497606553   -3.44532779121693    0.35633016348494
C        49.83381843895624   -2.75595437542468    0.28408039711745
N        50.04724394820996   -1.41774754330979    0.13801124279994
C        48.59601272410354   -3.37178110589855    0.35685589086714
C        47.36399757990822   -2.74389738196056    0.29236436002736
N        47.16285695628179   -1.40415464842679    0.14146873198276
H        45.98021894086487   -4.47972225958207    0.49462126345059
H        44.07567134244583   -2.58839019475735    0.28517046571988
H        44.09984486139587    2.64467447202629   -0.32869459101126
H        46.02178577597067    4.51877730162665   -0.53460057010085
H        48.63221872581051    4.46217448744167   -0.50993206901293
H        51.24285496853346    4.49868321305992   -0.49786865900611
H        53.14751726058062    2.60784007481816   -0.28516207481980
H        53.12357582710560   -2.63233174386215    0.26603536261416
H        51.20142108236348   -4.50626002935810    0.47135488756206
H        48.59118133317271   -4.44646753740698    0.47591895044671
