154
 energy: -266.301527881321 gnorm: 0.733825857422 xtb: 6.4.1 (bd6e46d)
Zn       20.26066600000000    0.03832100000000   -0.01103500000000
C        22.58965700000000   -3.10847200000000    1.31165400000000
C        23.50576400000000   -2.16426500000000    1.26137200000000
C        23.09458500000000   -1.11036100000000    0.34008000000000
C        23.71345500000000    0.01398600000000   -0.00633000000000
C        23.00941300000000    1.23393400000000   -0.37043500000000
C        23.33752400000000    2.19398900000000   -1.21790900000000
C        22.30274400000000    3.21027400000000   -1.23480700000000
C        21.36647600000000    2.83381200000000   -0.38791500000000
N        21.76846600000000    1.60080100000000    0.17590200000000
C        20.10540200000000    3.47881100000000   -0.00876300000000
C        19.01018400000000    2.84402900000000    0.34199700000000
C        17.93655900000000    3.16198500000000    1.31102500000000
C        17.09899600000000    2.16523100000000    1.23385900000000
C        17.53729300000000    1.16154800000000    0.25340700000000
N        18.64223200000000    1.60040100000000   -0.23088500000000
C        16.92645900000000   -0.09172300000000   -0.16014100000000
C        17.59061900000000   -1.19622900000000   -0.41456600000000
C        17.21677100000000   -2.25917100000000   -1.37209300000000
C        18.16551800000000   -3.15292700000000   -1.28307400000000
C        19.15124200000000   -2.71547700000000   -0.30019600000000
N        18.79819600000000   -1.56967200000000    0.19660100000000
C        20.38213000000000   -3.37154700000000    0.14552500000000
C        21.50517100000000   -2.72568600000000    0.41264600000000
N        21.83377100000000   -1.47824500000000   -0.18575800000000
H        22.64991900000000   -4.01825300000000    1.92920000000000
H        24.42209200000000   -2.20421400000000    1.83942000000000
H        24.26488900000000    2.21078400000000   -1.81905200000000
H        22.31964300000000    4.11496300000000   -1.84742800000000
H        20.05767900000000    4.57361400000000   -0.01254100000000
H        17.88373700000000    4.04071000000000    1.93601700000000
H        16.18736600000000    2.12956100000000    1.85118300000000
H        15.82820800000000   -0.08881200000000   -0.25941200000000
H        16.34791500000000   -2.31163600000000   -2.02104300000000
H        18.16267200000000   -4.06923500000000   -1.88183300000000
H        20.34664700000000   -4.46734900000000    0.25745000000000
Zn       63.49624800000000   -0.00905500000000   -0.01546800000000
C        61.16725700000000    2.83773700000000    1.86803700000000
C        60.25114900000001    1.91924800000000    1.64346300000000
C        60.66232900000000    1.05455100000000    0.54264900000000
C        60.04345800000000    0.01398600000000   -0.00633000000000
C        60.74750100000000   -1.11723900000000   -0.59043300000000
C        60.41939000000000   -1.90341100000000   -1.60130000000000
C        61.45417000000000   -2.89892000000000   -1.80644000000000
C        62.39043800000001   -2.68610400000000   -0.90441000000000
N        61.98844800000000   -1.57909200000000   -0.12163800000000
C        63.65151200000000   -3.39024500000000   -0.65149600000000
C        64.74673000000000   -2.83155200000000   -0.18906300000000
C        65.82035500000001   -3.32375800000000    0.70415900000000
C        66.65791800000000   -2.32999100000000    0.81324400000000
C        66.21962000000001   -1.16184200000000    0.03600900000000
N        65.11468200000000   -1.50323400000000   -0.52129000000000
C        66.83045500000000    0.14639300000000   -0.13786100000000
C        66.16629500000001    1.27892700000000   -0.18296700000000
C        66.54014300000000    2.50105300000000   -0.92668200000000
C        65.59139600000000    3.36278000000000   -0.67340300000000
C        64.60567200000000    2.75058500000000    0.21126000000000
N        64.95871800000000    1.53250600000000    0.48687000000000
C        63.37478400000000    3.31258000000000    0.77095400000000
C        62.25174300000000    2.62837500000000    0.91362200000000
N        61.92314300000001    1.51360000000000    0.09418700000000
H        61.10699500000000    3.61716100000000    2.64364100000000
H        59.33482200000000    1.85126700000000    2.21888900000000
H        59.49202500000000   -1.80839400000000   -2.19512400000000
H        61.43727100000000   -3.67425500000000   -2.57626000000000
H        63.69923500000000   -4.46534300000000   -0.85831000000000
H        65.87317700000000   -4.30317400000000    1.15528600000000
H        67.56954800000000   -2.40946300000000    1.42647000000000
H        67.92870600000001    0.16194900000000   -0.23594800000000
H        67.40899899999999    2.67299600000000   -1.55463500000000
H        65.59424199999999    4.37426100000000   -1.09178100000000
H        63.41026700000000    4.36859600000000    1.08422300000000
C        26.60815900000000    0.01195000000000   -0.00744200000000
C        27.81613600000000    0.01940500000000   -0.00574700000000
C        29.23490400000000    0.02010200000000   -0.00061000000000
C        30.45042000000000    0.01195000000000   -0.00744200000000
C        39.95831000000000    0.01195000000000   -0.00744200000000
C        41.16628700000000    0.01940500000000   -0.00574700000000
C        42.58505400000001    0.02010200000000   -0.00061000000000
C        43.80057100000000    0.01195000000000   -0.00744200000000
C        53.30846000000000    0.01195000000000   -0.00744200000000
C        54.51643700000001    0.01940500000000   -0.00574700000000
C        55.93520500000000    0.02010200000000   -0.00061000000000
C        57.15072100000000    0.01195000000000   -0.00744200000000
Zn       35.23900200000000    0.03208600000000    0.00469700000000
C        32.95919100000000   -3.22936200000000   -0.90496900000000
C        32.00298200000000   -2.33001100000000   -1.00699500000000
C        32.39535600000000   -1.16770600000000   -0.20448000000000
C        31.76023900000000   -0.01643400000000    0.00778700000000
C        32.44569600000000    1.25816600000000    0.23401600000000
C        32.11040600000000    2.33676600000000    0.93825600000000
C        33.13494700000000    3.35608200000000    0.84767500000000
C        34.08554500000000    2.85915800000000    0.07431000000000
N        33.70855100000000    1.54255300000000   -0.34183300000000
C        35.33268400000000    3.47085900000000   -0.34255600000000
C        36.43423600000000    2.80360200000000   -0.67432700000000
C        37.42778200000000    3.05558700000000   -1.70849700000000
C        38.32166600000000    2.09472800000000   -1.60701300000000
C        37.94196700000001    1.18284400000000   -0.50303600000000
N        36.84705200000000    1.63216300000000    0.00433100000000
C        38.59917400000000   -0.01643400000000    0.00778700000000
C        37.97576300000001   -1.08561600000000    0.46930300000000
C        38.35447600000000   -2.01773100000000    1.54477900000000
C        37.41380700000001   -2.93187700000000    1.63064500000000
C        36.40550600000001   -2.63609800000000    0.63321800000000
N        36.74328000000000   -1.58272100000000   -0.01607700000000
C        35.15311200000001   -3.34310600000000    0.30202500000000
C        34.03923600000001   -2.74640900000000   -0.04531700000000
N        33.65712400000000   -1.46365200000000    0.37236600000000
H        32.95953600000000   -4.22043500000000   -1.39620400000000
H        31.09444700000000   -2.45170500000000   -1.58814400000000
H        31.18555400000000    2.45511700000000    1.51518200000000
H        33.16224200000000    4.34524700000000    1.30432500000000
H        35.41862400000000    4.56823700000000   -0.40457800000000
H        37.46045500000000    3.86180300000000   -2.43532100000000
H        39.21472700000000    1.98175900000000   -2.24078700000000
H        39.26922600000000   -1.94332500000000    2.15494900000000
H        37.43285300000000   -3.74548500000000    2.33891200000000
H        35.19159700000000   -4.44306500000000    0.36106100000000
Zn       48.58915200000000    0.03208600000000    0.00469700000000
C        46.30934100000001   -3.22936200000000   -0.90496900000000
C        45.35313200000000   -2.33001100000000   -1.00699500000000
C        45.74550600000000   -1.16770600000000   -0.20448000000000
C        45.11039000000000   -0.01643400000000    0.00778700000000
C        45.79584700000000    1.25816600000000    0.23401600000000
C        45.46055700000000    2.33676600000000    0.93825600000000
C        46.48509800000001    3.35608200000000    0.84767500000000
C        47.43569500000000    2.85915800000000    0.07431000000000
N        47.05870100000000    1.54255300000000   -0.34183300000000
C        48.68283500000000    3.47085900000000   -0.34255600000000
C        49.78438600000000    2.80360200000000   -0.67432700000000
C        50.77793300000000    3.05558700000000   -1.70849700000000
C        51.67181600000000    2.09472800000000   -1.60701300000000
C        51.29211800000000    1.18284400000000   -0.50303600000000
N        50.19720300000000    1.63216300000000    0.00433100000000
C        51.94932500000001   -0.01643400000000    0.00778700000000
C        51.32591300000001   -1.08561600000000    0.46930300000000
C        51.70462600000000   -2.01773100000000    1.54477900000000
C        50.76395700000000   -2.93187700000000    1.63064500000000
C        49.75565600000000   -2.63609800000000    0.63321800000000
N        50.09343100000000   -1.58272100000000   -0.01607700000000
C        48.50326300000000   -3.34310600000000    0.30202500000000
C        47.38938600000001   -2.74640900000000   -0.04531700000000
N        47.00727400000000   -1.46365200000000    0.37236600000000
H        46.30968600000000   -4.22043500000000   -1.39620400000000
H        44.44459800000001   -2.45170500000000   -1.58814400000000
H        44.53570400000001    2.45511700000000    1.51518200000000
H        46.51239300000001    4.34524700000000    1.30432500000000
H        48.76877500000000    4.56823700000000   -0.40457800000000
H        50.81060500000000    3.86180300000000   -2.43532100000000
H        52.56487700000000    1.98175900000000   -2.24078700000000
H        52.61937600000000   -1.94332500000000    2.15494900000000
H        50.78300400000000   -3.74548500000000    2.33891200000000
H        48.54174700000000   -4.44306500000000    0.36106100000000
154
 energy: -266.547639338849 gnorm: 0.398877597952 xtb: 6.4.1 (bd6e46d)
Zn       20.27485936431298    0.03783428667525   -0.00948768258939
C        22.59083606902050   -3.11811516701026    1.30106203557359
C        23.52260624989473   -2.16390950480141    1.25625736096955
C        23.08936680319125   -1.11190047492069    0.34910003953912
C        23.68940353163498    0.03560066975447   -0.00875679360004
C        22.99460456062264    1.23120576813816   -0.36321256238898
C        23.35062279244514    2.22299401210328   -1.23568979264076
C        22.33407595064728    3.21299644356919   -1.24822790941259
C        21.36066144478999    2.80927913853526   -0.38221028631782
N        21.74430776890108    1.58130534585514    0.17800859883854
C        20.12613613224245    3.47545358305669   -0.00914729987500
C        18.99994356259842    2.82667597815361    0.34311152244917
C        17.93663909809581    3.17010062980593    1.29113514503528
C        17.07032427223151    2.15758394026419    1.23589287016954
C        17.53017450808342    1.16186562173407    0.27221356840206
N        18.67749311074475    1.57702592042493   -0.20863910075121
C        16.91420347613760   -0.06785538019547   -0.15241117610740
C        17.59400764050037   -1.19947158355363   -0.42095179210397
C        17.20803013646059   -2.25959370705417   -1.35596828188517
C        18.17270112838123   -3.17733874538410   -1.27779867982630
C        19.16184491360132   -2.72638042845959   -0.31041270253016
N        18.80922132728627   -1.54454275139608    0.16587235871543
C        20.36259453290969   -3.37741389964498    0.13691117319063
C        21.51144409401208   -2.71078374723602    0.41558334335158
N        21.82794957457323   -1.47594121813642   -0.15408527036546
H        22.64003016604003   -4.01258659698863    1.91932068259541
H        24.42837058044056   -2.19306804595895    1.83594442554531
H        24.26282763047424    2.22112381763460   -1.82110688710737
H        22.32813139752591    4.11157791362699   -1.84859494176298
H        20.07698160084302    4.56741057885109   -0.00468559292080
H        17.89234479354611    4.03882304129010    1.92774580411695
H        16.18107015779566    2.11870587610705    1.84991624624370
H        15.82982458961099   -0.07828165503643   -0.26532230714321
H        16.35003511360292   -2.30050536663717   -2.01158495493307
H        18.17568574538149   -4.07495956805426   -1.87735952252323
H        20.34022099921879   -4.46204476006897    0.25798493661956
Zn       63.48206185808543   -0.00884959646803   -0.01387133513511
C        61.16609082478926    2.84917847512700    1.85941624904179
C        60.23434641680890    1.91983254709712    1.63836817192195
C        60.66762256293811    1.05436012672481    0.55183175255573
C        60.06758670847601   -0.00688472541487   -0.01253142067686
C        60.76237247631391   -1.11588376971849   -0.58282932713781
C        60.40631008245100   -1.92859987917770   -1.62412125421688
C        61.42285089743569   -2.89911121648120   -1.82012278642582
C        62.39626647541228   -2.66308276040927   -0.89425735681529
N        62.01262905735195   -1.56034402673923   -0.11596825799017
C        63.63077525959684   -3.38689467186024   -0.65125372526850
C        64.75697056838563   -2.81470458509020   -0.18473882770280
C        65.82026513380760   -3.32803602278587    0.68310910730072
C        66.68659312139633   -2.32284370845033    0.81665394398226
C        66.22674880450354   -1.16564197067596    0.05443204416584
N        65.07941481027601   -1.48440402454565   -0.49509570580712
C        66.84271237556003    0.12150168203870   -0.13468798747425
C        66.16290559019613    1.28329877142226   -0.18864284729105
C        66.54887975370065    2.49846969543135   -0.91075989653741
C        65.58420774948642    3.38578888585282   -0.66368836741389
C        64.59506756576269    2.76319870386508    0.20323951939712
N        64.94769499513653    1.51351558918789    0.45201648587817
C        63.39432225725143    3.31996209954789    0.76357827868716
C        62.24547339287045    2.61320759961526    0.91372448539591
N        61.92899669716293    1.50548556875837    0.12488456159245
H        61.11688245849493    3.61343117785697    2.63288187294360
H        59.32855623488711    1.84096722399516    2.21339955651403
H        59.49410049997513   -1.81814838479699   -2.19905180756451
H        61.42878961658118   -3.67071654263641   -2.57678573942291
H        63.67994376727180   -4.46071703052998   -0.84946004453151
H        65.86456942364583   -4.29978565288652    1.14750559869260
H        67.57584671516902   -2.39855983674968    1.42723606016733
H        67.92709098844678    0.15269770028555   -0.24370506178641
H        67.40687830634543    2.66030248195708   -1.54740383635750
H        65.58122695842665    4.37905751356490   -1.08632001035833
H        63.41669828738588    4.36329360644880    1.08377899458745
C        26.59503697731325    0.01243873063726   -0.00497791385500
C        27.81760245429707    0.01969196945442   -0.00627870414218
C        29.20229902461652    0.02142637907784   -0.00107243153364
C        30.42240580054364    0.02234384435259   -0.01069279595763
C        39.97585644694558    0.02078776274952   -0.00426941309728
C        41.19282817686268    0.02063547573200   -0.00379112735207
C        42.55769265874213    0.02119624423534   -0.00130625956538
C        43.77615731520971    0.02197249740138   -0.01203969842339
C        53.33060594650222    0.02160615251377   -0.00311001054535
C        54.54888627378643    0.02038044895123   -0.00442714789642
C        55.93593581582949    0.01914710783122   -0.00084315057006
C        57.15877268426775    0.01109287929644   -0.00642559975543
Zn       35.22773356043987    0.03548627979491    0.00324816883767
C        32.96048053449677   -3.24933711623880   -0.89626025694931
C        31.99635363531733   -2.32958126359149   -0.99561350201003
C        32.42425322765680   -1.18290389797508   -0.20951718672804
C        31.77833384281384    0.00443034664050    0.00553380865401
C        32.47874661206265    1.26348079328665    0.23261237044413
C        32.10125230958398    2.36395887951458    0.94987435021514
C        33.10954286186058    3.35819376497374    0.85437445071576
C        34.09657247128344    2.83807864659127    0.07104001731978
N        33.73521476495212    1.52975760133596   -0.32820578866863
C        35.31700987809170    3.46883131295177   -0.34427794527176
C        36.44293149943787    2.79052264108087   -0.67563908148223
C        37.43605030540032    3.06389839558046   -1.69280197643352
C        38.34454155062045    2.08213052490633   -1.60456961065183
C        37.94286454406509    1.18224809156346   -0.52169419968442
N        36.81125164411363    1.61108680868344   -0.01719614155870
C        38.60343397074219    0.00187962304693   -0.00248072505529
C        37.95833174718200   -1.09906122816923    0.47845257655637
C        38.36653588842604   -2.01681902198876    1.53244731342319
C        37.40947695173864   -2.95108561995470    1.62767527329451
C        36.39385559297429   -2.64414780066443    0.64445593944722
N        36.72687372579652   -1.54544023051009   -0.00013973681115
C        35.17493894861057   -3.34981313832599    0.31286355917729
C        34.02712434893885   -2.73440613574629   -0.05385826020797
N        33.67242902363530   -1.45307069469277    0.33692159357444
H        32.96557711999056   -4.21753232358563   -1.39142784202192
H        31.09526269329429   -2.43928673324952   -1.58181054739555
H        31.18459184975208    2.46016782209158    1.51591300218393
H        33.14914996968863    4.33894651646407    1.30663545040978
H        35.39777959588066    4.56038358954643   -0.41147108627139
H        37.45206040638561    3.85992543035735   -2.42502369062359
H        39.21646832414632    1.97339303761977   -2.23684789445580
H        39.26301326762902   -1.93682226951106    2.14447341103549
H        37.42378813699948   -3.75324890371909    2.33898428550649
H        35.19943983424530   -4.43965098350556    0.35824936595777
Zn       48.57742380677281    0.03535110264488    0.00329509609521
C        46.30961128816891   -3.25003777044915   -0.89562830707721
C        45.34683287614625   -2.33039090571831   -0.99548409138580
C        45.77499869019778   -1.18305591204601   -0.20764116270476
C        45.12984598259802    0.00397268358372    0.00534705475181
C        45.82945312940776    1.26425104843889    0.23191266100482
C        45.45187779677667    2.36394952118344    0.95001219153147
C        46.45966365649875    3.35866495970261    0.85402314422408
C        47.44698740242158    2.83855984647102    0.07096228458223
N        47.08493393170204    1.52983739638401   -0.32839106264318
C        48.66702869677347    3.46875977554058   -0.34367954011978
C        49.79350272802186    2.79039285789423   -0.67538122771124
C        50.78600469861417    3.06372298149824   -1.69286780710973
C        51.69467208596906    2.08185674509200   -1.60491016746419
C        51.29274731805481    1.18109372725293   -0.52326346504207
N        50.16186412785255    1.61077169483974   -0.01736222495296
C        51.95495205894917    0.00113460629365   -0.00201307004831
C        51.30966431463435   -1.09813230662174    0.47896787893363
C        51.71761995397998   -2.01706973127214    1.53204474340662
C        50.75932311425306   -2.94982797533999    1.62856076533165
C        49.74466789361624   -2.64281307959133    0.64479358823565
N        50.07650609530496   -1.54597149564869    0.00022682088141
C        48.52399153390031   -3.35000412800014    0.31147667677273
C        47.37809224593143   -2.73509946930703   -0.05338317065177
N        47.02275078424041   -1.45230230977079    0.33705085333330
H        46.31553740484888   -4.21769815866866   -1.39158874319490
H        44.44565526335511   -2.43938828168618   -1.58199478615195
H        44.53482461294355    2.46018640284919    1.51584903217576
H        46.49930553502555    4.33914131422108    1.30666469893461
H        48.74792623565013    4.56035545244854   -0.41127912195997
H        50.80217746906840    3.85990792350113   -2.42496174922070
H        52.56670227786204    1.97339728802107   -2.23684223991551
H        52.61353505389791   -1.93697870876823    2.14442115360649
H        50.77390766908023   -3.75295528431641    2.33897355659997
H        48.54965654473101   -4.43975505589382    0.35673986369417
154
 energy: -266.688560056171 gnorm: 0.154258961547 xtb: 6.4.1 (bd6e46d)
Zn       20.28331293962514    0.03769503092168   -0.00700172379573
C        22.59046887496871   -3.12387176680725    1.28766603234098
C        23.53700532138454   -2.16283195251143    1.24987783277838
C        23.07960864559433   -1.11297380182777    0.36237985153299
C        23.65041092184556    0.06197267924233   -0.01244665687664
C        22.97761883700066    1.22553860297588   -0.35947515113238
C        23.35876600420191    2.25364701757717   -1.24578210251650
C        22.36862858948913    3.21165179936080   -1.24982251509082
C        21.35517558482390    2.78187994508075   -0.37302710633753
N        21.71841901513980    1.56105836233626    0.16296928548938
C        20.15037623234183    3.46373936405345   -0.00929016064942
C        18.99866800679837    2.79928063656494    0.35113994354302
C        17.94228130274885    3.17078006501333    1.26492518041988
C        17.04521715868515    2.15407527225372    1.22772580957213
C        17.52444397822264    1.16031674284228    0.29361538700069
N        18.71993103469970    1.54892367110951   -0.17342085377017
C        16.90867189710803   -0.04488815628818   -0.14320008250259
C        17.60391749886785   -1.19626948860643   -0.43579670496594
C        17.20516891838713   -2.25754611820707   -1.33568027263521
C        18.17562672447855   -3.19795087208083   -1.26428590945398
C        19.17299491870288   -2.73381511092594   -0.32182615814142
N        18.82438749092793   -1.50842610812749    0.12246384508262
C        20.34429209067441   -3.37623517096951    0.12714677901459
C        21.51396328011879   -2.68941011448247    0.42187063453893
N        21.81777718428016   -1.47184712405365   -0.11511957298420
H        22.62904294064119   -4.00745267878302    1.90422690881291
H        24.43745148816131   -2.18028114353307    1.82849847772863
H        24.26106636497179    2.23025728241695   -1.82039223304848
H        22.33337801095902    4.10640413768737   -1.84419761191778
H        20.09788404956775    4.55276703645592   -0.00318796004478
H        17.90140709059196    4.03323069658388    1.91151968379182
H        16.17333316523214    2.10748173015523    1.84337832696364
H        15.83385384139160   -0.07103348752435   -0.26445705772184
H        16.35394302556553   -2.28914824783556   -1.99611041112862
H        18.18886208431114   -4.08222277057666   -1.86737249054863
H        20.33905914176833   -4.45327847332551    0.25236111689062
Zn       63.47361435359512   -0.00916982633668   -0.01141815319821
C        61.16646879190865    2.85731876818540    1.84730878696932
C        60.21993770056905    1.91996869824437    1.63187617658305
C        60.67729871121728    1.05296263400820    0.56503463275586
C        60.10630271659160   -0.03215122062095   -0.02100485840136
C        60.77932612060435   -1.11102561729786   -0.57810015861905
C        60.39816110225732   -1.95686218597849   -1.63971125781409
C        61.38831452829471   -2.89749868176491   -1.82144458532633
C        62.40176222578969   -2.63787046271002   -0.88015938019916
N        62.03851994205827   -1.53760489776371   -0.12702984626278
C        63.60653257881592   -3.37536234395907   -0.64921774052777
C        64.75824665152028   -2.78927438589317   -0.17176869371011
C        65.81462055077034   -3.32383821352902    0.65722442705872
C        66.71169570352941   -2.31787488422245    0.80927471882057
C        66.23247640861446   -1.16809177196424    0.07574158472800
N        65.03697840846584   -1.46332672632088   -0.45528092958497
C        66.84824024252872    0.09722564839034   -0.12991328619157
C        66.15299313836398    1.28290515647451   -0.20384289588874
C        66.55173849872264    2.49269350570843   -0.89122677018218
C        65.58128695504310    3.40353794791337   -0.64660567536528
C        64.58391688081829    2.77262397079729    0.19338646243587
N        64.93252961234748    1.48607605551616    0.40264209365316
C        63.41262687358580    3.32061190590527    0.75373229190163
C        62.24294889012639    2.59101812195953    0.91592258261821
N        61.93914995475108    1.49418868440687    0.16244009644264
H        61.12786964734871    3.61119612847661    2.61706756255942
H        59.31947738572366    1.82982085131402    2.20370923369515
H        59.49587302662631   -1.82727235219591   -2.20005685934776
H        61.42354357965540   -3.66645374899635   -2.57150231909936
H        63.65904542208739   -4.44661204646591   -0.84527061582591
H        65.85550838953483   -4.29127385738896    1.13260166335616
H        67.58358205305279   -2.38631210876411    1.42288595176861
H        67.92305943300948    0.14541706391168   -0.24421510660638
H        67.40296622090990    2.64626826165897   -1.53433107789560
H        65.56804847862958    4.38433786892881   -1.07518860861070
H        63.41785185337471    4.35572850563149    1.07657737382847
C        26.58786480562786    0.01392028151958   -0.00384147532473
C        27.82014430607666    0.01993109775115   -0.00680198654137
C        29.17626843954347    0.02138297500901   -0.00028880180143
C        30.40476016558808    0.03317541887771   -0.01142397699486
C        39.98824612685854    0.02294837468332   -0.00517638983330
C        41.21463684358179    0.01890919685317   -0.00255519629178
C        42.53990226368249    0.02173663000245   -0.00067113151881
C        43.76689791246780    0.03362827708462   -0.01351852812824
C        53.35130267191828    0.02444269908689   -0.00324514565915
C        54.57783891971260    0.01968093014066   -0.00214549968464
C        55.93571936409634    0.01841263500578   -0.00178484729893
C        57.16652126363898    0.01004236987885   -0.00566824127393
Zn       35.22257210386108    0.03868071286451    0.00082861775547
C        32.96604031435008   -3.26483245229803   -0.88458784789566
C        31.99407928604998   -2.32413399663590   -0.98113154556009
C        32.45136958586147   -1.19023019083741   -0.21804466472308
C        31.79145683902371    0.02983545865362    0.00412007947294
C        32.51239916631503    1.26455249272519    0.22919630072731
C        32.09422656678707    2.39179358140165    0.95331345976627
C        33.08181133490977    3.35503394127306    0.85270521726770
C        34.10826154495929    2.81325497782798    0.06707613079163
N        33.76384176588157    1.51271654008274   -0.29366040407510
C        35.29747351072604    3.46044374840907   -0.34644590932078
C        36.44468225034969    2.76758434042503   -0.68306720991150
C        37.44124604279662    3.06637378387329   -1.67258477000458
C        38.36477966341247    2.07064936918547   -1.59221412019650
C        37.94422199832584    1.17804198985812   -0.54137398631318
N        36.76840670135730    1.58373845725296   -0.04930117161007
C        38.60806092615143    0.01934368375482   -0.01368711155357
C        37.93720458172519   -1.10475642708205    0.49150115029470
C        38.37131945604865   -2.01189530648293    1.51535081290414
C        37.40649193973076   -2.96804315436442    1.61419873302320
C        36.38046553495428   -2.64918484447539    0.65633985717666
N        36.70877991043717   -1.49578493470093    0.02876281396837
C        35.19622572856758   -3.34779513398704    0.32410803182704
C        34.02220430063308   -2.71940117436514   -0.06896337138149
N        33.68879450694978   -1.43978640795398    0.28935615903089
H        32.97210292255950   -4.21616249108902   -1.38122076327733
H        31.09693811729021   -2.42405561914944   -1.56879100200236
H        31.18329620526448    2.46277853535162    1.51330583714334
H        33.13626369056219    4.32984474000546    1.30473480343374
H        35.37355172846041    4.54636211828036   -0.41288405594452
H        37.44318616392157    3.85723944267947   -2.40690130033540
H        39.21976302420311    1.96477511350034   -2.22791506619750
H        39.25480958482945   -1.93134931934576    2.12824369793313
H        37.41369091986896   -3.76190531999041    2.33241188869095
H        35.20227577091585   -4.43119631677986    0.36183935830717
Zn       48.57245272964986    0.03845387011153    0.00081583776375
C        46.31406073739201   -3.26663364781347   -0.88309634745553
C        45.34502294203312   -2.32589440902396   -0.98054701936213
C        45.80452795618000   -1.19121468007041   -0.21368658865867
C        45.14786990431186    0.02921963427969    0.00373512654097
C        45.86524155934856    1.26666541835933    0.22692035185019
C        45.44571960150343    2.39216001268014    0.95330409198039
C        46.43176935788262    3.35637023266674    0.85164906413416
C        47.45953627142507    2.81505470897941    0.06654472193131
N        47.11399726603069    1.51308276371287   -0.29428110036188
C        48.64738441133449    3.46020760600663   -0.34465794196293
C        49.79605726285432    2.76658128589626   -0.68272455757301
C        50.79056676676492    3.06537205527536   -1.67293764376083
C        51.71511363291562    2.06956626291747   -1.59312595650529
C        51.29542503276177    1.17534453491923   -0.54504308526481
N        50.12024978837009    1.58292513119591   -0.04974596667311
C        51.96401251281755    0.01805441927636   -0.01302803484887