185
 energy: -334.627011279450 gnorm: 0.797529867005 xtb: 6.4.1 (bd6e46d)
Cu       32.94370100000000    0.04460800000000   -0.01411300000000
C        35.27269200000000   -3.10218500000000    1.30857600000000
C        36.18879900000000   -2.15797800000000    1.25829400000000
C        35.77762000000000   -1.10407400000000    0.33700200000000
C        36.39649000000000    0.02027200000000   -0.00940800000000
C        35.69244800000000    1.24022000000000   -0.37351300000000
C        36.02055900000001    2.20027500000000   -1.22098700000000
C        34.98577900000000    3.21656100000000   -1.23788400000000
C        34.04951100000000    2.84009900000000   -0.39099300000000
N        34.45150100000000    1.60708800000000    0.17282400000000
C        32.78843700000000    3.48509800000000   -0.01184100000000
C        31.69321900000000    2.85031600000000    0.33891900000000
C        30.61959400000000    3.16827200000000    1.30794700000000
C        29.78203100000000    2.17151800000000    1.23078100000000
C        30.22032800000000    1.16783500000000    0.25032900000000
N        31.32526700000000    1.60668800000000   -0.23396300000000
C        29.60949400000000   -0.08543600000000   -0.16321900000000
C        30.27365400000000   -1.18994300000000   -0.41764300000000
C        29.89980600000000   -2.25288400000000   -1.37517100000000
C        30.84855300000000   -3.14664000000000   -1.28615100000000
C        31.83427700000000   -2.70919000000000   -0.30327400000000
N        31.48123100000000   -1.56338500000000    0.19352300000000
C        33.06516400000000   -3.36526100000000    0.14244700000000
C        34.18820600000000   -2.71939900000000    0.40956800000000
N        34.51680600000000   -1.47195800000000   -0.18883500000000
H        35.33295400000000   -4.01196600000000    1.92612300000000
H        37.10512700000000   -2.19792700000000    1.83634200000000
H        36.94792400000000    2.21707100000000   -1.82213000000000
H        35.00267800000000    4.12124900000000   -1.85050600000000
H        32.74071400000000    4.57990100000000   -0.01561800000000
H        30.56677200000000    4.04699700000000    1.93294000000000
H        28.87040100000000    2.13584800000000    1.84810500000000
H        28.51124300000000   -0.08252600000000   -0.26249000000000
H        29.03095000000000   -2.30534900000000   -2.02412100000000
H        30.84570700000000   -4.06294800000000   -1.88491100000000
H        33.02968200000000   -4.46106200000000    0.25437200000000
Cu       78.73524700000000   -0.00276800000000   -0.01854600000000
C        76.40625600000000    2.84402400000000    1.86495900000000
C        75.49014900000000    1.92553400000000    1.64038600000000
C        75.90132800000001    1.06083700000000    0.53957100000000
C        75.28245800000001    0.02027200000000   -0.00940800000000
C        75.98650000000001   -1.11095300000000   -0.59351100000000
C        75.65838900000000   -1.89712400000000   -1.60437700000000
C        76.69316900000000   -2.89263400000000   -1.80951800000000
C        77.62943700000000   -2.67981700000000   -0.90748700000000
N        77.22744700000001   -1.57280500000000   -0.12471600000000
C        78.89051200000000   -3.38395800000000   -0.65457400000000
C        79.98572900000001   -2.82526600000000   -0.19214100000000
C        81.05935400000000   -3.31747100000000    0.70108100000000
C        81.89691700000000   -2.32370400000000    0.81016600000000
C        81.45862000000000   -1.15555500000000    0.03293100000000
N        80.35368200000001   -1.49694700000000   -0.52436800000000
C        82.06945399999999    0.15268000000000   -0.14093900000000
C        81.40529400000000    1.28521300000000   -0.18604500000000
C        81.77914300000002    2.50733900000000   -0.92976000000000
C        80.83039500000001    3.36906600000000   -0.67648100000000
C        79.84467200000000    2.75687200000000    0.20818200000000
N        80.19771700000000    1.53879300000000    0.48379200000000
C        78.61378400000001    3.31886600000000    0.76787700000000
C        77.49074200000000    2.63466200000000    0.91054400000000
N        77.16214200000000    1.51988700000000    0.09111000000000
H        76.34599400000000    3.62344800000000    2.64056300000000
H        74.57382100000000    1.85755400000000    2.21581100000000
H        74.73102400000002   -1.80210700000000   -2.19820200000000
H        76.67627000000000   -3.66796800000000   -2.57933800000000
H        78.93823400000001   -4.45905600000000   -0.86138800000000
H        81.11217600000002   -4.29688800000000    1.15220800000000
H        82.80854800000000   -2.40317600000000    1.42339200000000
H        83.16770500000000    0.16823600000000   -0.23902600000000
H        82.64799800000000    2.67928300000000   -1.55771200000000
H        80.83324100000000    4.38054800000000   -1.09485900000000
H        78.64926600000001    4.37488300000000    1.08114600000000
C        39.01093900000000    0.02027200000000   -0.00940800000000
C        40.22714400000000    0.02027200000000   -0.00940800000000
C        49.82456000000000    0.02027200000000   -0.00940800000000
C        51.04076600000000    0.02027200000000   -0.00940800000000
C        60.63818200000000    0.02027200000000   -0.00940800000000
C        61.85438800000001    0.02027200000000   -0.00940800000000
C        71.45180400000001    0.02027200000000   -0.00940800000000
C        72.66801000000000    0.02027200000000   -0.00940800000000
Cu       45.05734800000000    0.03307400000000    0.00407800000000
C        42.77753700000000   -3.22837400000000   -0.90558800000000
C        41.82132800000001   -2.32902300000000   -1.00761400000000
C        42.21370200000000   -1.16671800000000   -0.20509800000000
C        41.57858600000000   -0.01544600000000    0.00716800000000
C        42.26404300000001    1.25915400000000    0.23339700000000
C        41.92875300000000    2.33775400000000    0.93763700000000
C        42.95329400000000    3.35707100000000    0.84705600000000
C        43.90389100000000    2.86014600000000    0.07369100000000
N        43.52689700000000    1.54354100000000   -0.34245200000000
C        45.15103100000001    3.47184700000000   -0.34317400000000
C        46.25258200000000    2.80459000000000   -0.67494600000000
C        47.24612900000000    3.05657500000000   -1.70911600000000
C        48.14001200000001    2.09571600000000   -1.60763200000000
C        47.76031400000000    1.18383200000000   -0.50365500000000
N        46.66539900000000    1.63315100000000    0.00371200000000
C        48.41752100000000   -0.01544600000000    0.00716800000000
C        47.79410900000000   -1.08462800000000    0.46868500000000
C        48.17282200000000   -2.01674300000000    1.54416000000000
C        47.23215300000000   -2.93088900000000    1.63002600000000
C        46.22385200000000   -2.63511000000000    0.63259900000000
N        46.56162700000001   -1.58173300000000   -0.01669600000000
C        44.97145900000000   -3.34211800000000    0.30140600000000
C        43.85758200000000   -2.74542100000000   -0.04593600000000
N        43.47547000000000   -1.46266400000000    0.37174700000000
H        42.77788200000000   -4.21944700000000   -1.39682200000000
H        40.91279400000000   -2.45071700000000   -1.58876200000000
H        41.00390100000000    2.45610500000000    1.51456300000000
H        42.98058900000000    4.34623500000000    1.30370600000000
H        45.23697100000000    4.56922500000000   -0.40519700000000
H        47.27880100000000    3.86279100000000   -2.43594000000000
H        49.03307400000000    1.98274700000000   -2.24140600000000
H        49.08757200000000   -1.94233700000000    2.15433000000000
H        47.25120000000000   -3.74449700000000    2.33829300000000
H        45.00994300000000   -4.44207700000000    0.36044200000000
Cu       55.87097000000000    0.03307400000000    0.00407800000000
C        53.59115900000000   -3.22837400000000   -0.90558800000000
C        52.63495000000000   -2.32902300000000   -1.00761400000000
C        53.02732400000001   -1.16671800000000   -0.20509800000000
C        52.39220800000000   -0.01544600000000    0.00716800000000
C        53.07766500000001    1.25915400000000    0.23339700000000
C        52.74237400000000    2.33775400000000    0.93763700000000
C        53.76691600000000    3.35707100000000    0.84705600000000
C        54.71751300000000    2.86014600000000    0.07369100000000
N        54.34051900000000    1.54354100000000   -0.34245200000000
C        55.96465300000000    3.47184700000000   -0.34317400000000
C        57.06620400000000    2.80459000000000   -0.67494600000000
C        58.05975100000000    3.05657500000000   -1.70911600000000
C        58.95363400000001    2.09571600000000   -1.60763200000000
C        58.57393600000001    1.18383200000000   -0.50365500000000
N        57.47902100000000    1.63315100000000    0.00371200000000
C        59.23114300000000   -0.01544600000000    0.00716800000000
C        58.60773100000000   -1.08462800000000    0.46868500000000
C        58.98644400000001   -2.01674300000000    1.54416000000000
C        58.04577500000000   -2.93088900000000    1.63002600000000
C        57.03747400000000   -2.63511000000000    0.63259900000000
N        57.37524900000000   -1.58173300000000   -0.01669600000000
C        55.78508100000001   -3.34211800000000    0.30140600000000
C        54.67120400000000   -2.74542100000000   -0.04593600000000
N        54.28909200000000   -1.46266400000000    0.37174700000000
H        53.59150400000000   -4.21944700000000   -1.39682200000000
H        51.72641600000000   -2.45071700000000   -1.58876200000000
H        51.81752200000000    2.45610500000000    1.51456300000000
H        53.79421100000000    4.34623500000000    1.30370600000000
H        56.05059300000001    4.56922500000000   -0.40519700000000
H        58.09242300000000    3.86279100000000   -2.43594000000000
H        59.84669500000000    1.98274700000000   -2.24140600000000
H        59.90119400000000   -1.94233700000000    2.15433000000000
H        58.06482200000000   -3.74449700000000    2.33829300000000
H        55.82356500000000   -4.44207700000000    0.36044200000000
Cu       66.68459199999999    0.03307400000000    0.00407800000000
C        64.40478100000000   -3.22837400000000   -0.90558800000000
C        63.44857200000000   -2.32902300000000   -1.00761400000000
C        63.84094600000000   -1.16671800000000   -0.20509800000000
C        63.20583000000000   -0.01544600000000    0.00716800000000
C        63.89128700000000    1.25915400000000    0.23339700000000
C        63.55599600000000    2.33775400000000    0.93763700000000
C        64.58053800000000    3.35707100000000    0.84705600000000
C        65.53113500000001    2.86014600000000    0.07369100000000
N        65.15414100000000    1.54354100000000   -0.34245200000000
C        66.77827499999999    3.47184700000000   -0.34317400000000
C        67.87982599999999    2.80459000000000   -0.67494600000000
C        68.87337300000000    3.05657500000000   -1.70911600000000
C        69.76725600000000    2.09571600000000   -1.60763200000000
C        69.38755800000000    1.18383200000000   -0.50365500000000
N        68.29264200000000    1.63315100000000    0.00371200000000
C        70.04476500000001   -0.01544600000000    0.00716800000000
C        69.42135300000000   -1.08462800000000    0.46868500000000
C        69.80006600000000   -2.01674300000000    1.54416000000000
C        68.85939700000000   -2.93088900000000    1.63002600000000
C        67.85109600000000   -2.63511000000000    0.63259900000000
N        68.18887100000002   -1.58173300000000   -0.01669600000000
C        66.59870300000000   -3.34211800000000    0.30140600000000
C        65.48482600000000   -2.74542100000000   -0.04593600000000
N        65.10271400000001   -1.46266400000000    0.37174700000000
H        64.40512600000000   -4.21944700000000   -1.39682200000000
H        62.54003800000000   -2.45071700000000   -1.58876200000000
H        62.63114400000000    2.45610500000000    1.51456300000000
H        64.60783200000000    4.34623500000000    1.30370600000000
H        66.86421400000000    4.56922500000000   -0.40519700000000
H        68.90604500000001    3.86279100000000   -2.43594000000000
H        70.66031700000001    1.98274700000000   -2.24140600000000
H        70.71481600000000   -1.94233700000000    2.15433000000000
H        68.87844400000002   -3.74449700000000    2.33829300000000
H        66.63718700000000   -4.44207700000000    0.36044200000000
185
 energy: -334.913699617567 gnorm: 0.445748485814 xtb: 6.4.1 (bd6e46d)
Cu       32.95482706325978    0.04357629593135   -0.01197634622478
C        35.27396280224378   -3.11203695242953    1.29937419140266
C        36.20435980872895   -2.15780063178218    1.25515469629506
C        35.77457793512662   -1.10616721634413    0.34439778914401
C        36.38365639037287    0.04145803619931   -0.01089343262193
C        35.68065850871724    1.23793689873555   -0.36370423942701
C        36.03340734152227    2.22919139958962   -1.23951447701686
C        35.01684857666877    3.21835301912601   -1.25236193020372
C        34.04357708196572    2.81404332895686   -0.38439648570417
N        34.42645398464225    1.58492353490184    0.17430248431441
C        32.80812732500827    3.48202392788745   -0.01188489249674
C        31.68277529799337    2.83389997122815    0.33923248122994
C        30.61968263017041    3.17695760975610    1.29014753254624
C        29.75625424466809    2.16350583899962    1.23561838584531
C        30.21577448054832    1.16952811104580    0.26687436207473
N        31.36040091756872    1.58372998627092   -0.21438765694600
C        29.59787822241817   -0.06362081836967   -0.15715861785837
C        30.27674804542723   -1.19363198703687   -0.42227621136150
C        29.89007864222983   -2.25367243171533   -1.36017772843132
C        30.85615298748187   -3.16806935586785   -1.28440963823716
C        31.84355284218939   -2.71743992843168   -0.31204969386772
N        31.49505097853589   -1.53857328277918    0.16532316483155
C        33.04756915967587   -3.37126436721660    0.13510465954283
C        34.19578989710362   -2.70379934279596    0.41115221262316
N        34.51185754545690   -1.46560342986075   -0.15761383748924
H        35.32413467352367   -4.00682830997965    1.91763894469366
H        37.11078647824000   -2.18817017059358    1.83358444773457
H        36.94594007620700    2.22644608218046   -1.82468119909614
H        35.01025792638697    4.11793422708064   -1.85194846342414
H        32.75810798134194    4.57446196364349   -0.00789711143622
H        30.57415840080907    4.04569796527325    1.92609445061844
H        28.86502664415237    2.12623925610618    1.84733557459620
H        28.51287038015843   -0.07331199398216   -0.26926643691880
H        29.03246320449513   -2.29558471417250   -2.01592649299799
H        30.85714881701506   -4.06770128524601   -1.88140357087258
H        33.02422650413232   -4.45634727474181    0.25605860368768
Cu       78.72413924293483   -0.00216398895363   -0.01624812777089
C        76.40506058485825    2.85536308017892    1.85778783736193
C        75.47457018230772    1.92597397889922    1.63721632397880
C        75.90417434935706    1.06170288470401    0.54714994458818
C        75.29450873370232   -0.00059810767533   -0.01404370615494
C        75.99828094290868   -1.11038329871698   -0.58351326737333
C        75.64557382810519   -1.92206780555467   -1.62783585576089
C        76.66215345852346   -2.89174382286279   -1.82404704826874
C        77.63536745759902   -2.65551240775147   -0.89618583548786
N        77.25245125861935   -1.55118189437860   -0.11934011848641
C        78.87079885201004   -3.38096060299135   -0.65406519966469
C        79.99616770340849   -2.80917288869393   -0.18877674666433
C        81.05924458721002   -3.32267535515751    0.68198183512902
C        81.92272827135943   -2.31672502344479    0.81634476751799
C        81.46320232877262   -1.16027035937057    0.04885828951562
N        80.31851116616382   -1.47805251186017   -0.50085332688516
C        82.08107607837056    0.13007914891351   -0.13900841264916
C        81.40216661244848    1.28970999153809   -0.18993493098534
C        81.78882278994226    2.50531097155673   -0.91492305239526
C        80.82279767531956    3.38983392918814   -0.67075419436508
C        79.83539276905339    2.76664095638310    0.20110145469070
N        80.18392611184248    1.51960602213961    0.45145304093811
C        78.63138699805027    3.32612752833939    0.76172240451552
C        77.48315271863960    2.61896717058471    0.90926884771347
N        77.16709433516232    1.50768955978068    0.12072288611125
H        76.35483114917565    3.61996449728256    2.63126034360983
H        74.56817150278690    1.84852754681848    2.21127626489222
H        74.73303005842290   -1.81083616078070   -2.20246121293714
H        76.66870925019522   -3.66445338295079   -2.58016509388016
H        78.92086269387906   -4.45516008580501   -0.85285129110701
H        81.10478802864154   -4.29433543540824    1.14571145217468
H        82.81392906777873   -2.39358651023998    1.42440344166215
H        83.16608264896010    0.16043476524528   -0.24735549748927
H        82.64647049816826    2.66816424067151   -1.55148006963152
H        80.82179015552811    4.38457499054100   -1.09053150931681
H        78.65468742319501    4.36996265434597    1.08182346461042
C        38.97670439462937    0.01878533959737   -0.01116845708736
C        40.20161560630160    0.02955051019321   -0.01113463092638
C        49.81993755572076    0.02765380176763   -0.00731003522303
C        51.03603254534967    0.02892313463025   -0.01061915946411
C        60.63371224275144    0.02775531114870   -0.00708635808707
C        61.84940921025003    0.02889614560088   -0.01074991671057
C        71.47407685965297    0.02794040881004   -0.00447613351025
C        72.69556869624445    0.02005823609295   -0.01086334627393
Cu       45.04848124341427    0.03522018409245    0.00062701359375
C        42.77860527405115   -3.24698322453419   -0.89847984677065
C        41.81516627482144   -2.32788590306393   -0.99946256097378
C        42.23784639153413   -1.18011633375977   -0.20809061803712
C        41.58613777049921    0.00611301672963    0.00545595220300
C        42.29198269838951    1.26204421256932    0.22941319266007
C        41.91870539178613    2.36519986413201    0.94901456403983
C        42.92764981829076    3.35786406133410    0.85523737517847
C        43.91450240195076    2.83681295865816    0.06941405614599
N        43.55493943922519    1.52679114578441   -0.32733156370294
C        45.13607917640485    3.46955648710064   -0.34525646110033
C        46.26105917105400    2.79140294391518   -0.67541235189684
C        47.25393689373288    3.06494521493705   -1.69519680044348
C        48.16094010222248    2.08321659484508   -1.60711828757153
C        47.76204402439205    1.18476800043066   -0.51845798988365
N        46.62979047602977    1.61069956526709   -0.01594174608244
C        48.42839731581673    0.00273637304099   -0.00199844772961
C        47.78042153567728   -1.09848195914278    0.47450390710730
C        48.18480931859663   -2.01562297754628    1.53373531633114
C        47.22829943728360   -2.94873339314291    1.62849522873439
C        46.21296066886591   -2.64172271571968    0.64181879356681
N        46.54430399021385   -1.54211934672263   -0.00191574398895
C        44.99229626215105   -3.34792734911196    0.31202285760304
C        43.84454154762372   -2.73114760917387   -0.05336717645887
N        43.48871093388902   -1.44785530576764    0.33823887737694
H        42.78333389872724   -4.21632500519775   -1.39272121440539
H        40.91340074576269   -2.43985296017154   -1.58362143285911
H        41.00294716726852    2.46079734996268    1.51599201101805
H        42.96872671223629    4.34000373617898    1.30609900643705
H        45.21820082070530    4.56189331158517   -0.41183921924701
H        47.27128390930989    3.86126345787301   -2.42704901101609
H        49.03436700636085    1.97555868454212   -2.23802106194222
H        49.08187328283066   -1.93674709192251    2.14523924588695
H        47.24319515557750   -3.75145469426966    2.33890803553530
H        45.01637582154029   -4.43868009746806    0.35828998848126
Cu       55.86169385135131    0.03548544507185    0.00080043977871
C        53.59127189094544   -3.24807360253269   -0.89806800392447
C        52.62923525508008   -2.32892765120354   -0.99918241185641
C        53.05402806304081   -1.18232772109617   -0.20502885833501
C        52.40486937802301    0.00505766391251    0.00588000837525
C        53.10824336677804    1.26433749995325    0.22821317097659
C        52.73330920138312    2.36503576209590    0.94919693768303
C        53.74151289913096    3.35892917257863    0.85471465343217
C        54.72845890788209    2.83792434278747    0.06952979830243
N        54.36809336611201    1.52764424646277   -0.32787532583795
C        55.94964046247042    3.46964677348025   -0.34467339734519
C        57.07495660000265    2.79120382854566   -0.67525511190898
C        58.06740305141581    3.06466715037278   -1.69548545584076
C        58.97472406684729    2.08324774914228   -1.60718411455737
C        58.57561684143145    1.18468067762668   -0.51869879310481
N        57.44359372585372    1.61110716871878   -0.01567877971523
C        59.24158015982431    0.00262567253224   -0.00178519511558
C        58.59452185077978   -1.09834914717778    0.47463924179202
C        58.99918322137727   -2.01583130568761    1.53347993184112
C        58.04163776372366   -2.94777864203451    1.62943672038921
C        57.02722017729771   -2.64070078352898    0.64228111943760
N        57.35798135309079   -1.54340597876976   -0.00231829067199
C        55.80497041804946   -3.34812069211247    0.31070365914902
C        54.65917051073485   -2.73203711598690   -0.05332064668283
N        54.30243993618135   -1.44833270307783    0.33852332244426
H        53.59671836115458   -4.21673968215803   -1.39294582041126
H        51.72724917155432   -2.43993979637161   -1.58374134327206
H        51.81665114080471    2.46070217428398    1.51579603142863
H        53.78240228885315    4.34043915770547    1.30623080944043
H        56.03192745372775    4.56197270891844   -0.41160565785491
H        58.08490129334369    3.86124141609190   -2.42709102238050
H        59.84806135087084    1.97556597745300   -2.23811127065483
H        59.89580487051914   -1.93679152991419    2.14525587660579
H        58.05685548050613   -3.75133706784446    2.33898398877070
H        55.83008030713957   -4.43879916596359    0.35708084056113
Cu       66.67516909848700    0.03547994214273    0.00083320367464
C        64.40461340780662   -3.24826322258811   -0.89756260057497
C        63.44297905919053   -2.32900183483948   -0.99903585671375
C        63.86762110919626   -1.18187017474063   -0.20518295751379
C        63.21850758446661    0.00487795957908    0.00566059301517
C        63.92195319842143    1.26424048255487    0.22865567585082
C        63.54717627095810    2.36473652339822    0.94926195031939
C        64.55534582163958    3.35906165624314    0.85443470182156
C        65.54235022701491    2.83830426383138    0.06959447623203
N        65.18193567555767    1.52728588427600   -0.32756781703535
C        66.76334221518998    3.46955717897934   -0.34433842147861
C        67.88914729151701    2.79073852557613   -0.67470968513487
C        68.88094950763984    3.06413634183528   -1.69543705800106
C        69.78874069465829    2.08306028769049   -1.60744980139095
C        69.39098642903247    1.18161747396982   -0.52072414583669
N        68.25798220456969    1.60977324999347   -0.01579877128881
C        70.06037297841030    0.00208156023194   -0.00161523800947
C        69.41156452583253   -1.09499870843594    0.47546572766290
C        69.81389357027184   -2.01588830660881    1.53299121639827
C        68.85499716729403   -2.94618124708395    1.62989170717135
C        67.84182746333559   -2.63933319585648    0.64200121689957
N        68.17127292066166   -1.54271249612364   -0.00174230492428
C        66.61804105600334   -3.34843461558942    0.30974981717413
C        65.47318071057741   -2.73255613535283   -0.05292714029470
N        65.11657927478099   -1.44756664522058    0.33809218798169
H        64.41033943915177   -4.21670723490386   -1.39289756391072
H        62.54097519937093   -2.43994242285768   -1.58371908479295
H        62.63032567998145    2.46067780444142    1.51561280344203
H        64.59607445943631    4.34046988251378    1.30613677790114
H        66.84563402764010    4.56190140305694   -0.41157462892829
H        68.89844052491119    3.86107236878182   -2.42693623704814
H        70.66181566161130    1.97559713116576   -2.23820812128502
H        70.70976650455212   -1.93700349342149    2.14521045029400
H        68.87039107392852   -3.75085970432111    2.33874858976226
H        66.64381643089955   -4.43892580277755    0.35626981683303
185
 energy: -335.086328704830 gnorm: 0.185109119880 xtb: 6.4.1 (bd6e46d)
Cu       32.96293362827966    0.04287640675904   -0.00963053912682
C        35.27365400692131   -3.11796665642939    1.28736702289775
C        36.21877196365498   -2.15699982543257    1.24952632600118
C        35.76902527751852   -1.10701519116293    0.35505380282400
C        36.36627744414159    0.06193170015836   -0.02310225897717
C        35.66942969707058    1.23208419480820   -0.35797551590286
C        36.04158550389737    2.25900329568336   -1.25038473754392
C        35.04971466715699    3.21545434802113   -1.25640306260568
C        34.03814329258155    2.78440937924239   -0.37560877289302
N        34.40331738468227    1.56218263876203    0.15987504138479
C        32.83144050833927    3.47139326895447   -0.01196152661260
C        31.68072324745603    2.80895171078074    0.34581892737193
C        30.62481917430025    3.17923032575727    1.26594767099834
C        29.73417025800161    2.15902185810640    1.23153668753771
C        30.21209658851268    1.16942280015237    0.28638043564315
N        31.40026651847932    1.55730446216020   -0.18350045002092
C        29.59208477891557   -0.04232190685660   -0.14971502912424
C        30.28581619315601   -1.19145233076432   -0.43430679676355
C        29.88610711764908   -2.25221555855545   -1.34095198111939
C        30.85995229811409   -3.18643819925028   -1.27474928081802
C        31.85450846973219   -2.72245861469977   -0.32279820628227
N        31.51158716829554   -1.50419981643008    0.12553433717222
C        33.03118142790576   -3.37072398485527    0.12636593582153
C        34.19990490460479   -2.68202259120863    0.41567095727541
N        34.50418171388728   -1.45827003988075   -0.11858651356427
H        35.31403855777582   -4.00166795063363    1.90475783458973
H        37.11937948304985   -2.17686553830481    1.82740361043441
H        36.94419226616477    2.23450351735702   -1.82466981104772
H        35.01409413088553    4.11256580691845   -1.84832481072152
H        32.77732989802202    4.56155007069142   -0.00511074111483
H        30.58215726422093    4.04106476791658    1.91276351312937
H        28.85881689924956    2.11576911279174    1.84258097248329
H        28.51656074052762   -0.06652289609201   -0.27098189819459
H        29.03582530620271   -2.28529654645724   -2.00259988085332
H        30.86932340445697   -4.07364202192276   -1.87370916054867
H        33.02308560041838   -4.44816905277252    0.25330009558203
Cu       78.71603959653133   -0.00195721847529   -0.01376629214738
C        76.40544535252978    2.86331481794244    1.84711783895002
C        75.46017550504251    1.92614312592644    1.63138997104598
C        75.90981562550229    1.06060178975563    0.55744364588318
C        75.31148183946411   -0.01795468194603   -0.03095756634483
C        76.00953763771889   -1.10555235237118   -0.57698305088492
C        75.63740627112142   -1.94940403204727   -1.64400959642345
C        76.62932286458017   -2.88819810629548   -1.82743328700311
C        77.64081896685565   -2.62807966757986   -0.88200904069201
N        77.27561535399546   -1.52591678708764   -0.12944339785465
C        78.84743691841336   -3.37052416794524   -0.65213560600283
C        79.99820049663263   -2.78584110809549   -0.17761208422687
C        81.05406509538089   -3.32036790304158    0.65782334566101
C        81.94486039572698   -2.31154658537716    0.81309092982268
C        81.46692348528845   -1.16374733628686    0.06805513999410
N        80.27853104751959   -1.45781245892473   -0.46547028916045
C        82.08687429842112    0.10771945788852   -0.13559791989666
C        81.39304547570281    1.28979981531765   -0.20220315612253
C        81.79273030398127    2.50026118371829   -0.89636459615073
C        80.81899537646436    3.40611020444614   -0.65780513273054
C        79.82442059783290    2.77361245014154    0.19147448520922
N        80.16737696195709    1.49313857713487    0.40589805677395
C        78.64780041378579    3.32721461162925    0.75297984459102
C        77.47907612845925    2.59665255203869    0.90975026937210
N        77.17487990218270    1.49320549360179    0.15768092602172
H        76.36493212329322    3.61725337368785    2.61761628848580
H        74.55958245784680    1.83861467291427    2.20299514754250
H        74.73484122489999   -1.81880319801156   -2.20395079221312
H        76.66487038507158   -3.65987855929976   -2.57557496316895
H        78.90166427145908   -4.44298925293844   -0.84777448621729
H        81.09678226643551   -4.28727777135376    1.13349391643324
H        82.82014721160682   -2.38239774312945    1.42166186950653
H        83.16240008309676    0.15408392924114   -0.25021277088068
H        82.64308194424173    2.65556265886778   -1.54031172714179
H        80.80960707776657    4.38898020253662   -1.08187649087891
H        78.65578196585298    4.36246910175537    1.07745673504124
C        38.94811954543182    0.02501711995829   -0.00262863830487
C        40.17568368834561    0.03833166051954   -0.01042610768526