      -----------------------------------------------------------      
     |                   =====================                   |     
     |                           x T B                           |     
     |                   =====================                   |     
     |                         S. Grimme                         |     
     |          Mulliken Center for Theoretical Chemistry        |     
     |                    University of Bonn                     |     
      -----------------------------------------------------------      

   * xtb version 6.4.1 (bd6e46d) compiled by 'conda@4901f00b25ba' on 2021-06-10

   xtb is free software: you can redistribute it and/or modify it under
   the terms of the GNU Lesser General Public License as published by
   the Free Software Foundation, either version 3 of the License, or
   (at your option) any later version.
   
   xtb is distributed in the hope that it will be useful,
   but WITHOUT ANY WARRANTY; without even the implied warranty of
   MERCHANTABILITY or FITNESS FOR A PARTICULAR PURPOSE.  See the
   GNU Lesser General Public License for more details.
   
   Cite this work as:
   * C. Bannwarth, E. Caldeweyher, S. Ehlert, A. Hansen, P. Pracht,
     J. Seibert, S. Spicher, S. Grimme, WIREs Comput. Mol. Sci., 2020, 11,
     e01493. DOI: 10.1002/wcms.1493
   
   for GFN2-xTB:
   * C. Bannwarth, S. Ehlert and S. Grimme., J. Chem. Theory Comput., 2019,
     15, 1652-1671. DOI: 10.1021/acs.jctc.8b01176
   for GFN1-xTB:
   * S. Grimme, C. Bannwarth, P. Shushkov, J. Chem. Theory Comput., 2017,
     13, 1989-2009. DOI: 10.1021/acs.jctc.7b00118
   for GFN0-xTB:
   * P. Pracht, E. Caldeweyher, S. Ehlert, S. Grimme, ChemRxiv, 2019, preprint.
     DOI: 10.26434/chemrxiv.8326202.v1
   for GFN-FF:
   * S. Spicher and S. Grimme, Angew. Chem. Int. Ed., 2020, 59, 15665-15673.
     DOI: 10.1002/anie.202004239
   
   for DFT-D4:
   * E. Caldeweyher, C. Bannwarth and S. Grimme, J. Chem. Phys., 2017,
     147, 034112. DOI: 10.1063/1.4993215
   * E. Caldeweyher, S. Ehlert, A. Hansen, H. Neugebauer, S. Spicher,
     C. Bannwarth and S. Grimme, J. Chem. Phys., 2019, 150, 154122.
     DOI: 10.1063/1.5090222
   * E. Caldeweyher, J.-M. Mewes, S. Ehlert and S. Grimme, Phys. Chem. Chem. Phys.
     2020, 22, 8499-8512. DOI: 10.1039/D0CP00502A
   
   for sTDA-xTB:
   * S. Grimme and C. Bannwarth, J. Chem. Phys., 2016, 145, 054103.
     DOI: 10.1063/1.4959605
   
   in the mass-spec context:
   * V. Asgeirsson, C. Bauer and S. Grimme, Chem. Sci., 2017, 8, 4879.
     DOI: 10.1039/c7sc00601b
   * J. Koopman and S. Grimme, ACS Omega 2019, 4, 12, 15120-15133.
     DOI: 10.1021/acsomega.9b02011
   
   for metadynamics refer to:
   * S. Grimme, J. Chem. Theory Comput., 2019, 155, 2847-2862
     DOI: 10.1021/acs.jctc.9b00143
   
   for SPH calculations refer to:
   * S. Spicher and S. Grimme, J. Chem. Theory Comput., 2021, 17, 1701-1714
     DOI: 10.1021/acs.jctc.0c01306
   
   with help from (in alphabetical order)
   P. Atkinson, C. Bannwarth, F. Bohle, G. Brandenburg, E. Caldeweyher
   M. Checinski, S. Dohm, S. Ehlert, S. Ehrlich, I. Gerasimov, J. Koopman
   C. Lavigne, S. Lehtola, F. März, M. Müller, F. Musil, H. Neugebauer
   J. Pisarek, C. Plett, P. Pracht, J. Seibert, P. Shushkov, S. Spicher
   M. Stahn, M. Steiner, T. Strunk, J. Stückrath, T. Rose, and J. Unsleber
   
 * started run on 2021/11/19 at 15:11:17.978     

           -------------------------------------------------
          |                Calculation Setup                |
           -------------------------------------------------

          program call               : /home/jeff/miniconda3/bin/xtb input_structure_1.xyz --gfn 2 --ohess normal --parallel 1 --etemp 300 --chrg 0 --uhf 0 -I det_control.in
          hostname                   : jelfscompute1
          coordinate file            : input_structure_1.xyz
          omp threads                :                     1
          number of atoms            :                    78
          number of electrons        :                   242
          charge                     :                     0
          spin                       :                   0.0
          first test random number   :      0.76322966091193

   ID    Z sym.   atoms
    1    6 C      1-8, 10-14, 16-20, 22, 23, 38-49, 51-55, 57-61, 63, 64
    2    7 N      9, 15, 21, 24, 50, 56, 62, 65
    3    1 H      25-37, 66-78

           -------------------------------------------------
          |                 G F N 2 - x T B                 |
           -------------------------------------------------

        Reference                      10.1021/acs.jctc.8b01176
      * Hamiltonian:
        H0-scaling (s, p, d)           1.850000    2.230000    2.230000
        zeta-weighting                 0.500000
      * Dispersion:
        s8                             2.700000
        a1                             0.520000
        a2                             5.000000
        s9                             5.000000
      * Repulsion:
        kExp                           1.500000    1.000000
        rExp                           1.000000
      * Coulomb:
        alpha                          2.000000
        third order                    shell-resolved
        anisotropic                    true
        a3                             3.000000
        a5                             4.000000
        cn-shift                       1.200000
        cn-exp                         4.000000
        max-rad                        5.000000


          ...................................................
          :                      SETUP                      :
          :.................................................:
          :  # basis functions                 234          :
          :  # atomic orbitals                 234          :
          :  # shells                          130          :
          :  # electrons                       242          :
          :  max. iterations                   250          :
          :  Hamiltonian                  GFN2-xTB          :
          :  restarted?                      false          :
          :  GBSA solvation                  false          :
          :  PC potential                    false          :
          :  electronic temp.          300.0000000     K    :
          :  accuracy                    1.0000000          :
          :  -> integral cutoff          0.2500000E+02      :
          :  -> integral neglect         0.1000000E-07      :
          :  -> SCF convergence          0.1000000E-05 Eh   :
          :  -> wf. convergence          0.1000000E-03 e    :
          :  Broyden damping             0.4000000          :
          ...................................................

 iter      E             dE          RMSdq      gap      omega  full diag
   1   -132.6460580 -0.132646E+03  0.460E+00    0.19       0.0  T
   2   -132.5138206  0.132237E+00  0.326E+00    0.05       1.0  T
   3   -131.2171876  0.129663E+01  0.352E+00    0.25       1.0  T
   4   -132.8130898 -0.159590E+01  0.137E+00    0.26       1.0  T
   5   -132.6310894  0.182000E+00  0.140E+00    0.19       1.0  T
   6   -132.8480247 -0.216935E+00  0.813E-01    0.21       1.0  T
   7   -132.8750303 -0.270057E-01  0.647E-01    0.22       1.0  T
   8   -132.8975878 -0.225575E-01  0.448E-01    0.26       1.0  T
   9   -132.9200097 -0.224219E-01  0.244E-01    0.24       1.0  T
  10   -132.9273343 -0.732465E-02  0.646E-02    0.22       1.0  T
  11   -132.9274443 -0.109944E-03  0.324E-02    0.23       1.0  T
  12   -132.9275160 -0.716826E-04  0.150E-02    0.23       1.0  T
  13   -132.9275312 -0.151990E-04  0.990E-03    0.23       1.1  T
  14   -132.9275431 -0.118836E-04  0.378E-03    0.23       3.0  T
  15   -132.9275423  0.714324E-06  0.366E-03    0.23       3.1  T
  16   -132.9275448 -0.244722E-05  0.597E-04    0.23      19.0  T
  17   -132.9275448 -0.159651E-07  0.233E-04    0.23      48.5  T
  18   -132.9275448 -0.145803E-10  0.174E-04    0.23      65.1  T

   *** convergence criteria satisfied after 18 iterations ***

         #    Occupation            Energy/Eh            Energy/eV
      -------------------------------------------------------------
         1        2.0000           -0.7088308             -19.2883
       ...           ...                  ...                  ...
       115        2.0000           -0.3663072              -9.9677
       116        2.0000           -0.3634392              -9.8897
       117        2.0000           -0.3569601              -9.7134
       118        2.0000           -0.3547460              -9.6531
       119        2.0000           -0.3528116              -9.6005
       120        1.9999           -0.3317843              -9.0283
       121        1.9752           -0.3260939              -8.8735 (HOMO)
       122        0.0249           -0.3177822              -8.6473 (LUMO)
       123                         -0.2982257              -8.1151
       124                         -0.2951458              -8.0313
       125                         -0.2742508              -7.4627
       126                         -0.2683119              -7.3011
       ...                                ...                  ...
       234                          7.3739382             200.6551
      -------------------------------------------------------------
                  HL-Gap            0.0083117 Eh            0.2262 eV
             Fermi-level           -0.3219368 Eh           -8.7603 eV

 SCC (total)                   0 d,  0 h,  0 min,  0.298 sec
 SCC setup                      ...        0 min,  0.001 sec (  0.361%)
 Dispersion                     ...        0 min,  0.002 sec (  0.795%)
 classical contributions        ...        0 min,  0.000 sec (  0.146%)
 integral evaluation            ...        0 min,  0.023 sec (  7.843%)
 iterations                     ...        0 min,  0.188 sec ( 63.096%)
 molecular gradient             ...        0 min,  0.082 sec ( 27.391%)
 printout                       ...        0 min,  0.001 sec (  0.363%)

         :::::::::::::::::::::::::::::::::::::::::::::::::::::
         ::                     SUMMARY                     ::
         :::::::::::::::::::::::::::::::::::::::::::::::::::::
         :: total energy            -129.249728947647 Eh    ::
         :: gradient norm              4.093296547848 Eh/a0 ::
         :: HOMO-LUMO gap              0.226173208440 eV    ::
         ::.................................................::
         :: SCC energy              -132.927544802277 Eh    ::
         :: -> isotropic ES            0.082094423629 Eh    ::
         :: -> anisotropic ES         -0.002877236972 Eh    ::
         :: -> anisotropic XC          0.089961715915 Eh    ::
         :: -> dispersion             -0.104118495011 Eh    ::
         :: repulsion energy           3.678101756054 Eh    ::
         :: add. restraining           0.000000000000 Eh    ::
         :: total charge               0.000000000036 e     ::
         :::::::::::::::::::::::::::::::::::::::::::::::::::::

      ----------------------------------------------------------- 
     |                   =====================                   |
     |                        A N C O P T                        |
     |                   =====================                   |
     |               Approximate Normal Coordinate               |
     |                Rational Function Optimizer                |
      ----------------------------------------------------------- 

          ...................................................
          :                      SETUP                      :
          :.................................................:
          :   optimization level            normal          :
          :   max. optcycles                   234          :
          :   ANC micro-cycles                  20          :
          :   degrees of freedom               228          :
          :.................................................:
          :   RF solver                   davidson          :
          :   write xtbopt.log                true          :
          :   linear?                        false          :
          :   energy convergence         0.5000000E-05 Eh   :
          :   grad. convergence          0.1000000E-02 Eh/α :
          :   maximium RF displ.         1.0000000          :
          :   Hlow (freq-cutoff)         0.1000000E-01      :
          :   Hmax (freq-cutoff)         5.0000000          :
          :   S6 in model hess.         20.0000000          :
          ...................................................

generating ANC from model Hessian ...
Using Lindh-Hessian (1995)
 Shifting diagonal of input Hessian by    9.9985301875257105E-003
 Lowest  eigenvalues of input Hessian
    0.000000    0.000000    0.000000    0.000000    0.000000    0.000000
    0.010000    0.010008    0.010014    0.010263    0.011007    0.011080
    0.011165    0.011761    0.012047    0.012359    0.012526    0.013136
 Highest eigenvalues
    2.238021    2.355006    4.161255    4.457824    4.572433    4.849566


........................................................................
.............................. CYCLE    1 ..............................
........................................................................
   1   -132.9275448 -0.132928E+03  0.747E-05    0.23       0.0  T
   2   -132.9275448  0.468781E-07  0.506E-04    0.23      22.4  T
   3   -132.9275448 -0.458033E-07  0.990E-05    0.23     114.4  T
     SCC iter.                  ...        0 min,  0.030 sec
     gradient                   ...        0 min,  0.081 sec
 * total energy  :  -129.2497290 Eh     change       -0.3242491E-08 Eh
   gradient norm :     4.0932989 Eh/α   predicted     0.0000000E+00 (-100.00%)
   displ. norm   :     0.6253021 α      lambda       -0.2499623E+01
   maximum displ.:     0.4401214 α      in ANC's #228, #227, #224, ...

........................................................................
.............................. CYCLE    2 ..............................
........................................................................
   1   -133.0303660 -0.133030E+03  0.808E-01    0.63       0.0  T
   2   -133.0401474 -0.978142E-02  0.694E-01    0.59       1.0  T
   3   -133.0608303 -0.206829E-01  0.334E-01    0.60       1.0  T
   4   -133.0348173  0.260130E-01  0.482E-01    0.62       1.0  T
   5   -133.0627822 -0.279650E-01  0.848E-02    0.60       1.0  T
   6   -133.0630116 -0.229326E-03  0.672E-02    0.60       1.0  T
   7   -133.0635431 -0.531523E-03  0.114E-02    0.60       1.0  T
   8   -133.0635495 -0.638900E-05  0.596E-03    0.60       1.9  T
   9   -133.0635509 -0.140603E-05  0.344E-03    0.60       3.3  T
  10   -133.0635516 -0.778517E-06  0.153E-03    0.60       7.4  T
  11   -133.0635519 -0.277535E-06  0.518E-04    0.60      21.9  T
  12   -133.0635519 -0.165105E-07  0.248E-04    0.60      45.6  T
     SCC iter.                  ...        0 min,  0.115 sec
     gradient                   ...        0 min,  0.081 sec
 * total energy  :  -130.3029843 Eh     change       -0.1053255E+01 Eh
   gradient norm :     0.5473482 Eh/α   predicted    -0.1738492E+01 (  65.06%)
   displ. norm   :     0.4552617 α      lambda       -0.2953569E+00
   maximum displ.:     0.1337514 α      in ANC's #116, #224, #117, ...

........................................................................
.............................. CYCLE    3 ..............................
........................................................................
   1   -133.0693564 -0.133069E+03  0.369E-01    0.50       0.0  T
   2   -133.0699669 -0.610485E-03  0.241E-01    0.52       1.0  T
   3   -133.0661652  0.380174E-02  0.227E-01    0.51       1.0  T
   4   -133.0602405  0.592471E-02  0.284E-01    0.52       1.0  T
   5   -133.0707198 -0.104793E-01  0.592E-02    0.51       1.0  T
   6   -133.0711092 -0.389435E-03  0.207E-02    0.51       1.0  T
   7   -133.0711552 -0.459567E-04  0.589E-03    0.51       1.9  T
   8   -133.0711551  0.474582E-07  0.513E-03    0.51       2.2  T
   9   -133.0711572 -0.208186E-05  0.194E-03    0.51       5.8  T
  10   -133.0711575 -0.281717E-06  0.870E-04    0.51      13.0  T
  11   -133.0711576 -0.778674E-07  0.308E-04    0.51      36.8  T
     SCC iter.                  ...        0 min,  0.108 sec
     gradient                   ...        0 min,  0.081 sec
 * total energy  :  -130.4205328 Eh     change       -0.1175485E+00 Eh
   gradient norm :     0.3068752 Eh/α   predicted    -0.1188454E+00 (   1.10%)
   displ. norm   :     0.6466658 α      lambda       -0.2580652E+00
   maximum displ.:     0.1909998 α      in ANC's #53, #116, #35, ...

........................................................................
.............................. CYCLE    4 ..............................
........................................................................
   1   -133.1110751 -0.133111E+03  0.345E-01    0.57       0.0  T
   2   -133.1113739 -0.298826E-03  0.224E-01    0.57       1.0  T
   3   -133.1070625  0.431142E-02  0.190E-01    0.57       1.0  T
   4   -133.1089288 -0.186629E-02  0.155E-01    0.57       1.0  T
   5   -133.1116752 -0.274649E-02  0.421E-02    0.57       1.0  T
   6   -133.1118795 -0.204294E-03  0.142E-02    0.57       1.0  T
   7   -133.1119012 -0.216781E-04  0.592E-03    0.57       1.9  T
   8   -133.1119034 -0.219889E-05  0.323E-03    0.57       3.5  T
   9   -133.1119037 -0.321177E-06  0.141E-03    0.57       8.0  T
  10   -133.1119039 -0.154260E-06  0.636E-04    0.57      17.8  T
  11   -133.1119039 -0.366157E-07  0.260E-04    0.57      43.5  T
     SCC iter.                  ...        0 min,  0.110 sec
     gradient                   ...        0 min,  0.081 sec
 * total energy  :  -130.4971083 Eh     change       -0.7657551E-01 Eh
   gradient norm :     0.1837794 Eh/α   predicted    -0.7261750E-01 (  -5.17%)
   displ. norm   :     0.7248448 α      lambda       -0.2055007E+00
   maximum displ.:     0.2326617 α      in ANC's #53, #35, #22, ...

........................................................................
.............................. CYCLE    5 ..............................
........................................................................
   1   -133.1284243 -0.133128E+03  0.298E-01    0.66       0.0  T
   2   -133.1280588  0.365521E-03  0.204E-01    0.65       1.0  T
   3   -133.1236060  0.445283E-02  0.190E-01    0.66       1.0  T
   4   -133.1283997 -0.479368E-02  0.737E-02    0.65       1.0  T
   5   -133.1290200 -0.620334E-03  0.145E-02    0.65       1.0  T
   6   -133.1290327 -0.126635E-04  0.843E-03    0.65       1.3  T
   7   -133.1290388 -0.609476E-05  0.385E-03    0.65       2.9  T
   8   -133.1290397 -0.970878E-06  0.179E-03    0.65       6.3  T
   9   -133.1290398 -0.841524E-07  0.926E-04    0.65      12.2  T
  10   -133.1290399 -0.851436E-07  0.254E-04    0.65      44.6  T
     SCC iter.                  ...        0 min,  0.100 sec
     gradient                   ...        0 min,  0.081 sec
 * total energy  :  -130.5465783 Eh     change       -0.4947003E-01 Eh
   gradient norm :     0.1178431 Eh/α   predicted    -0.4561385E-01 (  -7.79%)
   displ. norm   :     0.7682335 α      lambda       -0.2242309E+00
   maximum displ.:     0.2444476 α      in ANC's #53, #22, #14, ...

........................................................................
.............................. CYCLE    6 ..............................
........................................................................
   1   -133.1186931 -0.133119E+03  0.272E-01    0.75       0.0  T
   2   -133.1182972  0.395879E-03  0.186E-01    0.74       1.0  T
   3   -133.1140817  0.421560E-02  0.183E-01    0.75       1.0  T
   4   -133.1188458 -0.476411E-02  0.522E-02    0.74       1.0  T
   5   -133.1191421 -0.296327E-03  0.918E-03    0.74       1.2  T
   6   -133.1191485 -0.636874E-05  0.339E-03    0.74       3.3  T
   7   -133.1191485 -0.310415E-07  0.243E-03    0.74       4.7  T
   8   -133.1191488 -0.335334E-06  0.112E-03    0.74      10.1  T
   9   -133.1191489 -0.689534E-07  0.687E-04    0.74      16.5  T
  10   -133.1191489 -0.485338E-07  0.180E-04    0.74      62.9  T
     SCC iter.                  ...        0 min,  0.097 sec
     gradient                   ...        0 min,  0.081 sec
 * total energy  :  -130.5821265 Eh     change       -0.3554814E-01 Eh
   gradient norm :     0.0732896 Eh/α   predicted    -0.3421978E-01 (  -3.74%)
   displ. norm   :     0.7620634 α      lambda       -0.2008927E+00
   maximum displ.:     0.2625626 α      in ANC's #14, #22, #53, ...

........................................................................
.............................. CYCLE    7 ..............................
........................................................................
   1   -133.0981845 -0.133098E+03  0.237E-01    0.82       0.0  T
   2   -133.0980200  0.164522E-03  0.156E-01    0.82       1.0  T
   3   -133.0952004  0.281958E-02  0.150E-01    0.82       1.0  T
   4   -133.0983126 -0.311217E-02  0.392E-02    0.82       1.0  T
   5   -133.0984819 -0.169377E-03  0.916E-03    0.82       1.2  T
   6   -133.0984891 -0.711445E-05  0.326E-03    0.82       3.5  T
   7   -133.0984893 -0.294376E-06  0.186E-03    0.82       6.1  T
   8   -133.0984894 -0.901142E-07  0.108E-03    0.82      10.4  T
   9   -133.0984895 -0.997658E-07  0.397E-04    0.82      28.6  T
  10   -133.0984895 -0.132728E-07  0.178E-04    0.82      63.7  T
     SCC iter.                  ...        0 min,  0.100 sec
     gradient                   ...        0 min,  0.081 sec
 * total energy  :  -130.6061262 Eh     change       -0.2399977E-01 Eh
   gradient norm :     0.0526140 Eh/α   predicted    -0.2343471E-01 (  -2.35%)
   displ. norm   :     0.7698844 α      lambda       -0.1718770E+00
   maximum displ.:     0.3145895 α      in ANC's #14, #22, #35, ...

........................................................................
.............................. CYCLE    8 ..............................
........................................................................
   1   -133.0833766 -0.133083E+03  0.215E-01    0.89       0.0  T
   2   -133.0833488  0.278079E-04  0.135E-01    0.88       1.0  T
   3   -133.0817180  0.163076E-02  0.117E-01    0.89       1.0  T
   4   -133.0834634 -0.174536E-02  0.302E-02    0.89       1.0  T
   5   -133.0835711 -0.107764E-03  0.805E-03    0.88       1.4  T
   6   -133.0835767 -0.560851E-05  0.332E-03    0.88       3.4  T
   7   -133.0835772 -0.455744E-06  0.161E-03    0.88       7.1  T
   8   -133.0835772 -0.451854E-07  0.904E-04    0.88      12.5  T
   9   -133.0835773 -0.749616E-07  0.254E-04    0.88      44.5  T
     SCC iter.                  ...        0 min,  0.091 sec
     gradient                   ...        0 min,  0.081 sec
 * total energy  :  -130.6238836 Eh     change       -0.1775735E-01 Eh
   gradient norm :     0.0435893 Eh/α   predicted    -0.1719871E-01 (  -3.15%)
   displ. norm   :     0.8145403 α      lambda       -0.1565757E+00
   maximum displ.:     0.3876871 α      in ANC's #14, #22, #19, ...

........................................................................
.............................. CYCLE    9 ..............................
........................................................................
   1   -133.0806549 -0.133081E+03  0.211E-01    0.94       0.0  T
   2   -133.0806741 -0.192170E-04  0.127E-01    0.93       1.0  T
   3   -133.0797491  0.924984E-03  0.951E-02    0.94       1.0  T
   4   -133.0807228 -0.973702E-03  0.223E-02    0.94       1.0  T
   5   -133.0807801 -0.572813E-04  0.637E-03    0.94       1.8  T
   6   -133.0807833 -0.317731E-05  0.333E-03    0.94       3.4  T
   7   -133.0807839 -0.587225E-06  0.137E-03    0.94       8.2  T
   8   -133.0807839 -0.377696E-07  0.701E-04    0.94      16.1  T
   9   -133.0807839 -0.408199E-07  0.244E-04    0.94      46.4  T
     SCC iter.                  ...        0 min,  0.090 sec
     gradient                   ...        0 min,  0.081 sec
 * total energy  :  -130.6390909 Eh     change       -0.1520733E-01 Eh
   gradient norm :     0.0424491 Eh/α   predicted    -0.1457754E-01 (  -4.14%)
   displ. norm   :     0.8423020 α      lambda       -0.1408568E+00
   maximum displ.:     0.4388904 α      in ANC's #14, #22, #19, ...

........................................................................
.............................. CYCLE   10 ..............................
........................................................................
   1   -133.0782076 -0.133078E+03  0.203E-01    0.98       0.0  T
   2   -133.0782433 -0.356208E-04  0.120E-01    0.97       1.0  T
   3   -133.0776992  0.544045E-03  0.748E-02    0.98       1.0  T
   4   -133.0782722 -0.573012E-03  0.185E-02    0.98       1.0  T
   5   -133.0783090 -0.367777E-04  0.543E-03    0.97       2.1  T
   6   -133.0783109 -0.189333E-05  0.313E-03    0.97       3.6  T
   7   -133.0783114 -0.549368E-06  0.119E-03    0.97       9.5  T
   8   -133.0783115 -0.716616E-07  0.517E-04    0.97      21.9  T
   9   -133.0783115 -0.225474E-07  0.211E-04    0.97      53.6  T
     SCC iter.                  ...        0 min,  0.090 sec
     gradient                   ...        0 min,  0.081 sec
 * total energy  :  -130.6517376 Eh     change       -0.1264671E-01 Eh
   gradient norm :     0.0446781 Eh/α   predicted    -0.1215257E-01 (  -3.91%)
   displ. norm   :     0.8708997 α      lambda       -0.1408779E+00
   maximum displ.:     0.4965490 α      in ANC's #14, #22, #12, ...

........................................................................
.............................. CYCLE   11 ..............................
........................................................................
   1   -133.0856197 -0.133086E+03  0.202E-01    1.01       0.0  T
   2   -133.0856360 -0.162463E-04  0.119E-01    1.00       1.0  T
   3   -133.0849658  0.670149E-03  0.808E-02    1.01       1.0  T
   4   -133.0856942 -0.728392E-03  0.147E-02    1.01       1.0  T
   5   -133.0857157 -0.215423E-04  0.519E-03    1.00       2.2  T
   6   -133.0857175 -0.174951E-05  0.291E-03    1.00       3.9  T
   7   -133.0857179 -0.375280E-06  0.141E-03    1.00       8.0  T
   8   -133.0857180 -0.130353E-06  0.700E-04    1.00      16.2  T
   9   -133.0857180 -0.443132E-07  0.206E-04    1.00      54.9  T
     SCC iter.                  ...        0 min,  0.087 sec
     gradient                   ...        0 min,  0.081 sec
 * total energy  :  -130.6642474 Eh     change       -0.1250978E-01 Eh
   gradient norm :     0.0411708 Eh/α   predicted    -0.1165119E-01 (  -6.86%)
   displ. norm   :     0.8886497 α      lambda       -0.1471555E+00
   maximum displ.:     0.5321919 α      in ANC's #14, #12, #19, ...

........................................................................
.............................. CYCLE   12 ..............................
........................................................................
   1   -133.0961694 -0.133096E+03  0.203E-01    1.03       0.0  T
   2   -133.0961812 -0.118061E-04  0.120E-01    1.03       1.0  T
   3   -133.0953479  0.833284E-03  0.909E-02    1.03       1.0  T
   4   -133.0962724 -0.924470E-03  0.167E-02    1.03       1.0  T
   5   -133.0962990 -0.265535E-04  0.600E-03    1.03       1.9  T
   6   -133.0963018 -0.280485E-05  0.301E-03    1.03       3.8  T
   7   -133.0963022 -0.459909E-06  0.159E-03    1.03       7.1  T
   8   -133.0963023 -0.123306E-06  0.763E-04    1.03      14.8  T
   9   -133.0963024 -0.479468E-07  0.217E-04    1.03      52.2  T
     SCC iter.                  ...        0 min,  0.087 sec
     gradient                   ...        0 min,  0.081 sec
 * total energy  :  -130.6762783 Eh     change       -0.1203093E-01 Eh
   gradient norm :     0.0367556 Eh/α   predicted    -0.1133016E-01 (  -5.82%)
   displ. norm   :     0.9073671 α      lambda       -0.1398093E+00
   maximum displ.:     0.5623922 α      in ANC's #14, #12, #19, ...

........................................................................
.............................. CYCLE   13 ..............................
........................................................................
   1   -133.1010771 -0.133101E+03  0.207E-01    1.05       0.0  T
   2   -133.1010892 -0.121090E-04  0.123E-01    1.04       1.0  T
   3   -133.1001934  0.895865E-03  0.951E-02    1.05       1.0  T
   4   -133.1011989 -0.100555E-02  0.172E-02    1.05       1.0  T
   5   -133.1012265 -0.275998E-04  0.596E-03    1.05       1.9  T
   6   -133.1012293 -0.275134E-05  0.301E-03    1.05       3.8  T
   7   -133.1012297 -0.461429E-06  0.163E-03    1.05       7.0  T
   8   -133.1012299 -0.122275E-06  0.796E-04    1.05      14.2  T
   9   -133.1012299 -0.514588E-07  0.227E-04    1.05      49.9  T
     SCC iter.                  ...        0 min,  0.090 sec
     gradient                   ...        0 min,  0.081 sec
 * total energy  :  -130.6866851 Eh     change       -0.1040676E-01 Eh
   gradient norm :     0.0364646 Eh/α   predicted    -0.1003013E-01 (  -3.62%)
   displ. norm   :     0.9173911 α      lambda       -0.1153880E+00
   maximum displ.:     0.5980644 α      in ANC's #14, #12, #9, ...

........................................................................
.............................. CYCLE   14 ..............................
........................................................................
   1   -133.1002629 -0.133100E+03  0.201E-01    1.06       0.0  T
   2   -133.1002716 -0.865628E-05  0.118E-01    1.06       1.0  T
   3   -133.0994346  0.836973E-03  0.882E-02    1.06       1.0  T
   4   -133.1003623 -0.927723E-03  0.140E-02    1.06       1.0  T
   5   -133.1003804 -0.180135E-04  0.455E-03    1.06       2.5  T
   6   -133.1003816 -0.121057E-05  0.230E-03    1.06       4.9  T
   7   -133.1003817 -0.111417E-06  0.136E-03    1.06       8.3  T
   8   -133.1003818 -0.959114E-07  0.703E-04    1.06      16.1  T
   9   -133.1003818 -0.487385E-07  0.201E-04    1.06      56.3  T
     SCC iter.                  ...        0 min,  0.090 sec
     gradient                   ...        0 min,  0.081 sec
 * total energy  :  -130.6949074 Eh     change       -0.8222271E-02 Eh
   gradient norm :     0.0308794 Eh/α   predicted    -0.7832999E-02 (  -4.73%)
   displ. norm   :     0.9064561 α      lambda       -0.8503539E-01
   maximum displ.:     0.6166375 α      in ANC's #14, #12, #9, ...

........................................................................
.............................. CYCLE   15 ..............................
........................................................................
   1   -133.0954824 -0.133095E+03  0.201E-01    1.08       0.0  T
   2   -133.0954928 -0.103897E-04  0.118E-01    1.07       1.0  T
   3   -133.0948222  0.670603E-03  0.759E-02    1.08       1.0  T
   4   -133.0955463 -0.724078E-03  0.115E-02    1.08       1.0  T
   5   -133.0955586 -0.123528E-04  0.375E-03    1.08       3.0  T
   6   -133.0955591 -0.538890E-06  0.221E-03    1.08       5.1  T
   7   -133.0955593 -0.144210E-06  0.132E-03    1.08       8.6  T
   8   -133.0955594 -0.146675E-06  0.527E-04    1.08      21.5  T
   9   -133.0955595 -0.232359E-07  0.174E-04    1.08      65.0  T
     SCC iter.                  ...        0 min,  0.090 sec
     gradient                   ...        0 min,  0.080 sec
 * total energy  :  -130.7008515 Eh     change       -0.5944144E-02 Eh
   gradient norm :     0.0307149 Eh/α   predicted    -0.5653408E-02 (  -4.89%)
   displ. norm   :     0.8982521 α      lambda       -0.5983989E-01
   maximum displ.:     0.6188949 α      in ANC's #14, #12, #9, ...

........................................................................
.............................. CYCLE   16 ..............................
........................................................................
   1   -133.0938090 -0.133094E+03  0.202E-01    1.09       0.0  T
   2   -133.0938284 -0.194417E-04  0.118E-01    1.09       1.0  T
   3   -133.0935650  0.263481E-03  0.460E-02    1.09       1.0  T
   4   -133.0938381 -0.273131E-03  0.114E-02    1.09       1.0  T
   5   -133.0938519 -0.138219E-04  0.354E-03    1.09       3.2  T
   6   -133.0938523 -0.341440E-06  0.237E-03    1.09       4.8  T
   7   -133.0938525 -0.277612E-06  0.115E-03    1.09       9.9  T
   8   -133.0938526 -0.109946E-06  0.309E-04    1.09      36.6  T
   9   -133.0938527 -0.639525E-08  0.142E-04    1.09      79.9  T
     SCC iter.                  ...        0 min,  0.090 sec
     gradient                   ...        0 min,  0.081 sec
 * total energy  :  -130.7055063 Eh     change       -0.4654775E-02 Eh
   gradient norm :     0.0299765 Eh/α   predicted    -0.4182464E-02 ( -10.15%)
   displ. norm   :     0.8262448 α      lambda       -0.5052140E-01
   maximum displ.:     0.5205498 α      in ANC's #14, #9, #12, ...

........................................................................
.............................. CYCLE   17 ..............................
........................................................................
   1   -133.1035807 -0.133104E+03  0.192E-01    1.11       0.0  T
   2   -133.1035975 -0.168385E-04  0.113E-01    1.10       1.0  T
   3   -133.1034249  0.172651E-03  0.387E-02    1.11       1.0  T
   4   -133.1036034 -0.178498E-03  0.106E-02    1.11       1.1  T
   5   -133.1036151 -0.117064E-04  0.340E-03    1.11       3.3  T
   6   -133.1036155 -0.393673E-06  0.202E-03    1.11       5.6  T
   7   -133.1036156 -0.159339E-06  0.104E-03    1.11      10.9  T
   8   -133.1036157 -0.791865E-07  0.328E-04    1.11      34.6  T
   9   -133.1036157 -0.893039E-08  0.124E-04    1.11      91.4  T
     SCC iter.                  ...        0 min,  0.087 sec
     gradient                   ...        0 min,  0.080 sec
 * total energy  :  -130.7098443 Eh     change       -0.4338019E-02 Eh
   gradient norm :     0.0302248 Eh/α   predicted    -0.3578151E-02 ( -17.52%)
   displ. norm   :     0.8482064 α      lambda       -0.5277722E-01
   maximum displ.:     0.4921472 α      in ANC's #14, #9, #12, ...

........................................................................
.............................. CYCLE   18 ..............................
........................................................................
   1   -133.1119312 -0.133112E+03  0.199E-01    1.11       0.0  T
   2   -133.1119496 -0.184028E-04  0.117E-01    1.11       1.0  T
   3   -133.1116751  0.274498E-03  0.476E-02    1.11       1.0  T
   4   -133.1119608 -0.285670E-03  0.121E-02    1.11       1.0  T
   5   -133.1119754 -0.146322E-04  0.392E-03    1.11       2.9  T
   6   -133.1119762 -0.771561E-06  0.217E-03    1.11       5.2  T
   7   -133.1119764 -0.184225E-06  0.112E-03    1.11      10.1  T
   8   -133.1119765 -0.674684E-07  0.452E-04    1.11      25.1  T
   9   -133.1119765 -0.186230E-07  0.141E-04    1.11      80.4  T
     SCC iter.                  ...        0 min,  0.087 sec
     gradient                   ...        0 min,  0.080 sec
 * total energy  :  -130.7142470 Eh     change       -0.4402736E-02 Eh
   gradient norm :     0.0305687 Eh/α   predicted    -0.3836486E-02 ( -12.86%)
   displ. norm   :     0.8552264 α      lambda       -0.5122105E-01
   maximum displ.:     0.4401734 α      in ANC's #14, #9, #12, ...

........................................................................
.............................. CYCLE   19 ..............................
........................................................................
   1   -133.1227217 -0.133123E+03  0.198E-01    1.12       0.0  T
   2   -133.1227420 -0.203133E-04  0.116E-01    1.12       1.0  T
   3   -133.1224539  0.288081E-03  0.474E-02    1.11       1.0  T
   4   -133.1227543 -0.300383E-03  0.116E-02    1.12       1.0  T
   5   -133.1227684 -0.140549E-04  0.422E-03    1.12       2.7  T
   6   -133.1227695 -0.108227E-05  0.216E-03    1.12       5.3  T
   7   -133.1227696 -0.151985E-06  0.123E-03    1.12       9.2  T
   8   -133.1227697 -0.808636E-07  0.541E-04    1.12      20.9  T
   9   -133.1227697 -0.275063E-07  0.152E-04    1.12      74.3  T
     SCC iter.                  ...        0 min,  0.090 sec
     gradient                   ...        0 min,  0.080 sec
 * total energy  :  -130.7183262 Eh     change       -0.4079168E-02 Eh
   gradient norm :     0.0317858 Eh/α   predicted    -0.3672312E-02 (  -9.97%)
   displ. norm   :     0.8757809 α      lambda       -0.4763381E-01
   maximum displ.:     0.4436908 α      in ANC's #9, #14, #22, ...

........................................................................
.............................. CYCLE   20 ..............................
........................................................................
   1   -133.1296832 -0.133130E+03  0.193E-01    1.11       0.0  T
   2   -133.1296989 -0.157680E-04  0.112E-01    1.11       1.0  T
   3   -133.1294605  0.238459E-03  0.435E-02    1.11       1.0  T
   4   -133.1297100 -0.249532E-03  0.103E-02    1.11       1.1  T
   5   -133.1297204 -0.103657E-04  0.393E-03    1.11       2.9  T
   6   -133.1297212 -0.825432E-06  0.232E-03    1.11       4.9  T
   7   -133.1297214 -0.243533E-06  0.102E-03    1.11      11.1  T
   8   -133.1297215 -0.556412E-07  0.465E-04    1.11      24.4  T
   9   -133.1297215 -0.193851E-07  0.146E-04    1.11      77.5  T
     SCC iter.                  ...        0 min,  0.090 sec
     gradient                   ...        0 min,  0.080 sec
 * total energy  :  -130.7214546 Eh     change       -0.3128354E-02 Eh
   gradient norm :     0.0334411 Eh/α   predicted    -0.3480841E-02 (  11.27%)
   displ. norm   :     0.7711198 α      lambda       -0.3416800E-01
   maximum displ.:     0.4128661 α      in ANC's #9, #14, #22, ...
 * RMSD in coord.:     1.3426045 α      energy gain  -0.1471726E+01 Eh

generating ANC from model Hessian ...
Using Lindh-Hessian (1995)
 Shifting diagonal of input Hessian by    9.9955534506600812E-003
 Lowest  eigenvalues of input Hessian
    0.000000    0.000000    0.000000    0.000000    0.000000    0.000000
    0.010000    0.010016    0.010025    0.010187    0.010325    0.010843
    0.010862    0.011359    0.011433    0.012339    0.012478    0.012695
 Highest eigenvalues
    2.217194    2.234633    2.244587    2.252814    2.405036    2.943028


........................................................................
.............................. CYCLE   21 ..............................
........................................................................
   1   -133.1448712 -0.133145E+03  0.166E-01    1.10       0.0  T
   2   -133.1448819 -0.106712E-04  0.969E-02    1.10       1.0  T
   3   -133.1447585  0.123437E-03  0.332E-02    1.10       1.0  T
   4   -133.1448881 -0.129643E-03  0.752E-03    1.10       1.5  T
   5   -133.1448934 -0.532568E-05  0.332E-03    1.10       3.4  T
   6   -133.1448940 -0.550477E-06  0.201E-03    1.10       5.6  T
   7   -133.1448942 -0.203093E-06  0.703E-04    1.10      16.1  T
   8   -133.1448942 -0.322206E-07  0.352E-04    1.10      32.2  T
     SCC iter.                  ...        0 min,  0.080 sec
     gradient                   ...        0 min,  0.080 sec
 * total energy  :  -130.7236379 Eh     change       -0.2183365E-02 Eh
   gradient norm :     0.0256779 Eh/α   predicted     0.0000000E+00 (-100.00%)
   displ. norm   :     0.2134838 α      lambda       -0.1766287E-02
   maximum displ.:     0.0876704 α      in ANC's #9, #30, #24, ...

........................................................................
.............................. CYCLE   22 ..............................
........................................................................
   1   -133.1527342 -0.133153E+03  0.651E-02    1.10       0.0  T
   2   -133.1527357 -0.148670E-05  0.397E-02    1.10       1.0  T
   3   -133.1526513  0.843046E-04  0.260E-02    1.10       1.0  T
   4   -133.1527368 -0.854791E-04  0.734E-03    1.10       1.5  T
   5   -133.1527424 -0.559202E-05  0.146E-03    1.10       7.7  T
   6   -133.1527425 -0.900695E-07  0.862E-04    1.10      13.1  T
   7   -133.1527425 -0.313533E-07  0.524E-04    1.10      21.6  T
     SCC iter.                  ...        0 min,  0.068 sec
     gradient                   ...        0 min,  0.080 sec
 * total energy  :  -130.7249712 Eh     change       -0.1333317E-02 Eh
   gradient norm :     0.0127225 Eh/α   predicted    -0.9235590E-03 ( -30.73%)
   displ. norm   :     0.3612739 α      lambda       -0.1478167E-02
   maximum displ.:     0.1832101 α      in ANC's #9, #16, #5, ...

........................................................................
.............................. CYCLE   23 ..............................
........................................................................
   1   -133.1592707 -0.133159E+03  0.928E-02    1.10       0.0  T
   2   -133.1592757 -0.501890E-05  0.550E-02    1.10       1.0  T
   3   -133.1592056  0.700416E-04  0.246E-02    1.10       1.0  T
   4   -133.1592727 -0.670293E-04  0.874E-03    1.10       1.3  T
   5   -133.1592820 -0.932512E-05  0.172E-03    1.10       6.6  T
   6   -133.1592821 -0.107448E-06  0.992E-04    1.10      11.4  T
   7   -133.1592821 -0.189656E-07  0.624E-04    1.10      18.1  T
     SCC iter.                  ...        0 min,  0.070 sec
     gradient                   ...        0 min,  0.080 sec
 * total energy  :  -130.7259092 Eh     change       -0.9379758E-03 Eh
   gradient norm :     0.0072968 Eh/α   predicted    -0.8356764E-03 ( -10.91%)
   displ. norm   :     0.2584126 α      lambda       -0.4447117E-03
   maximum displ.:     0.1587487 α      in ANC's #9, #5, #4, ...

........................................................................
.............................. CYCLE   24 ..............................
........................................................................
   1   -133.1589149 -0.133159E+03  0.561E-02    1.10       0.0  T
   2   -133.1589158 -0.897327E-06  0.329E-02    1.10       1.0  T
   3   -133.1589084  0.731940E-05  0.922E-03    1.10       1.2  T
   4   -133.1589162 -0.780697E-05  0.190E-03    1.10       6.0  T
   5   -133.1589166 -0.331351E-06  0.706E-04    1.10      16.0  T
   6   -133.1589166 -0.666947E-08  0.474E-04    1.10      23.9  T
     SCC iter.                  ...        0 min,  0.061 sec
     gradient                   ...        0 min,  0.080 sec
 * total energy  :  -130.7262443 Eh     change       -0.3350861E-03 Eh
   gradient norm :     0.0080418 Eh/α   predicted    -0.2372658E-03 ( -29.19%)
   displ. norm   :     0.2802663 α      lambda       -0.3732023E-03
   maximum displ.:     0.1797065 α      in ANC's #9, #5, #4, ...

........................................................................
.............................. CYCLE   25 ..............................
........................................................................
   1   -133.1568659 -0.133157E+03  0.552E-02    1.10       0.0  T
   2   -133.1568664 -0.539133E-06  0.325E-02    1.10       1.0  T
   3   -133.1568490  0.174115E-04  0.118E-02    1.10       1.0  T
   4   -133.1568671 -0.181214E-04  0.214E-03    1.10       5.3  T
   5   -133.1568676 -0.498028E-06  0.833E-04    1.10      13.6  T
   6   -133.1568676 -0.397778E-07  0.415E-04    1.10      27.3  T
     SCC iter.                  ...        0 min,  0.061 sec
     gradient                   ...        0 min,  0.080 sec
 * total energy  :  -130.7265331 Eh     change       -0.2887989E-03 Eh
   gradient norm :     0.0059257 Eh/α   predicted    -0.2012610E-03 ( -30.31%)
   displ. norm   :     0.2780901 α      lambda       -0.2875079E-03
   maximum displ.:     0.1771649 α      in ANC's #9, #5, #4, ...

........................................................................
.............................. CYCLE   26 ..............................
........................................................................
   1   -133.1549457 -0.133155E+03  0.495E-02    1.10       0.0  T
   2   -133.1549459 -0.200674E-06  0.293E-02    1.10       1.0  T
   3   -133.1549173  0.286132E-04  0.146E-02    1.10       1.0  T
   4   -133.1549470 -0.297471E-04  0.249E-03    1.10       4.5  T
   5   -133.1549476 -0.614841E-06  0.816E-04    1.10      13.9  T
   6   -133.1549477 -0.390833E-07  0.425E-04    1.10      26.6  T
     SCC iter.                  ...        0 min,  0.062 sec
     gradient                   ...        0 min,  0.080 sec
 * total energy  :  -130.7267637 Eh     change       -0.2305753E-03 Eh
   gradient norm :     0.0045318 Eh/α   predicted    -0.1548713E-03 ( -32.83%)
   displ. norm   :     0.3073052 α      lambda       -0.2670948E-03
   maximum displ.:     0.1900211 α      in ANC's #9, #5, #4, ...

........................................................................
.............................. CYCLE   27 ..............................
........................................................................
   1   -133.1536961 -0.133154E+03  0.485E-02    1.10       0.0  T
   2   -133.1536961 -0.873828E-08  0.286E-02    1.10       1.0  T
   3   -133.1536675  0.286695E-04  0.143E-02    1.10       1.0  T
   4   -133.1536974 -0.299317E-04  0.213E-03    1.10       5.3  T
   5   -133.1536978 -0.419600E-06  0.708E-04    1.10      16.0  T
   6   -133.1536978 -0.279618E-07  0.392E-04    1.10      28.9  T
     SCC iter.                  ...        0 min,  0.059 sec
     gradient                   ...        0 min,  0.080 sec
 * total energy  :  -130.7269875 Eh     change       -0.2238106E-03 Eh
   gradient norm :     0.0049456 Eh/α   predicted    -0.1461596E-03 ( -34.69%)
   displ. norm   :     0.3908027 α      lambda       -0.3075190E-03
   maximum displ.:     0.2328327 α      in ANC's #9, #5, #4, ...

........................................................................
.............................. CYCLE   28 ..............................
........................................................................
   1   -133.1529145 -0.133153E+03  0.566E-02    1.10       0.0  T
   2   -133.1529142  0.251027E-06  0.334E-02    1.10       1.0  T
   3   -133.1528750  0.392407E-04  0.166E-02    1.10       1.0  T
   4   -133.1529163 -0.412606E-04  0.188E-03    1.10       6.0  T
   5   -133.1529166 -0.292605E-06  0.736E-04    1.10      15.4  T
   6   -133.1529166 -0.233196E-07  0.439E-04    1.10      25.8  T
     SCC iter.                  ...        0 min,  0.059 sec
     gradient                   ...        0 min,  0.080 sec
 * total energy  :  -130.7272453 Eh     change       -0.2577947E-03 Eh
   gradient norm :     0.0057925 Eh/α   predicted    -0.1772455E-03 ( -31.25%)
   displ. norm   :     0.4846753 α      lambda       -0.3363157E-03
   maximum displ.:     0.2861766 α      in ANC's #5, #9, #4, ...

........................................................................
.............................. CYCLE   29 ..............................
........................................................................
   1   -133.1523792 -0.133152E+03  0.640E-02    1.10       0.0  T
   2   -133.1523789  0.282497E-06  0.377E-02    1.10       1.0  T
   3   -133.1523314  0.474662E-04  0.183E-02    1.10       1.0  T
   4   -133.1523815 -0.500617E-04  0.192E-03    1.10       5.9  T
   5   -133.1523818 -0.307715E-06  0.865E-04    1.10      13.1  T
   6   -133.1523818 -0.306599E-07  0.494E-04    1.10      22.9  T
     SCC iter.                  ...        0 min,  0.059 sec
     gradient                   ...        0 min,  0.080 sec
 * total energy  :  -130.7275197 Eh     change       -0.2743898E-03 Eh
   gradient norm :     0.0059235 Eh/α   predicted    -0.2076615E-03 ( -24.32%)
   displ. norm   :     0.4890208 α      lambda       -0.2918941E-03
   maximum displ.:     0.2913426 α      in ANC's #5, #9, #4, ...

........................................................................
.............................. CYCLE   30 ..............................
........................................................................
   1   -133.1522077 -0.133152E+03  0.624E-02    1.10       0.0  T
   2   -133.1522077 -0.667513E-07  0.367E-02    1.10       1.0  T
   3   -133.1521652  0.425051E-04  0.180E-02    1.10       1.0  T
   4   -133.1522102 -0.449582E-04  0.214E-03    1.10       5.3  T
   5   -133.1522106 -0.404071E-06  0.107E-03    1.10      10.6  T
   6   -133.1522107 -0.754045E-07  0.506E-04    1.10      22.4  T
   7   -133.1522107 -0.853734E-08  0.221E-04    1.10      51.1  T
     SCC iter.                  ...        0 min,  0.071 sec
     gradient                   ...        0 min,  0.080 sec
 * total energy  :  -130.7277534 Eh     change       -0.2337032E-03 Eh
   gradient norm :     0.0051167 Eh/α   predicted    -0.1808494E-03 ( -22.62%)
   displ. norm   :     0.4446313 α      lambda       -0.2307042E-03
   maximum displ.:     0.2692645 α      in ANC's #5, #4, #9, ...

........................................................................
.............................. CYCLE   31 ..............................
........................................................................
   1   -133.1526726 -0.133153E+03  0.554E-02    1.10       0.0  T
   2   -133.1526731 -0.570221E-06  0.325E-02    1.10       1.0  T
   3   -133.1526453  0.278414E-04  0.155E-02    1.10       1.0  T
   4   -133.1526750 -0.296511E-04  0.206E-03    1.10       5.5  T
   5   -133.1526753 -0.332587E-06  0.119E-03    1.10       9.5  T
   6   -133.1526754 -0.122977E-06  0.481E-04    1.10      23.5  T
   7   -133.1526754 -0.661694E-08  0.220E-04    1.10      51.4  T
     SCC iter.                  ...        0 min,  0.071 sec
     gradient                   ...        0 min,  0.080 sec
 * total energy  :  -130.7279330 Eh     change       -0.1795740E-03 Eh
   gradient norm :     0.0040943 Eh/α   predicted    -0.1381608E-03 ( -23.06%)
   displ. norm   :     0.3678584 α      lambda       -0.1648222E-03
   maximum displ.:     0.2270522 α      in ANC's #5, #4, #9, ...

........................................................................
.............................. CYCLE   32 ..............................
........................................................................
   1   -133.1529830 -0.133153E+03  0.474E-02    1.10       0.0  T
   2   -133.1529835 -0.484688E-06  0.279E-02    1.10       1.0  T
   3   -133.1529625  0.210216E-04  0.140E-02    1.10       1.0  T
   4   -133.1529851 -0.226089E-04  0.168E-03    1.10       6.7  T
   5   -133.1529853 -0.165612E-06  0.107E-03    1.10      10.6  T
   6   -133.1529854 -0.101353E-06  0.449E-04    1.10      25.2  T
   7   -133.1529854 -0.664457E-08  0.212E-04    1.10      53.4  T
     SCC iter.                  ...        0 min,  0.070 sec
     gradient                   ...        0 min,  0.079 sec
 * total energy  :  -130.7280586 Eh     change       -0.1256769E-03 Eh
   gradient norm :     0.0034065 Eh/α   predicted    -0.9356335E-04 ( -25.55%)
   displ. norm   :     0.2770527 α      lambda       -0.1179248E-03
   maximum displ.:     0.1748662 α      in ANC's #5, #4, #11, ...

........................................................................
.............................. CYCLE   33 ..............................
........................................................................
   1   -133.1536488 -0.133154E+03  0.399E-02    1.10       0.0  T
   2   -133.1536492 -0.345485E-06  0.235E-02    1.10       1.0  T
   3   -133.1536364  0.127514E-04  0.109E-02    1.10       1.0  T
   4   -133.1536502 -0.137298E-04  0.137E-03    1.10       8.3  T
   5   -133.1536503 -0.999742E-07  0.875E-04    1.10      12.9  T
   6   -133.1536503 -0.578549E-07  0.405E-04    1.10      28.0  T
     SCC iter.                  ...        0 min,  0.059 sec
     gradient                   ...        0 min,  0.080 sec
 * total energy  :  -130.7281491 Eh     change       -0.9046185E-04 Eh
   gradient norm :     0.0034958 Eh/α   predicted    -0.6348995E-04 ( -29.82%)
   displ. norm   :     0.2337061 α      lambda       -0.9944665E-04
   maximum displ.:     0.1482283 α      in ANC's #5, #4, #11, ...

........................................................................
.............................. CYCLE   34 ..............................
........................................................................
   1   -133.1534623 -0.133153E+03  0.350E-02    1.10       0.0  T
   2   -133.1534626 -0.259495E-06  0.206E-02    1.10       1.0  T
   3   -133.1534532  0.939869E-05  0.911E-03    1.10       1.2  T
   4   -133.1534633 -0.101407E-04  0.114E-03    1.10       9.9  T
   5   -133.1534634 -0.762957E-07  0.606E-04    1.10      18.7  T
   6   -133.1534634 -0.113668E-07  0.376E-04    1.10      30.1  T
     SCC iter.                  ...        0 min,  0.063 sec
     gradient                   ...        0 min,  0.079 sec
 * total energy  :  -130.7282251 Eh     change       -0.7600138E-04 Eh
   gradient norm :     0.0031677 Eh/α   predicted    -0.5244035E-04 ( -31.00%)
   displ. norm   :     0.2165791 α      lambda       -0.8561229E-04
   maximum displ.:     0.1365041 α      in ANC's #5, #4, #11, ...

........................................................................
.............................. CYCLE   35 ..............................
........................................................................
   1   -133.1530011 -0.133153E+03  0.377E-02    1.10       0.0  T
   2   -133.1530014 -0.292256E-06  0.221E-02    1.10       1.0  T
   3   -133.1529951  0.631669E-05  0.716E-03    1.10       1.6  T
   4   -133.1530018 -0.666090E-05  0.137E-03    1.10       8.3  T
   5   -133.1530019 -0.155343E-06  0.642E-04    1.10      17.6  T
   6   -133.1530020 -0.203019E-07  0.372E-04    1.10      30.5  T
     SCC iter.                  ...        0 min,  0.061 sec
     gradient                   ...        0 min,  0.080 sec
 * total energy  :  -130.7282903 Eh     change       -0.6519910E-04 Eh
   gradient norm :     0.0026329 Eh/α   predicted    -0.4481480E-04 ( -31.26%)
   displ. norm   :     0.1882339 α      lambda       -0.6911738E-04
   maximum displ.:     0.1172914 α      in ANC's #5, #4, #11, ...

........................................................................
.............................. CYCLE   36 ..............................
........................................................................
   1   -133.1522646 -0.133152E+03  0.315E-02    1.10       0.0  T
   2   -133.1522648 -0.240438E-06  0.185E-02    1.10       1.0  T
   3   -133.1522629  0.196015E-05  0.402E-03    1.10       2.8  T
   4   -133.1522649 -0.203618E-05  0.108E-03    1.10      10.5  T
   5   -133.1522650 -0.116894E-06  0.433E-04    1.10      26.2  T
   6   -133.1522650 -0.581736E-08  0.258E-04    1.10      43.9  T
     SCC iter.                  ...        0 min,  0.060 sec
     gradient                   ...        0 min,  0.080 sec
 * total energy  :  -130.7283452 Eh     change       -0.5490921E-04 Eh
   gradient norm :     0.0025919 Eh/α   predicted    -0.3578457E-04 ( -34.83%)
   displ. norm   :     0.1912371 α      lambda       -0.6812505E-04
   maximum displ.:     0.1157996 α      in ANC's #5, #4, #11, ...

........................................................................
.............................. CYCLE   37 ..............................
........................................................................
   1   -133.1517774 -0.133152E+03  0.334E-02    1.10       0.0  T
   2   -133.1517776 -0.191479E-06  0.196E-02    1.10       1.0  T
   3   -133.1517756  0.198556E-05  0.399E-03    1.10       2.8  T
   4   -133.1517777 -0.209448E-05  0.908E-04    1.10      12.5  T
   5   -133.1517778 -0.694986E-07  0.428E-04    1.10      26.5  T
   6   -133.1517778 -0.485949E-08  0.249E-04    1.10      45.5  T
     SCC iter.                  ...        0 min,  0.061 sec
     gradient                   ...        0 min,  0.079 sec
 * total energy  :  -130.7284006 Eh     change       -0.5535142E-04 Eh
   gradient norm :     0.0028205 Eh/α   predicted    -0.3531032E-04 ( -36.21%)
   displ. norm   :     0.2127859 α      lambda       -0.7207314E-04
   maximum displ.:     0.1291959 α      in ANC's #4, #5, #9, ...

........................................................................
.............................. CYCLE   38 ..............................
........................................................................
   1   -133.1514491 -0.133151E+03  0.365E-02    1.10       0.0  T
   2   -133.1514492 -0.154421E-06  0.214E-02    1.10       1.0  T
   3   -133.1514452  0.407929E-05  0.568E-03    1.10       2.0  T
   4   -133.1514495 -0.431463E-05  0.927E-04    1.10      12.2  T
   5   -133.1514495 -0.492796E-07  0.505E-04    1.10      22.4  T
   6   -133.1514495 -0.102432E-07  0.271E-04    1.10      41.7  T
     SCC iter.                  ...        0 min,  0.059 sec
     gradient                   ...        0 min,  0.079 sec
 * total energy  :  -130.7284592 Eh     change       -0.5866959E-04 Eh
   gradient norm :     0.0031327 Eh/α   predicted    -0.3767036E-04 ( -35.79%)
   displ. norm   :     0.2370369 α      lambda       -0.7320374E-04
   maximum displ.:     0.1468350 α      in ANC's #4, #5, #9, ...

........................................................................
.............................. CYCLE   39 ..............................
........................................................................
   1   -133.1513102 -0.133151E+03  0.397E-02    1.10       0.0  T
   2   -133.1513104 -0.232890E-06  0.233E-02    1.10       1.0  T
   3   -133.1513070  0.336653E-05  0.504E-03    1.10       2.2  T
   4   -133.1513106 -0.358634E-05  0.102E-03    1.10      11.1  T
   5   -133.1513107 -0.664393E-07  0.525E-04    1.10      21.6  T
   6   -133.1513107 -0.949345E-08  0.314E-04    1.10      36.1  T
     SCC iter.                  ...        0 min,  0.059 sec
     gradient                   ...        0 min,  0.080 sec
 * total energy  :  -130.7285186 Eh     change       -0.5936520E-04 Eh
   gradient norm :     0.0030105 Eh/α   predicted    -0.3866177E-04 ( -34.87%)
   displ. norm   :     0.2436173 α      lambda       -0.6832245E-04
   maximum displ.:     0.1548071 α      in ANC's #4, #5, #9, ...

........................................................................
.............................. CYCLE   40 ..............................
........................................................................
   1   -133.1514124 -0.133151E+03  0.396E-02    1.10       0.0  T
   2   -133.1514126 -0.270993E-06  0.232E-02    1.10       1.0  T
   3   -133.1514102  0.246898E-05  0.451E-03    1.10       2.5  T
   4   -133.1514127 -0.257022E-05  0.124E-03    1.10       9.2  T
   5   -133.1514129 -0.131302E-06  0.486E-04    1.10      23.3  T
   6   -133.1514129 -0.650465E-08  0.296E-04    1.10      38.3  T
     SCC iter.                  ...        0 min,  0.060 sec
     gradient                   ...        0 min,  0.079 sec
 * total energy  :  -130.7285742 Eh     change       -0.5556906E-04 Eh
   gradient norm :     0.0025515 Eh/α   predicted    -0.3618913E-04 ( -34.88%)
   displ. norm   :     0.2452410 α      lambda       -0.6335211E-04
   maximum displ.:     0.1598150 α      in ANC's #4, #5, #9, ...

........................................................................
.............................. CYCLE   41 ..............................
........................................................................
   1   -133.1517191 -0.133152E+03  0.387E-02    1.10       0.0  T
   2   -133.1517194 -0.297001E-06  0.226E-02    1.10       1.0  T
   3   -133.1517190  0.405295E-06  0.237E-03    1.10       4.8  T
   4   -133.1517195 -0.470334E-06  0.931E-04    1.10      12.2  T
   5   -133.1517195 -0.666736E-07  0.494E-04    1.10      22.9  T
     SCC iter.                  ...        0 min,  0.050 sec
     gradient                   ...        0 min,  0.080 sec
 * total energy  :  -130.7286263 Eh     change       -0.5216501E-04 Eh
   gradient norm :     0.0022073 Eh/α   predicted    -0.3358202E-04 ( -35.62%)
   displ. norm   :     0.2609827 α      lambda       -0.6373515E-04
   maximum displ.:     0.1722427 α      in ANC's #4, #5, #9, ...

........................................................................
.............................. CYCLE   42 ..............................
........................................................................
   1   -133.1520514 -0.133152E+03  0.398E-02    1.10       0.0  T
   2   -133.1520517 -0.286026E-06  0.233E-02    1.10       1.0  T
   3   -133.1520509  0.774671E-06  0.311E-03    1.10       3.6  T
   4   -133.1520519 -0.915077E-06  0.757E-04    1.10      15.0  T
   5   -133.1520519 -0.277216E-07  0.426E-04    1.10      26.6  T
     SCC iter.                  ...        0 min,  0.051 sec
     gradient                   ...        0 min,  0.079 sec
 * total energy  :  -130.7286797 Eh     change       -0.5336942E-04 Eh
   gradient norm :     0.0023441 Eh/α   predicted    -0.3404019E-04 ( -36.22%)
   displ. norm   :     0.3063111 α      lambda       -0.7112133E-04
   maximum displ.:     0.2023362 α      in ANC's #4, #5, #9, ...
 * RMSD in coord.:     0.6019834 α      energy gain  -0.7225128E-02 Eh

generating ANC from model Hessian ...
Using Lindh-Hessian (1995)
 Shifting diagonal of input Hessian by    9.9822288741233008E-003
 Lowest  eigenvalues of input Hessian
    0.000000    0.000000    0.000000    0.000000    0.000000    0.000000
    0.010000    0.010002    0.010016    0.010120    0.010241    0.010835
    0.010836    0.011548    0.011725    0.012111    0.012444    0.012740
 Highest eigenvalues
    2.225294    2.232704    2.247352    2.247588    2.402451    2.926129


........................................................................
.............................. CYCLE   43 ..............................
........................................................................
   1   -133.1522605 -0.133152E+03  0.456E-02    1.10       0.0  T
   2   -133.1522608 -0.373590E-06  0.267E-02    1.10       1.0  T
   3   -133.1522599  0.979434E-06  0.330E-03    1.10       3.4  T
   4   -133.1522610 -0.116536E-05  0.853E-04    1.10      13.3  T
   5   -133.1522610 -0.207892E-07  0.571E-04    1.10      19.8  T
   6   -133.1522611 -0.138283E-07  0.283E-04    1.10      40.1  T
     SCC iter.                  ...        0 min,  0.061 sec
     gradient                   ...        0 min,  0.079 sec
 * total energy  :  -130.7287394 Eh     change       -0.5970429E-04 Eh
   gradient norm :     0.0026016 Eh/α   predicted     0.0000000E+00 (-100.00%)
   displ. norm   :     0.0335190 α      lambda       -0.2108110E-04
   maximum displ.:     0.0164195 α      in ANC's #5, #9, #10, ...

........................................................................
.............................. CYCLE   44 ..............................
........................................................................
   1   -133.1526944 -0.133153E+03  0.821E-03    1.10       0.0  T
   2   -133.1526945 -0.386671E-07  0.483E-03    1.10       2.3  T
   3   -133.1526942  0.317058E-06  0.173E-03    1.10       6.6  T
   4   -133.1526944 -0.293121E-06  0.662E-04    1.10      17.1  T
   5   -133.1526945 -0.491004E-07  0.157E-04    1.10      71.9  T
     SCC iter.                  ...        0 min,  0.052 sec
     gradient                   ...        0 min,  0.080 sec
 * total energy  :  -130.7287600 Eh     change       -0.2059566E-04 Eh
   gradient norm :     0.0016519 Eh/α   predicted    -0.1195564E-04 ( -41.95%)
   displ. norm   :     0.2302313 α      lambda       -0.8120840E-04
   maximum displ.:     0.1163703 α      in ANC's #5, #10, #9, ...

........................................................................
.............................. CYCLE   45 ..............................
........................................................................
   1   -133.1541352 -0.133154E+03  0.562E-02    1.10       0.0  T
   2   -133.1541366 -0.143439E-05  0.331E-02    1.10       1.0  T
   3   -133.1541293  0.733850E-05  0.861E-03    1.10       1.3  T
   4   -133.1541362 -0.687593E-05  0.324E-03    1.10       3.5  T
   5   -133.1541374 -0.119390E-05  0.113E-03    1.10      10.0  T
   6   -133.1541374 -0.660600E-07  0.545E-04    1.10      20.8  T
   7   -133.1541374 -0.234195E-08  0.336E-04    1.10      33.7  T
     SCC iter.                  ...        0 min,  0.068 sec
     gradient                   ...        0 min,  0.079 sec
 * total energy  :  -130.7287361 Eh     change        0.2387173E-04 Eh
   gradient norm :     0.0050662 Eh/α   predicted    -0.4156084E-04 (-274.10%)
   displ. norm   :     0.0530318 α      lambda       -0.1169150E-03
   maximum displ.:     0.0281215 α      in ANC's #18, #17, #5, ...

........................................................................
.............................. CYCLE   46 ..............................
........................................................................
   1   -133.1542109 -0.133154E+03  0.278E-02    1.10       0.0  T
   2   -133.1542110 -0.634618E-07  0.167E-02    1.10       1.0  T
   3   -133.1542107  0.256512E-06  0.166E-03    1.10       6.8  T
   4   -133.1542110 -0.283674E-06  0.508E-04    1.10      22.3  T
   5   -133.1542110 -0.119860E-07  0.326E-04    1.10      34.8  T
     SCC iter.                  ...        0 min,  0.050 sec
     gradient                   ...        0 min,  0.079 sec
 * total energy  :  -130.7287940 Eh     change       -0.5787929E-04 Eh
   gradient norm :     0.0036950 Eh/α   predicted    -0.5862507E-04 (   1.29%)
   displ. norm   :     0.0638293 α      lambda       -0.3908518E-04
   maximum displ.:     0.0266696 α      in ANC's #16, #10, #9, ...

........................................................................
.............................. CYCLE   47 ..............................
........................................................................
   1   -133.1538073 -0.133154E+03  0.186E-02    1.10       0.0  T
   2   -133.1538076 -0.241266E-06  0.109E-02    1.10       1.0  T
   3   -133.1538068  0.814984E-06  0.301E-03    1.10       3.8  T
   4   -133.1538075 -0.738727E-06  0.123E-03    1.10       9.2  T
   5   -133.1538077 -0.171503E-06  0.410E-04    1.10      27.6  T
   6   -133.1538077 -0.119704E-07  0.167E-04    1.10      68.0  T
     SCC iter.                  ...        0 min,  0.059 sec
     gradient                   ...        0 min,  0.080 sec
 * total energy  :  -130.7288155 Eh     change       -0.2148390E-04 Eh
   gradient norm :     0.0011197 Eh/α   predicted    -0.1962261E-04 (  -8.66%)
   displ. norm   :     0.0410429 α      lambda       -0.7357997E-05
   maximum displ.:     0.0316838 α      in ANC's #5, #9, #10, ...

........................................................................
.............................. CYCLE   48 ..............................
........................................................................
   1   -133.1537777 -0.133154E+03  0.655E-03    1.10       0.0  T
   2   -133.1537777 -0.958184E-08  0.386E-03    1.10       2.9  T
   3   -133.1537774  0.332826E-06  0.160E-03    1.10       7.1  T
   4   -133.1537777 -0.343819E-06  0.331E-04    1.10      34.2  T
   5   -133.1537777 -0.124660E-07  0.992E-05    1.10     114.1  T
     SCC iter.                  ...        0 min,  0.051 sec
     gradient                   ...        0 min,  0.080 sec
 * total energy  :  -130.7288252 Eh     change       -0.9713779E-05 Eh
   gradient norm :     0.0005973 Eh/α   predicted    -0.3693126E-05 ( -61.98%)
   displ. norm   :     0.0941465 α      lambda       -0.1230361E-04
   maximum displ.:     0.0662712 α      in ANC's #5, #9, #10, ...

........................................................................
.............................. CYCLE   49 ..............................
........................................................................
   1   -133.1539828 -0.133154E+03  0.131E-02    1.10       0.0  T
   2   -133.1539828 -0.152208E-07  0.768E-03    1.10       1.5  T
   3   -133.1539815  0.125465E-05  0.317E-03    1.10       3.6  T
   4   -133.1539828 -0.132731E-05  0.388E-04    1.10      29.2  T
   5   -133.1539829 -0.108001E-07  0.213E-04    1.10      53.3  T
   6   -133.1539829 -0.156155E-08  0.129E-04    1.10      87.8  T
     SCC iter.                  ...        0 min,  0.061 sec
     gradient                   ...        0 min,  0.080 sec
 * total energy  :  -130.7288405 Eh     change       -0.1534455E-04 Eh
   gradient norm :     0.0004933 Eh/α   predicted    -0.6181447E-05 ( -59.72%)
   displ. norm   :     0.1091945 α      lambda       -0.1042678E-04
   maximum displ.:     0.0781748 α      in ANC's #5, #9, #10, ...

........................................................................
.............................. CYCLE   50 ..............................
........................................................................
   1   -133.1541723 -0.133154E+03  0.143E-02    1.10       0.0  T
   2   -133.1541723 -0.254736E-07  0.840E-03    1.10       1.3  T
   3   -133.1541710  0.139900E-05  0.347E-03    1.10       3.3  T
   4   -133.1541724 -0.148830E-05  0.431E-04    1.10      26.3  T
   5   -133.1541725 -0.126935E-07  0.246E-04    1.10      46.0  T
   6   -133.1541725 -0.309029E-08  0.137E-04    1.10      82.9  T
     SCC iter.                  ...        0 min,  0.062 sec
     gradient                   ...        0 min,  0.080 sec
 * total energy  :  -130.7288531 Eh     change       -0.1251564E-04 Eh
   gradient norm :     0.0006114 Eh/α   predicted    -0.5241883E-05 ( -58.12%)
   displ. norm   :     0.0829812 α      lambda       -0.6169586E-05
   maximum displ.:     0.0623085 α      in ANC's #5, #9, #10, ...

........................................................................
.............................. CYCLE   51 ..............................
........................................................................
   1   -133.1543413 -0.133154E+03  0.106E-02    1.10       0.0  T
   2   -133.1543414 -0.171094E-07  0.624E-03    1.10       1.8  T
   3   -133.1543407  0.706219E-06  0.256E-03    1.10       4.4  T
   4   -133.1543414 -0.756068E-06  0.322E-04    1.10      35.1  T
   5   -133.1543414 -0.614665E-08  0.190E-04    1.10      59.6  T
     SCC iter.                  ...        0 min,  0.051 sec
     gradient                   ...        0 min,  0.079 sec
 * total energy  :  -130.7288607 Eh     change       -0.7625432E-05 Eh
   gradient norm :     0.0005590 Eh/α   predicted    -0.3096769E-05 ( -59.39%)
   displ. norm   :     0.0603501 α      lambda       -0.4395346E-05
   maximum displ.:     0.0475402 α      in ANC's #5, #9, #30, ...

........................................................................
.............................. CYCLE   52 ..............................
........................................................................
   1   -133.1544407 -0.133154E+03  0.804E-03    1.10       0.0  T
   2   -133.1544407 -0.917387E-08  0.472E-03    1.10       2.4  T
   3   -133.1544403  0.396331E-06  0.198E-03    1.10       5.7  T
   4   -133.1544408 -0.428888E-06  0.187E-04    1.10      60.5  T
   5   -133.1544408 -0.134654E-08  0.109E-04    1.10     103.7  T
     SCC iter.                  ...        0 min,  0.050 sec
     gradient                   ...        0 min,  0.079 sec
 * total energy  :  -130.7288664 Eh     change       -0.5679591E-05 Eh
   gradient norm :     0.0005037 Eh/α   predicted    -0.2203757E-05 ( -61.20%)
   displ. norm   :     0.0557191 α      lambda       -0.4303064E-05
   maximum displ.:     0.0440978 α      in ANC's #5, #9, #16, ...

........................................................................
.............................. CYCLE   53 ..............................
........................................................................
   1   -133.1544914 -0.133154E+03  0.863E-03    1.10       0.0  T
   2   -133.1544914 -0.102373E-07  0.506E-03    1.10       2.2  T
   3   -133.1544911  0.308653E-06  0.172E-03    1.10       6.6  T
   4   -133.1544915 -0.333191E-06  0.195E-04    1.10      58.2  T
   5   -133.1544915 -0.138851E-08  0.122E-04    1.10      93.1  T
     SCC iter.                  ...        0 min,  0.049 sec
     gradient                   ...        0 min,  0.080 sec
 * total energy  :  -130.7288720 Eh     change       -0.5672157E-05 Eh
   gradient norm :     0.0004663 Eh/α   predicted    -0.2157908E-05 ( -61.96%)
   displ. norm   :     0.0605300 α      lambda       -0.4520997E-05
   maximum displ.:     0.0469577 α      in ANC's #5, #9, #10, ...

........................................................................
.............................. CYCLE   54 ..............................
........................................................................
   1   -133.1545328 -0.133155E+03  0.104E-02    1.10       0.0  T
   2   -133.1545328 -0.169079E-07  0.610E-03    1.10       1.9  T
   3   -133.1545326  0.220653E-06  0.147E-03    1.10       7.7  T
   4   -133.1545328 -0.240362E-06  0.215E-04    1.10      52.7  T
   5   -133.1545328 -0.103060E-08  0.150E-04    1.10      75.3  T
     SCC iter.                  ...        0 min,  0.052 sec
     gradient                   ...        0 min,  0.080 sec
 * total energy  :  -130.7288779 Eh     change       -0.5902822E-05 Eh
   gradient norm :     0.0004705 Eh/α   predicted    -0.2265363E-05 ( -61.62%)
   displ. norm   :     0.0606216 α      lambda       -0.4063215E-05
   maximum displ.:     0.0471900 α      in ANC's #5, #9, #10, ...

........................................................................
.............................. CYCLE   55 ..............................
........................................................................
   1   -133.1545750 -0.133155E+03  0.107E-02    1.10       0.0  T
   2   -133.1545751 -0.173079E-07  0.624E-03    1.10       1.8  T
   3   -133.1545750  0.882056E-07  0.962E-04    1.10      11.8  T
   4   -133.1545751 -0.100944E-06  0.178E-04    1.10      63.8  T
     SCC iter.                  ...        0 min,  0.041 sec
     gradient                   ...        0 min,  0.080 sec
 * total energy  :  -130.7288833 Eh     change       -0.5337511E-05 Eh
   gradient norm :     0.0004378 Eh/α   predicted    -0.2037997E-05 ( -61.82%)
   displ. norm   :     0.0552376 α      lambda       -0.3446130E-05
   maximum displ.:     0.0438515 α      in ANC's #5, #10, #9, ...

........................................................................
.............................. CYCLE   56 ..............................
........................................................................
   1   -133.1546633 -0.133155E+03  0.997E-03    1.10       0.0  T
   2   -133.1546633 -0.152667E-07  0.584E-03    1.10       1.9  T
   3   -133.1546633  0.521045E-07  0.716E-04    1.10      15.8  T
   4   -133.1546633 -0.606749E-07  0.179E-04    1.10      63.4  T
     SCC iter.                  ...        0 min,  0.042 sec
     gradient                   ...        0 min,  0.080 sec
 * total energy  :  -130.7288878 Eh     change       -0.4541594E-05 Eh
   gradient norm :     0.0003554 Eh/α   predicted    -0.1728682E-05 ( -61.94%)
   displ. norm   :     0.0433390 α      lambda       -0.2704762E-05
   maximum displ.:     0.0355782 α      in ANC's #5, #10, #9, ...

   *** GEOMETRY OPTIMIZATION CONVERGED AFTER 56 ITERATIONS ***

------------------------------------------------------------------------
 total energy gain   :        -1.4791589 Eh     -928.1862 kcal/mol
 total RMSD          :         1.5555943 a0        0.8232 Å
 total power (kW/mol):       -69.3487692 (step) -389.0321 (real)
------------------------------------------------------------------------

 ANCopt (total)                0 d,  0 h,  0 min,  9.983 sec
 optimizer setup                ...        0 min,  0.000 sec (  0.001%)
 model hessian                  ...        0 min,  0.049 sec (  0.490%)
 ANC generation                 ...        0 min,  0.019 sec (  0.187%)
 coordinate transformation      ...        0 min,  0.003 sec (  0.030%)
 single point calculation       ...        0 min,  9.872 sec ( 98.891%)
 optimization log               ...        0 min,  0.011 sec (  0.108%)
 hessian update                 ...        0 min,  0.003 sec (  0.025%)
 rational function              ...        0 min,  0.024 sec (  0.238%)

================
 final structure:
================
78
 xtb: 6.4.1 (bd6e46d)
C        10.50590926285216    3.42228488730442    0.32439070144160
C        11.46109073519719    2.47507604539720    0.24941130149226
C        10.75985139684183    1.21225615759206    0.10083632407084
C        11.42127439515232   -0.02738539115645   -0.00764750545090
C        10.77132237087023   -1.26693849066952   -0.12580325330639
C        11.37678284732543   -2.54898317224212   -0.21501450025778
C        10.37436780307865   -3.47059253527813   -0.31238165386310
C         9.13531279200423   -2.77079659502568   -0.28821375538429
N         9.42769373531127   -1.44570018724108   -0.17187569008164
C         7.86809585598880   -3.32773565706677   -0.37747109688181
C         6.65283261557392   -2.65721153180620   -0.37221228779313
C         5.37473495549197   -3.34423484545920   -0.49041212095734
C         4.42905880510549   -2.38737290082258   -0.45422250753308
C         5.13657703516584   -1.12423144726151   -0.31117254315587
N         6.47055798899554   -1.32457726131081   -0.26648273224452
C         4.49316948478553    0.10431953382532   -0.23047606977023
C         5.11776687150695    1.33369058604664   -0.08731494074622
C         4.51079164486525    2.61879923089179    0.00724550614260
C         5.50851374003677    3.53835661602157    0.14189544558133
C         6.75075992912997    2.83963157185607    0.13149750873584
N         6.46251697670183    1.51884395352793   -0.00824994582167
C         8.01751674787455    3.39397929392694    0.23942715791813
C         9.23394001804892    2.72814080727376    0.21629733943170
N         9.42911378442932    1.39387889213649    0.08567947904627
H        10.61440831027877    4.48375176504950    0.43879059217577
H        12.52781259727089    2.58175343415638    0.28972434723040
H        12.43449964022708   -2.72667341007406   -0.20330501020302
H        10.47315327648006   -4.53547032442826   -0.39471812584075
H         8.75173220603975   -0.69208157109407   -0.12753070182475
H         7.82559681584623   -4.40437526596496   -0.46751400525807
H         5.26015420108658   -4.40697255390779   -0.58748105868230
H         3.36206285472278   -2.48614737276862   -0.51426909347458
H         3.41386683870999    0.10202189463584   -0.28081381109448
H         3.45392991202342    2.79978052300177   -0.02451519453002
H         5.40821185545016    4.60209943356437    0.23871033105424
H         7.13650610720879    0.76406384776478   -0.04972923721485
H         8.06087498207079    4.46894083776609    0.34832470342996
C        12.81795957080760   -0.03006888656069    0.00050935929874
C        14.03644806674779   -0.02339779875407   -0.00676207925590
C        15.37760654669068   -0.01486940783104   -0.00819325576860
C        16.59607298286690   -0.00444496490853   -0.01346511682849
C        24.01539266834956    3.37315722084999    0.40481829936156
C        24.96819749425531    2.42276642537785    0.39401028163773
C        24.27012214620381    1.15101358678405    0.28501176049058
C        24.92247220424626   -0.07456419759087    0.23774365011659
C        24.30664302102501   -1.31163765958831    0.12651185501809
C        24.92256591651767   -2.59451823779134    0.06583712606997
C        23.93133682456039   -3.52406666423842   -0.04620258192686
C        22.68428981499671   -2.83391442055416   -0.05530138982065
N        22.96328360635697   -1.50801817391948    0.05081000312840
[...]
    55   6 C       57   6 C                                       1.4091578
    57   6 C       58   6 C                                       1.4046569
    58   6 C       59   6 C                                       1.4206154
    59   6 C       60   6 C                                       1.3651662
    60   6 C       61   6 C                                       1.4232165
    58   6 C       62   7 N                                       1.3562526
    61   6 C       62   7 N                                       1.3619482
    61   6 C       63   6 C                                       1.3870924
    63   6 C       64   6 C                                       1.3879587
    44   6 C       65   7 N                                       1.3496734
    64   6 C       65   7 N                                       1.3491784
    42   6 C       66   1 H                                       1.0732905
    43   6 C       67   1 H                                       1.0732345
    45   6 C       68   1 H                                       1.0804646
    47   6 C       69   1 H                                       1.0727143
    48   6 C       70   1 H                                       1.0728335
    50   7 N       71   1 H                                       1.0127667
    51   6 C       72   1 H                                       1.0813432
    53   6 C       73   1 H                                       1.0731134
    54   6 C       74   1 H                                       1.0728130
    59   6 C       75   1 H                                       1.0726003
    60   6 C       76   1 H                                       1.0726191
    62   7 N       77   1 H                                       1.0133374
    63   6 C       78   1 H                                       1.0812403

 * 4 distinct bonds (by element types)

   Z      Z             #   av. dist./Å        max./Å        min./Å
   1 H    6 C          22     1.0751151     1.0813432     1.0726003
   6 C    6 C          40     1.3916052     1.4548442     1.2185224
   1 H    7 N           4     1.0130468     1.0133374     1.0127561
   6 C    7 N          16     1.3542273     1.3619482     1.3431601

           -------------------------------------------------
          |               Frequency Printout                |
           -------------------------------------------------
 projected vibrational frequencies (cm⁻¹)
eigval :       -0.00    -0.00    -0.00     0.00     0.00     0.00
eigval :        5.69     7.75     8.75    19.68    34.06    41.54
eigval :       42.44    42.66    45.81    65.89    67.15    91.82
eigval :       93.51    99.73   112.80   114.82   117.19   131.77
eigval :      139.94   142.07   150.61   173.53   177.38   182.88
eigval :      190.00   201.74   202.35   205.15   258.90   260.08
eigval :      265.47   265.71   267.50   281.04   296.44   298.37
eigval :      299.95   324.66   339.45   343.01   348.29   357.42
eigval :      358.22   361.89   362.65   365.25   369.11   383.20
eigval :      394.02   394.13   420.32   421.97   430.12   430.44
eigval :      441.98   442.21   501.93   505.35   508.15   600.70
eigval :      600.88   605.22   605.43   627.29   627.51   636.75
eigval :      636.79   647.02   647.08   650.71   650.80   653.47
eigval :      653.53   657.02   657.14   668.38   669.45   713.34
eigval :      714.06   722.84   723.44   727.13   727.63   741.03
eigval :      741.41   747.42   748.21   759.97   760.75   770.75
eigval :      771.28   788.46   789.22   798.33   798.45   806.01
eigval :      806.16   811.73   812.20   814.83   818.99   819.28
eigval :      827.74   827.91   836.03   836.15   839.03   839.20
eigval :      842.03   842.13   842.68   842.73   852.33   852.35
eigval :      853.44   853.55   924.68   960.32   960.38   972.88
eigval :      972.93   973.97   976.93   985.21   999.38   999.64
eigval :     1008.82  1012.79  1016.24  1017.20  1031.74  1031.95
eigval :     1063.23  1063.49  1065.62  1066.33  1069.22  1069.54
eigval :     1074.66  1075.06  1083.11  1107.50  1121.88  1123.18
eigval :     1136.32  1145.33  1158.58  1164.47  1179.00  1182.44
eigval :     1184.00  1184.79  1203.55  1207.32  1231.16  1233.83
eigval :     1245.23  1256.06  1261.41  1285.30  1285.68  1304.97
eigval :     1306.47  1337.78  1338.75  1346.86  1347.45  1359.90
eigval :     1364.31  1374.94  1375.13  1383.18  1383.21  1387.37
eigval :     1388.35  1389.13  1396.86  1425.56  1460.59  1461.36
eigval :     1477.71  1480.18  1495.00  1495.27  1504.95  1505.29
eigval :     1508.57  1509.11  1513.91  1514.00  1549.84  1549.99
eigval :     1555.16  1555.44  1560.31  1560.57  1585.31  1585.59
eigval :     1594.50  1594.75  2223.55  2233.25  3077.36  3077.52
eigval :     3078.46  3078.55  3085.76  3085.93  3139.84  3139.90
eigval :     3144.60  3144.64  3154.93  3155.22  3156.49  3156.53
eigval :     3160.10  3160.13  3161.46  3161.58  3168.89  3169.14
eigval :     3172.81  3172.92  3351.76  3351.96  3360.66  3360.89
 reduced masses (amu)
   1: 11.47   2: 11.72   3: 11.86   4: 11.79   5: 11.82   6: 11.86   7: 11.23   8: 11.38
   9: 11.44  10: 11.37  11: 11.49  12: 11.81  13: 10.88  14: 10.88  15: 11.20  16: 11.77
  17: 10.97  18: 11.03  19: 10.83  20: 10.69  21: 10.72  22: 10.75  23: 11.01  24: 11.73
  25: 12.01  26: 12.02  27: 11.95  28: 11.63  29: 11.41  30: 11.40  31: 11.91  32: 12.13
  33: 12.46  34: 11.73  35: 11.28  36: 11.00  37: 10.47  38: 10.46  39: 11.48  40: 11.84
  41: 11.91  42: 11.10  43: 11.98  44: 11.86  45: 11.03  46: 11.04  47: 10.21  48: 10.58
  49: 10.88  50: 10.87  51: 10.88  52: 10.84  53: 11.99  54: 11.97  55:  9.91  56:  9.92
  57: 10.26  58: 10.31  59:  9.90  60:  9.92  61: 11.71  62: 11.69  63: 11.52  64: 11.51
  65: 11.67  66: 11.25  67: 11.25  68: 10.91  69: 10.91  70: 10.67  71: 10.67  72: 10.81
  73: 10.81  74: 10.97  75: 10.97  76:  9.10  77:  9.23  78:  9.05  79:  9.09  80:  5.79
  81:  5.67  82: 11.27  83: 11.28  84: 11.13  85: 11.08  86: 10.86  87: 10.81  88:  2.03
  89:  2.07  90: 10.87  91: 10.87  92: 10.52  93: 10.43  94: 11.11  95: 11.18  96: 11.30
  97: 11.30  98: 11.55  99: 11.58 100:  3.70 101:  3.69 102:  3.87 103:  3.85 104:  4.39
 105:  4.23 106: 11.31 107:  4.42 108:  4.41 109:  3.79 110:  3.80 111:  3.75 112:  3.74
 113:  4.03 114:  4.03 115:  3.72 116:  3.72 117:  3.71 118:  3.71 119:  3.43 120:  3.43
 121:  3.37 122:  3.37 123: 11.25 124:  6.23 125:  6.45 126:  8.69 127:  8.63 128: 11.06
 129: 10.94 130: 11.46 131:  8.84 132:  8.80 133:  8.57 134:  8.19 135:  9.09 136:  8.97
 137: 10.83 138: 10.92 139:  1.92 140:  1.77 141:  2.12 142:  1.86 143:  2.23 144:  2.12
 145:  2.00 146:  1.94 147:  6.80 148:  7.12 149:  5.37 150:  5.23 151:  6.37 152:  7.36
 153:  6.14 154:  6.04 155:  7.32 156:  6.60 157:  5.86 158:  6.04 159:  9.91 160:  9.63
 161:  8.30 162:  8.61 163:  9.30 164:  8.01 165:  9.36 166:  8.69 167:  8.69 168: 10.96
 169: 11.03 170: 10.85 171: 10.60 172: 11.14 173: 11.33 174: 10.53 175: 10.65 176:  9.51
 177:  9.59 178: 11.29 179: 11.31 180: 11.16 181: 10.67 182: 10.51 183: 10.70 184: 11.61
 185: 11.58 186: 11.56 187: 11.42 188: 11.40 189: 11.90 190: 11.84 191: 11.76 192: 11.77
 193: 11.59 194: 11.60 195: 11.46 196: 11.46 197: 11.74 198: 11.70 199: 11.70 200: 11.69
 201: 11.61 202: 11.61 203: 11.72 204: 11.73 205: 11.72 206: 11.72 207: 12.01 208: 12.01
 209:  1.80 210:  1.80 211:  1.80 212:  1.80 213:  1.81 214:  1.81 215:  1.80 216:  1.80
 217:  1.81 218:  1.81 219:  1.98 220:  1.98 221:  1.82 222:  1.82 223:  1.82 224:  1.82
 225:  1.97 226:  1.97 227:  1.96 228:  1.96 229:  1.96 230:  1.96 231:  1.89 232:  1.89
 233:  1.89 234:  1.89
 IR intensities (km·mol⁻¹)
   1:  0.65   2:  1.18   3:  2.26   4:  0.00   5:  1.69   6:  0.87   7:  0.08   8:  0.89
   9:  0.05  10:  0.03  11:  0.01  12:  0.00  13:  0.07  14:  2.51  15:  2.40  16:  0.50
  17:  0.07  18: 18.78  19:  1.64  20:  1.46  21:  0.64  22:  0.32  23:  0.00  24:  0.68
  25:  0.79  26:  0.00  27:  0.03  28:  0.02  29:  0.80  30:  1.31  31:  0.01  32: 18.02
  33:  0.48  34:  8.51  35:  1.20  36:  0.15  37:  0.03  38:  0.73  39:  0.02  40:  5.10
  41:  0.01  42:  9.44  43:  0.40  44:  0.02  45:  0.02  46: 14.12  47:  0.12  48:  2.69
  49:  8.62  50:  0.00  51: 16.04  52:  0.00  53:  0.00  54:  0.00  55:  0.07  56:  0.39
  57:  0.84  58:  0.00  59:  0.13  60:  3.78  61:  0.08  62:  0.62  63:  8.02  64:  0.10
  65: 17.23  66:  4.38  67: 26.33  68:  0.09  69:  2.94  70:  0.00  71:  0.18  72:  0.01
  73:  0.75  74:  0.09  75:  2.95  76:  1.37  77:  3.05  78: 13.72  79: 16.35  80:  1.83
  81:  0.85  82:  3.14  83:  0.00  84:  0.01  85: 13.59  86:  0.15  87: 17.89  88: 15.35
  89:621.01  90:  0.00  91:  1.21  92:  0.04  93:  8.36  94:  0.00  95:  1.82  96: 14.99
  97:  0.00  98:  0.00  99:  0.96 100:  1.02 101: 41.21 102:  2.75 103:  0.00 104:  0.00
 105: 15.92 106:  0.00 107:  4.45 108:  0.08 109:  0.00 110:  0.42 111: 14.67 112:  0.01
 113:  0.94 114:108.49 115: 44.70 116:  0.19 117:  0.02 118:  3.31 119:  0.44 120:  0.39
 121:  0.06 122:  0.61 123:  3.68 124:  1.96 125: 10.27 126: 14.28 127:  9.42 128:  0.01
 129: 39.98 130:  0.00 131: 89.81 132:  0.28 133:  0.98 134:  0.00 135: 38.72 136:  0.01
 137: 21.82 138:  0.22 139:  7.59 140:  0.01 141:  2.44 142:  0.01 143: 11.88 144:  0.02
 145: 14.30 146:  0.00 147:  0.45 148:  0.00 149:  2.75 150:  0.01 151: 46.25 152:  0.03
Refinement of some symmetry elements was terminated before convergence was reached.
Some symmetry elements may remain unidentified.
Molecule has no symmetry elements
It seems to be the C1 point group
 153: 37.39 154:  0.01 155:  9.73 156:  0.02 157: 51.59 158:  0.00 159: 39.52 160:  0.01
 161: 27.09 162:  0.01 163:109.20 164:  0.01 165: 49.69 166:  0.00 167:  3.01 168:  0.01
 169: 16.15 170:  0.07 171: 53.54 172:  0.00 173:  7.22 174:  0.00 175: 49.63 176:  0.13
 177: 65.52 178:  8.43 179:  1.95 180:  0.00 181: 38.94 182:  0.00 183:  4.19 184:  0.00
 185:  0.01 186:  4.33 187: 11.35 188:  0.00 189:  0.99 190: 15.43 191:  5.81 192:  0.01
 193: 20.72 194:  0.01 195: 55.35 196:  0.42 197: 86.07 198:  0.05 199:  0.33 200: 49.34
 201:  0.00 202: 35.47 203: 69.40 204:  0.03 205: 99.00 206:  0.02 207:  0.00 208:  1.92
 209: 10.07 210:  1.00 211:  1.14 212:  0.17 213:  3.13 214: 11.73 215: 23.87 216: 27.26
 217: 41.47 218: 20.03 219:442.67 220:  3.61 221: 44.23 222: 45.25 223: 56.41 224: 19.49
 225: 49.53 226: 35.05 227:275.74 228:  1.06 229:  0.07 230: 80.90 231: 14.40 232: 12.18
 233:  1.61 234:  0.62
 Raman intensities (amu)
   1:  0.00   2:  0.00   3:  0.00   4:  0.00   5:  0.00   6:  0.00   7:  0.00   8:  0.00
   9:  0.00  10:  0.00  11:  0.00  12:  0.00  13:  0.00  14:  0.00  15:  0.00  16:  0.00
  17:  0.00  18:  0.00  19:  0.00  20:  0.00  21:  0.00  22:  0.00  23:  0.00  24:  0.00
  25:  0.00  26:  0.00  27:  0.00  28:  0.00  29:  0.00  30:  0.00  31:  0.00  32:  0.00
  33:  0.00  34:  0.00  35:  0.00  36:  0.00  37:  0.00  38:  0.00  39:  0.00  40:  0.00
  41:  0.00  42:  0.00  43:  0.00  44:  0.00  45:  0.00  46:  0.00  47:  0.00  48:  0.00
  49:  0.00  50:  0.00  51:  0.00  52:  0.00  53:  0.00  54:  0.00  55:  0.00  56:  0.00
  57:  0.00  58:  0.00  59:  0.00  60:  0.00  61:  0.00  62:  0.00  63:  0.00  64:  0.00
  65:  0.00  66:  0.00  67:  0.00  68:  0.00  69:  0.00  70:  0.00  71:  0.00  72:  0.00
  73:  0.00  74:  0.00  75:  0.00  76:  0.00  77:  0.00  78:  0.00  79:  0.00  80:  0.00
  81:  0.00  82:  0.00  83:  0.00  84:  0.00  85:  0.00  86:  0.00  87:  0.00  88:  0.00
  89:  0.00  90:  0.00  91:  0.00  92:  0.00  93:  0.00  94:  0.00  95:  0.00  96:  0.00
  97:  0.00  98:  0.00  99:  0.00 100:  0.00 101:  0.00 102:  0.00 103:  0.00 104:  0.00
 105:  0.00 106:  0.00 107:  0.00 108:  0.00 109:  0.00 110:  0.00 111:  0.00 112:  0.00
 113:  0.00 114:  0.00 115:  0.00 116:  0.00 117:  0.00 118:  0.00 119:  0.00 120:  0.00
 121:  0.00 122:  0.00 123:  0.00 124:  0.00 125:  0.00 126:  0.00 127:  0.00 128:  0.00
 129:  0.00 130:  0.00 131:  0.00 132:  0.00 133:  0.00 134:  0.00 135:  0.00 136:  0.00
 137:  0.00 138:  0.00 139:  0.00 140:  0.00 141:  0.00 142:  0.00 143:  0.00 144:  0.00
 145:  0.00 146:  0.00 147:  0.00 148:  0.00 149:  0.00 150:  0.00 151:  0.00 152:  0.00
 153:  0.00 154:  0.00 155:  0.00 156:  0.00 157:  0.00 158:  0.00 159:  0.00 160:  0.00
 161:  0.00 162:  0.00 163:  0.00 164:  0.00 165:  0.00 166:  0.00 167:  0.00 168:  0.00
 169:  0.00 170:  0.00 171:  0.00 172:  0.00 173:  0.00 174:  0.00 175:  0.00 176:  0.00
 177:  0.00 178:  0.00 179:  0.00 180:  0.00 181:  0.00 182:  0.00 183:  0.00 184:  0.00
 185:  0.00 186:  0.00 187:  0.00 188:  0.00 189:  0.00 190:  0.00 191:  0.00 192:  0.00
 193:  0.00 194:  0.00 195:  0.00 196:  0.00 197:  0.00 198:  0.00 199:  0.00 200:  0.00
 201:  0.00 202:  0.00 203:  0.00 204:  0.00 205:  0.00 206:  0.00 207:  0.00 208:  0.00
 209:  0.00 210:  0.00 211:  0.00 212:  0.00 213:  0.00 214:  0.00 215:  0.00 216:  0.00
 217:  0.00 218:  0.00 219:  0.00 220:  0.00 221:  0.00 222:  0.00 223:  0.00 224:  0.00
 225:  0.00 226:  0.00 227:  0.00 228:  0.00 229:  0.00 230:  0.00 231:  0.00 232:  0.00
 233:  0.00 234:  0.00
 output can be read by thermo (or use thermo option).
 writing <g98.out> molden fake output.
 recommended (thermochemical) frequency scaling factor: 1.0
           -------------------------------------------------
          |             Thermodynamic Functions             |
           -------------------------------------------------

c1  symmetry found (for desy threshold:  0.10E+00) used in thermo

          ...................................................
          :                      SETUP                      :
          :.................................................:
          :  # frequencies                         228      :
          :  # imaginary freq.                       0      :
          :  linear?                             false      :
          :  only rotor calc.                    false      :
          :  symmetry                               c1      :
          :  rotational number                       1      :
          :  scaling factor                  1.0000000      :
          :  rotor cutoff                   50.0000000 cm⁻¹ :
          :  imag. cutoff                  -20.0000000 cm⁻¹ :
          :.................................................:

    mode    ω/cm⁻¹     T·S(HO)/kcal·mol⁻¹    T·S(FR)/kcal·mol⁻¹   T·S(vib)
   ------------------------------------------------------------------------
       1      5.69    -2.72271 (  0.02%)    -1.70043 ( 99.98%)    -1.70060
       2      7.75    -2.53980 (  0.06%)    -1.60897 ( 99.94%)    -1.60951
       3      8.75    -2.46781 (  0.09%)    -1.57298 ( 99.91%)    -1.57382
       4     19.68    -1.98757 (  2.34%)    -1.33278 ( 97.66%)    -1.34812
       5     34.06    -1.66299 ( 17.72%)    -1.17027 ( 82.28%)    -1.25757
       6     41.54    -1.54574 ( 32.26%)    -1.11148 ( 67.74%)    -1.25158
       7     42.44    -1.53309 ( 34.16%)    -1.10514 ( 65.84%)    -1.25133
       8     42.66    -1.52998 ( 34.64%)    -1.10358 ( 65.36%)    -1.25127
       9     45.81    -1.48792 ( 41.34%)    -1.08247 ( 58.66%)    -1.25007
      10     65.89    -1.27381 ( 75.10%)    -0.97478 ( 24.90%)    -1.19936
      11     67.15    -1.26275 ( 76.49%)    -0.96920 ( 23.51%)    -1.19372
      12     91.82    -1.07958 ( 91.92%)    -0.87650 (  8.08%)    -1.06317
      13     93.51    -1.06892 ( 92.44%)    -0.87107 (  7.56%)    -1.05397
      14     99.73    -1.03146 ( 94.06%)    -0.85200 (  5.94%)    -1.02080
      15    112.80    -0.96009 ( 96.28%)    -0.81553 (  3.72%)    -0.95472
      16    114.82    -0.94984 ( 96.53%)    -0.81027 (  3.47%)    -0.94499
      17    117.19    -0.93805 ( 96.79%)    -0.80422 (  3.21%)    -0.93375
      18    131.77    -0.87061 ( 97.97%)    -0.76948 (  2.03%)    -0.86855
      19    139.94    -0.83621 ( 98.40%)    -0.75165 (  1.60%)    -0.83485
      20    142.07    -0.82759 ( 98.49%)    -0.74718 (  1.51%)    -0.82638
      21    150.61    -0.79442 ( 98.80%)    -0.72989 (  1.20%)    -0.79365
      22    173.53    -0.71464 ( 99.32%)    -0.68793 (  0.68%)    -0.71446
      23    177.38    -0.70239 ( 99.37%)    -0.68143 (  0.63%)    -0.70226
      24    182.88    -0.68540 ( 99.44%)    -0.67239 (  0.56%)    -0.68533
      25    190.00    -0.66422 ( 99.52%)    -0.66106 (  0.48%)    -0.66420
      26    201.74    -0.63123 ( 99.62%)    -0.64330 (  0.38%)    -0.63127
      27    202.35    -0.62959 ( 99.63%)    -0.64242 (  0.37%)    -0.62964
      28    205.15    -0.62207 ( 99.65%)    -0.63834 (  0.35%)    -0.62213
      29    258.90    -0.49767 ( 99.86%)    -0.56941 (  0.14%)    -0.49777
      30    260.08    -0.49529 ( 99.86%)    -0.56805 (  0.14%)    -0.49539
      31    265.47    -0.48466 ( 99.87%)    -0.56198 (  0.13%)    -0.48475
      32    265.71    -0.48419 ( 99.87%)    -0.56172 (  0.13%)    -0.48428
      33    267.50    -0.48071 ( 99.88%)    -0.55972 (  0.12%)    -0.48081
      34    281.04    -0.45537 ( 99.90%)    -0.54509 (  0.10%)    -0.45546
      35    296.44    -0.42842 ( 99.92%)    -0.52929 (  0.08%)    -0.42850
      36    298.37    -0.42516 ( 99.92%)    -0.52736 (  0.08%)    -0.42524
      37    299.95    -0.42254 ( 99.92%)    -0.52581 (  0.08%)    -0.42262
   ------------------------------------------------------------------------

   temp. (K)  partition function   enthalpy   heat capacity  entropy
                                   cal/mol     cal/K/mol   cal/K/mol   J/K/mol
 298.15  VIB  0.127E+20            24248.690    161.482    151.342
         ROT  0.159E+09              888.752      2.981     40.507
         INT  0.201E+28            25137.442    164.463    191.849
         TR   0.167E+29             1481.254      4.968     45.353
         TOT                       26618.6960   169.4313   237.2018   992.4524

       T/K    H(0)-H(T)+PV         H(T)/Eh          T*S/Eh         G(T)/Eh
   ------------------------------------------------------------------------
    298.15    0.424196E-01    0.611520E+00    0.112702E+00    0.498817E+00
   ------------------------------------------------------------------------

         :::::::::::::::::::::::::::::::::::::::::::::::::::::
         ::                  THERMODYNAMIC                  ::
         :::::::::::::::::::::::::::::::::::::::::::::::::::::
         :: total free energy        -130.230070400747 Eh   ::
         ::.................................................::
         :: total energy             -130.728887815873 Eh   ::
         :: zero point energy           0.569100055698 Eh   ::
         :: G(RRHO) w/o ZPVE           -0.070282640572 Eh   ::
         :: G(RRHO) contrib.            0.498817415126 Eh   ::
         :::::::::::::::::::::::::::::::::::::::::::::::::::::

optimized geometry written to: xtbopt.xyz


           -------------------------------------------------
          | TOTAL ENERGY             -130.728887815873 Eh   |
          | TOTAL ENTHALPY           -130.117368167965 Eh   |
          | TOTAL FREE ENERGY        -130.230070400747 Eh   |
          | GRADIENT NORM               0.000354976833 Eh/α |
          | HOMO-LUMO GAP               1.103733438307 eV   |
           -------------------------------------------------

------------------------------------------------------------------------
 * finished run on 2021/11/19 at 15:12:40.140     
------------------------------------------------------------------------
 total:
 * wall-time:     0 d,  0 h,  1 min, 22.162 sec
 *  cpu-time:     0 d,  0 h,  1 min, 22.163 sec
 * ratio c/w:     1.000 speedup
 SCF:
 * wall-time:     0 d,  0 h,  0 min,  0.299 sec
 *  cpu-time:     0 d,  0 h,  0 min,  0.299 sec
 * ratio c/w:     1.000 speedup
 ANC optimizer:
 * wall-time:     0 d,  0 h,  0 min, 10.119 sec
 *  cpu-time:     0 d,  0 h,  0 min, 10.119 sec
 * ratio c/w:     1.000 speedup
 analytical hessian:
 * wall-time:     0 d,  0 h,  1 min, 11.673 sec
 *  cpu-time:     0 d,  0 h,  1 min, 11.674 sec
 * ratio c/w:     1.000 speedup

