78
 energy: -129.249728950890 gnorm: 4.093298896580 xtb: 6.4.1 (bd6e46d)
C        11.27197500000000    3.50612700000000    0.78775500000000
C        12.16195300000000    2.56586700000000    0.58955900000000
C        11.50045200000000    1.30579300000000    0.28875300000000
C        11.85889000000000    0.00013000000000    0.00007100000000
C        11.03371200000000   -1.13094100000000   -0.08514500000000
C        11.48927700000000   -2.33966600000000    0.49616200000000
C        10.51658300000000   -3.27221200000000    0.29600700000000
C         9.48548900000000   -2.60451100000000   -0.40698100000000
N         9.82221400000000   -1.32365200000000   -0.62389500000000
C         8.32752800000000   -3.33062700000000   -0.73869800000000
C         7.00942700000000   -2.88793100000000   -0.62516300000000
C         5.69708100000000   -3.49006500000000   -0.72214200000000
C         4.77545300000000   -2.54341700000000   -0.51605700000000
C         5.47233900000000   -1.29758700000000   -0.27932600000000
N         6.79341200000000   -1.57733900000000   -0.35901200000000
C         5.07309700000000    0.00441000000000   -0.01132300000000
C         5.90570900000000    1.14108600000000    0.06458600000000
C         5.47156600000000    2.34307600000000   -0.54555500000000
C         6.46707900000000    3.25946400000000   -0.35359900000000
C         7.48123000000000    2.58622100000000    0.37033200000000
N         7.11603300000000    1.31839900000000    0.60915600000000
C         8.65087100000000    3.29317800000000    0.69183200000000
C         9.96612500000000    2.88965300000000    0.62181600000000
N        10.15574700000000    1.57854900000000    0.32541400000000
H        11.43924000000000    4.53467000000000    1.02634500000000
H        13.23221200000000    2.68920500000000    0.63857800000000
H        12.44979800000000   -2.52536800000000    1.01473900000000
H        10.55346400000000   -4.32882200000000    0.62133400000000
H         9.21892900000000   -0.55624100000000   -1.17141400000000
H         8.41591900000000   -4.36605400000000   -1.11704400000000
H         5.49840600000000   -4.55076600000000   -0.93088700000000
H         3.70604300000000   -2.73535100000000   -0.53529000000000
H         3.99815400000000    0.09368000000000    0.12642200000000
H         4.51791200000000    2.53463400000000   -1.07435200000000
H         6.45265800000000    4.30969300000000   -0.70004000000000
H         7.70935800000000    0.56095600000000    1.18115200000000
H         8.58236400000000    4.35058200000000    1.04854700000000
C        12.77611700000000   -0.00241100000000   -0.00131700000000
C        13.98409400000000    0.00504400000000    0.00037800000000
C        15.40286200000000    0.00574100000000    0.00551500000000
C        16.61837800000000   -0.00241100000000   -0.00131700000000
C        23.69951100000000    3.50188400000000    0.64236300000000
C        24.65649600000000    2.61208800000000    0.47035900000000
C        23.96994800000000    1.35005000000000    0.24818300000000
C        24.33694000000000    0.02698500000000    0.00280200000000
C        23.51328600000000   -1.10725400000000   -0.03730600000000
C        23.96734500000000   -2.28514200000000    0.60599700000000
C        22.98746000000000   -3.22124600000000    0.44147300000000
C        21.96413300000000   -2.58411800000000   -0.29838800000000
N        22.30568500000000   -1.31802900000000   -0.57477600000000
C        20.79151100000000   -3.31344000000000   -0.59764300000000
C        19.48671900000000   -2.87100600000000   -0.52818000000000
C        18.19995000000000   -3.52115800000000   -0.67125400000000
C        17.26207300000000   -2.59619600000000   -0.50484600000000
C        17.89572700000000   -1.31978100000000   -0.24951900000000
N        19.23212600000000   -1.56703800000000   -0.27936900000000
C        17.48822900000000    0.00013000000000    0.00007100000000
C        18.32853800000000    1.12707200000000    0.04852600000000
C        17.88547800000000    2.31324400000000   -0.58327300000000
C        18.88673800000000    3.21675800000000   -0.40523200000000
C        19.91347000000000    2.56544600000000    0.32774800000000
N        19.54470500000000    1.30430700000000    0.58834800000000
C        21.06891200000000    3.29215600000000    0.63093600000000
C        22.39941900000000    2.86373600000000    0.53994800000000
N        22.64744400000000    1.56154100000000    0.30060200000000
H        23.86042100000000    4.56821700000000    0.83458900000000
H        25.72798200000000    2.73571600000000    0.48127200000000
H        25.43730000000000   -0.05179800000000   -0.15197000000000
H        24.92498700000001   -2.44421700000000    1.13774500000000
H        23.01833400000000   -4.26181100000000    0.81703500000000
H        21.71055500000000   -0.57631800000000   -1.16482000000000
H        20.86850800000000   -4.36072100000000   -0.91010300000000
H        17.97360200000000   -4.55961900000000   -0.87509600000000
H        16.19258900000000   -2.73608300000000   -0.54614900000000
H        16.93417800000000    2.50031900000000   -1.11036900000000
H        18.87654900000000    4.26303900000000   -0.76814000000000
H        20.13246400000000    0.55025000000000    1.16652600000000
H        21.02826900000001    4.34685800000000    0.97454500000000
78
 energy: -130.302984326069 gnorm: 0.547348304073 xtb: 6.4.1 (bd6e46d)
C        11.26689157075342    3.50981313333262    0.78888445784951
C        12.16748282710635    2.56099838799908    0.58830060442478
C        11.47173902232288    1.32090041116809    0.29114688609801
C        11.72164981573541    0.00237120111273    0.00076224303382
C        11.01564201118421   -1.13821891369290   -0.08325239572740
C        11.49151236979467   -2.33875357456850    0.49648945327440
C        10.51662098254858   -3.27461056259801    0.29456690106026
C         9.48262251314813   -2.61050287715728   -0.40814663064088
N         9.81479081691293   -1.32218614287406   -0.62657270803965
C         8.32165357675880   -3.33330980036952   -0.74107778397262
C         7.00925297275743   -2.88318534593086   -0.62601074950094
C         5.69742259205171   -3.49471125649102   -0.72365116622288
C         4.77252502810349   -2.54430064790540   -0.51584460359384
C         5.47687383254727   -1.29886118891587   -0.27780229135730
N         6.79709168440858   -1.57378506482785   -0.35810222028209
C         5.07127338511095   -0.00002826763067   -0.01061938399945
C         5.90062020252992    1.13912142943510    0.06349970554432
C         5.46916587920205    2.34402514947670   -0.54534633155345
C         6.46619348425755    3.26131936245228   -0.35278249990120
C         7.48359057976755    2.59125509314514    0.37081286583187
N         7.12014330566882    1.31378561997961    0.61035662334674
C         8.65492666853215    3.29855902253957    0.69506667740233
C         9.96480483294416    2.88669478754544    0.62287508961494
N        10.15436397226612    1.57827865111582    0.32494823438916
H        11.43899450625872    4.53574333689226    1.02658612198268
H        13.23303807066490    2.68814636532826    0.63829478316850
H        12.44702877072063   -2.52316756469231    1.01316587961774
H        10.55243598662329   -4.32542568528611    0.61997296492468
H         9.22371148230379   -0.56330806430905   -1.16550583626589
H         8.41671941020378   -4.36492974508139   -1.11423572573998
H         5.49907905135066   -4.54911287802603   -0.93059543708422
H         3.70658516430330   -2.73402131154128   -0.53495936061904
H         3.99829873912343    0.09549886617241    0.12466405124827
H         4.52084103409457    2.53298728526654   -1.07269670585876
H         6.45370527970014    4.30632312786678   -0.69870296990183
H         7.70419529487276    0.56763735283918    1.17491228106697
H         8.58061753736453    4.34908116582152    1.04572029756567
C        12.91395015880836   -0.00687916393684   -0.00316007942881
C        14.03631180065030    0.00287226263668   -0.00019654915288
C        15.34273905024738    0.00790074283383    0.00646182643523
C        16.44486992143193    0.00013130867691   -0.00031729299244
C        23.69767563388608    3.50880445942026    0.64414583371515
C        24.65890126980709    2.60874315399639    0.46937244497267
C        23.96597354765431    1.34789327601018    0.24592998324028
C        24.34263978902949    0.03212698687457    0.00163775250211
C        23.51865674535896   -1.10544838095122   -0.03629037530721
C        23.96987417938600   -2.28610187680873    0.60580446176285
C        22.98822111772803   -3.22331787662072    0.44073855015752
C        21.96109210495881   -2.58928196357693   -0.29898628250032
N        22.30174598759102   -1.31333344704691   -0.57602090592859
C        20.78790707900482   -3.31549439843557   -0.59964106202522
C        19.48625759386849   -2.86991866608257   -0.52970484656339
C        18.20111459340817   -3.52510589194370   -0.67242712692627
C        17.25780472442256   -2.59261881648108   -0.50398124777782
C        17.92586855828882   -1.33440657554243   -0.25146886933680
N        19.23708967588241   -1.56572024833732   -0.27860679012847
C        17.66205722750737   -0.00267610271710   -0.00048263797596
C        18.35068875732463    1.13412181121246    0.04661338669808
C        17.88462087197631    2.31196867554857   -0.58284236228717
C        18.88719411917812    3.22060855719802   -0.40406855583357
C        19.91533953909010    2.57195655708797    0.32797080318017
N        19.55235704726949    1.30335087914774    0.59117547175405
C        21.07627981087708    3.29591922023365    0.63359727054464
C        22.39878197539074    2.86017504492871    0.54106061911919
N        22.64360245450787    1.55933425014759    0.30017072501519
H        23.85962492811010    4.56752459621745    0.83451136139964
H        25.72766744483133    2.73563914207576    0.48119874721527
H        25.43534050367174   -0.05411180813462   -0.14986442029908
H        24.92205614050392   -2.44270477239726    1.13606535909658
H        23.01721564314812   -4.25846466884397    0.81560648477680
H        21.71561636185861   -0.58294707640256   -1.15843870794497
H        20.86972461817148   -4.36037202615491   -0.90779837542265
H        17.97505221067440   -4.55965132936885   -0.87507795333195
H        16.19223287104898   -2.73543530194261   -0.54597310276029
H        16.93690039832725    2.49804918204589   -1.10867910141387
H        18.87752926874419    4.25990464737768   -0.76670374152861
H        20.12764345301382    0.55689287726219    1.16031395602898
H        21.02640756936377    4.34555890320239    0.97176502806868
78
 energy: -130.420532788944 gnorm: 0.306875451944 xtb: 6.4.1 (bd6e46d)
C        11.25631143097211    3.51707739902865    0.79353371820717
C        12.16597517989115    2.55528491469089    0.58330691881684
C        11.41299423050246    1.34401582478231    0.28463109069131
C        11.66346338848410    0.01296176565095    0.00477877297555
C        10.98219293919266   -1.15142666427550   -0.07500366102000
C        11.48901309258739   -2.34645822537970    0.48942435680615
C        10.51520300465829   -3.28473331287507    0.28098847342782
C         9.46216762794727   -2.63806128706654   -0.41754998561857
N         9.77852650581234   -1.33811038700988   -0.62368940665897
C         8.30166503732335   -3.34314814197501   -0.75190750122316
C         7.00583611451592   -2.86498923175643   -0.63684762339912
C         5.69745888832786   -3.50189197040577   -0.72986997884474
C         4.77067404745459   -2.54722653197500   -0.51291646318499
C         5.49329055154589   -1.30503026754429   -0.26539281774198
N         6.81318580071013   -1.56029946187853   -0.35406844446321
C         5.06687254171280   -0.01497592246299   -0.00492954084014
C         5.88676820053973    1.13340832051249    0.06176794042666
C         5.46207221273063    2.34539075849570   -0.53618606682234
C         6.46155605250874    3.26430255268632   -0.34196094802803
C         7.48787454931122    2.60833108937178    0.37605599555430
N         7.12578378935522    1.31483601716395    0.59889867016972
C         8.65719868846153    3.31630777727028    0.70985194038523
C         9.95354419457569    2.88555990198859    0.63633453487524
N        10.11650797227722    1.58786085514803    0.32352767754990
H        11.43536065117477    4.54037441229805    1.02848720364988
H        13.23461775598039    2.67850485340734    0.63524502098773
H        12.43422151393573   -2.51059805457111    1.00633660530546
H        10.54657437500278   -4.31583307306435    0.61460691590673
H         9.23314039830742   -0.59676778781345   -1.13788774111721
H         8.41443410440319   -4.37123279760927   -1.09688588133085
H         5.50374552982966   -4.54585876297697   -0.93102746617312
H         3.70726346178309   -2.72575767316012   -0.53229222478042
H         3.99643308648420    0.10241164502666    0.10976556628741
H         4.53059360092252    2.52446572062088   -1.06687485359083
H         6.45915029782492    4.29454362396381   -0.69346921372647
H         7.68436151005645    0.59565769558980    1.14306989495612
H         8.56949984558274    4.35938644141747    1.03057706714092
C        12.89900292342324   -0.01020918075696    0.00403769296612
C        14.07686852924903   -0.00346511000426   -0.00089326284062
C        15.27896597107899    0.01183151715383    0.00481907456056
C        16.48093137624238   -0.00202568426539   -0.00603590295049
C        23.69490183149500    3.51850899809053    0.65034280483738
C        24.65823918930069    2.60215584541252    0.46452199689316
C        23.95065014676650    1.34424089760436    0.23099086181809
C        24.35608291234698    0.04357207037806   -0.00657124732499
C        23.53608592463237   -1.10081875560919   -0.03598570764948
C        23.97714314373788   -2.28832664153180    0.59616647064882
C        22.99243907850236   -3.22754305224919    0.43077316516164
C        21.95510451000276   -2.60488800310475   -0.30295029212369
N        22.29950790875176   -1.31095519633456   -0.56398608491044
C        20.78226898760082   -3.32812721795651   -0.61183432239354
C        19.49284772725431   -2.87142407962032   -0.54331541219143
C        18.20322206546651   -3.53262285703957   -0.67738501667206
C        17.25850626962709   -2.59103777758860   -0.50013132599652
C        17.98569727259177   -1.35865864383344   -0.24413539544096
N        19.28276602588675   -1.57530355368491   -0.27628560590368
C        17.72105297509056   -0.01791336070122   -0.00517859338441
C        18.38584424100767    1.14774270456085    0.04038302608713
C        17.89279671527899    2.32013541371615   -0.57210038856757
C        18.88958728743312    3.23698107317632   -0.39177124803970
C        19.93438648429266    2.60322068447883    0.33425696922524
N        19.58742602865138    1.31972317223698    0.58642276742255
C        21.09989341005507    3.31241203554101    0.64569589220675
C        22.40140829522092    2.84685055801134    0.55314505315227
N        22.62620365225276    1.55012642398665    0.29831770141941
H        23.85499912052067    4.56971705423569    0.83612807940756
H        25.72361352646301    2.73204788964130    0.47940440156913
H        25.43613219647586   -0.06580908664978   -0.13425575878568
H        24.91251548446352   -2.43545586595692    1.13026442274802
H        23.01062893038639   -4.24619997600221    0.80974717124194
H        21.73526046192528   -0.61049489182468   -1.12573423986040
H        20.87725180659958   -4.37054461207445   -0.89330571143447
H        17.98265987197115   -4.56377714461469   -0.87667064909177
H        16.19295173215393   -2.72783387750368   -0.54363548711901
H        16.95104659135977    2.48560202507248   -1.10063911816243
H        18.88370148263101    4.25397536138472   -0.76225486667082
H        20.11891018972651    0.58872910507243    1.13116236214406
H        21.02169654939692    4.35318672383903    0.95457817844831
78
 energy: -130.497108300384 gnorm: 0.183779592228 xtb: 6.4.1 (bd6e46d)
C        11.23351413180202    3.51978123448601    0.80024465020956
C        12.14562474751887    2.54658302694630    0.57608159306995
C        11.33334689074251    1.36608429653986    0.27653769326805
C        11.59881927245909    0.01884051180438    0.01695997503802
C        10.93457358284960   -1.17532876429755   -0.05650580834794
C        11.47211832448411   -2.36464437880841    0.47998897778162
C        10.50713158778841   -3.30971411881340    0.25755069195818
C         9.43179628225723   -2.68470652714887   -0.42697920438595
N         9.73007960259267   -1.36974798497040   -0.60451271190218
C         8.26635465715550   -3.36675044588949   -0.76431965366855
C         6.99243986512234   -2.84509009579143   -0.65032630361083
C         5.69150732210706   -3.50400914567919   -0.73749975667387
C         4.76582548953694   -2.54820532933576   -0.50866160343884
C         5.50718760568861   -1.31110149500765   -0.24919642627967
N         6.82727736012129   -1.54543188157257   -0.34826397279934
C         5.05625744584773   -0.02880796513499   -0.00078662382517
C         5.86487440660578    1.13172099127683    0.05411738429160
C         5.44564929750922    2.35479379697946   -0.52064788695152
C         6.44632554593445    3.27321847298388   -0.32433373926964
C         7.48324238180001    2.63126617553674    0.37953556607861
N         7.12304194772189    1.31939483715401    0.57077942077972
C         8.64752292257961    3.34800676891103    0.72999972591653
C         9.92598599410541    2.89199923824170    0.65520210471348
N        10.05648792564545    1.60311591896320    0.32193245510506
H        11.42329795332043    4.54590195514863    1.03202821640073
H        13.21934973881810    2.65690139480535    0.63037028575816
H        12.41047239902775   -2.50194125685361    0.99242868560224
H        10.53152713863242   -4.32129737397753    0.60056578301611
H         9.22724761070212   -0.64647082837990   -1.08983490876261
H         8.39551923925016   -4.39573620290099   -1.06207606788056
H         5.50582393351875   -4.54254457521992   -0.93085144835943
H         3.70247756796105   -2.70701139862641   -0.53436006273143
H         3.98686067358871    0.11384782169148    0.08446776624929
H         4.52974584993107    2.52540525054072   -1.05102729989952
H         6.46285724563495    4.28816118162949   -0.67623766696987
H         7.65296091481128    0.62891808993734    1.08898191134988
H         8.54351585123881    4.38466548722870    1.00244211359996
C        12.87068566105029   -0.02460758223324    0.02587486580731
C        14.06745261206943   -0.01814500259767   -0.00638399346588
C        15.30926637867316    0.02575354237257   -0.00671346049611
C        16.50932481317882    0.00314668338512   -0.02112003507582
C        23.70023838178688    3.52437208992343    0.65871432824211
C        24.65661264886499    2.59137359909332    0.45806461307703
C        23.93488978551201    1.33890639979687    0.21263364771673
C        24.37797846253163    0.05389439569595   -0.01331992875706
C        23.56276722222333   -1.10096379888619   -0.03076390471343
C        23.99525598269797   -2.29916815256958    0.58000247316238
C        23.00679397769866   -3.23618446352514    0.41376782585661
C        21.95783025450882   -2.62455585186732   -0.30356935197520
N        22.30503985822936   -1.31381918430294   -0.53586904189983
C        20.78946173336883   -3.35150299512481   -0.62599864298066
C        19.51305074058703   -2.88353726800345   -0.56199027415884
C        18.21584564573904   -3.54002227314671   -0.68611722292620
C        17.27789005428775   -2.58471548631189   -0.49455313202786
C        18.06243395032729   -1.38074278982723   -0.23543781425655
N        19.34907979083209   -1.58999399720679   -0.27383426251002
C        17.77441114080505   -0.03047737551309   -0.01559219481050
C        18.43117797841642    1.16914005670473    0.02470710649233
C        17.91427806805768    2.33950585317379   -0.56042283207800
C        18.89968701658044    3.27012806227739   -0.36958234694088
C        19.96476703503438    2.65542723538400    0.34106893093589
N        19.63815483366774    1.35393358668149    0.56624821338890
C        21.13598919260577    3.34334945726003    0.66025015858175
C        22.41347444715610    2.83462606627712    0.56978880053559
N        22.60951508889159    1.53883905920531    0.29624927434170
H        23.85578144212260    4.57140624286269    0.83632155495944
H        25.72263954233371    2.72127715663087    0.48187699050561
H        25.44658568898781   -0.08484682311514   -0.10366753245717
H        24.91522270917029   -2.43648803780825    1.11315253962451
H        23.00829286041589   -4.24013665606876    0.79225228561632
H        21.76693490502921   -0.64420337307522   -1.07221906160894
H        20.89762242155956   -4.39480487549848   -0.86392506953912
H        18.00333107111580   -4.57051220093783   -0.88115942397303
H        16.20777245390084   -2.70973570154886   -0.54104032246622
H        16.97881815728015    2.47599185885888   -1.08555148607114
H        18.89873173936902    4.26587750448836   -0.74975239028511
H        20.12506315396601    0.63663952238312    1.08012562889071
H        21.02794139295565    4.38111583431642    0.92222163330799
78
 energy: -130.546578330828 gnorm: 0.117843184067 xtb: 6.4.1 (bd6e46d)
C        11.20370839338363    3.51834883220976    0.81277673233263
C        12.10548826954746    2.53404478400205    0.56488984381052
C        11.25966143354477    1.37331168776072    0.25997809635619
C        11.55865081495177    0.01919312725478    0.02809580878361
C        10.89877475981018   -1.19360596975330   -0.03776331193661
C        11.45155935707719   -2.38352318779517    0.46919442650119
C        10.50425510770855   -3.34206830046541    0.22879640973331
C         9.41101035895322   -2.73687555145611   -0.43795534397693
N         9.68838137308924   -1.40821298657705   -0.57497620390908
C         8.23699134330842   -3.40019713555982   -0.77762870072814
C         6.98453659183051   -2.83040353747168   -0.66720987399791
C         5.68926966647409   -3.49583871696876   -0.75071481526341
C         4.76838165759129   -2.54229383854288   -0.49698030236327
C         5.52304159094714   -1.31044246771254   -0.23138862706167
N         6.84218116591782   -1.53570340297674   -0.34597703879950
C         5.05236559782959   -0.03402470209020    0.00385597214155
C         5.84579037073945    1.13878936556639    0.04878342893803
C         5.42327822394607    2.36620997461422   -0.50373312832259
C         6.41729400869607    3.28886148445186   -0.30363623969584
C         7.46507607701967    2.66310634207311    0.38708803775943
N         7.11566520768074    1.33752107998226    0.54186573910479
C         8.61856333987423    3.39655796777899    0.75245822091451
C         9.88491803276345    2.91214816504719    0.67872335292448
N         9.98670401217223    1.62441901257827    0.32455402021791
H        11.40890548210723    4.54706948260504    1.04183445791715
H        13.18238110042615    2.62340166330468    0.61434084186722
H        12.38726262955089   -2.49019810733444    0.98158533340715
H        10.52255225710227   -4.34557135887504    0.58097534964258
H         9.19204294985112   -0.68540272336476   -1.04639385725442
H         8.36576666658095   -4.44024137256372   -1.02009590947910
H         5.51526035685323   -4.53611019012694   -0.94083778717714
H         3.70267285332970   -2.67742012010782   -0.52020607619066
H         3.98127451232084    0.12633551578119    0.04598126577879
H         4.51665348047748    2.52129713769887   -1.04293898633439
H         6.45437548534351    4.29326841836042   -0.66286222555501
H         7.64206093437233    0.65232914785772    1.03919595302464
H         8.49883695757792    4.43807182151405    0.97223482842535
C        12.86225595943447   -0.04875032747267    0.05770675021940
C        14.05796098809073   -0.03862825542176   -0.00951265276200
C        15.32182563964996    0.04559632763273   -0.02058106508420
C        16.51961308197632    0.02022476441038   -0.04317422686326
C        23.70420743880117    3.51909295628784    0.67184274502930
C        24.64709943437711    2.57682355779270    0.44394606236424
C        23.91445761272051    1.33029847816779    0.19282965495888
C        24.39024463245699    0.05588230866302   -0.02027783026027
C        23.58686601102296   -1.11098799463004   -0.02815443882716
C        24.01904170841346   -2.31507394195037    0.56147913130839
C        23.03281044941894   -3.25206541188868    0.39367171688861
C        21.97431898895322   -2.65312327598655   -0.30824852288860
N        22.31529914886556   -1.33063970422823   -0.50657105107131
C        20.81662613995268   -3.39280304442345   -0.64273802145547
C        19.54751623390885   -2.91002816784863   -0.58540934824565
C        18.23752775877090   -3.54391331448983   -0.70004447480782
C        17.31797484752908   -2.57045350069800   -0.48415478027905
C        18.13894115142631   -1.38645113552847   -0.21966590344754
N        19.42288707774829   -1.61272476320038   -0.27471821528694
C        17.81095832095056   -0.03540403112270   -0.02504545254890
C        18.47001588936708    1.18236641073987    0.00692482135113
C        17.93889671414970    2.35791795706622   -0.54776313354320
C        18.90481009050247    3.30856380624899   -0.34246606903051
C        19.98691433060617    2.71260139309046    0.34950920373981
N        19.68577965389854    1.39458014346066    0.53631182474863
C        21.16381287017766    3.38306337635668    0.67484169252289
C        22.42095959444827    2.82681072668648    0.58903239659868
N        22.58991001097345    1.53149928463948    0.29534533705409
H        23.85144503500364    4.56675342196819    0.84646182425139
H        25.71453680283786    2.70393082501477    0.46995572342033
H        25.45707495047969   -0.10471722640633   -0.06178156055168
H        24.92891132866983   -2.43671606367289    1.10362187953866
H        23.01361063386030   -4.24661014295843    0.78001485978000
H        21.77879909656617   -0.66651375983688   -1.02187383523590
H        20.93667132787774   -4.44372363103179   -0.83093216444209
H        18.02885342828925   -4.57653696164925   -0.89247646097307
H        16.24315636598546   -2.67589633877023   -0.52721525880090
H        17.00697760347482    2.46243293955651   -1.07024471193527
H        18.90713256474225    4.29667169051384   -0.73340741124754
H        20.16176840765924    0.67593895673768    1.03408044338351
H        21.04266925521268    4.43016732748216    0.88150183089365
78
 energy: -130.582126474190 gnorm: 0.073289754098 xtb: 6.4.1 (bd6e46d)
C        11.17054815663442    3.51441684829395    0.82585126031185
C        12.05188862569307    2.51890253108072    0.55291682157484
C        11.18819556101916    1.36887032657848    0.24356146175897
C        11.52537594402805    0.01754524584239    0.04163722350698
C        10.86420578504585   -1.20477287714307   -0.01856841100848
C        11.42893043492002   -2.40159729830774    0.45762291063704
C        10.50369370618074   -3.37665733812288    0.20131128393664
C         9.39539604599324   -2.78439441567714   -0.44580763522735
N         9.64890100861873   -1.44604267010781   -0.54233508124426
C         8.21463896499438   -3.43528802211308   -0.78546078491856
C         6.98068645896296   -2.82236525740892   -0.68198344136410
C         5.68691259323026   -3.48301050080527   -0.76294136319116
C         4.77294629053458   -2.53174188585081   -0.48373673197584
C         5.53674864718315   -1.30478476168822   -0.21711471837716
N         6.85482058982097   -1.53112739253350   -0.34654682698639
C         5.05272464294188   -0.03096535121623    0.00357946124163
C         5.83051877150027    1.15116091734639    0.04360065703612
C         5.39573480140520    2.38067419560940   -0.48867946645257
C         6.37940663871423    3.31008588683408   -0.28399740693885
C         7.43917828204064    2.69559398136309    0.39421521697648
N         7.10446094903729    1.36272900412212    0.51690619272532
C         8.58036268454036    3.44588739434784    0.76849178627818
C         9.83968023676561    2.93444854154215    0.69983148617510
N         9.91446389771770    1.64377587281779    0.33121817066516
H        11.39247598596961    4.54331473346626    1.05511495734316
H        13.13156013784093    2.58278872739074    0.59186579167696
H        12.36626631725843   -2.48048317452687    0.97087998183211
H        10.52117146837742   -4.38041396125208    0.55637355168038
H         9.13713864346338   -0.71999788321226   -1.00645825849105
H         8.32753453866417   -4.48881804891012   -0.97796178231532
H         5.52584296985475   -4.52699354544425   -0.95589178789476
H         3.70382137112659   -2.64311711397505   -0.49878652684328
H         3.98022400007643    0.13615801779671    0.00451620375671
H         4.49230907351959    2.51943510584543   -1.03776382193110
H         6.43460443752349    4.31027047092695   -0.65016549314628
H         7.64514598585269    0.66632214104922    0.99502257211046
H         8.44898879652283    4.49713839544662    0.94179361213386
C        12.85384646754853   -0.07680096566534    0.09682755146777
C        14.04847185136333   -0.06006933885199   -0.01097254318970
C        15.33150001588445    0.06447940809243   -0.03540852364745
C        16.52794837330293    0.04376922805862   -0.07263100204846
C        23.70882873746026    3.50805988107387    0.68395777149673
C        24.63720410089110    2.56057285359972    0.42876811066167
C        23.89554441190274    1.32012435615320    0.17730742983254
C        24.39390156858839    0.05089279746216   -0.02137245112400
C        23.60655680235675   -1.12649797544491   -0.02516584726626
C        24.04767021877667   -2.33486502511538    0.54452938708357
C        23.06708191448287   -3.27374708711589    0.37468899677130
C        21.99889033003042   -2.68299471159738   -0.31254941298570
N        22.32904585022096   -1.35494026474512   -0.48081334382237
C        20.85344605173351   -3.43801358175338   -0.65394772404216