 Entering Gaussian System
 *********************************************
 Gaussian 98:
 frequency output generated by the xtb code
 *********************************************
                         Standard orientation:
 --------------------------------------------------------------------
  Center     Atomic     Atomic              Coordinates (Angstroms)
  Number     Number      Type              X           Y           Z
 --------------------------------------------------------------------
    1         30             0       25.548817    0.064410    0.032288
    2          6             0       27.981843   -3.434001    0.245394
    3          6             0       28.961738   -2.502773    0.155829
    4          6             0       28.311133   -1.224830    0.099858
    5          6             0       28.985170    0.003266    0.015353
    6          6             0       28.353787    1.254965   -0.054288
    7          6             0       29.049133    2.509455   -0.107236
    8          6             0       28.102141    3.475595   -0.179226
    9          6             0       26.830569    2.809877   -0.163819
   10          7             0       27.015172    1.462385   -0.081373
   11          6             0       25.607503    3.456564   -0.226544
   12          6             0       24.362947    2.850103   -0.196473
   13          6             0       23.109204    3.550727   -0.264621
   14          6             0       22.135223    2.613718   -0.194476
   15          6             0       22.793215    1.339847   -0.081944
   16          7             0       24.140549    1.513862   -0.089125
   17          6             0       22.139703    0.123161    0.026974
   18          6             0       22.750692   -1.114823    0.142024
   19          6             0       22.048877   -2.364716    0.259163
   20          6             0       22.989774   -3.333986    0.341098
   21          6             0       24.267180   -2.677312    0.273240
   22          7             0       24.091278   -1.334963    0.156191
   23          6             0       25.489834   -3.326454    0.308282
   24          6             0       26.734603   -2.723507    0.236057
   25          7             0       26.966212   -1.384174    0.142462
   26          1             0       28.079314   -4.500720    0.307693
   27          1             0       30.023194   -2.651178    0.115820
   28          1             0       30.115565    2.619593   -0.076133
   29          1             0       28.237202    4.538640   -0.234196
   30          1             0       25.627497    4.534835   -0.303379
   31          1             0       23.007328    4.615321   -0.353759
   32          1             0       21.071302    2.752816   -0.214269
   33          1             0       21.058846    0.141632    0.023718
   34          1             0       20.980695   -2.466969    0.274555
   35          1             0       22.851216   -4.393803    0.437504
   36          1             0       25.472313   -4.404160    0.393171
   37         30             0       58.229283    0.072333   -0.003404
   38          6             0       55.730941    3.028604    1.792760
   39          6             0       54.768532    2.208312    1.306673
   40          6             0       55.443929    1.137008    0.631327
   41          6             0       54.793330    0.076596   -0.017814
   42          6             0       55.446885   -0.981308   -0.668249
   43          6             0       54.774505   -2.045850   -1.357279
   44          6             0       55.739087   -2.863210   -1.844111
   45          6             0       56.998253   -2.293903   -1.455570
   46          7             0       56.789018   -1.149442   -0.746548
   47          6             0       58.233129   -2.840278   -1.763391
   48          6             0       59.465973   -2.312984   -1.417497
   49          6             0       60.732497   -2.907014   -1.750083
   50          6             0       61.688768   -2.093838   -1.244362
   51          6             0       61.007272   -1.001265   -0.603797
   52          7             0       59.663494   -1.161907   -0.722782
   53          6             0       61.638111    0.056103    0.031188
   54          6             0       61.004625    1.121696    0.649596
   55          6             0       61.683495    2.210969    1.298545
   56          6             0       60.725091    3.038288    1.776545
   57          6             0       59.459929    2.454893    1.420841
   58          7             0       59.660350    1.297063    0.738244
   59          6             0       58.225451    2.994979    1.740064
   60          6             0       56.991896    2.452766    1.419901
   61          7             0       56.785785    1.303353    0.718088
   62          1             0       55.612933    3.935327    2.354205
   63          1             0       53.703752    2.298209    1.399493
   64          1             0       53.710232   -2.133066   -1.458862
   65          1             0       55.623548   -3.764443   -2.414847
   66          1             0       58.233361   -3.762743   -2.327331
   67          1             0       60.853999   -3.822513   -2.296726
   68          1             0       62.755007   -2.206037   -1.291500
   69          1             0       62.719030    0.050115    0.043686
   70          1             0       62.749571    2.311911    1.369016
   71          1             0       60.844242    3.956464    2.319208
   72          1             0       58.222984    3.922262    2.296030
   73          6             0       30.388516   -0.019694   -0.001285
   74          6             0       31.601203   -0.037049   -0.024065
   75          6             0       41.283422   -0.022917   -0.051359
   76          6             0       42.496108   -0.015876   -0.034821
   77          6             0       52.176843    0.072277   -0.008354
   78          6             0       53.389648    0.073029   -0.016060
   79         30             0       36.442762   -0.054752   -0.077175
   80          6             0       33.960301   -3.002221    1.751220
   81          6             0       32.993548   -2.176369    1.282881
   82          6             0       33.661820   -1.108526    0.596040
   83          6             0       33.004228   -0.048533   -0.047313
   84          6             0       33.654441    1.001169   -0.715059
   85          6             0       32.977928    2.060058   -1.407900
   86          6             0       33.939490    2.870535   -1.912345
   87          6             0       35.200328    2.302650   -1.529604
   88          7             0       34.995978    1.164988   -0.807972
   89          6             0       36.433323    2.842608   -1.853344
   90          6             0       37.670114    2.320337   -1.515800
   91          6             0       38.927555    2.908009   -1.879693
   92          6             0       39.894391    2.102390   -1.377390
   93          6             0       39.223901    1.025496   -0.706550
   94          7             0       37.881473    1.177569   -0.804309
   95          6             0       39.880424   -0.036084   -0.065282
   96          6             0       39.231280   -1.111678    0.559909
   97          6             0       39.908520   -2.191271    1.219551
   98          6             0       38.947226   -3.019276    1.695145
   99          6             0       37.686085   -2.439211    1.331722
  100          7             0       37.889952   -1.281755    0.642209
  101          6             0       36.452968   -2.976067    1.659518
  102          6             0       35.216454   -2.431597    1.357536
  103          7             0       35.004168   -1.280191    0.660317
  104          1             0       33.847644   -3.908958    2.313743
  105          1             0       31.930336   -2.260910    1.395223
  106          1             0       31.913072    2.147482   -1.501532
  107          1             0       33.820558    3.766000   -2.491299
  108          1             0       36.429828    3.758532   -2.427942
  109          1             0       39.040953    3.812405   -2.445756
  110          1             0       40.959239    2.204648   -1.457500
  111          1             0       40.973553   -2.281275    1.309694
  112          1             0       39.066229   -3.933353    2.244252
  113          1             0       36.455778   -3.903446    2.215501
  114         30             0       47.336102    0.028658   -0.001765
  115          6             0       44.874545   -3.452054   -0.161623
  116          6             0       43.901893   -2.508953   -0.141056
  117          6             0       44.563709   -1.237862   -0.065646
  118          6             0       43.899095   -0.002734   -0.020942
  119          6             0       44.540099    1.244231    0.037273
  120          6             0       43.854319    2.502624    0.111936
  121          6             0       44.809495    3.462904    0.151034
  122          6             0       46.075243    2.788477    0.104206
  123          7             0       45.880238    1.441391    0.039663
  124          6             0       47.304236    3.425510    0.116559
  125          6             0       48.544787    2.811922    0.080536
  126          6             0       49.797273    3.511939    0.070781
  127          6             0       50.770090    2.569565    0.031627
  128          6             0       50.108775    1.296125    0.025153
  129          7             0       48.765156    1.467621    0.048660
  130          6             0       50.773588    0.060583   -0.003445
  131          6             0       50.131868   -1.187406   -0.026308
  132          6             0       50.816858   -2.448344   -0.027478
  133          6             0       49.861622   -3.408848   -0.058770
  134          6             0       48.596362   -2.732302   -0.070835
  135          7             0       48.791683   -1.383946   -0.046288
  136          6             0       47.367543   -3.368955   -0.106013
  137          6             0       46.127138   -2.754405   -0.105021
  138          7             0       45.907076   -1.410724   -0.050383
  139          1             0       44.768361   -4.518460   -0.214039
  140          1             0       42.838574   -2.643116   -0.184825
  141          1             0       42.788165    2.617119    0.142738
  142          1             0       44.683342    4.526847    0.209181
  143          1             0       47.294396    4.506027    0.155270
  144          1             0       49.903498    4.579500    0.087222
  145          1             0       51.833292    2.706812   -0.003390
  146          1             0       51.882475   -2.565676    0.006226
  147          1             0       49.987610   -4.474341   -0.069271
  148          1             0       47.377756   -4.449678   -0.138527
 --------------------------------------------------------------------
     1 basis functions        1 primitive gaussians
     1 alpha electrons        1 beta electrons

 Harmonic frequencies (cm**-1), IR intensities (km*mol⁻¹),
 Raman scattering activities (A**4/amu), Raman depolarization ratios,
 reduced masses (AMU), force constants (mDyne/A) and normal coordinates:
                      1                      2                      3
                        a                      a                      a 
 Frequencies --     0.6884                 2.4788                 6.2198
 Red. masses --    19.4536                18.9800                17.2200
 Frc consts  --     0.0000                 0.0000                 0.0000
 IR Inten    --     6.7583                 4.7328                 2.7713
 Raman Activ --     0.0000                 0.0000                 0.0000
 Depolar     --     0.0000                 0.0000                 0.0000
 Atom AN      X      Y      Z        X      Y      Z        X      Y      Z
   1  30     0.01   0.10   0.18     0.00   0.15  -0.07    -0.00   0.04  -0.07
   2   6    -0.04   0.02   0.03    -0.06   0.03  -0.02    -0.00   0.02   0.08
   3   6    -0.03   0.00   0.02    -0.04   0.01  -0.02    -0.00   0.02   0.09
   4   6    -0.01   0.01   0.03    -0.02   0.02  -0.02    -0.00   0.02   0.06
   5   6     0.00   0.00   0.02     0.00   0.01  -0.02    -0.00   0.02   0.07
   6   6     0.02   0.01   0.03     0.02   0.02  -0.02    -0.00   0.02   0.04
   7   6     0.03   0.00   0.01     0.04   0.01  -0.01    -0.00   0.02   0.06
   8   6     0.04   0.01   0.03     0.06   0.02  -0.02     0.00   0.02   0.03
   9   6     0.03   0.03   0.05     0.05   0.04  -0.02     0.00   0.02  -0.01
  10   7     0.02   0.03   0.05     0.03   0.04  -0.03     0.00   0.02   0.01
  11   6     0.04   0.04   0.07     0.06   0.06  -0.03     0.00   0.02  -0.05
  12   6     0.03   0.06   0.10     0.05   0.08  -0.03     0.00   0.02  -0.09
  13   6     0.04   0.07   0.12     0.06   0.10  -0.04     0.00   0.01  -0.13
  14   6     0.03   0.09   0.13     0.04   0.12  -0.04     0.00   0.01  -0.16
  15   6     0.02   0.08   0.12     0.02   0.11  -0.04     0.00   0.01  -0.13
  16   7     0.02   0.07   0.11     0.03   0.09  -0.04     0.00   0.02  -0.09
  17   6     0.00   0.09   0.14     0.00   0.12  -0.05    -0.00   0.01  -0.14
  18   6    -0.01   0.08   0.12    -0.02   0.11  -0.05    -0.00   0.02  -0.11
  19   6    -0.02   0.09   0.14    -0.04   0.12  -0.05    -0.01   0.02  -0.12
  20   6    -0.03   0.08   0.12    -0.05   0.11  -0.05    -0.01   0.02  -0.08
  21   6    -0.03   0.06   0.10    -0.04   0.09  -0.04    -0.01   0.02  -0.04
  22   7    -0.01   0.07   0.11    -0.02   0.09  -0.04    -0.00   0.02  -0.07
  23   6    -0.03   0.05   0.08    -0.05   0.07  -0.03    -0.01   0.02   0.00
  24   6    -0.03   0.03   0.06    -0.04   0.05  -0.03    -0.00   0.02   0.03
  25   7    -0.01   0.03   0.05    -0.02   0.05  -0.03    -0.00   0.02   0.03
  26   1    -0.01   0.00   0.01    -0.02   0.01  -0.01    -0.00   0.01   0.03
  27   1    -0.01  -0.00  -0.00    -0.01  -0.00  -0.00    -0.00   0.01   0.04
  28   1     0.01  -0.00  -0.00     0.01  -0.00  -0.00    -0.00   0.01   0.03
  29   1     0.01   0.00   0.01     0.02   0.01  -0.00     0.00   0.01   0.01
  30   1     0.01   0.01   0.02     0.02   0.02  -0.01     0.00   0.00  -0.02
  31   1     0.01   0.02   0.03     0.02   0.03  -0.01     0.00   0.00  -0.04
  32   1     0.01   0.03   0.04     0.01   0.04  -0.01     0.00   0.00  -0.06
  33   1     0.00   0.03   0.04     0.00   0.04  -0.02    -0.00   0.00  -0.05
  34   1    -0.01   0.03   0.05    -0.01   0.04  -0.02    -0.00   0.00  -0.04
  35   1    -0.01   0.02   0.04    -0.02   0.03  -0.01    -0.00   0.01  -0.02
  36   1    -0.01   0.01   0.02    -0.02   0.02  -0.01    -0.00   0.01   0.00
  37  30    -0.00   0.08   0.16    -0.00   0.14  -0.13     0.00   0.07   0.05
  38   6    -0.04   0.02   0.03    -0.01   0.03  -0.01    -0.08  -0.02  -0.00
  39   6    -0.03   0.01   0.02    -0.00   0.02   0.00    -0.06  -0.03  -0.03
  40   6    -0.02   0.02   0.03    -0.00   0.03  -0.01    -0.03  -0.02  -0.02
  41   6    -0.00   0.01   0.02    -0.00   0.02   0.00     0.00  -0.02  -0.05
  42   6     0.01   0.02   0.03     0.00   0.03  -0.01     0.03  -0.01  -0.04
  43   6     0.03   0.01   0.02     0.00   0.02   0.00     0.06  -0.01  -0.06
  44   6     0.04   0.02   0.04     0.00   0.03  -0.01     0.08   0.01  -0.05
  45   6     0.03   0.03   0.05     0.00   0.05  -0.03     0.06   0.02  -0.02
  46   7     0.02   0.03   0.05     0.00   0.05  -0.03     0.04   0.02  -0.02
  47   6     0.04   0.03   0.07     0.00   0.06  -0.06     0.08   0.05  -0.00
  48   6     0.03   0.04   0.08     0.00   0.08  -0.08     0.06   0.06   0.02
  49   6     0.04   0.05   0.10     0.00   0.09  -0.10     0.08   0.08   0.04
  50   6     0.03   0.06   0.11     0.00   0.10  -0.11     0.06   0.09   0.07
  51   6     0.01   0.05   0.10     0.00   0.10  -0.10     0.03   0.08   0.06
  52   7     0.02   0.05   0.09     0.00   0.09  -0.09     0.04   0.06   0.04
  53   6    -0.00   0.06   0.11    -0.00   0.10  -0.11     0.00   0.08   0.08
  54   6    -0.02   0.05   0.10    -0.00   0.09  -0.10    -0.03   0.07   0.08
  55   6    -0.03   0.06   0.11    -0.00   0.10  -0.11    -0.06   0.07   0.11
  56   6    -0.04   0.05   0.10    -0.01   0.09  -0.10    -0.08   0.05   0.09
  57   6    -0.03   0.04   0.08    -0.01   0.08  -0.07    -0.06   0.04   0.06
  58   7    -0.02   0.05   0.09    -0.00   0.09  -0.08    -0.03   0.05   0.06
  59   6    -0.04   0.04   0.07    -0.01   0.06  -0.05    -0.08   0.02   0.05
  60   6    -0.03   0.03   0.05    -0.01   0.05  -0.03    -0.06  -0.00   0.02
  61   7    -0.02   0.03   0.05    -0.00   0.05  -0.03    -0.03   0.00   0.00
  62   1    -0.02   0.01   0.01    -0.00   0.01  -0.00    -0.03  -0.01   0.00
  63   1    -0.01   0.00   0.00    -0.00   0.00   0.01    -0.02  -0.01  -0.01
  64   1     0.01   0.00   0.00     0.00   0.00   0.01     0.02  -0.01  -0.02
  65   1     0.02   0.01   0.01     0.00   0.01  -0.00     0.03   0.00  -0.02
  66   1     0.02   0.01   0.02     0.00   0.02  -0.02     0.03   0.01  -0.00
  67   1     0.02   0.01   0.03     0.00   0.03  -0.03     0.03   0.03   0.01
  68   1     0.01   0.02   0.04     0.00   0.03  -0.04     0.02   0.03   0.02
  69   1    -0.00   0.02   0.04    -0.00   0.03  -0.04     0.00   0.03   0.03
  70   1    -0.01   0.02   0.04    -0.00   0.03  -0.04    -0.02   0.02   0.04
  71   1    -0.02   0.02   0.03    -0.00   0.03  -0.03    -0.03   0.01   0.03
  72   1    -0.02   0.01   0.02    -0.00   0.02  -0.02    -0.03   0.00   0.02
  73   6     0.00  -0.01  -0.01     0.00  -0.01  -0.01    -0.00   0.02   0.09
  74   6     0.00  -0.02  -0.03     0.00  -0.03  -0.01    -0.00   0.02   0.10
  75   6    -0.00  -0.05  -0.09    -0.00  -0.09   0.05     0.00  -0.04   0.02
  76   6    -0.00  -0.05  -0.09    -0.00  -0.09   0.07     0.00  -0.05   0.00
  77   6    -0.00  -0.00  -0.01    -0.00  -0.01   0.04     0.00  -0.05  -0.09
  78   6    -0.00   0.01   0.00    -0.00   0.01   0.02     0.00  -0.04  -0.07
  79  30    -0.00  -0.11  -0.19     0.00  -0.16   0.02    -0.00   0.01   0.21
  80   6     0.00  -0.05  -0.06    -0.03  -0.06  -0.02    -0.00   0.03   0.12
  81   6     0.00  -0.04  -0.05    -0.02  -0.05  -0.02    -0.00   0.03   0.12
  82   6     0.00  -0.04  -0.05    -0.01  -0.05  -0.01    -0.00   0.02   0.11
  83   6    -0.00  -0.04  -0.05     0.00  -0.04  -0.01    -0.00   0.02   0.11
  84   6    -0.00  -0.04  -0.05     0.01  -0.05  -0.01     0.00   0.02   0.10
  85   6    -0.00  -0.04  -0.05     0.02  -0.05  -0.01     0.00   0.02   0.11
  86   6    -0.00  -0.05  -0.06     0.03  -0.05  -0.01     0.00   0.02   0.10
  87   6    -0.00  -0.05  -0.07     0.03  -0.06  -0.00     0.00   0.01   0.10
  88   7    -0.00  -0.05  -0.07     0.01  -0.07  -0.00     0.00   0.01   0.11
  89   6    -0.00  -0.06  -0.09     0.03  -0.07   0.01     0.00   0.01   0.09
  90   6    -0.00  -0.06  -0.09     0.03  -0.08   0.02     0.00  -0.00   0.07
  91   6    -0.00  -0.06  -0.10     0.03  -0.09   0.03     0.00  -0.02   0.06
  92   6    -0.00  -0.06  -0.10     0.02  -0.09   0.04     0.00  -0.03   0.04
  93   6    -0.00  -0.06  -0.09     0.01  -0.09   0.03     0.00  -0.02   0.05
  94   7    -0.00  -0.06  -0.10     0.01  -0.09   0.02     0.00  -0.01   0.07
  95   6    -0.00  -0.06  -0.09     0.00  -0.09   0.04    -0.00  -0.03   0.04
  96   6     0.00  -0.06  -0.09    -0.01  -0.09   0.03    -0.00  -0.02   0.05
  97   6     0.00  -0.06  -0.10    -0.02  -0.09   0.03    -0.00  -0.02   0.05
  98   6     0.00  -0.06  -0.10    -0.03  -0.09   0.02    -0.00  -0.01   0.07
  99   6     0.00  -0.06  -0.09    -0.02  -0.08   0.01    -0.00   0.00   0.08
 100   7     0.00  -0.06  -0.10    -0.01  -0.09   0.02    -0.00  -0.00   0.08
 101   6     0.00  -0.06  -0.09    -0.03  -0.08  -0.00    -0.00   0.01   0.10
 102   6     0.00  -0.05  -0.07    -0.03  -0.07  -0.01    -0.00   0.02   0.11
 103   7     0.00  -0.05  -0.07    -0.01  -0.07  -0.00    -0.00   0.02   0.11
 104   1     0.00  -0.01  -0.02    -0.01  -0.02  -0.01    -0.00   0.01   0.04
 105   1     0.00  -0.01  -0.01    -0.01  -0.01  -0.01    -0.00   0.01   0.04
 106   1    -0.00  -0.01  -0.01     0.01  -0.01  -0.01     0.00   0.01   0.03
 107   1    -0.00  -0.01  -0.02     0.01  -0.02  -0.00     0.00   0.01   0.03
 108   1    -0.00  -0.02  -0.03     0.01  -0.02   0.00     0.00   0.00   0.03
 109   1    -0.00  -0.02  -0.03     0.01  -0.03   0.01     0.00  -0.00   0.02
 110   1    -0.00  -0.02  -0.03     0.01  -0.03   0.01     0.00  -0.01   0.01
 111   1     0.00  -0.02  -0.03    -0.01  -0.03   0.01    -0.00  -0.01   0.01
 112   1     0.00  -0.02  -0.03    -0.01  -0.03   0.00    -0.00  -0.00   0.02
 113   1     0.00  -0.02  -0.03    -0.01  -0.02  -0.00    -0.00   0.01   0.03
 114  30    -0.00  -0.06  -0.13    -0.00  -0.11   0.17     0.00  -0.11  -0.18
 115   6     0.02  -0.04  -0.08     0.03  -0.07   0.09    -0.00  -0.05  -0.06
 116   6     0.01  -0.04  -0.08     0.02  -0.08   0.08    -0.00  -0.05  -0.04
 117   6     0.01  -0.04  -0.08     0.01  -0.07   0.08    -0.00  -0.05  -0.04
 118   6    -0.00  -0.04  -0.08    -0.00  -0.08   0.07     0.00  -0.05  -0.02
 119   6    -0.01  -0.04  -0.08    -0.01  -0.07   0.08     0.00  -0.05  -0.03
 120   6    -0.01  -0.04  -0.09    -0.02  -0.08   0.08     0.00  -0.05  -0.02
 121   6    -0.02  -0.04  -0.08    -0.03  -0.07   0.09     0.00  -0.05  -0.04
 122   6    -0.02  -0.03  -0.07    -0.02  -0.06   0.08     0.00  -0.05  -0.06
 123   7    -0.01  -0.04  -0.08    -0.01  -0.07   0.09     0.00  -0.05  -0.06
 124   6    -0.02  -0.03  -0.06    -0.03  -0.05   0.08     0.00  -0.05  -0.08
 125   6    -0.02  -0.02  -0.05    -0.02  -0.04   0.07     0.00  -0.05  -0.09
 126   6    -0.02  -0.01  -0.04    -0.03  -0.03   0.07     0.00  -0.05  -0.10
 127   6    -0.01  -0.01  -0.03    -0.02  -0.02   0.06     0.00  -0.05  -0.10
 128   6    -0.01  -0.01  -0.03    -0.01  -0.03   0.06     0.00  -0.05  -0.10
 129   7    -0.01  -0.02  -0.05    -0.01  -0.04   0.08     0.00  -0.05  -0.10
 130   6    -0.00  -0.01  -0.03    -0.00  -0.02   0.05     0.00  -0.05  -0.10
 131   6     0.01  -0.01  -0.03     0.01  -0.02   0.06     0.00  -0.05  -0.11
 132   6     0.01  -0.01  -0.03     0.02  -0.02   0.06     0.00  -0.05  -0.13
 133   6     0.02  -0.01  -0.04     0.03  -0.03   0.07    -0.00  -0.05  -0.13
 134   6     0.01  -0.02  -0.05     0.02  -0.04   0.07    -0.00  -0.05  -0.12
 135   7     0.01  -0.02  -0.05     0.01  -0.04   0.07     0.00  -0.05  -0.11
 136   6     0.02  -0.03  -0.06     0.03  -0.05   0.08    -0.00  -0.05  -0.10
 137   6     0.01  -0.03  -0.07     0.02  -0.06   0.08    -0.00  -0.05  -0.08
 138   7     0.01  -0.04  -0.07     0.01  -0.07   0.09     0.00  -0.05  -0.07
 139   1     0.01  -0.01  -0.02     0.01  -0.02   0.03    -0.00  -0.01  -0.02
 140   1     0.00  -0.01  -0.03     0.01  -0.03   0.02    -0.00  -0.01  -0.00
 141   1    -0.00  -0.01  -0.03    -0.01  -0.03   0.02     0.00  -0.01  -0.00
 142   1    -0.01  -0.01  -0.02    -0.01  -0.02   0.03     0.00  -0.01  -0.01
 143   1    -0.01  -0.01  -0.02    -0.01  -0.01   0.02     0.00  -0.01  -0.02
 144   1    -0.01  -0.00  -0.01    -0.01  -0.01   0.02     0.00  -0.01  -0.03
 145   1    -0.00  -0.00  -0.01    -0.01  -0.00   0.02     0.00  -0.01  -0.03
 146   1     0.00  -0.00  -0.00     0.01  -0.00   0.01     0.00  -0.01  -0.04
 147   1     0.01  -0.00  -0.01     0.01  -0.01   0.02    -0.00  -0.01  -0.04
 148   1     0.01  -0.01  -0.02     0.01  -0.01   0.02    -0.00  -0.01  -0.03
                      4                      5                      6
                        a                      a                      a 
 Frequencies --     6.5790                 9.1137                12.0638
 Red. masses --    11.3980                14.6506                11.2707
 Frc consts  --     0.0000                 0.0000                 0.0000
 IR Inten    --     0.1855                 1.0347                 1.0128
 Raman Activ --     0.0000                 0.0000                 0.0000
 Depolar     --     0.0000                 0.0000                 0.0000
 Atom AN      X      Y      Z        X      Y      Z        X      Y      Z
   1  30    -0.00   0.00  -0.01     0.01   0.03  -0.02    -0.01  -0.00   0.00
   2   6     0.00  -0.01  -0.17    -0.08  -0.04   0.05    -0.00   0.01   0.11
   3   6     0.00  -0.00  -0.12    -0.06  -0.06   0.07    -0.00   0.00   0.08
   4   6     0.00   0.00  -0.06    -0.03  -0.05   0.05    -0.00   0.00   0.04
   5   6    -0.00   0.00   0.01     0.00  -0.06   0.05    -0.00   0.00   0.01
   6   6    -0.00   0.01   0.07     0.03  -0.05   0.05    -0.00  -0.00  -0.02
   7   6    -0.00   0.01   0.14     0.06  -0.06   0.07    -0.00  -0.00  -0.04
   8   6    -0.00   0.01   0.19     0.08  -0.04   0.06    -0.00  -0.01  -0.08
   9   6    -0.00   0.01   0.15     0.07  -0.01   0.03    -0.00  -0.01  -0.08
  10   7    -0.00   0.01   0.08     0.04  -0.02   0.03    -0.00  -0.00  -0.04
  11   6    -0.00   0.02   0.18     0.08   0.01   0.01    -0.00  -0.01  -0.12
  12   6    -0.00   0.01   0.15     0.07   0.04  -0.03    -0.00  -0.01  -0.11
  13   6    -0.00   0.02   0.18     0.08   0.07  -0.06    -0.00  -0.01  -0.15
  14   6    -0.00   0.01   0.13     0.06   0.09  -0.09    -0.00  -0.01  -0.12
  15   6    -0.00   0.01   0.06     0.03   0.07  -0.07    -0.00  -0.01  -0.07
  16   7    -0.00   0.01   0.08     0.04   0.05  -0.04    -0.00  -0.01  -0.07
  17   6    -0.00  -0.00  -0.02     0.00   0.09  -0.09    -0.00  -0.00  -0.02
  18   6     0.00  -0.01  -0.09    -0.03   0.07  -0.08    -0.00   0.00   0.04
  19   6     0.00  -0.01  -0.16    -0.05   0.09  -0.09    -0.00   0.01   0.09
  20   6     0.00  -0.02  -0.21    -0.08   0.07  -0.06    -0.00   0.01   0.13
  21   6     0.00  -0.01  -0.16    -0.06   0.04  -0.03    -0.00   0.01   0.10
  22   7     0.00  -0.01  -0.10    -0.03   0.05  -0.04    -0.00   0.00   0.05
  23   6     0.00  -0.01  -0.19    -0.08   0.02  -0.00    -0.00   0.01   0.12
  24   6     0.00  -0.01  -0.15    -0.06  -0.01   0.03    -0.00   0.01   0.10
  25   7     0.00  -0.00  -0.08    -0.03  -0.02   0.03    -0.00   0.00   0.06
  26   1     0.00  -0.00  -0.07    -0.03  -0.01   0.02    -0.00   0.00   0.04
  27   1     0.00   0.00  -0.03    -0.02  -0.02   0.03    -0.00   0.00   0.02
  28   1    -0.00   0.00   0.04     0.02  -0.02   0.03    -0.00   0.00  -0.01
  29   1    -0.00   0.01   0.07     0.03  -0.01   0.02    -0.00  -0.00  -0.03
  30   1    -0.00   0.01   0.07     0.03   0.00   0.00    -0.00  -0.00  -0.04
  31   1    -0.00   0.01   0.07     0.03   0.02  -0.02    -0.00  -0.01  -0.06
  32   1    -0.00   0.00   0.04     0.02   0.03  -0.03    -0.00  -0.00  -0.04
  33   1    -0.00  -0.00  -0.01     0.00   0.03  -0.04    -0.00  -0.00  -0.01
  34   1     0.00  -0.00  -0.05    -0.02   0.03  -0.03    -0.00   0.00   0.03
  35   1     0.00  -0.01  -0.08    -0.03   0.02  -0.02    -0.00   0.00   0.05
  36   1     0.00  -0.01  -0.07    -0.03   0.00   0.00    -0.00   0.00   0.05
  37  30     0.00   0.01   0.01    -0.00  -0.05   0.00     0.00   0.00   0.00
  38   6    -0.01   0.08  -0.14     0.06   0.07  -0.06     0.01   0.06  -0.10
  39   6    -0.01   0.06  -0.11     0.04   0.09  -0.07     0.01   0.04  -0.06
  40   6    -0.00   0.03  -0.05     0.02   0.07  -0.05     0.00   0.02  -0.03
  41   6     0.00  -0.00  -0.01    -0.00   0.08  -0.06     0.00  -0.00   0.01
  42   6     0.01  -0.03   0.04    -0.02   0.07  -0.05     0.00  -0.03   0.05
  43   6     0.01  -0.06   0.09    -0.04   0.09  -0.07     0.00  -0.05   0.08
  44   6     0.01  -0.09   0.13    -0.06   0.06  -0.06     0.00  -0.07   0.12
  45   6     0.01  -0.07   0.11    -0.05   0.02  -0.03     0.00  -0.06   0.10
  46   7     0.01  -0.04   0.06    -0.03   0.03  -0.03     0.00  -0.03   0.06
  47   6     0.01  -0.08   0.14    -0.06  -0.02  -0.01     0.00  -0.08   0.13
  48   6     0.01  -0.06   0.12    -0.05  -0.06   0.03     0.00  -0.07   0.11
  49   6     0.01  -0.07   0.16    -0.06  -0.11   0.06     0.00  -0.08   0.14
  50   6     0.01  -0.05   0.12    -0.05  -0.15   0.08     0.00  -0.06   0.10
  51   6     0.01  -0.02   0.07    -0.02  -0.12   0.07     0.00  -0.03   0.05
  52   7     0.01  -0.03   0.07    -0.03  -0.08   0.04     0.00  -0.04   0.06
  53   6     0.00   0.01   0.02    -0.00  -0.14   0.08     0.00   0.01  -0.01
  54   6    -0.00   0.04  -0.04     0.02  -0.12   0.06     0.00   0.04  -0.06
  55   6    -0.01   0.08  -0.09     0.04  -0.14   0.08     0.00   0.07  -0.12
  56   6    -0.01   0.10  -0.13     0.06  -0.10   0.05     0.01   0.09  -0.16
  57   6    -0.01   0.08  -0.11     0.05  -0.06   0.02     0.00   0.07  -0.12
  58   7    -0.00   0.05  -0.06     0.03  -0.08   0.03     0.00   0.04  -0.07
  59   6    -0.01   0.09  -0.14     0.06  -0.01  -0.01     0.01   0.08  -0.13
  60   6    -0.01   0.07  -0.11     0.05   0.03  -0.04     0.00   0.06  -0.09
  61   7    -0.00   0.04  -0.06     0.03   0.03  -0.03     0.00   0.03  -0.05
  62   1    -0.00   0.03  -0.05     0.02   0.02  -0.02     0.00   0.02  -0.04
  63   1    -0.00   0.02  -0.03     0.01   0.04  -0.03     0.00   0.01  -0.01
  64   1     0.00  -0.02   0.03    -0.01   0.04  -0.03     0.00  -0.01   0.02
  65   1     0.01  -0.03   0.05    -0.02   0.02  -0.02     0.00  -0.03   0.04
  66   1     0.01  -0.03   0.05    -0.02  -0.00  -0.00    -0.00  -0.03   0.05
  67   1     0.01  -0.03   0.06    -0.02  -0.03   0.02    -0.00  -0.03   0.05
  68   1     0.00  -0.01   0.04    -0.01  -0.05   0.03     0.00  -0.02   0.03
  69   1     0.00   0.01   0.01    -0.00  -0.05   0.03     0.00   0.00  -0.00
  70   1    -0.00   0.02  -0.03     0.01  -0.05   0.03     0.00   0.02  -0.04
  71   1    -0.00   0.04  -0.05     0.02  -0.03   0.01     0.00   0.03  -0.06
  72   1    -0.00   0.03  -0.05     0.02  -0.00  -0.01     0.00   0.03  -0.05
  73   6    -0.00   0.01   0.01     0.00  -0.09   0.06    -0.00   0.00   0.01
  74   6    -0.00   0.01   0.01     0.00  -0.10   0.05    -0.00   0.00   0.01
  75   6    -0.00  -0.01   0.00    -0.00  -0.00   0.02     0.00   0.00  -0.01
  76   6    -0.00  -0.01   0.00    -0.00   0.02   0.02     0.00   0.00  -0.01
  77   6     0.00  -0.01  -0.02    -0.00   0.12  -0.05     0.00  -0.00   0.01
  78   6     0.00  -0.01  -0.01    -0.00   0.11  -0.06     0.00  -0.00   0.01
  79  30     0.00   0.01   0.03     0.00  -0.15   0.05    -0.00   0.01  -0.01
  80   6    -0.00  -0.04  -0.05     0.04  -0.10   0.01     0.01  -0.06  -0.10
  81   6    -0.00  -0.03  -0.04     0.03  -0.11   0.02     0.00  -0.04  -0.06
  82   6    -0.00  -0.01  -0.01     0.01  -0.10   0.02     0.00  -0.02  -0.03
  83   6    -0.00   0.01   0.02     0.00  -0.10   0.03    -0.00   0.00   0.01
  84   6     0.00   0.02   0.04    -0.01  -0.09   0.03    -0.00   0.02   0.04
  85   6     0.00   0.04   0.07    -0.03  -0.10   0.03    -0.00   0.04   0.07
  86   6     0.00   0.05   0.09    -0.04  -0.10   0.02    -0.00   0.06   0.10
  87   6     0.00   0.04   0.07    -0.03  -0.08   0.02    -0.00   0.06   0.09
  88   7     0.00   0.02   0.05    -0.02  -0.09   0.03    -0.00   0.03   0.05
  89   6     0.00   0.04   0.07    -0.04  -0.07   0.02    -0.01   0.07   0.12
  90   6     0.00   0.02   0.05    -0.03  -0.05   0.02    -0.00   0.07   0.10
  91   6     0.00   0.02   0.05    -0.04  -0.03   0.02    -0.01   0.09   0.13
  92   6     0.00   0.01   0.03    -0.03  -0.02   0.02    -0.00   0.06   0.09
  93   6     0.00   0.00   0.02    -0.01  -0.03   0.02    -0.00   0.03   0.04
  94   7     0.00   0.01   0.03    -0.02  -0.05   0.02    -0.00   0.04   0.05
  95   6    -0.00  -0.00   0.01    -0.00  -0.02   0.02     0.00   0.00  -0.01
  96   6    -0.00  -0.01  -0.00     0.01  -0.03   0.02     0.00  -0.03  -0.06
  97   6    -0.00  -0.02  -0.02     0.03  -0.02   0.02     0.00  -0.06  -0.12
  98   6    -0.00  -0.02  -0.03     0.04  -0.04   0.01     0.00  -0.08  -0.15
  99   6    -0.00  -0.02  -0.02     0.03  -0.05   0.01     0.00  -0.06  -0.11
 100   7    -0.00  -0.01  -0.01     0.02  -0.05   0.02     0.00  -0.03  -0.07
 101   6    -0.00  -0.03  -0.04     0.04  -0.07   0.01     0.00  -0.07  -0.12
 102   6    -0.00  -0.02  -0.03     0.03  -0.09   0.01     0.00  -0.05  -0.09
 103   7    -0.00  -0.01  -0.01     0.02  -0.09   0.02     0.00  -0.03  -0.05
 104   1    -0.00  -0.01  -0.02     0.01  -0.03   0.00     0.00  -0.02  -0.04
 105   1    -0.00  -0.01  -0.01     0.01  -0.04   0.01     0.00  -0.01  -0.01
 106   1     0.00   0.02   0.02    -0.01  -0.03   0.01    -0.00   0.01   0.02
 107   1     0.00   0.02   0.03    -0.01  -0.03   0.00    -0.00   0.02   0.04
 108   1     0.00   0.01   0.03    -0.01  -0.02   0.00    -0.00   0.03   0.04
 109   1     0.00   0.01   0.02    -0.01  -0.01   0.01    -0.00   0.03   0.05
 110   1     0.00   0.00   0.01    -0.01  -0.00   0.01    -0.00   0.02   0.03
 111   1    -0.00  -0.01  -0.00     0.01  -0.00   0.01     0.00  -0.02  -0.04
 112   1    -0.00  -0.01  -0.01     0.01  -0.01   0.00     0.00  -0.03  -0.06
 113   1    -0.00  -0.01  -0.02     0.01  -0.02   0.00     0.00  -0.03  -0.05
 114  30    -0.00  -0.02  -0.03    -0.00   0.17  -0.04     0.00  -0.01   0.00
 115   6     0.00  -0.01   0.06     0.03   0.05  -0.00    -0.00   0.01  -0.16
 116   6     0.00  -0.01   0.04     0.02   0.04   0.01     0.00   0.01  -0.13
 117   6    -0.00  -0.01   0.02     0.01   0.04   0.00     0.00   0.00  -0.07
 118   6    -0.00  -0.01  -0.00    -0.00   0.04   0.01     0.00   0.00  -0.01
 119   6     0.00  -0.01  -0.03    -0.01   0.04   0.01     0.00  -0.00   0.05
 120   6     0.00  -0.01  -0.05    -0.03   0.04   0.01     0.00  -0.01   0.11
 121   6     0.00  -0.01  -0.08    -0.03   0.05   0.00     0.00  -0.01   0.15
 122   6     0.00  -0.01  -0.07    -0.03   0.06  -0.01     0.00  -0.01   0.11
 123   7    -0.00  -0.01  -0.05    -0.02   0.06  -0.00     0.00  -0.00   0.06
 124   6     0.00  -0.01  -0.10    -0.03   0.07  -0.01     0.00  -0.01   0.13
 125   6     0.00  -0.01  -0.09    -0.03   0.08  -0.02     0.00  -0.01   0.10
 126   6    -0.00  -0.01  -0.12    -0.03   0.10  -0.03     0.00  -0.01   0.12
 127   6    -0.00  -0.01  -0.10    -0.03   0.11  -0.04     0.00  -0.00   0.08
 128   6     0.00  -0.01  -0.06    -0.01   0.10  -0.03     0.00  -0.00   0.04
 129   7     0.00  -0.01  -0.06    -0.02   0.09  -0.03     0.00  -0.01   0.06
 130   6     0.00  -0.01  -0.02    -0.00   0.11  -0.04     0.00  -0.00   0.01
 131   6     0.00  -0.01   0.02     0.01   0.10  -0.04     0.00  -0.00  -0.02
 132   6    -0.00  -0.01   0.06     0.02   0.11  -0.04    -0.00  -0.00  -0.05
 133   6    -0.00  -0.01   0.08     0.03   0.10  -0.03    -0.00  -0.00  -0.10
 134   6     0.00  -0.01   0.06     0.03   0.08  -0.03    -0.00   0.00  -0.09
 135   7     0.00  -0.01   0.03     0.01   0.09  -0.03     0.00  -0.00  -0.05
 136   6     0.00  -0.01   0.07     0.03   0.07  -0.02    -0.00   0.00  -0.13
 137   6     0.00  -0.01   0.05     0.03   0.06  -0.01    -0.00   0.00  -0.12
 138   7    -0.00  -0.01   0.02     0.01   0.06  -0.01    -0.00   0.00  -0.07
 139   1     0.00  -0.00   0.02     0.01   0.01  -0.00    -0.00   0.00  -0.06
 140   1     0.00  -0.00   0.01     0.01   0.01   0.00     0.00   0.00  -0.04
 141   1     0.00  -0.00  -0.01    -0.01   0.01   0.01     0.00  -0.00   0.03
 142   1     0.00  -0.00  -0.03    -0.01   0.01   0.00     0.00  -0.00   0.06
 143   1     0.00  -0.00  -0.04    -0.01   0.02  -0.00     0.00  -0.00   0.05
 144   1    -0.00  -0.00  -0.04    -0.01   0.03  -0.01     0.00  -0.00   0.04
 145   1    -0.00  -0.00  -0.03    -0.01   0.03  -0.01     0.00  -0.00   0.02
 146   1    -0.00  -0.00   0.02     0.01   0.03  -0.01    -0.00  -0.00  -0.01
 147   1    -0.00  -0.00   0.03     0.01   0.03  -0.01    -0.00  -0.00  -0.04
 148   1    -0.00  -0.00   0.03     0.01   0.02  -0.01    -0.00   0.00  -0.05
                      7                      8                      9
                        a                      a                      a 
 Frequencies --    12.7957                14.7560                16.4947
 Red. masses --    11.6867                11.6987                11.2928
 Frc consts  --     0.0000                 0.0000                 0.0000
 IR Inten    --     0.7806                 1.6455                 0.0361
 Raman Activ --     0.0000                 0.0000                 0.0000
 Depolar     --     0.0000                 0.0000                 0.0000
 Atom AN      X      Y      Z        X      Y      Z        X      Y      Z
   1  30    -0.00   0.00  -0.03    -0.00   0.02   0.01     0.01   0.00  -0.00
   2   6     0.02   0.01  -0.12     0.09   0.07   0.02     0.01  -0.00  -0.05
   3   6     0.01   0.01  -0.14     0.06   0.09   0.03     0.01   0.00  -0.03
   4   6     0.01   0.01  -0.11     0.03   0.08   0.03     0.00   0.00  -0.02
   5   6    -0.00   0.01  -0.12     0.00   0.09   0.04     0.00   0.00  -0.00
   6   6    -0.01   0.01  -0.12    -0.03   0.08   0.03     0.00   0.00   0.01
   7   6    -0.01   0.01  -0.15    -0.06   0.10   0.03     0.00   0.00   0.02
   8   6    -0.02   0.01  -0.14    -0.08   0.07   0.02     0.00   0.01   0.05
   9   6    -0.02   0.00  -0.09    -0.07   0.04   0.01     0.00   0.01   0.05
  10   7    -0.01   0.00  -0.09    -0.04   0.05   0.02     0.00   0.00   0.03
  11   6    -0.02  -0.00  -0.05    -0.08   0.01  -0.00     0.00   0.01   0.08
  12   6    -0.02  -0.00   0.02    -0.07  -0.02  -0.01     0.00   0.01   0.08
  13   6    -0.02  -0.01   0.07    -0.09  -0.06  -0.02     0.00   0.01   0.10
  14   6    -0.02  -0.01   0.13    -0.06  -0.08  -0.03     0.00   0.01   0.08
  15   6    -0.01  -0.01   0.11    -0.03  -0.06  -0.02     0.00   0.00   0.04
  16   7    -0.01  -0.00   0.04    -0.04  -0.03  -0.01     0.00   0.00   0.04
  17   6    -0.00  -0.01   0.15    -0.00  -0.08  -0.03     0.00  -0.00   0.00
  18   6     0.01  -0.01   0.12     0.03  -0.06  -0.02     0.00  -0.00  -0.04
  19   6     0.01  -0.01   0.15     0.06  -0.08  -0.03     0.01  -0.01  -0.08
  20   6     0.02  -0.01   0.10     0.08  -0.06  -0.02     0.01  -0.01  -0.10
  21   6     0.02  -0.00   0.04     0.07  -0.03  -0.01     0.01  -0.01  -0.08
  22   7     0.01  -0.00   0.06     0.04  -0.03  -0.01     0.01  -0.00  -0.04
  23   6     0.02  -0.00  -0.02     0.08   0.01   0.00     0.01  -0.01  -0.08
  24   6     0.01   0.00  -0.07     0.07   0.04   0.01     0.01  -0.00  -0.05
  25   7     0.01   0.01  -0.07     0.04   0.05   0.02     0.00  -0.00  -0.03
  26   1     0.01   0.00  -0.04     0.03   0.02   0.01     0.00  -0.00  -0.02
  27   1     0.00   0.00  -0.05     0.02   0.03   0.01     0.00   0.00  -0.00
  28   1    -0.00   0.00  -0.05    -0.02   0.04   0.01     0.00   0.00   0.00
  29   1    -0.01   0.00  -0.05    -0.03   0.02   0.00     0.00   0.00   0.02
  30   1    -0.01  -0.00  -0.02    -0.03   0.00  -0.00     0.00   0.00   0.03
  31   1    -0.01  -0.00   0.02    -0.03  -0.02  -0.01     0.00   0.00   0.04
  32   1    -0.01  -0.00   0.05    -0.02  -0.03  -0.01     0.00   0.00   0.03
  33   1    -0.00  -0.00   0.06    -0.00  -0.03  -0.01     0.00  -0.00   0.00
  34   1     0.00  -0.00   0.06     0.02  -0.03  -0.01     0.00  -0.00  -0.03
  35   1     0.01  -0.00   0.03     0.03  -0.02  -0.01     0.00  -0.00  -0.04
  36   1     0.01  -0.00  -0.01     0.03   0.00   0.00     0.00  -0.00  -0.03
  37  30     0.00   0.01  -0.03    -0.00   0.03  -0.01    -0.00   0.00  -0.00
  38   6    -0.03   0.04  -0.11     0.06   0.08  -0.03     0.00   0.03  -0.04
  39   6    -0.02   0.04  -0.13     0.04   0.10  -0.03     0.00   0.02  -0.02
  40   6    -0.01   0.03  -0.10     0.02   0.08  -0.02    -0.00   0.01  -0.01
  41   6     0.00   0.03  -0.11    -0.00   0.09  -0.02    -0.00   0.00   0.00
  42   6     0.01   0.03  -0.10    -0.02   0.08  -0.02    -0.00  -0.00   0.01
  43   6     0.03   0.03  -0.12    -0.04   0.10  -0.04    -0.00  -0.01   0.02
  44   6     0.03   0.03  -0.09    -0.06   0.09  -0.04    -0.00  -0.02   0.04
  45   6     0.03   0.02  -0.05    -0.05   0.05  -0.03    -0.00  -0.02   0.04
  46   7     0.01   0.02  -0.06    -0.03   0.06  -0.02    -0.00  -0.01   0.02
  47   6     0.03   0.01  -0.01    -0.06   0.02  -0.02    -0.00  -0.04   0.06
  48   6     0.02  -0.01   0.04    -0.05  -0.02  -0.00    -0.00  -0.04   0.06
  49   6     0.03  -0.03   0.09    -0.06  -0.05   0.01    -0.00  -0.05   0.08
  50   6     0.02  -0.05   0.14    -0.05  -0.08   0.03    -0.00  -0.04   0.07
  51   6     0.01  -0.04   0.11    -0.02  -0.07   0.03    -0.00  -0.02   0.03
  52   7     0.01  -0.02   0.05    -0.03  -0.03   0.01    -0.00  -0.02   0.04
  53   6    -0.00  -0.04   0.13    -0.00  -0.09   0.04    -0.00  -0.00   0.00
  54   6    -0.01  -0.03   0.10     0.02  -0.07   0.03     0.00   0.02  -0.03
  55   6    -0.02  -0.03   0.12     0.04  -0.09   0.04     0.00   0.04  -0.07
  56   6    -0.03  -0.02   0.07     0.06  -0.06   0.02     0.00   0.05  -0.08
  57   6    -0.03  -0.00   0.02     0.05  -0.02   0.01     0.00   0.04  -0.06
  58   7    -0.01  -0.01   0.04     0.03  -0.03   0.01     0.00   0.02  -0.04
  59   6    -0.03   0.02  -0.03     0.06   0.02  -0.01     0.00   0.04  -0.07
  60   6    -0.03   0.03  -0.07     0.05   0.05  -0.02     0.00   0.03  -0.04
  61   7    -0.01   0.03  -0.07     0.03   0.05  -0.02    -0.00   0.02  -0.02
  62   1    -0.01   0.01  -0.04     0.02   0.03  -0.01     0.00   0.01  -0.02
  63   1    -0.01   0.01  -0.05     0.01   0.04  -0.01     0.00   0.00  -0.00
  64   1     0.01   0.01  -0.04    -0.01   0.04  -0.01    -0.00  -0.00   0.00
  65   1     0.01   0.01  -0.03    -0.02   0.03  -0.02    -0.00  -0.01   0.01
  66   1     0.01   0.00  -0.00    -0.02   0.01  -0.01    -0.00  -0.01   0.02
  67   1     0.01  -0.01   0.03    -0.02  -0.01   0.00    -0.00  -0.02   0.03
  68   1     0.01  -0.02   0.05    -0.01  -0.03   0.01    -0.00  -0.01   0.02
  69   1    -0.00  -0.02   0.05    -0.00  -0.04   0.02    -0.00  -0.00   0.00
  70   1    -0.01  -0.01   0.05     0.01  -0.04   0.02     0.00   0.01  -0.02
  71   1    -0.01  -0.00   0.02     0.02  -0.02   0.01     0.00   0.02  -0.03
  72   1    -0.01   0.01  -0.01     0.02   0.01  -0.01     0.00   0.02  -0.03
  73   6    -0.00   0.02  -0.13     0.00   0.12   0.05     0.00   0.00  -0.00
  74   6    -0.00   0.02  -0.11     0.00   0.13   0.06     0.00   0.00   0.00
  75   6     0.00  -0.03   0.13     0.00  -0.13  -0.07    -0.00  -0.00  -0.00
  76   6     0.00  -0.03   0.13     0.00  -0.13  -0.06    -0.00  -0.00  -0.00
  77   6     0.00   0.02  -0.13    -0.00   0.09   0.02    -0.00   0.00   0.00
  78   6     0.00   0.03  -0.13    -0.00   0.10   0.00    -0.00   0.00   0.00
  79  30     0.00   0.00   0.05     0.00  -0.01  -0.03     0.00  -0.00   0.00
  80   6    -0.06   0.01  -0.06    -0.05   0.08   0.05    -0.00   0.10   0.16
  81   6    -0.04   0.01  -0.08    -0.04   0.11   0.07    -0.00   0.07   0.12
  82   6    -0.02   0.01  -0.06    -0.02   0.09   0.05     0.00   0.04   0.06
  83   6    -0.00   0.01  -0.08     0.00   0.11   0.06     0.00   0.00   0.00
  84   6     0.02   0.01  -0.06     0.02   0.09   0.05     0.00  -0.03  -0.05
  85   6     0.04   0.02  -0.07     0.04   0.11   0.07     0.00  -0.07  -0.11
  86   6     0.06   0.02  -0.04     0.06   0.09   0.05     0.00  -0.10  -0.15
  87   6     0.05   0.01  -0.00     0.05   0.04   0.02     0.00  -0.08  -0.13
  88   7     0.03   0.01  -0.02     0.03   0.05   0.03     0.00  -0.04  -0.07
  89   6     0.06   0.01   0.03     0.06  -0.00  -0.01     0.00  -0.10  -0.16
  90   6     0.05   0.01   0.07     0.05  -0.04  -0.04     0.00  -0.08  -0.13
  91   6     0.06   0.00   0.10     0.06  -0.09  -0.07     0.00  -0.09  -0.15
  92   6     0.04  -0.01   0.12     0.04  -0.12  -0.09     0.00  -0.06  -0.10
  93   6     0.02  -0.01   0.10     0.02  -0.09  -0.07    -0.00  -0.03  -0.05
  94   7     0.03   0.00   0.07     0.03  -0.05  -0.05    -0.00  -0.04  -0.07
  95   6     0.00  -0.02   0.11     0.00  -0.11  -0.08    -0.00  -0.00  -0.00
  96   6    -0.02  -0.01   0.09    -0.02  -0.09  -0.07    -0.00   0.03   0.05
  97   6    -0.04  -0.02   0.10    -0.04  -0.12  -0.09     0.00   0.06   0.09
  98   6    -0.06  -0.02   0.07    -0.06  -0.09  -0.08     0.00   0.08   0.14
  99   6    -0.05  -0.01   0.05    -0.04  -0.05  -0.04    -0.00   0.07   0.13
 100   7    -0.02  -0.01   0.06    -0.02  -0.06  -0.05    -0.00   0.04   0.07
 101   6    -0.06  -0.00   0.01    -0.06  -0.00  -0.01    -0.00   0.09   0.16
 102   6    -0.05   0.00  -0.02    -0.04   0.04   0.02     0.00   0.08   0.13
 103   7    -0.03   0.00  -0.03    -0.02   0.05   0.02     0.00   0.04   0.08
 104   1    -0.02   0.00  -0.02    -0.02   0.03   0.02    -0.00   0.04   0.06
 105   1    -0.01   0.00  -0.03    -0.01   0.04   0.03    -0.00   0.02   0.03
 106   1     0.01   0.01  -0.03     0.01   0.04   0.03    -0.00  -0.02  -0.03
 107   1     0.02   0.01  -0.01     0.02   0.03   0.02    -0.00  -0.04  -0.06
 108   1     0.02   0.00   0.01     0.02  -0.00  -0.00     0.00  -0.04  -0.06
 109   1     0.02   0.00   0.03     0.02  -0.03  -0.02     0.00  -0.03  -0.06
 110   1     0.01  -0.00   0.04     0.01  -0.04  -0.03     0.00  -0.02  -0.03
 111   1    -0.01  -0.01   0.04    -0.01  -0.04  -0.03     0.00   0.02   0.03
 112   1    -0.02  -0.01   0.02    -0.02  -0.03  -0.02     0.00   0.03   0.05
 113   1    -0.02  -0.00   0.00    -0.02  -0.00  -0.00    -0.00   0.04   0.06
 114  30     0.00  -0.01   0.02     0.00  -0.05   0.02    -0.01  -0.00  -0.00
 115   6     0.01  -0.02   0.09     0.08  -0.08   0.00    -0.00   0.00  -0.17
 116   6     0.01  -0.03   0.12     0.06  -0.10  -0.02    -0.00   0.00  -0.11
 117   6     0.01  -0.02   0.10     0.03  -0.09  -0.02    -0.00  -0.00  -0.06
 118   6     0.00  -0.03   0.12     0.00  -0.10  -0.04    -0.00  -0.00  -0.00
 119   6    -0.00  -0.02   0.11    -0.03  -0.09  -0.03    -0.00  -0.00   0.05
 120   6    -0.01  -0.03   0.14    -0.06  -0.10  -0.03    -0.01  -0.01   0.11
 121   6    -0.01  -0.02   0.12    -0.08  -0.08  -0.01    -0.01  -0.01   0.16
 122   6    -0.01  -0.01   0.07    -0.07  -0.05  -0.00    -0.01  -0.01   0.14
 123   7    -0.01  -0.02   0.07    -0.04  -0.06  -0.01    -0.00  -0.00   0.08
 124   6    -0.01  -0.01   0.03    -0.08  -0.02   0.02    -0.01  -0.01   0.18
 125   6    -0.01   0.00  -0.02    -0.07   0.01   0.03    -0.01  -0.01   0.15
 126   6    -0.02   0.01  -0.07    -0.08   0.04   0.04    -0.01  -0.00   0.19
 127   6    -0.01   0.01  -0.11    -0.06   0.06   0.04    -0.01  -0.00   0.13
 128   6    -0.01   0.01  -0.09    -0.03   0.05   0.03    -0.00  -0.00   0.07
 129   7    -0.01   0.00  -0.04    -0.04   0.01   0.02    -0.00  -0.00   0.09
 130   6     0.00   0.01  -0.11    -0.00   0.06   0.03    -0.00   0.00   0.00
 131   6     0.01   0.01  -0.09     0.03   0.05   0.03    -0.00   0.00  -0.06
 132   6     0.01   0.01  -0.12     0.06   0.06   0.05    -0.00   0.00  -0.13
 133   6     0.02   0.01  -0.10     0.08   0.04   0.05    -0.00   0.00  -0.18
 134   6     0.01   0.00  -0.05     0.07   0.01   0.04    -0.00   0.00  -0.15
 135   7     0.01   0.00  -0.05     0.04   0.01   0.03    -0.00   0.00  -0.08
 136   6     0.02  -0.01  -0.00     0.08  -0.02   0.03    -0.00   0.00  -0.18
 137   6     0.01  -0.01   0.04     0.07  -0.05   0.01    -0.00   0.00  -0.14
 138   7     0.01  -0.02   0.06     0.04  -0.06  -0.00    -0.00  -0.00  -0.08
 139   1     0.01  -0.01   0.03     0.03  -0.02   0.00    -0.00   0.00  -0.06
 140   1     0.00  -0.01   0.04     0.02  -0.04  -0.01    -0.00   0.00  -0.03
 141   1    -0.00  -0.01   0.05    -0.02  -0.04  -0.01    -0.00  -0.00   0.03
 142   1    -0.01  -0.01   0.04    -0.03  -0.02  -0.00    -0.00  -0.00   0.06
 143   1    -0.01  -0.00   0.01    -0.03  -0.01   0.01    -0.00  -0.00   0.07
 144   1    -0.01   0.00  -0.02    -0.03   0.01   0.01    -0.00  -0.00   0.07
 145   1    -0.00   0.01  -0.04    -0.02   0.02   0.01    -0.00   0.00   0.04
 146   1     0.00   0.01  -0.05     0.02   0.03   0.02    -0.00   0.00  -0.04
 147   1     0.01   0.00  -0.03     0.03   0.01   0.02    -0.00   0.00  -0.07
 148   1     0.01  -0.00  -0.00     0.03  -0.01   0.01    -0.00   0.00  -0.07
                     10                     11                     12
                        a                      a                      a 
 Frequencies --    23.6704                31.8577                39.5812
 Red. masses --    16.3749                14.6988                14.3815
 Frc consts  --     0.0000                 0.0000                 0.0000
 IR Inten    --     9.4344                52.8846                24.7530
 Raman Activ --     0.0000                 0.0000                 0.0000
 Depolar     --     0.0000                 0.0000                 0.0000
 Atom AN      X      Y      Z        X      Y      Z        X      Y      Z
   1  30     0.01  -0.01   0.09    -0.00  -0.04  -0.06     0.08   0.03  -0.10
   2   6     0.03   0.02   0.13    -0.06  -0.06  -0.06     0.05   0.02  -0.10
   3   6     0.02   0.03   0.13    -0.04  -0.08  -0.04     0.05   0.03  -0.02
   4   6     0.01   0.02   0.10    -0.02  -0.06  -0.04     0.04   0.02  -0.01
   5   6     0.00   0.02   0.09    -0.00  -0.08  -0.03     0.03   0.03   0.03
   6   6    -0.00   0.02   0.10     0.02  -0.07  -0.04     0.03   0.03  -0.03
   7   6    -0.01   0.03   0.13     0.04  -0.08  -0.04     0.02   0.03  -0.08
   8   6    -0.02   0.02   0.13     0.05  -0.06  -0.05     0.02   0.02  -0.15
   9   6    -0.01   0.01   0.10     0.04  -0.04  -0.05     0.02   0.01  -0.13
  10   7    -0.01   0.01   0.10     0.02  -0.05  -0.05     0.03   0.02  -0.08
  11   6    -0.02   0.00   0.08     0.05  -0.02  -0.05     0.02   0.01  -0.13
  12   6    -0.01  -0.01   0.01     0.04   0.00  -0.01     0.02   0.01  -0.05
  13   6    -0.02  -0.02  -0.04     0.06   0.03   0.02     0.02   0.01   0.02
  14   6    -0.01  -0.04  -0.11     0.04   0.05   0.05     0.02   0.01   0.13
  15   6    -0.00  -0.03  -0.09     0.02   0.04   0.04     0.03   0.01   0.10
  16   7    -0.01  -0.02  -0.02     0.02   0.01   0.00     0.03   0.01   0.01
  17   6     0.00  -0.04  -0.13    -0.00   0.05   0.07     0.04   0.01   0.15
  18   6     0.01  -0.03  -0.09    -0.02   0.04   0.05     0.04   0.01   0.08
  19   6     0.02  -0.04  -0.12    -0.04   0.05   0.06     0.05   0.00   0.07
  20   6     0.02  -0.03  -0.05    -0.06   0.03   0.02     0.05  -0.00  -0.03
  21   6     0.02  -0.01   0.01    -0.05   0.01  -0.01     0.05   0.00  -0.08
  22   7     0.01  -0.02  -0.02    -0.03   0.01   0.01     0.05   0.01  -0.01
  23   6     0.02   0.00   0.07    -0.06  -0.02  -0.04     0.05  -0.00  -0.14
  24   6     0.02   0.01   0.10    -0.05  -0.04  -0.05     0.05   0.01  -0.11
  25   7     0.01   0.01   0.09    -0.03  -0.05  -0.05     0.04   0.01  -0.06
  26   1     0.01   0.01   0.04    -0.02  -0.02  -0.02     0.02   0.00  -0.04
  27   1     0.01   0.01   0.04    -0.01  -0.03  -0.01     0.01   0.01   0.00
  28   1    -0.00   0.01   0.04     0.01  -0.03  -0.01     0.01   0.01  -0.02
  29   1    -0.01   0.01   0.04     0.02  -0.02  -0.02     0.00   0.00  -0.06
  30   1    -0.01   0.00   0.03     0.02  -0.01  -0.02     0.00   0.00  -0.05
  31   1    -0.01  -0.01  -0.01     0.02   0.01   0.00     0.00   0.00   0.00
  32   1    -0.00  -0.01  -0.05     0.01   0.02   0.02     0.01   0.00   0.06
  33   1     0.00  -0.01  -0.06    -0.00   0.02   0.03     0.01   0.00   0.07
  34   1     0.01  -0.01  -0.05    -0.01   0.02   0.03     0.01   0.00   0.04
  35   1     0.01  -0.01  -0.01    -0.02   0.01   0.01     0.02  -0.00  -0.02
  36   1     0.01   0.00   0.03    -0.02  -0.01  -0.02     0.01  -0.00  -0.05
  37  30    -0.01  -0.00  -0.07     0.00   0.06  -0.10    -0.08  -0.06  -0.01
  38   6    -0.07  -0.01  -0.10    -0.01   0.08  -0.13    -0.08  -0.05  -0.03
  39   6    -0.05  -0.03  -0.12    -0.01   0.05  -0.09    -0.07  -0.05  -0.06
  40   6    -0.03  -0.02  -0.10    -0.00   0.04  -0.07    -0.05  -0.04  -0.05
  41   6    -0.00  -0.04  -0.11     0.00   0.02  -0.04    -0.03  -0.05  -0.06
  42   6     0.02  -0.02  -0.10     0.01   0.04  -0.06    -0.02  -0.07  -0.02
  43   6     0.05  -0.03  -0.12     0.01   0.05  -0.09     0.00  -0.09   0.01
  44   6     0.07  -0.01  -0.10     0.01   0.07  -0.12     0.01  -0.10   0.04
  45   6     0.05  -0.00  -0.08     0.01   0.07  -0.11     0.00  -0.07   0.03
  46   7     0.03  -0.01  -0.08     0.01   0.05  -0.08    -0.01  -0.06  -0.00
  47   6     0.07   0.01  -0.05     0.01   0.07  -0.10     0.01  -0.05   0.03
  48   6     0.05   0.01   0.00     0.01   0.03  -0.03     0.01  -0.01  -0.00
  49   6     0.07   0.01   0.05     0.01   0.00   0.03     0.02   0.03  -0.03
  50   6     0.05   0.01   0.10     0.01  -0.05   0.11     0.00   0.06  -0.05
  51   6     0.02   0.00   0.07     0.00  -0.04   0.10    -0.02   0.04  -0.04
  52   7     0.03   0.01   0.02     0.00   0.01   0.01    -0.02   0.00  -0.01
  53   6    -0.00   0.00   0.10    -0.00  -0.07   0.15    -0.04   0.05  -0.03
  54   6    -0.03   0.00   0.08    -0.00  -0.04   0.10    -0.05   0.02   0.00
  55   6    -0.05   0.01   0.10    -0.01  -0.05   0.12    -0.07   0.01   0.03
  56   6    -0.07   0.01   0.05    -0.01  -0.00   0.04    -0.08  -0.02   0.05
  57   6    -0.06   0.01   0.00    -0.01   0.03  -0.03    -0.07  -0.03   0.04
  58   7    -0.03   0.01   0.02    -0.00   0.01   0.01    -0.06  -0.01   0.01
  59   6    -0.07   0.01  -0.04    -0.01   0.07  -0.10    -0.08  -0.04   0.04
  60   6    -0.06  -0.00  -0.08    -0.01   0.07  -0.11    -0.07  -0.04   0.00
  61   7    -0.03  -0.01  -0.08    -0.00   0.05  -0.08    -0.05  -0.04  -0.02
  62   1    -0.03  -0.00  -0.03    -0.00   0.03  -0.05    -0.03  -0.02  -0.01
  63   1    -0.02  -0.01  -0.04    -0.00   0.01  -0.02    -0.02  -0.01  -0.03
  64   1     0.01  -0.01  -0.04     0.00   0.01  -0.02     0.00  -0.03   0.00
  65   1     0.03  -0.00  -0.03     0.00   0.03  -0.04     0.01  -0.03   0.02
  66   1     0.03   0.00  -0.02     0.00   0.02  -0.04     0.01  -0.02   0.01
  67   1     0.03   0.00   0.01     0.00   0.00   0.00     0.01   0.01  -0.01
  68   1     0.01   0.00   0.04     0.00  -0.02   0.05     0.00   0.03  -0.02
  69   1    -0.00  -0.00   0.04    -0.00  -0.03   0.06    -0.01   0.02  -0.01
  70   1    -0.02   0.00   0.04    -0.00  -0.02   0.05    -0.02   0.01   0.01
  71   1    -0.03   0.00   0.02    -0.00   0.00   0.01    -0.03  -0.01   0.02
  72   1    -0.03   0.00  -0.01    -0.00   0.02  -0.04    -0.03  -0.02   0.02
  73   6     0.00   0.03   0.07    -0.00  -0.08  -0.02     0.03   0.03   0.09
  74   6     0.00   0.03   0.03    -0.00  -0.06  -0.00     0.03   0.00   0.15
  75   6    -0.00   0.06  -0.01     0.00   0.03  -0.15     0.00  -0.01  -0.06
  76   6    -0.00   0.05   0.03     0.00  -0.02  -0.15    -0.00   0.05  -0.04
  77   6    -0.00  -0.05  -0.09     0.00  -0.05   0.05    -0.03   0.02  -0.07
  78   6    -0.00  -0.05  -0.11     0.00  -0.01   0.00    -0.03  -0.04  -0.08
  79  30     0.00   0.01  -0.20    -0.00   0.12   0.06     0.03  -0.09   0.04
  80   6     0.02  -0.01  -0.06     0.06   0.04   0.08     0.05   0.01   0.16
  81   6     0.02   0.01  -0.03     0.04  -0.00   0.05     0.05   0.03   0.20
  82   6     0.01   0.01  -0.03     0.02   0.00   0.03     0.03   0.01   0.15
  83   6     0.00   0.02  -0.01    -0.00  -0.02   0.02     0.03  -0.00   0.14
  84   6    -0.01   0.01  -0.03    -0.02   0.00   0.03     0.01  -0.02   0.10
  85   6    -0.01   0.01  -0.03    -0.04  -0.00   0.04    -0.01  -0.04   0.09
  86   6    -0.02  -0.01  -0.07    -0.06   0.03   0.07    -0.02  -0.05   0.04
  87   6    -0.01  -0.01  -0.09    -0.05   0.06   0.07    -0.01  -0.04   0.03
  88   7    -0.01  -0.00  -0.08    -0.03   0.04   0.05     0.01  -0.03   0.06
  89   6    -0.02  -0.02  -0.12    -0.06   0.08   0.07    -0.02  -0.04  -0.01
  90   6    -0.01  -0.01  -0.11    -0.04   0.08   0.03    -0.02  -0.04  -0.02
  91   6    -0.02   0.00  -0.10    -0.06   0.09  -0.00    -0.02  -0.04  -0.04
  92   6    -0.01   0.03  -0.07    -0.04   0.07  -0.06    -0.02  -0.03  -0.04
  93   6    -0.01   0.03  -0.07    -0.02   0.05  -0.06    -0.01  -0.03  -0.04
  94   7    -0.01   0.01  -0.09    -0.02   0.07  -0.00    -0.01  -0.04  -0.03
  95   6    -0.00   0.04  -0.05     0.00   0.04  -0.10     0.00  -0.04  -0.07
  96   6     0.01   0.03  -0.06     0.02   0.05  -0.06     0.02  -0.07  -0.09
  97   6     0.01   0.03  -0.06     0.04   0.06  -0.07     0.04  -0.10  -0.16
  98   6     0.02   0.01  -0.09     0.06   0.08  -0.00     0.05  -0.11  -0.15
  99   6     0.01  -0.00  -0.10     0.04   0.08   0.03     0.04  -0.08  -0.08
 100   7     0.01   0.01  -0.09     0.02   0.07  -0.01     0.03  -0.07  -0.06
 101   6     0.02  -0.02  -0.11     0.06   0.08   0.07     0.05  -0.06  -0.01
 102   6     0.02  -0.01  -0.09     0.05   0.06   0.07     0.04  -0.02   0.08
 103   7     0.01  -0.00  -0.07     0.02   0.04   0.05     0.04  -0.02   0.10
 104   1     0.01  -0.00  -0.02     0.02   0.01   0.03     0.02   0.01   0.05
 105   1     0.01   0.01   0.00     0.01  -0.01   0.01     0.01   0.02   0.07
 106   1    -0.00   0.01   0.00    -0.01  -0.01   0.01    -0.00  -0.01   0.03
 107   1    -0.01  -0.00  -0.02    -0.02   0.01   0.03    -0.01  -0.02   0.01
 108   1    -0.01  -0.01  -0.04    -0.02   0.03   0.03    -0.01  -0.01  -0.01
 109   1    -0.01  -0.00  -0.03    -0.02   0.03   0.01    -0.01  -0.01  -0.01
 110   1    -0.00   0.01  -0.01    -0.01   0.02  -0.03    -0.00  -0.01  -0.01
 111   1     0.00   0.01  -0.01     0.01   0.02  -0.03     0.01  -0.03  -0.06
 112   1     0.01   0.00  -0.03     0.02   0.03   0.00     0.02  -0.04  -0.06
 113   1     0.01  -0.01  -0.04     0.02   0.03   0.03     0.02  -0.02  -0.01
 114  30    -0.00  -0.01   0.19     0.00  -0.12   0.09    -0.03   0.12   0.06
 115   6    -0.04   0.03   0.13    -0.01  -0.04  -0.04    -0.02   0.06  -0.04
 116   6    -0.03   0.04   0.10    -0.00  -0.04  -0.11    -0.01   0.06  -0.07
 117   6    -0.02   0.03   0.09    -0.00  -0.04  -0.09    -0.01   0.06  -0.03
 118   6    -0.00   0.04   0.07     0.00  -0.03  -0.12    -0.00   0.06  -0.02
 119   6     0.01   0.03   0.09     0.01  -0.04  -0.09    -0.01   0.06   0.04
 120   6     0.03   0.04   0.10     0.01  -0.04  -0.11    -0.01   0.05   0.08
 121   6     0.04   0.03   0.13     0.01  -0.04  -0.04    -0.01   0.05   0.11
 122   6     0.03   0.01   0.12     0.01  -0.05   0.01    -0.01   0.05   0.08
 123   7     0.02   0.02   0.11     0.01  -0.05  -0.02    -0.01   0.06   0.05
 124   6     0.04  -0.00   0.12     0.01  -0.05   0.07    -0.00   0.05   0.06
 125   6     0.03  -0.02   0.07     0.01  -0.06   0.10    -0.01   0.05   0.00
 126   6     0.04  -0.03   0.03     0.01  -0.06   0.12    -0.01   0.04  -0.05
 127   6     0.03  -0.04  -0.03     0.01  -0.06   0.11    -0.01   0.04  -0.09
 128   6     0.01  -0.03  -0.01     0.00  -0.06   0.09    -0.02   0.04  -0.06
 129   7     0.02  -0.02   0.05     0.00  -0.06   0.09    -0.02   0.05  -0.01
 130   6    -0.00  -0.04  -0.05     0.00  -0.06   0.08    -0.03   0.04  -0.04
 131   6    -0.02  -0.03  -0.01    -0.00  -0.06   0.09    -0.03   0.04   0.02
 132   6    -0.03  -0.04  -0.03    -0.00  -0.06   0.12    -0.03   0.04   0.06
 133   6    -0.04  -0.03   0.03    -0.01  -0.06   0.13    -0.03   0.04   0.10
 134   6    -0.03  -0.02   0.07    -0.01  -0.06   0.11    -0.02   0.04   0.08
 135   7    -0.02  -0.02   0.05    -0.00  -0.06   0.09    -0.03   0.04   0.04
 136   6    -0.04  -0.00   0.12    -0.01  -0.05   0.08    -0.02   0.04   0.07
 137   6    -0.03   0.01   0.12    -0.01  -0.05   0.01    -0.02   0.05   0.01
 138   7    -0.02   0.02   0.11    -0.00  -0.05  -0.02    -0.01   0.05   0.01
 139   1    -0.02   0.01   0.04    -0.00  -0.01  -0.01    -0.01   0.02  -0.01
 140   1    -0.01   0.01   0.03    -0.00  -0.01  -0.05    -0.00   0.02  -0.03
 141   1     0.01   0.01   0.03     0.00  -0.01  -0.05    -0.00   0.01   0.02
 142   1     0.01   0.01   0.04     0.00  -0.01  -0.01    -0.00   0.01   0.04
 143   1     0.02  -0.00   0.04     0.00  -0.01   0.03    -0.00   0.02   0.02
 144   1     0.01  -0.01   0.01     0.00  -0.02   0.04     0.00   0.01  -0.02
 145   1     0.01  -0.01  -0.02     0.00  -0.02   0.03    -0.00   0.01  -0.04
 146   1    -0.01  -0.01  -0.02    -0.00  -0.02   0.03    -0.01   0.01   0.02
 147   1    -0.02  -0.01   0.01    -0.00  -0.02   0.05    -0.01   0.01   0.04
 148   1    -0.02  -0.00   0.04    -0.00  -0.01   0.03    -0.01   0.01   0.02
                     13                     14                     15
                        a                      a                      a 
 Frequencies --    39.9902                40.4733                43.0189
 Red. masses --    16.1763                15.2358                11.2944
 Frc consts  --     0.0000                 0.0000                 0.0000
 IR Inten    --     8.1444                 0.2798                 7.0536
 Raman Activ --     0.0000                 0.0000                 0.0000
 Depolar     --     0.0000                 0.0000                 0.0000
 Atom AN      X      Y      Z        X      Y      Z        X      Y      Z
   1  30    -0.18   0.02  -0.05     0.17  -0.00  -0.01    -0.04  -0.00   0.00
   2   6    -0.07   0.01  -0.11     0.07  -0.01  -0.16    -0.02  -0.01  -0.16
   3   6    -0.07   0.01  -0.07     0.07  -0.01  -0.15    -0.02  -0.01  -0.16
   4   6    -0.07   0.01  -0.03     0.06  -0.01  -0.07    -0.02  -0.01  -0.08
   5   6    -0.06   0.02   0.02     0.06   0.00   0.00    -0.01  -0.00  -0.00
   6   6    -0.07   0.01   0.01     0.06   0.01   0.07    -0.01   0.00   0.08
   7   6    -0.08   0.02   0.02     0.07   0.01   0.14    -0.02   0.01   0.16
   8   6    -0.08   0.01  -0.02     0.07   0.01   0.13    -0.02   0.01   0.17
   9   6    -0.08   0.00  -0.04     0.07   0.01   0.05    -0.01   0.00   0.09
  10   7    -0.08   0.00  -0.02     0.07   0.01   0.03    -0.02   0.00   0.05
  11   6    -0.08  -0.00  -0.07     0.07   0.00  -0.02    -0.01  -0.00   0.01
  12   6    -0.08  -0.00  -0.05     0.07  -0.00  -0.08    -0.01  -0.01  -0.07
  13   6    -0.08  -0.00  -0.05     0.07  -0.01  -0.15    -0.01  -0.01  -0.15
  14   6    -0.08   0.00   0.01     0.07  -0.01  -0.13    -0.01  -0.01  -0.16
  15   6    -0.08   0.00   0.03     0.08  -0.01  -0.06    -0.01  -0.01  -0.08
  16   7    -0.09   0.00  -0.02     0.08  -0.00  -0.05    -0.01  -0.00  -0.05
  17   6    -0.08   0.01   0.08     0.08   0.00   0.02    -0.01   0.00  -0.01
  18   6    -0.08   0.01   0.07     0.08   0.01   0.08    -0.01   0.01   0.07
  19   6    -0.07   0.01   0.10     0.08   0.01   0.15    -0.01   0.01   0.15
  20   6    -0.07   0.01   0.04     0.07   0.01   0.14    -0.01   0.01   0.15
  21   6    -0.07   0.01  -0.01     0.07   0.00   0.07    -0.02   0.01   0.07
  22   7    -0.08   0.01   0.01     0.08   0.00   0.05    -0.02   0.00   0.05
  23   6    -0.07   0.01  -0.07     0.07  -0.01  -0.01    -0.02   0.00  -0.00
  24   6    -0.07   0.01  -0.08     0.07  -0.01  -0.08    -0.02  -0.01  -0.08
  25   7    -0.07   0.01  -0.05     0.07  -0.01  -0.05    -0.02  -0.00  -0.05
  26   1    -0.02   0.00  -0.04     0.02  -0.00  -0.06    -0.01  -0.00  -0.06
  27   1    -0.02   0.00  -0.02     0.02  -0.00  -0.06    -0.01  -0.00  -0.06
  28   1    -0.02   0.01   0.01     0.02   0.00   0.06    -0.00   0.00   0.06
  29   1    -0.03   0.00  -0.01     0.02   0.00   0.05    -0.00   0.00   0.06
  30   1    -0.02  -0.00  -0.03     0.02   0.00  -0.01    -0.00  -0.00   0.01
  31   1    -0.02  -0.00  -0.02     0.02  -0.00  -0.06    -0.00  -0.00  -0.06
  32   1    -0.02   0.00   0.01     0.02  -0.01  -0.05    -0.00  -0.00  -0.06
  33   1    -0.02   0.00   0.04     0.02   0.00   0.01    -0.00   0.00  -0.00
  34   1    -0.02   0.00   0.04     0.02   0.01   0.06    -0.00   0.01   0.06
  35   1    -0.02   0.00   0.01     0.02   0.00   0.05    -0.00   0.01   0.06
  36   1    -0.02   0.00  -0.03     0.02  -0.00  -0.00    -0.00   0.00  -0.00
  37  30     0.18  -0.03  -0.01    -0.18  -0.00  -0.00     0.06  -0.00   0.00
  38   6     0.05  -0.07   0.05    -0.08  -0.06   0.09     0.02   0.11  -0.18
  39   6     0.05  -0.07   0.04    -0.07  -0.06   0.09     0.02   0.11  -0.18
  40   6     0.06  -0.04   0.00    -0.07  -0.03   0.04     0.02   0.05  -0.09
  41   6     0.06  -0.03  -0.03    -0.06  -0.00  -0.01     0.01   0.00  -0.00
  42   6     0.08  -0.01  -0.04    -0.06   0.02  -0.05     0.01  -0.05   0.09
  43   6     0.09  -0.00  -0.07    -0.06   0.05  -0.09     0.01  -0.11   0.18
  44   6     0.10  -0.01  -0.05    -0.07   0.04  -0.08     0.02  -0.11   0.18
  45   6     0.09  -0.01  -0.01    -0.07   0.01  -0.04     0.02  -0.05   0.09
  46   7     0.09  -0.01  -0.02    -0.07   0.00  -0.03     0.02  -0.03   0.06
  47   6     0.10  -0.02   0.02    -0.07  -0.01   0.00     0.02  -0.00   0.01
  48   6     0.10  -0.02   0.04    -0.07  -0.03   0.04     0.02   0.05  -0.08
  49   6     0.10  -0.03   0.06    -0.07  -0.05   0.09     0.02   0.10  -0.17
  50   6     0.10  -0.01   0.05    -0.07  -0.05   0.08     0.02   0.10  -0.17
  51   6     0.09  -0.00   0.02    -0.08  -0.02   0.04     0.02   0.05  -0.08
  52   7     0.10  -0.01   0.02    -0.08  -0.02   0.03     0.02   0.03  -0.05
  53   6     0.08   0.02  -0.01    -0.08   0.01  -0.00     0.02   0.00  -0.00
  54   6     0.07   0.03  -0.03    -0.08   0.03  -0.04     0.02  -0.05   0.08
  55   6     0.06   0.05  -0.06    -0.08   0.05  -0.09     0.02  -0.10   0.17
  56   6     0.05   0.04  -0.05    -0.08   0.05  -0.09     0.02  -0.10   0.17
  57   6     0.05   0.01  -0.02    -0.08   0.03  -0.04     0.02  -0.05   0.08
  58   7     0.07   0.01  -0.02    -0.08   0.02  -0.03     0.02  -0.03   0.05
  59   6     0.05  -0.03   0.01    -0.08   0.00   0.01     0.02   0.00  -0.01
  60   6     0.05  -0.05   0.02    -0.07  -0.02   0.05     0.02   0.05  -0.09
  61   7     0.06  -0.04   0.00    -0.07  -0.01   0.03     0.02   0.03  -0.05
  62   1     0.01  -0.02   0.02    -0.02  -0.02   0.03     0.01   0.04  -0.07
  63   1     0.02  -0.02   0.01    -0.02  -0.02   0.03     0.00   0.04  -0.07
  64   1     0.03  -0.00  -0.03    -0.02   0.02  -0.03     0.00  -0.04   0.06
  65   1     0.03  -0.00  -0.02    -0.02   0.02  -0.03     0.00  -0.04   0.07
  66   1     0.03  -0.01   0.01    -0.02  -0.00   0.00     0.01  -0.00   0.00
  67   1     0.03  -0.01   0.02    -0.02  -0.02   0.03     0.01   0.04  -0.06
  68   1     0.03  -0.00   0.02    -0.02  -0.02   0.03     0.01   0.04  -0.06
  69   1     0.02   0.01  -0.00    -0.02   0.00  -0.00     0.01   0.00  -0.00
  70   1     0.02   0.02  -0.02    -0.02   0.02  -0.03     0.01  -0.04   0.06
  71   1     0.01   0.01  -0.02    -0.02   0.02  -0.03     0.01  -0.04   0.06
  72   1     0.01  -0.01   0.00    -0.02   0.00   0.00     0.01   0.00  -0.00
  73   6    -0.06   0.02   0.05     0.05   0.00   0.01    -0.01  -0.00  -0.00
  74   6    -0.06   0.00   0.08     0.05   0.00   0.01    -0.01   0.00  -0.01
  75   6    -0.00  -0.01  -0.03     0.00  -0.00  -0.01    -0.00  -0.00   0.00
  76   6     0.00   0.03  -0.02    -0.00   0.00  -0.01    -0.00  -0.00   0.00
  77   6     0.06   0.01  -0.04    -0.05   0.00  -0.01     0.01   0.00  -0.00
  78   6     0.06  -0.02  -0.04    -0.05  -0.00  -0.01     0.01   0.00  -0.00
  79  30    -0.07  -0.05   0.02     0.08  -0.00   0.01    -0.01   0.00  -0.00
  80   6    -0.01  -0.06  -0.03     0.03  -0.07  -0.09    -0.01  -0.04  -0.07
  81   6    -0.02  -0.06  -0.00     0.04  -0.06  -0.09    -0.01  -0.04  -0.08
  82   6    -0.04  -0.03   0.03     0.04  -0.03  -0.04    -0.01  -0.02  -0.04
  83   6    -0.05  -0.00   0.08     0.05   0.00   0.01    -0.01   0.00  -0.00
  84   6    -0.05   0.02   0.11     0.04   0.04   0.06    -0.01   0.02   0.03
  85   6    -0.05   0.05   0.16     0.03   0.07   0.12    -0.01   0.05   0.07
  86   6    -0.05   0.03   0.13     0.03   0.07   0.12    -0.00   0.04   0.06
  87   6    -0.05  -0.01   0.07     0.03   0.04   0.05    -0.01   0.01   0.02
  88   7    -0.05  -0.01   0.07     0.04   0.03   0.04    -0.01   0.01   0.01
  89   6    -0.05  -0.05   0.00     0.03   0.02  -0.00    -0.00  -0.02  -0.03
  90   6    -0.04  -0.07  -0.06     0.03  -0.02  -0.06    -0.00  -0.04  -0.06
  91   6    -0.05  -0.10  -0.13     0.03  -0.07  -0.12    -0.00  -0.06  -0.10
  92   6    -0.04  -0.08  -0.14     0.02  -0.07  -0.12    -0.00  -0.06  -0.09
  93   6    -0.02  -0.06  -0.07     0.01  -0.03  -0.06    -0.00  -0.03  -0.04
  94   7    -0.03  -0.06  -0.04     0.02  -0.01  -0.04    -0.00  -0.02  -0.04
  95   6    -0.00  -0.02  -0.04     0.01  -0.00  -0.01    -0.00  -0.00   0.00
  96   6    -0.01  -0.01  -0.00     0.02   0.02   0.05    -0.01   0.03   0.05
  97   6    -0.01   0.01   0.02     0.03   0.06   0.10    -0.01   0.05   0.09
  98   6    -0.01   0.00   0.02     0.03   0.06   0.11    -0.01   0.06   0.10
  99   6    -0.01  -0.01  -0.00     0.03   0.02   0.06    -0.01   0.04   0.06
 100   7    -0.01  -0.01  -0.01     0.02   0.01   0.03    -0.01   0.02   0.04
 101   6    -0.01  -0.02  -0.02     0.03  -0.01   0.01    -0.01   0.02   0.03
 102   6    -0.02  -0.03  -0.02     0.04  -0.04  -0.04    -0.01  -0.01  -0.02
 103   7    -0.04  -0.02   0.01     0.05  -0.03  -0.02    -0.01  -0.00  -0.02
 104   1    -0.00  -0.02  -0.02     0.01  -0.02  -0.04    -0.00  -0.01  -0.03
 105   1    -0.01  -0.02  -0.00     0.01  -0.02  -0.04    -0.00  -0.02  -0.03
 106   1    -0.01   0.02   0.06     0.01   0.03   0.05    -0.00   0.02   0.03
 107   1    -0.01   0.01   0.04     0.01   0.03   0.04    -0.00   0.02   0.02
 108   1    -0.02  -0.01  -0.00     0.01   0.00  -0.00    -0.00  -0.01  -0.01
 109   1    -0.02  -0.03  -0.05     0.01  -0.03  -0.04    -0.00  -0.02  -0.04
 110   1    -0.01  -0.03  -0.05     0.01  -0.03  -0.04    -0.00  -0.02  -0.03
 111   1    -0.00   0.00   0.01     0.01   0.03   0.04    -0.00   0.02   0.03
 112   1    -0.00   0.00   0.01     0.01   0.02   0.04    -0.00   0.02   0.04
 113   1    -0.00  -0.01  -0.01     0.01  -0.00   0.00    -0.00   0.01   0.01
 114  30     0.07   0.07   0.04    -0.07   0.01   0.00     0.00   0.00  -0.00
 115   6     0.02   0.03   0.14    -0.03  -0.00   0.07     0.01   0.01  -0.11
 116   6     0.02   0.03   0.13    -0.03   0.00   0.07     0.00   0.00  -0.10
 117   6     0.01   0.03   0.06    -0.01  -0.00   0.03     0.00   0.00  -0.05
 118   6     0.00   0.03  -0.01    -0.00   0.00  -0.00    -0.00  -0.00   0.00
 119   6     0.02   0.03  -0.06    -0.01   0.01  -0.04    -0.00  -0.00   0.05
 120   6     0.03   0.04  -0.12    -0.02   0.01  -0.07    -0.00  -0.01   0.10
 121   6     0.04   0.03  -0.10    -0.03   0.01  -0.07     0.00  -0.01   0.11
 122   6     0.03   0.02  -0.03    -0.03   0.02  -0.03    -0.00  -0.01   0.07
 123   7     0.02   0.02  -0.02    -0.02   0.02  -0.02    -0.00  -0.00   0.04
 124   6     0.04   0.01   0.04    -0.03   0.02   0.01    -0.00  -0.01   0.03
 125   6     0.04   0.01   0.09    -0.03   0.01   0.04     0.00  -0.00  -0.02
 126   6     0.04   0.01   0.14    -0.03   0.00   0.08    -0.00   0.00  -0.07
 127   6     0.04   0.02   0.12    -0.03  -0.00   0.07    -0.00   0.01  -0.08
 128   6     0.05   0.02   0.05    -0.04   0.00   0.03     0.01   0.00  -0.04
 129   7     0.05   0.01   0.05    -0.04   0.01   0.02     0.01  -0.00  -0.01
 130   6     0.05   0.02  -0.02    -0.05   0.00  -0.00     0.01   0.00  -0.00
 131   6     0.04   0.03  -0.07    -0.04   0.00  -0.04     0.01   0.00   0.04
 132   6     0.03   0.02  -0.13    -0.03   0.01  -0.08     0.00   0.00   0.08
 133   6     0.02   0.03  -0.11    -0.03  -0.00  -0.07     0.00   0.00   0.07
 134   6     0.03   0.04  -0.04    -0.03  -0.01  -0.03     0.00   0.00   0.02
 135   7     0.04   0.04  -0.03    -0.04  -0.01  -0.02     0.01   0.00   0.01
 136   6     0.02   0.04   0.03    -0.03  -0.01   0.00     0.00   0.01  -0.04
 137   6     0.02   0.04   0.08    -0.03  -0.01   0.04     0.00   0.01  -0.07
 138   7     0.02   0.04   0.05    -0.02  -0.01   0.02     0.00   0.00  -0.04
 139   1     0.01   0.01   0.05    -0.01  -0.00   0.03     0.00   0.00  -0.04
 140   1     0.01   0.01   0.04    -0.01   0.00   0.03     0.00   0.00  -0.03
 141   1     0.01   0.02  -0.05    -0.01  -0.00  -0.03    -0.00  -0.00   0.03
 142   1     0.01   0.01  -0.04    -0.01   0.00  -0.03     0.00  -0.00   0.04
 143   1     0.01   0.00   0.02    -0.01   0.01   0.00    -0.00  -0.00   0.01
 144   1     0.01   0.00   0.06    -0.01   0.00   0.03    -0.00   0.00  -0.03
 145   1     0.01   0.01   0.04    -0.01  -0.00   0.03    -0.00   0.00  -0.03
 146   1     0.01   0.00  -0.05    -0.01   0.00  -0.03     0.00  -0.00   0.03
 147   1     0.00   0.01  -0.04    -0.01   0.00  -0.03     0.00   0.00   0.03
 148   1     0.01   0.01   0.01    -0.01  -0.00   0.00     0.00   0.00  -0.01
                     16                     17                     18
                        a                      a                      a 
 Frequencies --    44.9085                48.2783                51.0145
 Red. masses --    12.9402                11.5813                11.2559
 Frc consts  --     0.0000                 0.0000                 0.0000
 IR Inten    --    43.7408                15.5846                 0.3212
 Raman Activ --     0.0000                 0.0000                 0.0000
 Depolar     --     0.0000                 0.0000                 0.0000
 Atom AN      X      Y      Z        X      Y      Z        X      Y      Z
   1  30    -0.01  -0.08   0.00     0.06  -0.00  -0.01     0.05  -0.00   0.01
   2   6    -0.07  -0.08   0.05     0.02   0.01   0.20     0.02  -0.01  -0.10
   3   6    -0.05  -0.10   0.01     0.02   0.01   0.18     0.02  -0.01  -0.09
   4   6    -0.02  -0.09  -0.01     0.02   0.00   0.09     0.02  -0.00  -0.04
   5   6    -0.00  -0.10  -0.03     0.02  -0.00  -0.00     0.01  -0.00  -0.00
   6   6     0.02  -0.09  -0.01     0.02  -0.01  -0.09     0.02   0.00   0.04
   7   6     0.04  -0.10   0.01     0.02  -0.01  -0.18     0.02   0.00   0.09
   8   6     0.06  -0.08   0.05     0.02  -0.01  -0.20     0.02   0.01   0.10
   9   6     0.05  -0.05   0.04     0.02  -0.01  -0.11     0.02   0.01   0.06
  10   7     0.02  -0.06   0.01     0.02  -0.00  -0.07     0.02   0.01   0.04
  11   6     0.06  -0.03   0.05     0.02  -0.00  -0.04     0.02   0.01   0.03
  12   6     0.05  -0.00   0.03     0.02   0.01   0.06     0.02  -0.00  -0.02
  13   6     0.07   0.02   0.02     0.02   0.01   0.15     0.02  -0.01  -0.07
  14   6     0.05   0.04  -0.02     0.02   0.01   0.17     0.02  -0.01  -0.08
  15   6     0.02   0.02  -0.03     0.02   0.01   0.08     0.02  -0.00  -0.04
  16   7     0.03  -0.00  -0.00     0.02   0.00   0.04     0.03  -0.00  -0.02
  17   6    -0.00   0.03  -0.04     0.02   0.00   0.01     0.03  -0.00  -0.01
  18   6    -0.03   0.02  -0.02     0.02  -0.01  -0.07     0.02   0.00   0.03
  19   6    -0.05   0.04  -0.02     0.02  -0.01  -0.16     0.02   0.01   0.08
  20   6    -0.07   0.02   0.02     0.02  -0.01  -0.15     0.02   0.01   0.07
  21   6    -0.06  -0.00   0.03     0.02  -0.01  -0.06     0.02   0.00   0.03
  22   7    -0.03  -0.00   0.00     0.02  -0.00  -0.04     0.03  -0.00   0.02
  23   6    -0.07  -0.02   0.05     0.02   0.00   0.03     0.02  -0.01  -0.02
  24   6    -0.06  -0.05   0.04     0.02   0.01   0.11     0.02  -0.01  -0.06
  25   7    -0.03  -0.06   0.01     0.02   0.00   0.06     0.02  -0.01  -0.03
  26   1    -0.03  -0.02   0.02     0.01   0.00   0.07     0.01  -0.00  -0.04
  27   1    -0.02  -0.04   0.00     0.01   0.00   0.06     0.01  -0.00  -0.03
  28   1     0.01  -0.04   0.00     0.01  -0.00  -0.06     0.01  -0.00   0.03
  29   1     0.02  -0.02   0.02     0.01  -0.00  -0.07     0.01   0.00   0.04
  30   1     0.02  -0.01   0.02     0.01  -0.00  -0.01     0.01   0.00   0.01
  31   1     0.03   0.01   0.01     0.01   0.00   0.06     0.01  -0.00  -0.03
  32   1     0.01   0.02  -0.01     0.01   0.01   0.06     0.01  -0.00  -0.03
  33   1    -0.00   0.02  -0.02     0.01   0.00   0.00     0.01  -0.00  -0.00
  34   1    -0.02   0.02  -0.01     0.01  -0.01  -0.06     0.01   0.00   0.03
  35   1    -0.03   0.01   0.01     0.01  -0.01  -0.06     0.01   0.00   0.03
  36   1    -0.03  -0.01   0.02     0.01   0.00   0.01     0.01  -0.00  -0.01
  37  30     0.00  -0.05   0.05    -0.05  -0.01  -0.00    -0.00  -0.00   0.00
  38   6    -0.02  -0.08   0.08    -0.03   0.07  -0.13    -0.00   0.06  -0.11
  39   6    -0.01  -0.04  -0.00    -0.03   0.07  -0.12    -0.00   0.06  -0.09
  40   6    -0.00  -0.01  -0.03    -0.03   0.03  -0.06    -0.01   0.03  -0.05
  41   6     0.00   0.01  -0.08    -0.02  -0.00  -0.01    -0.01  -0.00   0.00
  42   6     0.01  -0.01  -0.03    -0.02  -0.04   0.05    -0.01  -0.03   0.05
  43   6     0.02  -0.03  -0.01    -0.02  -0.08   0.11    -0.00  -0.06   0.09
  44   6     0.02  -0.07   0.07    -0.02  -0.09   0.13    -0.00  -0.07   0.10
  45   6     0.01  -0.07   0.08    -0.02  -0.05   0.07    -0.00  -0.04   0.06
  46   7     0.01  -0.04   0.03    -0.02  -0.03   0.04    -0.01  -0.02   0.04
  47   6     0.02  -0.09   0.12    -0.02  -0.02   0.03    -0.00  -0.01   0.02
  48   6     0.02  -0.05   0.06    -0.02   0.02  -0.04    -0.00   0.02  -0.03
  49   6     0.02  -0.02   0.03    -0.02   0.06  -0.10    -0.00   0.05  -0.08
  50   6     0.02   0.04  -0.06    -0.02   0.07  -0.11    -0.00   0.05  -0.08
  51   6     0.01   0.05  -0.07    -0.02   0.03  -0.05    -0.00   0.02  -0.04
  52   7     0.01  -0.01   0.00    -0.03   0.02  -0.03    -0.00   0.01  -0.02
  53   6     0.00   0.08  -0.13    -0.03   0.01  -0.01    -0.00   0.00   0.00
  54   6    -0.00   0.05  -0.08    -0.03  -0.03   0.05    -0.00  -0.02   0.04
  55   6    -0.01   0.05  -0.08    -0.03  -0.06   0.11    -0.00  -0.05   0.08
  56   6    -0.02  -0.01   0.02    -0.03  -0.06   0.10    -0.00  -0.04   0.07
  57   6    -0.01  -0.04   0.06    -0.03  -0.03   0.04    -0.00  -0.02   0.03
  58   7    -0.01  -0.01  -0.00    -0.03  -0.02   0.03    -0.00  -0.01   0.02
  59   6    -0.02  -0.09   0.12    -0.03   0.01  -0.02    -0.00   0.01  -0.02
  60   6    -0.01  -0.08   0.09    -0.03   0.04  -0.07    -0.00   0.04  -0.06
  61   7    -0.01  -0.04   0.03    -0.03   0.02  -0.04    -0.01   0.02  -0.04
  62   1    -0.01  -0.03   0.04    -0.01   0.03  -0.05    -0.00   0.02  -0.04
  63   1    -0.00  -0.01  -0.01    -0.01   0.02  -0.04    -0.00   0.02  -0.03
  64   1     0.01  -0.00  -0.02    -0.01  -0.03   0.04    -0.00  -0.02   0.03
  65   1     0.01  -0.03   0.03    -0.01  -0.03   0.05    -0.00  -0.02   0.04
  66   1     0.01  -0.03   0.05    -0.01  -0.01   0.01    -0.00  -0.01   0.01
  67   1     0.01  -0.01   0.02    -0.00   0.02  -0.04    -0.00   0.02  -0.03
  68   1     0.01   0.02  -0.03    -0.01   0.03  -0.04    -0.00   0.02  -0.03
  69   1     0.00   0.04  -0.06    -0.01   0.00  -0.00    -0.00   0.00   0.00
  70   1    -0.00   0.03  -0.04    -0.01  -0.02   0.04    -0.00  -0.02   0.03
  71   1    -0.01  -0.01   0.01    -0.01  -0.02   0.04    -0.00  -0.02   0.03
  72   1    -0.01  -0.03   0.05    -0.01   0.00  -0.01    -0.00   0.01  -0.01
  73   6    -0.00  -0.10  -0.06     0.02  -0.00  -0.00     0.01  -0.00  -0.00
  74   6    -0.00  -0.01  -0.08     0.02  -0.00  -0.00     0.01   0.00  -0.00
  75   6     0.00  -0.04  -0.12     0.00  -0.00  -0.01    -0.01  -0.00   0.00
  76   6     0.00  -0.10  -0.08     0.00  -0.00  -0.01    -0.01   0.00   0.00
  77   6     0.00   0.10  -0.15    -0.02   0.01  -0.01    -0.01  -0.00   0.00
  78   6     0.00   0.05  -0.14    -0.02  -0.00  -0.01    -0.01  -0.00   0.00
  79  30    -0.00   0.13  -0.04     0.04   0.00   0.01    -0.02  -0.00  -0.00
  80   6    -0.00   0.10   0.06     0.01  -0.08  -0.13    -0.01   0.09   0.14
  81   6    -0.00   0.07   0.00     0.02  -0.08  -0.12    -0.00   0.09   0.14
  82   6     0.00   0.05  -0.03     0.02  -0.04  -0.06     0.00   0.04   0.07
  83   6    -0.00   0.03  -0.06     0.02  -0.00  -0.00     0.01   0.00  -0.00
  84   6    -0.00   0.05  -0.03     0.02   0.04   0.06     0.00  -0.04  -0.07
  85   6    -0.00   0.06  -0.01     0.02   0.08   0.12    -0.00  -0.09  -0.14
  86   6     0.00   0.09   0.04     0.02   0.09   0.14    -0.01  -0.09  -0.14
  87   6    -0.00   0.09   0.04     0.02   0.06   0.08    -0.00  -0.04  -0.07
  88   7    -0.00   0.07  -0.00     0.02   0.04   0.05    -0.00  -0.02  -0.05
  89   6     0.00   0.10   0.05     0.02   0.03   0.03    -0.01   0.01   0.01
[...]
  50   6     0.00  -0.00  -0.00    -0.00   0.00  -0.00    -0.00   0.00   0.00
  51   6     0.00   0.00   0.00    -0.00  -0.00  -0.00    -0.00  -0.00  -0.00
  52   7    -0.00   0.00   0.00     0.00  -0.00  -0.00     0.00  -0.00  -0.00
  53   6     0.00  -0.00  -0.00     0.00   0.00   0.00    -0.00   0.00  -0.00
  54   6     0.00  -0.00  -0.00     0.00  -0.00  -0.00    -0.00   0.00   0.00
  55   6     0.00   0.00   0.00     0.00   0.00   0.00    -0.00  -0.00  -0.00
  56   6     0.00   0.00   0.00     0.00   0.00   0.00    -0.00  -0.00  -0.00
  57   6    -0.00   0.00   0.00    -0.00  -0.00   0.00     0.00  -0.00  -0.00
  58   7    -0.00  -0.00  -0.00    -0.00  -0.00  -0.00     0.00   0.00   0.00
  59   6     0.00   0.00   0.00    -0.00   0.00   0.00     0.00  -0.00  -0.00
  60   6    -0.00  -0.00  -0.00     0.00   0.00   0.00    -0.00   0.00  -0.00
  61   7    -0.00   0.00   0.00     0.00  -0.00  -0.00     0.00   0.00   0.00
  62   1    -0.00   0.01   0.01     0.02  -0.16  -0.10    -0.00   0.00   0.00
  63   1    -0.03   0.00   0.00     0.38  -0.03  -0.03    -0.01   0.00   0.00
  64   1     0.08   0.01   0.01    -0.20  -0.02  -0.02     0.03   0.00   0.00
  65   1     0.00   0.04   0.02    -0.01  -0.07  -0.05     0.00   0.01   0.01
  66   1    -0.00   0.00   0.00     0.00  -0.00  -0.00    -0.00  -0.00  -0.00
  67   1    -0.00   0.01   0.00     0.00  -0.00  -0.00     0.00  -0.01  -0.01
  68   1    -0.01   0.00   0.00     0.01  -0.00  -0.00     0.01  -0.00  -0.00
  69   1    -0.00   0.00  -0.00    -0.00  -0.00  -0.00     0.00  -0.00   0.00
  70   1    -0.00  -0.00  -0.00    -0.01  -0.00  -0.00     0.01   0.00   0.00
  71   1    -0.00  -0.00  -0.00    -0.00  -0.01  -0.01     0.00   0.01   0.01
  72   1     0.00  -0.00  -0.00    -0.00  -0.00  -0.00    -0.00   0.00   0.00
  73   6    -0.00  -0.00  -0.00    -0.00  -0.00   0.00     0.00  -0.00   0.00
  74   6     0.00   0.00   0.00     0.00   0.00   0.00     0.00   0.00  -0.00
  75   6    -0.00   0.00  -0.00     0.00   0.00   0.00     0.00  -0.00   0.00
  76   6    -0.00  -0.00   0.00     0.00  -0.00   0.00     0.00   0.00  -0.00
  77   6    -0.00   0.00   0.00    -0.00  -0.00  -0.00     0.00   0.00   0.00
  78   6    -0.00  -0.00  -0.00     0.00   0.00   0.00    -0.00  -0.00  -0.00
  79  30     0.00   0.00  -0.00     0.00  -0.00  -0.00    -0.00   0.00  -0.00
  80   6    -0.00  -0.06   0.04    -0.00  -0.01   0.01     0.00   0.00  -0.00
  81   6    -0.13  -0.01   0.01    -0.02  -0.00   0.00     0.02   0.00  -0.00
  82   6    -0.00   0.00  -0.00    -0.00   0.00  -0.00     0.00  -0.00   0.00
  83   6    -0.00  -0.00   0.00    -0.00   0.00  -0.00    -0.00   0.00  -0.00
  84   6    -0.00  -0.00   0.00    -0.00  -0.00   0.00    -0.00  -0.00   0.00
  85   6    -0.10   0.01  -0.01    -0.02   0.00  -0.00    -0.04   0.00  -0.00
  86   6    -0.00   0.05  -0.03    -0.00   0.01  -0.01    -0.00   0.02  -0.01
  87   6     0.00   0.00  -0.00     0.00   0.00  -0.00     0.00   0.00  -0.00
  88   7     0.00  -0.00   0.00     0.00  -0.00   0.00     0.00  -0.00   0.00
  89   6    -0.00   0.00  -0.00    -0.00   0.00  -0.00     0.00   0.00  -0.00
  90   6     0.00  -0.00   0.00    -0.00   0.00  -0.00    -0.00   0.00  -0.00
  91   6     0.00  -0.00   0.00     0.00   0.01  -0.01     0.00   0.04  -0.02
  92   6    -0.01  -0.00   0.00     0.02   0.00  -0.00     0.07   0.00  -0.00
  93   6    -0.00   0.00  -0.00     0.00  -0.00   0.00     0.00  -0.00   0.00
  94   7     0.00  -0.00   0.00    -0.00  -0.00   0.00    -0.00  -0.00   0.00
  95   6    -0.00   0.00  -0.00     0.00   0.00  -0.00     0.00  -0.00   0.00
  96   6    -0.00  -0.00   0.00     0.00   0.00  -0.00     0.00   0.00  -0.00
  97   6    -0.02   0.00  -0.00     0.01  -0.00   0.00     0.14  -0.01   0.01
  98   6    -0.00   0.01  -0.00     0.00  -0.01   0.00     0.00  -0.07   0.04
  99   6     0.00   0.00  -0.00    -0.00  -0.00   0.00    -0.00  -0.00   0.00
 100   7     0.00  -0.00   0.00    -0.00   0.00  -0.00    -0.00   0.00  -0.00
 101   6    -0.00  -0.00   0.00    -0.00  -0.00   0.00     0.00  -0.00   0.00
 102   6     0.00  -0.00   0.00     0.00  -0.00   0.00    -0.00  -0.00   0.00
 103   7     0.00   0.00  -0.00     0.00   0.00  -0.00    -0.00   0.00  -0.00
 104   1     0.02   0.20  -0.12     0.00   0.04  -0.02    -0.00  -0.01   0.01
 105   1     0.44   0.03  -0.04     0.07   0.01  -0.01    -0.06  -0.00   0.01
 106   1     0.33  -0.03   0.03     0.08  -0.01   0.01     0.12  -0.01   0.01
 107   1     0.02  -0.15   0.10     0.00  -0.04   0.02     0.01  -0.06   0.04
 108   1    -0.00  -0.00   0.00    -0.00  -0.00   0.00     0.00  -0.00   0.00
 109   1     0.00   0.00  -0.00    -0.00  -0.03   0.02    -0.01  -0.11   0.07
 110   1     0.03   0.00  -0.00    -0.06  -0.01   0.00    -0.24  -0.02   0.02
 111   1     0.06  -0.01   0.01    -0.03   0.00  -0.00    -0.47   0.04  -0.04
 112   1     0.00  -0.02   0.01    -0.00   0.02  -0.01    -0.03   0.21  -0.12
 113   1    -0.00   0.00  -0.00    -0.00   0.00  -0.00     0.00   0.00  -0.00
 114  30     0.00  -0.00  -0.00    -0.00   0.00   0.00    -0.00  -0.00  -0.00
 115   6    -0.00  -0.03  -0.00    -0.00  -0.02  -0.00     0.00   0.09   0.00
 116   6    -0.04  -0.00  -0.00    -0.02  -0.00  -0.00     0.16   0.01   0.01
 117   6    -0.00   0.00   0.00    -0.00   0.00   0.00     0.00  -0.01  -0.00
 118   6     0.00  -0.00   0.00     0.00  -0.00  -0.00     0.00   0.00   0.00
 119   6    -0.00  -0.00  -0.00     0.00   0.00   0.00     0.00   0.00   0.00
 120   6    -0.03   0.00   0.00     0.04  -0.00  -0.00     0.08  -0.01  -0.00
 121   6    -0.00   0.02   0.00     0.00  -0.03  -0.00     0.00  -0.05  -0.00
 122   6     0.00   0.00   0.00    -0.00  -0.00  -0.00    -0.00  -0.00  -0.00
 123   7     0.00  -0.00  -0.00    -0.00   0.00   0.00    -0.00   0.00   0.00
 124   6    -0.00   0.00   0.00    -0.00  -0.00  -0.00     0.00  -0.00  -0.00
 125   6    -0.00   0.00   0.00     0.00  -0.00  -0.00    -0.00   0.00   0.00
 126   6     0.00   0.01   0.00    -0.00  -0.08  -0.00     0.00   0.00   0.00
 127   6     0.02   0.00  -0.00    -0.13  -0.01   0.00     0.01   0.00  -0.00
 128   6     0.00  -0.00  -0.00    -0.00   0.00   0.00     0.00  -0.00  -0.00
 129   7    -0.00  -0.00   0.00     0.00   0.00  -0.00    -0.00   0.00   0.00
 130   6    -0.00   0.00   0.00     0.00  -0.00  -0.00    -0.00   0.00   0.00
 131   6    -0.00  -0.00  -0.00     0.00   0.01   0.00    -0.00  -0.00  -0.00
 132   6    -0.04   0.00  -0.00     0.16  -0.01   0.00    -0.02   0.00  -0.00
 133   6    -0.00   0.02   0.00     0.01  -0.09  -0.00    -0.00   0.01   0.00
 134   6     0.00   0.00   0.00    -0.00  -0.00  -0.00     0.00   0.00   0.00
 135   7     0.00  -0.00   0.00    -0.00   0.00  -0.00     0.00  -0.00  -0.00
 136   6    -0.00  -0.00  -0.00     0.00  -0.00  -0.00     0.00   0.00   0.00
 137   6     0.00  -0.00   0.00     0.00  -0.00  -0.00    -0.00   0.00  -0.00
 138   7     0.00   0.00   0.00     0.00   0.00   0.00    -0.00  -0.00  -0.00
 139   1     0.01   0.08   0.00     0.01   0.05   0.00    -0.03  -0.29  -0.01
 140   1     0.14   0.02   0.01     0.07   0.01   0.00    -0.52  -0.06  -0.02
 141   1     0.10  -0.01  -0.00    -0.12   0.01   0.00    -0.28   0.03   0.01
 142   1     0.01  -0.06  -0.00    -0.01   0.08   0.00    -0.02   0.16   0.01
 143   1    -0.00  -0.00  -0.00    -0.00   0.01   0.00     0.00   0.00   0.00
 144   1    -0.00  -0.05  -0.00     0.02   0.24   0.00    -0.00  -0.01  -0.00
 145   1    -0.08  -0.01   0.00     0.43   0.06  -0.01    -0.02  -0.00   0.00
 146   1     0.13  -0.01   0.00    -0.53   0.06  -0.02     0.07  -0.01   0.00
 147   1     0.01  -0.07  -0.00    -0.03   0.29   0.00     0.00  -0.04  -0.00
 148   1    -0.00   0.00   0.00     0.00   0.01   0.00     0.00  -0.01  -0.00
                    436                    437                    438
                        a                      a                      a 
 Frequencies --  3168.3685              3168.8416              3169.5946
 Red. masses --     1.9534                 1.9561                 1.9536
 Frc consts  --     0.0000                 0.0000                 0.0000
 IR Inten    --    15.0170                95.3670                31.3031
 Raman Activ --     0.0000                 0.0000                 0.0000
 Depolar     --     0.0000                 0.0000                 0.0000
 Atom AN      X      Y      Z        X      Y      Z        X      Y      Z
   1  30     0.00   0.00  -0.00     0.00  -0.00   0.00     0.00  -0.00   0.00
   2   6     0.00  -0.05   0.00    -0.00   0.02  -0.00    -0.00   0.07  -0.00
   3   6     0.09  -0.01  -0.00    -0.03   0.00   0.00    -0.12   0.01   0.00
   4   6     0.00   0.00  -0.00    -0.00  -0.00   0.00    -0.00  -0.00   0.00
   5   6    -0.00  -0.00   0.00    -0.00   0.00  -0.00    -0.00   0.00  -0.00
   6   6    -0.00   0.00  -0.00    -0.00   0.00  -0.00    -0.00   0.00  -0.00
   7   6    -0.14  -0.01  -0.00    -0.03  -0.00  -0.00    -0.11  -0.01  -0.00
   8   6    -0.00  -0.07   0.00    -0.00  -0.02   0.00    -0.00  -0.06   0.00
   9   6     0.00  -0.00   0.00     0.00  -0.00   0.00     0.00  -0.00   0.00
  10   7     0.00   0.00  -0.00     0.00   0.00   0.00     0.00   0.00   0.00
  11   6    -0.00  -0.00   0.00    -0.00  -0.00   0.00    -0.00  -0.00   0.00
  12   6    -0.00  -0.00   0.00    -0.00  -0.00  -0.00    -0.00  -0.00  -0.00
  13   6     0.00  -0.01   0.00     0.00  -0.00   0.00     0.00  -0.00   0.00
  14   6     0.00  -0.00   0.00     0.00  -0.00   0.00     0.00   0.00   0.00
  15   6     0.00   0.00  -0.00     0.00   0.00  -0.00     0.00   0.00  -0.00
  16   7    -0.00   0.00  -0.00    -0.00   0.00  -0.00    -0.00   0.00   0.00
  17   6     0.00  -0.00   0.00     0.00  -0.00   0.00    -0.00   0.00  -0.00
  18   6    -0.00   0.00  -0.00     0.00  -0.00   0.00     0.00  -0.00   0.00
  19   6    -0.00  -0.00   0.00     0.00   0.00  -0.00     0.00  -0.00  -0.00
  20   6    -0.00  -0.00   0.00     0.00   0.00  -0.00     0.00   0.00  -0.00
  21   6     0.00  -0.00   0.00    -0.00   0.00   0.00    -0.00   0.00   0.00
  22   7     0.00   0.00  -0.00    -0.00  -0.00   0.00    -0.00  -0.00  -0.00
  23   6     0.00  -0.00   0.00    -0.00   0.00  -0.00    -0.00   0.00  -0.00
  24   6    -0.00  -0.00   0.00     0.00   0.00  -0.00     0.00   0.00  -0.00
  25   7    -0.00   0.00   0.00     0.00  -0.00  -0.00     0.00  -0.00  -0.00
  26   1    -0.01   0.15  -0.01     0.01  -0.06   0.00     0.02  -0.21   0.01
  27   1    -0.31   0.04   0.01     0.11  -0.02  -0.00     0.41  -0.06  -0.02
  28   1     0.45   0.05   0.01     0.09   0.01   0.00     0.38   0.04   0.01
  29   1     0.03   0.23  -0.01     0.01   0.05  -0.00     0.02   0.19  -0.01
  30   1    -0.00   0.00  -0.00    -0.00   0.00  -0.00    -0.00   0.00  -0.00
  31   1    -0.00   0.02  -0.00    -0.00   0.01  -0.00    -0.00   0.00  -0.00
  32   1    -0.01   0.00  -0.00    -0.01   0.00  -0.00    -0.00   0.00  -0.00
  33   1    -0.00  -0.00   0.00    -0.00   0.00  -0.00     0.00  -0.00  -0.00
  34   1     0.01   0.00  -0.00    -0.01  -0.00   0.00    -0.00  -0.00   0.00
  35   1     0.00   0.01  -0.00    -0.00  -0.01   0.00    -0.00  -0.00   0.00
  36   1     0.00   0.00  -0.00    -0.00  -0.00   0.00    -0.00  -0.00   0.00
  37  30    -0.00   0.00   0.00     0.00  -0.00  -0.00    -0.00   0.00   0.00
  38   6     0.00  -0.00  -0.00    -0.00   0.05   0.03     0.00  -0.01  -0.00
  39   6     0.00  -0.00  -0.00    -0.11   0.01   0.01     0.02  -0.00  -0.00
  40   6     0.00   0.00   0.00    -0.00  -0.00  -0.00     0.00   0.00   0.00
  41   6     0.00  -0.00  -0.00    -0.00   0.00   0.00     0.00  -0.00  -0.00
  42   6    -0.00   0.00   0.00    -0.00   0.00   0.00     0.00  -0.00  -0.00
  43   6    -0.00  -0.00  -0.00    -0.09  -0.01  -0.01     0.01   0.00   0.00
  44   6    -0.00  -0.00  -0.00    -0.00  -0.04  -0.03     0.00   0.01   0.00
  45   6     0.00  -0.00  -0.00     0.00  -0.00  -0.00    -0.00   0.00   0.00
  46   7     0.00   0.00   0.00     0.00   0.00   0.00    -0.00  -0.00  -0.00
  47   6    -0.00  -0.00  -0.00    -0.00  -0.00  -0.00     0.00   0.00   0.00
  48   6    -0.00  -0.00  -0.00    -0.00  -0.00  -0.00     0.00   0.00   0.00
  49   6     0.00  -0.00  -0.00     0.00  -0.00  -0.00    -0.00   0.00   0.00
  50   6     0.00  -0.00  -0.00     0.00  -0.00  -0.00     0.00  -0.00  -0.00
  51   6     0.00   0.00   0.00     0.00   0.00   0.00    -0.00  -0.00  -0.00
  52   7    -0.00   0.00   0.00    -0.00   0.00   0.00    -0.00  -0.00  -0.00
  53   6     0.00  -0.00  -0.00     0.00   0.00   0.00     0.00  -0.00   0.00
  54   6     0.00  -0.00  -0.00     0.00  -0.00  -0.00    -0.00   0.00   0.00
  55   6     0.00   0.00   0.00     0.00   0.00   0.00     0.00   0.00   0.00
  56   6     0.00   0.00   0.00     0.00   0.01   0.00    -0.00  -0.00  -0.00
  57   6    -0.00   0.00  -0.00    -0.00   0.00   0.00     0.00  -0.00  -0.00
  58   7    -0.00   0.00   0.00    -0.00  -0.00  -0.00    -0.00   0.00   0.00
  59   6     0.00  -0.00  -0.00    -0.00   0.00   0.00     0.00  -0.00  -0.00
  60   6    -0.00  -0.00  -0.00     0.00   0.00   0.00    -0.00  -0.00  -0.00
  61   7    -0.00   0.00   0.00     0.00  -0.00  -0.00    -0.00   0.00   0.00
  62   1    -0.00   0.00   0.00     0.02  -0.15  -0.09    -0.00   0.02   0.01
  63   1    -0.01   0.00   0.00     0.37  -0.03  -0.03    -0.06   0.00   0.00
  64   1     0.01   0.00   0.00     0.30   0.02   0.03    -0.05  -0.00  -0.00
  65   1     0.00   0.00   0.00     0.02   0.12   0.08    -0.00  -0.02  -0.01
  66   1     0.00   0.00   0.00    -0.00   0.00   0.00     0.00  -0.00  -0.00
  67   1    -0.00   0.00   0.00    -0.00   0.02   0.01     0.00  -0.00  -0.00
  68   1    -0.00   0.00   0.00    -0.01   0.00   0.00    -0.00   0.00   0.00
  69   1    -0.00   0.00  -0.00    -0.00   0.00  -0.00    -0.00   0.00  -0.00
  70   1    -0.00  -0.00  -0.00    -0.02  -0.00  -0.00    -0.00  -0.00  -0.00
  71   1    -0.00  -0.00  -0.00    -0.00  -0.02  -0.01     0.00   0.00   0.00
  72   1     0.00   0.00   0.00    -0.00  -0.00  -0.00     0.00   0.00   0.00
  73   6    -0.00  -0.00   0.00    -0.00   0.00  -0.00    -0.00   0.00  -0.00
  74   6    -0.00   0.00  -0.00    -0.00  -0.00   0.00    -0.00  -0.00   0.00
  75   6    -0.00   0.00  -0.00     0.00  -0.00  -0.00    -0.00  -0.00   0.00
  76   6    -0.00  -0.00   0.00    -0.00  -0.00  -0.00     0.00   0.00  -0.00
  77   6    -0.00   0.00   0.00    -0.00  -0.00  -0.00     0.00   0.00   0.00
  78   6     0.00  -0.00  -0.00    -0.00  -0.00   0.00     0.00   0.00  -0.00
  79  30     0.00  -0.00   0.00    -0.00   0.00  -0.00     0.00   0.00  -0.00
  80   6     0.00   0.06  -0.04    -0.00  -0.01   0.00    -0.00  -0.06   0.04
  81   6     0.13   0.01  -0.01    -0.02  -0.00   0.00    -0.14  -0.01   0.01
  82   6     0.00  -0.00   0.00    -0.00   0.00  -0.00    -0.00   0.00  -0.00
  83   6     0.00   0.00  -0.00    -0.00  -0.00   0.00    -0.00  -0.00   0.00
  84   6    -0.00  -0.00   0.00    -0.00  -0.00   0.00    -0.00  -0.00   0.00
  85   6    -0.13   0.01  -0.01    -0.01   0.00  -0.00    -0.12   0.01  -0.01
  86   6    -0.00   0.06  -0.04    -0.00   0.00  -0.00    -0.00   0.05  -0.03
  87   6     0.00   0.00  -0.00     0.00   0.00  -0.00     0.00   0.00  -0.00
  88   7     0.00  -0.00   0.00     0.00  -0.00   0.00     0.00  -0.00   0.00
  89   6    -0.00   0.00  -0.00    -0.00  -0.00   0.00    -0.00   0.00  -0.00
  90   6     0.00  -0.00   0.00    -0.00   0.00  -0.00    -0.00   0.00  -0.00
  91   6     0.00  -0.00   0.00     0.00   0.00  -0.00     0.00   0.01  -0.01
  92   6    -0.00  -0.00   0.00     0.00  -0.00  -0.00     0.01   0.00  -0.00
  93   6     0.00   0.00  -0.00     0.00   0.00  -0.00     0.00  -0.00   0.00
  94   7    -0.00  -0.00   0.00    -0.00   0.00   0.00    -0.00  -0.00   0.00
  95   6    -0.00   0.00  -0.00     0.00  -0.00   0.00     0.00  -0.00   0.00
  96   6    -0.00  -0.00   0.00     0.00   0.00   0.00     0.00   0.00  -0.00
  97   6    -0.04   0.00  -0.00     0.00  -0.00   0.00     0.02  -0.00   0.00
  98   6    -0.00   0.02  -0.01     0.00  -0.00   0.00     0.00  -0.01   0.01
  99   6     0.00   0.00  -0.00    -0.00  -0.00   0.00    -0.00  -0.00   0.00
 100   7     0.00  -0.00   0.00    -0.00   0.00  -0.00    -0.00   0.00  -0.00
 101   6     0.00   0.00  -0.00    -0.00   0.00  -0.00    -0.00  -0.00   0.00
 102   6    -0.00   0.00  -0.00     0.00  -0.00   0.00     0.00  -0.00   0.00
 103   7    -0.00  -0.00   0.00     0.00   0.00  -0.00     0.00   0.00  -0.00
 104   1    -0.02  -0.18   0.11     0.00   0.02  -0.01     0.02   0.19  -0.12
 105   1    -0.44  -0.04   0.05     0.06   0.01  -0.01     0.47   0.04  -0.05
 106   1     0.44  -0.04   0.04     0.04  -0.00   0.00     0.41  -0.03   0.04
 107   1     0.02  -0.18   0.11     0.00  -0.01   0.01     0.02  -0.16   0.11
 108   1    -0.00  -0.00   0.00     0.00   0.00  -0.00    -0.00  -0.00   0.00
 109   1     0.00   0.00  -0.00    -0.00  -0.00   0.00    -0.00  -0.03   0.02
 110   1     0.01   0.00  -0.00    -0.00  -0.00   0.00    -0.04  -0.00   0.00
 111   1     0.14  -0.01   0.01    -0.00   0.00  -0.00    -0.06   0.01  -0.01
 112   1     0.01  -0.07   0.04    -0.00   0.00  -0.00    -0.00   0.04  -0.02
 113   1     0.00  -0.00   0.00    -0.00  -0.00   0.00    -0.00   0.00  -0.00
 114  30     0.00   0.00  -0.00     0.00  -0.00   0.00    -0.00  -0.00   0.00
 115   6    -0.00  -0.02  -0.00    -0.00  -0.00  -0.00     0.00   0.01   0.00
 116   6    -0.03  -0.00  -0.00    -0.00  -0.00  -0.00     0.01   0.00   0.00
 117   6    -0.00   0.00   0.00     0.00  -0.00  -0.00     0.00  -0.00  -0.00
 118   6    -0.00  -0.00   0.00     0.00   0.00   0.00     0.00   0.00  -0.00
 119   6    -0.00  -0.00  -0.00    -0.00  -0.00   0.00     0.00   0.00   0.00
 120   6    -0.01   0.00   0.00    -0.00   0.00   0.00     0.01  -0.00  -0.00
 121   6    -0.00   0.01   0.00    -0.00   0.00   0.00     0.00  -0.00  -0.00
 122   6     0.00   0.00   0.00     0.00   0.00   0.00    -0.00  -0.00  -0.00
 123   7     0.00  -0.00  -0.00    -0.00   0.00  -0.00    -0.00   0.00   0.00
 124   6    -0.00   0.00   0.00    -0.00  -0.00  -0.00     0.00   0.00   0.00
 125   6    -0.00   0.00   0.00     0.00  -0.00  -0.00    -0.00   0.00   0.00
 126   6    -0.00  -0.00  -0.00    -0.00  -0.08  -0.00     0.00   0.02   0.00
 127   6    -0.00   0.00   0.00    -0.14  -0.01   0.00     0.03   0.00  -0.00
 128   6     0.00  -0.00  -0.00    -0.00   0.00   0.00     0.00  -0.00  -0.00
 129   7    -0.00  -0.00   0.00     0.00   0.00  -0.00    -0.00  -0.00   0.00
 130   6     0.00   0.00   0.00    -0.00   0.00  -0.00     0.00  -0.00   0.00
 131   6     0.00  -0.00  -0.00    -0.00  -0.01  -0.00     0.00   0.00   0.00
 132   6    -0.00   0.00  -0.00    -0.15   0.01  -0.00     0.03  -0.00   0.00
 133   6     0.00   0.00   0.00    -0.00   0.09   0.00     0.00  -0.02  -0.00
 134   6     0.00   0.00   0.00     0.00   0.00   0.00    -0.00  -0.00  -0.00
 135   7    -0.00   0.00   0.00     0.00  -0.00   0.00    -0.00   0.00  -0.00
 136   6    -0.00  -0.00  -0.00    -0.00   0.00   0.00     0.00  -0.00  -0.00
 137   6     0.00  -0.00   0.00     0.00  -0.00  -0.00    -0.00   0.00  -0.00
 138   7     0.00   0.00   0.00    -0.00  -0.00   0.00    -0.00  -0.00  -0.00
 139   1     0.01   0.06   0.00     0.00   0.01   0.00    -0.00  -0.02  -0.00
 140   1     0.11   0.01   0.00     0.01   0.00   0.00    -0.04  -0.00  -0.00
 141   1     0.04  -0.00  -0.00     0.01  -0.00  -0.00    -0.03   0.00   0.00
 142   1     0.00  -0.03  -0.00     0.00  -0.01  -0.00    -0.00   0.02   0.00
 143   1    -0.00  -0.00  -0.00    -0.00   0.00   0.00     0.00  -0.00  -0.00
 144   1     0.00   0.00   0.00     0.02   0.25   0.00    -0.01  -0.05  -0.00
 145   1    -0.00   0.00   0.00     0.46   0.06  -0.01    -0.09  -0.01   0.00
 146   1     0.00  -0.00   0.00     0.50  -0.05   0.02    -0.10   0.01  -0.00
 147   1     0.00  -0.00  -0.00     0.03  -0.27  -0.00    -0.01   0.05   0.00
 148   1    -0.00   0.00   0.00    -0.00  -0.00  -0.00     0.00   0.00   0.00
