148
 energy: -253.689571096629 gnorm: 0.702555954031 xtb: 6.4.1 (bd6e46d)
Zn       24.39195800000000    0.04122900000000   -0.01254500000000
C        26.72094900000000   -3.10556400000000    1.31014400000000
C        27.63705700000000   -2.16135600000000    1.25986200000000
C        27.22587700000000   -1.10745200000000    0.33857000000000
C        27.84474800000000    0.01689400000000   -0.00784000000000
C        27.14070500000000    1.23684200000000   -0.37194500000000
C        27.46881600000000    2.19689700000000   -1.21941900000000
C        26.43403600000000    3.21318200000000   -1.23631600000000
C        25.49776800000000    2.83672000000000   -0.38942500000000
N        25.89975800000000    1.60370900000000    0.17439200000000
C        24.23669400000000    3.48172000000000   -0.01027300000000
C        23.14147700000000    2.84693700000000    0.34048700000000
C        22.06785100000000    3.16489300000000    1.30951500000000
C        21.23028800000000    2.16813900000000    1.23234900000000
C        21.66858600000000    1.16445600000000    0.25189700000000
N        22.77352400000000    1.60330900000000   -0.23239500000000
C        21.05775100000000   -0.08881500000000   -0.16165100000000
C        21.72191100000000   -1.19332100000000   -0.41607600000000
C        21.34806300000000   -2.25626300000000   -1.37360300000000
C        22.29681000000000   -3.15001900000000   -1.28458400000000
C        23.28253400000000   -2.71256900000000   -0.30170600000000
N        22.92948800000000   -1.56676400000000    0.19509100000000
C        24.51342200000000   -3.36863900000000    0.14401500000000
C        25.63646300000000   -2.72277800000000    0.41113600000000
N        25.96506300000000   -1.47533700000000   -0.18726700000000
H        26.78121100000000   -4.01534400000000    1.92769100000000
H        28.55338400000000   -2.20130600000000    1.83791000000000
H        28.39618100000000    2.21369300000000   -1.82056200000000
H        26.45093500000000    4.11787100000000   -1.84893800000000
H        24.18897100000000    4.57652200000000   -0.01405000000000
H        22.01503000000000    4.04361800000000    1.93450800000000
H        20.31865800000000    2.13246900000000    1.84967300000000
H        19.95950000000000   -0.08590400000000   -0.26092200000000
H        20.47920700000000   -2.30872800000000   -2.02255300000000
H        22.29396400000000   -4.06632700000000   -1.88334300000000
H        24.47794000000000   -4.46444100000000    0.25594000000000
Zn       59.36988200000000   -0.00614700000000   -0.01697800000000
C        57.04089100000000    2.84064500000000    1.86652700000000
C        56.12478400000000    1.92215600000000    1.64195300000000
C        56.53596400000000    1.05745900000000    0.54113900000000
C        55.91709300000000    0.01689400000000   -0.00784000000000
C        56.62113500000000   -1.11433100000000   -0.59194300000000
C        56.29302500000000   -1.90050300000000   -1.60280900000000
C        57.32780400000000   -2.89601200000000   -1.80795000000000
C        58.26407300000000   -2.68319600000000   -0.90592000000000
N        57.86208200000000   -1.57618400000000   -0.12314800000000
C        59.52514700000000   -3.38733700000000   -0.65300600000000
C        60.62036400000000   -2.82864400000000   -0.19057300000000
C        61.69399000000000   -3.32084900000000    0.70264900000000
C        62.53155300000001   -2.32708200000000    0.81173400000000
C        62.09325500000000   -1.15893400000000    0.03449900000000
N        60.98831700000000   -1.50032600000000   -0.52280000000000
C        62.70409000000001    0.14930200000000   -0.13937100000000
C        62.03992900000000    1.28183500000000   -0.18447700000000
C        62.41377800000000    2.50396100000000   -0.92819200000000
C        61.46503100000001    3.36568800000000   -0.67491300000000
C        60.47930700000000    2.75349300000000    0.20975000000000
N        60.83235300000000    1.53541500000000    0.48536000000000
C        59.24841900000000    3.31548800000000    0.76944500000000
C        58.12537800000000    2.63128300000000    0.91211200000000
N        57.79677700000001    1.51650800000000    0.09267800000000
H        56.98062900000001    3.62007000000000    2.64213100000000
H        55.20845700000000    1.85417500000000    2.21737900000000
H        55.36566000000001   -1.80548600000000   -2.19663400000000
H        57.31090500000000   -3.67134700000000   -2.57777000000000
H        59.57287000000001   -4.46243500000000   -0.85982000000000
H        61.74681100000000   -4.30026600000000    1.15377600000000
H        63.44318300000000   -2.40655400000000    1.42496000000000
H        63.80234000000001    0.16485700000000   -0.23745800000000
H        63.28263400000001    2.67590500000000   -1.55614400000000
H        61.46787700000000    4.37716900000000   -1.09329100000000
H        59.28390100000000    4.37150400000000    1.08271400000000
C        30.45919600000000    0.01689400000000   -0.00784000000000
C        31.67540100000000    0.01689400000000   -0.00784000000000
C        41.27281800000001    0.01689400000000   -0.00784000000000
C        42.48902300000001    0.01689400000000   -0.00784000000000
C        52.08644000000000    0.01689400000000   -0.00784000000000
C        53.30264500000000    0.01689400000000   -0.00784000000000
Zn       36.50560500000000    0.02969500000000    0.00564600000000
C        34.22579500000001   -3.23175200000000   -0.90402000000000
C        33.26958500000000   -2.33240200000000   -1.00604600000000
C        33.66195900000000   -1.17009700000000   -0.20353000000000
C        33.02684300000000   -0.01882400000000    0.00873600000000
C        33.71230000000000    1.25577500000000    0.23496500000000
C        33.37701000000000    2.33437500000000    0.93920500000000
C        34.40155100000000    3.35369200000000    0.84862400000000
C        35.35214800000000    2.85676700000000    0.07525900000000
N        34.97515400000000    1.54016200000000   -0.34088400000000
C        36.59928800000000    3.46846900000000   -0.34160600000000
C        37.70084000000000    2.80121200000000   -0.67337800000000
C        38.69438600000001    3.05319600000000   -1.70754800000000
C        39.58826900000000    2.09233700000000   -1.60606400000000
C        39.20857100000001    1.18045300000000   -0.50208700000000
N        38.11365600000000    1.62977200000000    0.00528000000000
C        39.86577800000000   -0.01882400000000    0.00873600000000
C        39.24236700000001   -1.08800600000000    0.47025200000000
C        39.62107900000001   -2.02012200000000    1.54572800000000
C        38.68041100000001   -2.93426800000000    1.63159400000000
C        37.67210900000000   -2.63848900000000    0.63416700000000
N        38.00988400000000   -1.58511100000000   -0.01512800000000
C        36.41971600000001   -3.34549600000000    0.30297400000000
C        35.30583900000000   -2.74880000000000   -0.04436800000000
N        34.92372700000001   -1.46604200000000    0.37331500000000
H        34.22613900000000   -4.22282600000000   -1.39525400000000
H        32.36105100000000   -2.45409600000000   -1.58719400000000
H        32.45215800000000    2.45272700000000    1.51613100000000
H        34.42884600000000    4.34285600000000    1.30527400000000
H        36.68522800000001    4.56584700000000   -0.40362900000000
H        38.72705800000000    3.85941200000000   -2.43437200000000
H        40.48133100000000    1.97936900000000   -2.23983800000000
H        40.53583000000000   -1.94571500000000    2.15589800000000
H        38.69945700000000   -3.74787600000000    2.33986100000000
H        36.45820100000000   -4.44545500000000    0.36201000000000
Zn       47.31922700000000    0.02969500000000    0.00564600000000
C        45.03941700000000   -3.23175200000000   -0.90402000000000
C        44.08320700000000   -2.33240200000000   -1.00604600000000
C        44.47558100000000   -1.17009700000000   -0.20353000000000
C        43.84046500000000   -0.01882400000000    0.00873600000000
C        44.52592200000000    1.25577500000000    0.23496500000000
C        44.19063200000000    2.33437500000000    0.93920500000000
C        45.21517300000000    3.35369200000000    0.84862400000000
C        46.16577000000001    2.85676700000000    0.07525900000000
N        45.78877600000001    1.54016200000000   -0.34088400000000
C        47.41291000000000    3.46846900000000   -0.34160600000000
C        48.51446200000000    2.80121200000000   -0.67337800000000
C        49.50800800000000    3.05319600000000   -1.70754800000000
C        50.40189100000000    2.09233700000000   -1.60606400000000
C        50.02219300000000    1.18045300000000   -0.50208700000000
N        48.92727800000001    1.62977200000000    0.00528000000000
C        50.67940000000000   -0.01882400000000    0.00873600000000
C        50.05598900000000   -1.08800600000000    0.47025200000000
C        50.43470100000000   -2.02012200000000    1.54572800000000
C        49.49403300000000   -2.93426800000000    1.63159400000000
C        48.48573100000000   -2.63848900000000    0.63416700000000
N        48.82350600000000   -1.58511100000000   -0.01512800000000
C        47.23333800000000   -3.34549600000000    0.30297400000000
C        46.11946100000000   -2.74880000000000   -0.04436800000000
N        45.73734900000000   -1.46604200000000    0.37331500000000
H        45.03976100000000   -4.22282600000000   -1.39525400000000
H        43.17467300000000   -2.45409600000000   -1.58719400000000
H        43.26578000000000    2.45272700000000    1.51613100000000
H        45.24246800000000    4.34285600000000    1.30527400000000
H        47.49885000000000    4.56584700000000   -0.40362900000000
H        49.54068000000000    3.85941200000000   -2.43437200000000
H        51.29495300000001    1.97936900000000   -2.23983800000000
H        51.34945100000001   -1.94571500000000    2.15589800000000
H        49.51307900000000   -3.74787600000000    2.33986100000000
H        47.27182200000001   -4.44545500000000    0.36201000000000
148
 energy: -253.920788217493 gnorm: 0.383762219189 xtb: 6.4.1 (bd6e46d)
Zn       24.40683810810435    0.04096044456944   -0.01084955343118
C        26.72237013715041   -3.11513639440512    1.29909354512967
C        27.65579521969688   -2.16201572013761    1.25352385127057
C        27.22721170137902   -1.10938903487725    0.34635959582421
C        27.83672133693865    0.04004911940844   -0.00559335624112
C        27.12975119734033    1.23430773424301   -0.36493137923689
C        27.48280615127224    2.22626756949854   -1.23747817153609
C        26.46582089662037    3.21608027295727   -1.24945112282311
C        25.49248773732839    2.81112309719823   -0.38401530043311
N        25.87710759641610    1.58105358088040    0.17462306483119
C        24.25848473158697    3.47751270096300   -0.01052646983508
C        23.13147686526745    2.82880959120039    0.34172853948181
C        22.06761940914010    3.17304954417413    1.28870377425910
C        21.20072718473006    2.16047022056654    1.23412244648440
C        21.66141722289010    1.16462224734434    0.27143516915121
N        22.81010158741808    1.57860438027870   -0.20838584629543
C        21.04521912027791   -0.06438383042979   -0.15368989319085
C        21.72531348655657   -1.19628062583237   -0.42270161511808
C        21.33914494253037   -2.25706451175995   -1.35673746960941
C        22.30397484620686   -3.17520529247012   -1.27881102718712
C        23.29340960357160   -2.72332856246327   -0.31238715067719
N        22.94118284014168   -1.54054557672669    0.16260266994248
C        24.49397527737231   -3.37381834630305    0.13506076108293
C        25.64287963316010   -2.70620798606175    0.41514952442242
N        25.96120935925314   -1.46999209957647   -0.15220410088367
H        26.77054035475217   -4.00942000965604    1.91736666958062
H        28.56045254805052   -2.19005302272582    1.83446836007183
H        28.39456396423602    2.22496115646836   -1.82287160799897
H        26.45978516720783    4.11442085721535   -1.85004247359826
H        24.20953277423087    4.56965531790549   -0.00593040517990
H        22.02413320749077    4.04162269850994    1.92561225575875
H        20.31179032801734    2.12106424320983    1.84839657811825
H        19.96101117765699   -0.07469312629004   -0.26707048894738
H        20.48136676086146   -2.29709233837223   -2.01253362068287
H        22.30768336086611   -4.07255604216232   -1.87863025781274
H        24.47145847321671   -4.45864296306494    0.25581888131428
Zn       59.35510639304446   -0.00616418093375   -0.01529179566337
C        57.03948430485661    2.85215495644440    1.85743862001041
C        56.10619211014273    1.92395366530283    1.63589985678887
C        56.53528860889324    1.05780228558751    0.54948050169813
C        55.92713930266132   -0.00667017703852   -0.00920385977789
C        56.63267015739117   -1.11306463602462   -0.58451084334923
C        56.27918344358910   -1.92596766286607   -1.62595838590822
C        57.29597375261672   -2.89640357952142   -1.82139766014289
C        58.26940107332068   -2.65912026711860   -0.89581666963232
N        57.88494438914709   -1.55440004337142   -0.11853839324326
C        59.50338526637225   -3.38323105070665   -0.65250240264975
C        60.63036979200651   -2.81104789972818   -0.18596399477624
C        61.69419909409967   -3.32497406958779    0.68069964319125
C        62.56115510558021   -2.31985480483470    0.81483577022377
C        62.10048741994279   -1.16269412132469    0.05365664544675
N        60.95168886728781   -1.48054462634281   -0.49464481330920
C        62.71663694545877    0.12377423317425   -0.13605048746414
C        62.03653078493576    1.28599287688354   -0.19048081138343
C        62.42268482220233    2.50156331870908   -0.91149084078974
C        61.45781180306893    3.38935094631741   -0.66459074212954
C        60.46844163662887    2.76606406708891    0.20118328971589
N        60.82067790815087    1.51571556948978    0.44857417751331
C        59.26783242128512    3.32233380465636    0.76163661139112
C        58.11899808951281    2.61444383980313    0.91292352816314
N        57.80089895206914    1.50489060058546    0.12609010243057
H        56.99128933436840    3.61619350473982    2.63089689863851
H        55.20145490441154    1.84373652423754    2.21188356609551
H        55.36734109880759   -1.81609692948054   -2.20097755720457
H        57.30203301409441   -3.66774451048863   -2.57824748849024
H        59.55234382332222   -4.45722374467119   -0.85065940259973
H        61.73770840208564   -4.29664985475936    1.14539476740016
H        63.45006411915108   -2.39510499303358    1.42580448717166
H        63.80084288867367    0.15497104995643   -0.24553160420797
H        63.28048081409863    2.66260123330979   -1.54845050207150
H        61.45415234276295    4.38242152191732   -1.08749345690448
H        59.29040818804882    4.36586532471764    1.08162205104474
C        30.41914767283367    0.01557738257566   -0.00615204545976
C        31.64098506986065    0.02707446200292   -0.01233878641809
C        41.26903137388670    0.02612591750611   -0.00566362332166
C        42.48376069728514    0.02712204181753   -0.01023054508338
C        52.11526766043543    0.02553925709736   -0.00322587191094
C        53.33545655044227    0.01738252795776   -0.00775675569836
Zn       36.49356322556347    0.03261088716229    0.00425082902544
C        34.22610773984528   -3.25121615888883   -0.89461958653956
C        33.26128657802438   -2.33250567492373   -0.99371085694890
C        33.68380399099176   -1.18130633622415   -0.20900284154598
C        33.03344270415403    0.00303771084792    0.00462963278019
C        33.74071098464932    1.25937712926726    0.23275204235718
C        33.36654890580575    2.36207623521099    0.95085742307580
C        34.37506843875227    3.35509279845292    0.85539249504668
C        35.36282842752800    2.83389572046023    0.07234539218438
N        35.00057439094413    1.52582954504854   -0.32657493910186
C        36.58302128772408    3.46533080974044   -0.34345344162321
C        37.70956504627524    2.78719586662092   -0.67471020743605
C        38.70341652647872    3.06147944137824   -1.69096661350080
C        39.61219458495463    2.07959954786332   -1.60318755637218
C        39.21163061825238    1.17926169369945   -0.52016994009013
N        38.07747060333364    1.60678101326415   -0.01760002361316
C        39.87582774165523    0.00060338981516   -0.00137510671795
C        39.22865368122370   -1.10059512295690    0.47816988060540
C        39.63413178436140   -2.01971754070663    1.53252792273750
C        38.67656771278489   -2.95376521679328    1.62808560169992
C        37.66037867462667   -2.64545789884917    0.64559226231405
N        37.99402124939443   -1.54598320248113    0.00177667464244
C        36.44167866883729   -3.35118302686119    0.31406352355198
C        35.29342047463822   -2.73502829710198   -0.05299066771701
N        34.93771716027925   -1.45343065461082    0.33611047857569
H        34.23255728655492   -4.21955976288291   -1.39017971655992
H        32.36129896969487   -2.44146644342630   -1.58076349983663
H        32.45057117839962    2.45851434176823    1.51707155801910
H        34.41497553287588    4.33604097173401    1.30768595794281
H        36.66296209147023    4.55716937466349   -0.41100554288400
H        38.71826804407964    3.85743566944289   -2.42340798303585
H        40.48358470285439    1.97053564491330   -2.23563277807703
H        40.52976455323569   -1.93894327386304    2.14490867810128
H        38.68989432712617   -3.75597367173723    2.33980775005052
H        36.46644815134486   -4.44134987071979    0.35903174677966
Zn       47.30676228838325    0.03325377720473    0.00422002526774
C        45.03920561333611   -3.25256295168911   -0.89399247496608
C        44.07600829124318   -2.33304602464897   -0.99348515516699
C        44.50203112461128   -1.18431705066472   -0.20573783825059
C        43.85551056448733    0.00245125598078    0.00608961564156
C        44.55826745148185    1.26135725538221    0.23204123300363
C        44.18132869322123    2.36206974302305    0.95066969442943
C        45.18898134188843    3.35610067202566    0.85483407230076
C        46.17715897656079    2.83522891720908    0.07218234434601
N        45.81535760514665    1.52653606072730   -0.32657249398085
C        47.39686859067202    3.46523208022092   -0.34267109497456
C        48.52419209817302    2.78620440212963   -0.67411176826098
C        49.51698759499863    3.06073388322606   -1.69110404105885
C        50.42645703892553    2.07932801234302   -1.60379023041660
C        50.02810479240393    1.17607797891229   -0.52253731077052
N        48.89322537203689    1.60579104949400   -0.01743475195349
C        50.69716276725025   -0.00007492672790   -0.00146239519988
C        50.04706730810747   -1.09753226755050    0.47820729988417
C        50.44925045104814   -2.02004667921742    1.53247889404145
C        49.49038255074977   -2.95191639751476    1.62907184736268
C        48.47515752552416   -2.64314493273867    0.64553860291978
N        48.80844738665300   -1.54584308777179    0.00166354341587
C        47.25482346599102   -3.35133311896983    0.31256291124882
C        46.10820180457578   -2.73652300385844   -0.05284362382322
N        45.75276237056379   -1.45358045641654    0.33617274364177
H        45.04595590043067   -4.22003971392713   -1.39036035683180
H        43.17546178327358   -2.44123198200004   -1.58061549879371
H        43.26460288187304    2.45816631762045    1.51676709806543
H        45.22859421631347    4.33647211271515    1.30773342256586
H        47.47693918378929    4.55709602065584   -0.41059998333605
H        49.53177210771391    3.85722643012856   -2.42323382802030
H        51.29756824858853    1.97069175155764   -2.23595563436005
H        51.34399445962711   -1.93934524297487    2.14515102126006
H        49.50349455442838   -3.75540478192307    2.33974539683251
H        47.28053784944412   -4.44142279361227    0.35750861270793
148
 energy: -254.058413119452 gnorm: 0.149699571718 xtb: 6.4.1 (bd6e46d)
Zn       24.41583763650813    0.04153333873990   -0.00821854429896
C        26.72187347875682   -3.11988904613939    1.28598318051970
C        27.67315647091139   -2.16223208964793    1.24518770018217
C        27.22729753001190   -1.11128327844150    0.35677724030628
C        27.82752692185154    0.06191465153848   -0.01171264971183
C        27.12227844376727    1.22729942645096   -0.36077453404109
C        27.49360200997167    2.25723445329704   -1.24677272940063
C        26.50090046972723    3.21415233875686   -1.25028158814611
C        25.48849905890920    2.78110294465135   -0.37466797710041
N        25.85685381887581    1.55440948279072    0.15628674314980
C        24.28469555132894    3.46371790642229   -0.01030199782938
C        23.13115221981815    2.79991885280867    0.35054039256396
C        22.07389993251115    3.17333706335519    1.26200327731123
C        21.17530964528255    2.15707825669463    1.22527996647274
C        21.65562024231566    1.16296796267916    0.29310866138726
N        22.85378048986857    1.54954853826687   -0.17176957449885
C        21.03981266054317   -0.04100367225195   -0.14427404622857
C        21.73588116294168   -1.19267094858077   -0.43821680029139
C        21.33659342430476   -2.25483917870636   -1.33618064705336
C        22.30699186324451   -3.19604001372467   -1.26461781340977
C        23.30513425981269   -2.73017752567138   -0.32399268907399
N        22.95697350095120   -1.50294845657957    0.11781004583558
C        24.47683387291174   -3.37044838542724    0.12473357802134
C        25.64653665958965   -2.68114513543954    0.42306653814977
N        25.95526306036912   -1.46044287183593   -0.10952504934633
H        26.75882712851755   -4.00367291266640    1.90201923777882
H        28.57126021067726   -2.17830915866444    1.82663880472631
H        28.39398518345971    2.23527831787455   -1.82293191230355
H        26.46475570965678    4.10872305798699   -1.84501861662342
H        24.23149535347775    4.55328102491874   -0.00514585636903
H        22.03356311162717    4.03585471471357    1.90863310104641
H        20.30388408992255    2.10978908721980    1.84124025656496
H        19.96519752374050   -0.06750091491967   -0.26560388209551
H        20.48535650996540   -2.28555384085585   -1.99647545512916
H        22.32113317459359   -4.07998266176560   -1.86798143869964
H        24.47156684948972   -4.44821004047114    0.24883184468427
Zn       59.34618052395832   -0.00717677085216   -0.01281371624967
C        57.04004738982775    2.85923305631227    1.84545191107958
C        56.08909579337745    1.92548632202104    1.62770702154095
C        56.53585005748006    1.05803270102836    0.55956588584056
C        55.93829997608862   -0.02611966885542   -0.02162050900307
C        56.64071889817019   -1.10684303963720   -0.57957056754897
C        56.26861739279379   -1.95474261045559   -1.64101939681563
C        57.26093210958288   -2.89446085581729   -1.82186594248529
C        58.27349916424073   -2.63157959543511   -0.88098289050347
N        57.90551528873203   -1.52508168921440   -0.13163536779502
C        59.47723867922238   -3.36984102405946   -0.64974521302104
C        60.63072572645879   -2.78430477003668   -0.17192702595960
C        61.68792114615296   -3.32029748705603    0.65441787763251
C        62.58656905525289   -2.31486137095123    0.80677504091243
C        62.10629471279383   -1.16509406697212    0.07525938049574
N        60.90802474127127   -1.45882387419809   -0.45328152501708
C        62.72203098123436    0.09904973430301   -0.13115003818951
C        62.02596555445465    1.28533158490381   -0.20643153091339
C        62.42523565001112    2.49555681693248   -0.89173033537947
C        61.45482405642842    3.40720392103895   -0.64678581586390
C        60.45676982454728    2.77500961474858    0.19106800988963
N        60.80491268319902    1.48709979099194    0.39760104439919
C        59.28516433653481    3.32111922040062    0.75092371386046
C        58.11552970884340    2.58856365417186    0.91611547010665
N        57.80743443156335    1.48811605528971    0.16622985559707
H        57.00295387294661    3.61343419183490    2.61470496052029
H        55.19077137977382    1.83357136589747    2.20183226723565
H        55.36810535853488   -1.82618896502470   -2.20296428272509
H        57.29708900168078   -3.66314557873460   -2.57226359187078
H        59.53045811331928   -4.44136830371616   -0.84690513366197
H        61.72828694056064   -4.28782488502915    1.12979088884631
H        63.45797861589056   -2.38269003125244    1.42085254881607
H        63.79665606426927    0.14764555072968   -0.24541804342659
H        63.27648472694015    2.64828349821289   -1.53484858568856
H        61.44071550358494    4.38773953685327   -1.07569234852885
H        59.29040883402522    4.35706320341029    1.07281418101044
C        30.38089778049729    0.02325575802716   -0.00908528842956
C        31.60471975236938    0.03977812760805   -0.00654133817576
C        41.26711391756169    0.02946682531223   -0.00375037374890
C        42.48664439894075    0.03557322900498   -0.01175177916033
C        52.15149661338454    0.02667518399265    0.00423910532439
C        53.37454969250267    0.00551953059285   -0.00560536386551
Zn       36.48770538014359    0.03539695225536    0.00180900845877
C        34.23024268176927   -3.26523052255026   -0.88285646348253
C        33.25630738484814   -2.32790486814807   -0.97792273492286
C        33.70287199400616   -1.18542626819553   -0.21654848926316
C        33.03397816156595    0.02748044050583    0.00491016901518
C        33.76799377511609    1.25693588294643    0.22952209828497
C        33.35764264610699    2.39046180096256    0.95370172697079
C        34.34561040881601    3.35059496976200    0.85327279840943
C        35.37338931433246    2.80616379342962    0.06792089804269
N        35.02590324958052    1.50626775708530   -0.29155632784965
C        36.56212480364609    3.45490382616765   -0.34549688577889
C        37.71075789005472    2.76243806453339   -0.68252724195305
C        38.70858867036157    3.06325583296743   -1.67032676729155
C        39.63343550917018    2.06835705874511   -1.58941428631444
C        39.21341499087112    1.17410046348160   -0.53932148798569
N        38.03378409382567    1.57849853898867   -0.05030255150233
C        39.88284811106187    0.01812912318554   -0.01259247092079
C        39.20827908057666   -1.10540961788265    0.49067969786463
C        39.63977532843031   -2.01524415099346    1.51430638002759
C        38.67402839025807   -2.97036749572707    1.61399747993236
C        37.64656025067896   -2.64910593021295    0.65714566928261
N        37.97575946536728   -1.49498674534490    0.03087621298612
C        36.46217805358280   -3.34676706755069    0.32519803924311
C        35.28758709725656   -2.71611455970028   -0.06857021049885
N        34.95202076398130   -1.43739891144352    0.28758342964267
H        34.23911177883366   -4.21714575625060   -1.37952250467765
H        32.36136955983709   -2.42669627393139   -1.56772644620417
H        32.44817690691413    2.46183848569636    1.51470924350069
H        34.40171798486271    4.32583436352161    1.30550784701551
H        36.63760529842386    4.54141766134409   -0.41175100717148
H        38.70912817177063    3.85444850695818   -2.40456782084589
H        40.48745501880661    1.96180410911432   -2.22580664679272
H        40.52212659541164   -1.93354895193479    2.12787434063471
H        38.67959155494363   -3.76433313478994    2.33272517441568
H        36.46839139103241   -4.43083253187582    0.36294270192289
Zn       47.30198052842005    0.03664592817065    0.00168627462601
C        45.04380279866242   -3.26867262705770   -0.88123045994714
C        44.07374486533334   -2.32853060286969   -0.97721207437936
C        44.53213060691648   -1.19159560551860   -0.21187929687696
C        43.87378795023377    0.02806819569452    0.00381443243875
C        44.59454339221340    1.26298170527587    0.22642737457589
C        44.17482058471461    2.39080767162858    0.95288495991237
C        45.16037287195641    3.35345888987907    0.85187305875009
C        46.19025211641386    2.81062353751715    0.06762447730346
N        45.84528170674585    1.50930062466275   -0.29163086850941
C        47.37785739382609    3.45438701973117   -0.34336812925056
C        48.52786456153920    2.75849426054844   -0.68117424093751
C        49.52242839550831    3.06069571434160   -1.67081553400667
C        50.44966307636405    2.06753219992977   -1.59096642628598
C        50.03835371146367    1.16734775946917   -0.54307054918530
N        48.85476451808945    1.57501955343803   -0.04998648414292
C        50.71940108191053    0.01762868556033   -0.01181413219897
C        50.03637780941164   -1.09804172985224    0.49128755227754
C        50.45759030729049   -2.01559280483461    1.51470857595603
C        49.48844198579786   -2.96599151572241    1.61607766785633
C        48.46417577624759   -2.64289649752165    0.65678872319047
N        48.79414978334942   -1.49328122047181    0.02978550253619
C        47.27667431670189   -3.34770824966439    0.32206604312602
C        46.10475877793606   -2.72129155742679   -0.06755531373195
N        45.77107077381278   -1.43956271374156    0.28843464898407
H        45.05245247602092   -4.21877470721271   -1.37981054043913
H        43.17704622707823   -2.42530745743953   -1.56642031223305
H        43.26364355935136    2.46041033186664    1.51330228374788
H        45.21527775246213    4.32730573831839    1.30569931658978
H        47.45352202080842    4.54099833397506   -0.41027515426112
H        49.52244966459646    3.85354081963803   -2.40395525962481
H        51.30268858431312    1.96241589350818   -2.22744841655789
H        51.33804330427982   -1.93471518281087    2.12916722543703
H        49.49297397361049   -3.76269193163571    2.33248297301027
H        47.28498831116102   -4.43143747818946    0.35890360392459
148