      -----------------------------------------------------------      
     |                   =====================                   |     
     |                           x T B                           |     
     |                   =====================                   |     
     |                         S. Grimme                         |     
     |          Mulliken Center for Theoretical Chemistry        |     
     |                    University of Bonn                     |     
      -----------------------------------------------------------      

   * xtb version 6.4.1 (bd6e46d) compiled by 'conda@4901f00b25ba' on 2021-06-10

   xtb is free software: you can redistribute it and/or modify it under
   the terms of the GNU Lesser General Public License as published by
   the Free Software Foundation, either version 3 of the License, or
   (at your option) any later version.
   
   xtb is distributed in the hope that it will be useful,
   but WITHOUT ANY WARRANTY; without even the implied warranty of
   MERCHANTABILITY or FITNESS FOR A PARTICULAR PURPOSE.  See the
   GNU Lesser General Public License for more details.
   
   Cite this work as:
   * C. Bannwarth, E. Caldeweyher, S. Ehlert, A. Hansen, P. Pracht,
     J. Seibert, S. Spicher, S. Grimme, WIREs Comput. Mol. Sci., 2020, 11,
     e01493. DOI: 10.1002/wcms.1493
   
   for GFN2-xTB:
   * C. Bannwarth, S. Ehlert and S. Grimme., J. Chem. Theory Comput., 2019,
     15, 1652-1671. DOI: 10.1021/acs.jctc.8b01176
   for GFN1-xTB:
   * S. Grimme, C. Bannwarth, P. Shushkov, J. Chem. Theory Comput., 2017,
     13, 1989-2009. DOI: 10.1021/acs.jctc.7b00118
   for GFN0-xTB:
   * P. Pracht, E. Caldeweyher, S. Ehlert, S. Grimme, ChemRxiv, 2019, preprint.
     DOI: 10.26434/chemrxiv.8326202.v1
   for GFN-FF:
   * S. Spicher and S. Grimme, Angew. Chem. Int. Ed., 2020, 59, 15665-15673.
     DOI: 10.1002/anie.202004239
   
   for DFT-D4:
   * E. Caldeweyher, C. Bannwarth and S. Grimme, J. Chem. Phys., 2017,
     147, 034112. DOI: 10.1063/1.4993215
   * E. Caldeweyher, S. Ehlert, A. Hansen, H. Neugebauer, S. Spicher,
     C. Bannwarth and S. Grimme, J. Chem. Phys., 2019, 150, 154122.
     DOI: 10.1063/1.5090222
   * E. Caldeweyher, J.-M. Mewes, S. Ehlert and S. Grimme, Phys. Chem. Chem. Phys.
     2020, 22, 8499-8512. DOI: 10.1039/D0CP00502A
   
   for sTDA-xTB:
   * S. Grimme and C. Bannwarth, J. Chem. Phys., 2016, 145, 054103.
     DOI: 10.1063/1.4959605
   
   in the mass-spec context:
   * V. Asgeirsson, C. Bauer and S. Grimme, Chem. Sci., 2017, 8, 4879.
     DOI: 10.1039/c7sc00601b
   * J. Koopman and S. Grimme, ACS Omega 2019, 4, 12, 15120-15133.
     DOI: 10.1021/acsomega.9b02011
   
   for metadynamics refer to:
   * S. Grimme, J. Chem. Theory Comput., 2019, 155, 2847-2862
     DOI: 10.1021/acs.jctc.9b00143
   
   for SPH calculations refer to:
   * S. Spicher and S. Grimme, J. Chem. Theory Comput., 2021, 17, 1701-1714
     DOI: 10.1021/acs.jctc.0c01306
   
   with help from (in alphabetical order)
   P. Atkinson, C. Bannwarth, F. Bohle, G. Brandenburg, E. Caldeweyher
   M. Checinski, S. Dohm, S. Ehlert, S. Ehrlich, I. Gerasimov, J. Koopman
   C. Lavigne, S. Lehtola, F. März, M. Müller, F. Musil, H. Neugebauer
   J. Pisarek, C. Plett, P. Pracht, J. Seibert, P. Shushkov, S. Spicher
   M. Stahn, M. Steiner, T. Strunk, J. Stückrath, T. Rose, and J. Unsleber
   
 * started run on 2021/11/21 at 19:12:26.390     

           -------------------------------------------------
          |                Calculation Setup                |
           -------------------------------------------------

          program call               : /home/jeff/miniconda3/bin/xtb /home/jeff/chem/final-year-proejct/Cu+2_6_5_outenergy/input_structure.xyz --gfn 2 --parallel 1 --etemp 300 --chrg 0 --uhf 0 -I det_control.in
          coordinate file            : /home/jeff/chem/final-year-proejct/Cu+2_6_5_outenergy/input_structure.xyz
          omp threads                :                     1
          number of atoms            :                   201
          number of electrons        :                   703
          charge                     :                     0
          spin                       :                   0.5
          first test random number   :      0.93642404970987

   ID    Z sym.   atoms
    1   29 Cu     1, 37, 97, 132, 167
    2    6 C      2-9, 11-15, 17-21, 23, 24, 38-45, 47-51, 53-57, 59, 60,
                  73-96, 98-105, 107-111, 113-117, 119, 120, 133-140,
                  142-146, 148-152, 154, 155, 168-175, 177-181, 183-187, 189,
                  190
    3    7 N      10, 16, 22, 25, 46, 52, 58, 61, 106, 112, 118, 121, 141,
                  147, 153, 156, 176, 182, 188, 191
    4    1 H      26-36, 62-72, 122-131, 157-166, 192-201

           -------------------------------------------------
          |                 G F N 2 - x T B                 |
           -------------------------------------------------

        Reference                      10.1021/acs.jctc.8b01176
      * Hamiltonian:
        H0-scaling (s, p, d)           1.850000    2.230000    2.230000
        zeta-weighting                 0.500000
      * Dispersion:
        s8                             2.700000
        a1                             0.520000
        a2                             5.000000
        s9                             5.000000
      * Repulsion:
        kExp                           1.500000    1.000000
        rExp                           1.000000
      * Coulomb:
        alpha                          2.000000
        third order                    shell-resolved
        anisotropic                    true
        a3                             3.000000
        a5                             4.000000
        cn-shift                       1.200000
        cn-exp                         4.000000
        max-rad                        5.000000


          ...................................................
          :                      SETUP                      :
          :.................................................:
          :  # basis functions                 678          :
          :  # atomic orbitals                 673          :
          :  # shells                          355          :
          :  # electrons                       703          :
          :  max. iterations                   250          :
          :  Hamiltonian                  GFN2-xTB          :
          :  restarted?                      false          :
          :  GBSA solvation                  false          :
          :  PC potential                    false          :
          :  electronic temp.          300.0000000     K    :
          :  accuracy                    1.0000000          :
          :  -> integral cutoff          0.2500000E+02      :
          :  -> integral neglect         0.1000000E-07      :
          :  -> SCF convergence          0.1000000E-05 Eh   :
          :  -> wf. convergence          0.1000000E-03 e    :
          :  Broyden damping             0.4000000          :
          ...................................................

 iter      E             dE          RMSdq      gap      omega  full diag
   1   -376.4799236 -0.376480E+03  0.631E+00    0.02       0.0  T
   2   -376.0513370  0.428587E+00  0.395E+00    0.01       1.0  T
   3   -217.4310534  0.158620E+03  0.119E+01    0.01       1.0  T
   4   -370.8520166 -0.153421E+03  0.260E+00    0.05       1.0  T
   5   -371.4522279 -0.600211E+00  0.206E+00    0.10       1.0  T
   6   -372.5303202 -0.107809E+01  0.179E+00    0.01       1.0  T
   7   -375.9070582 -0.337674E+01  0.972E-01    0.43       1.0  T
   8   -375.8281492  0.789090E-01  0.963E-01    0.53       1.0  T
   9   -376.0889444 -0.260795E+00  0.831E-01    0.06       1.0  T
  10   -376.1731277 -0.841833E-01  0.702E-01    0.01       1.0  T
  11   -376.1865614 -0.134337E-01  0.746E-01    0.05       1.0  T
  12   -376.1157221  0.708392E-01  0.741E-01    0.05       1.0  T
  13   -376.1563400 -0.406179E-01  0.669E-01    0.01       1.0  T
  14   -376.3099105 -0.153570E+00  0.586E-01    0.07       1.0  T
  15   -376.3057966  0.411386E-02  0.598E-01    0.03       1.0  T
  16   -376.3815324 -0.757358E-01  0.511E-01    0.04       1.0  T
  17   -376.4976881 -0.116156E+00  0.366E-01    0.01       1.0  T
  18   -376.4776699  0.200183E-01  0.388E-01    0.03       1.0  T
  19   -376.5817296 -0.104060E+00  0.193E-01    0.00       1.0  T
  20   -376.5619961  0.197335E-01  0.242E-01    0.01       1.0  T
  21   -376.5920819 -0.300858E-01  0.172E-01    0.00       1.0  T
  22   -376.6085085 -0.164266E-01  0.101E-01    0.00       1.0  T
  23   -376.6036430  0.486547E-02  0.125E-01    0.00       1.0  T
  24   -376.6130714 -0.942838E-02  0.671E-02    0.00       1.0  T
  25   -376.6162143 -0.314289E-02  0.319E-02    0.00       1.0  T
  26   -376.6156388  0.575455E-03  0.409E-02    0.00       1.0  T
  27   -376.6165618 -0.922998E-03  0.251E-02    0.00       1.0  T
  28   -376.6170294 -0.467559E-03  0.129E-02    0.00       1.0  T
  29   -376.6171035 -0.741489E-04  0.887E-03    0.00       1.0  T
  30   -376.6171452 -0.416300E-04  0.568E-03    0.00       1.2  T
  31   -376.6171532 -0.800573E-05  0.474E-03    0.00       1.5  T
  32   -376.6171665 -0.133892E-04  0.290E-03    0.00       2.4  T
  33   -376.6171704 -0.382239E-05  0.195E-03    0.00       3.6  T
  34   -376.6171729 -0.254255E-05  0.105E-03    0.00       6.7  T
  35   -376.6171735 -0.579741E-06  0.642E-04    0.00      11.0  T
  36   -376.6171737 -0.184264E-06  0.428E-04    0.00      16.5  T

   *** convergence criteria satisfied after 36 iterations ***

         #    Occupation            Energy/Eh            Energy/eV
      -------------------------------------------------------------
         1        2.0000           -0.6802832             -18.5114
       ...           ...                  ...                  ...
       346        2.0000           -0.3653753              -9.9424
       347        2.0000           -0.3598555              -9.7922
       348        2.0000           -0.3542679              -9.6401
       349        2.0000           -0.3498670              -9.5204
       350        1.0103           -0.3229474              -8.7878
       351        1.0093           -0.3229455              -8.7878
       352        1.0085           -0.3229439              -8.7878 (HOMO)
       353        0.9845           -0.3228964              -8.7865 (LUMO)
       354        0.9835           -0.3228944              -8.7864
       355        0.0038           -0.3169096              -8.6235
       356        0.0000           -0.3125502              -8.5049
       357        0.0000           -0.3069025              -8.3512
       ...           ...                  ...                  ...
       673                          1.7147332              46.6603
      -------------------------------------------------------------
                  HL-Gap            0.0000475 Eh            0.0013 eV
             Fermi-level           -0.3229271 Eh           -8.7873 eV

 SCC (total)                   0 d,  0 h,  0 min,  4.870 sec
 SCC setup                      ...        0 min,  0.008 sec (  0.154%)
 Dispersion                     ...        0 min,  0.015 sec (  0.318%)
 classical contributions        ...        0 min,  0.001 sec (  0.031%)
 integral evaluation            ...        0 min,  0.129 sec (  2.649%)
 iterations                     ...        0 min,  4.376 sec ( 89.858%)
 molecular gradient             ...        0 min,  0.325 sec (  6.673%)
 printout                       ...        0 min,  0.015 sec (  0.316%)

         :::::::::::::::::::::::::::::::::::::::::::::::::::::
         ::                     SUMMARY                     ::
         :::::::::::::::::::::::::::::::::::::::::::::::::::::
         :: total energy            -369.720567254365 Eh    ::
         :: gradient norm              0.000597917117 Eh/a0 ::
         :: HOMO-LUMO gap              0.001291991446 eV    ::
         ::.................................................::
         :: SCC energy              -376.617173675345 Eh    ::
         :: -> isotropic ES            0.139222710502 Eh    ::
         :: -> anisotropic ES          0.044991837417 Eh    ::
         :: -> anisotropic XC          0.185664525776 Eh    ::
         :: -> dispersion             -0.319926795419 Eh    ::
         :: repulsion energy           6.901752131917 Eh    ::
         :: add. restraining           0.000000000000 Eh    ::
         :: total charge              -0.000000000000 e     ::
         :::::::::::::::::::::::::::::::::::::::::::::::::::::

           -------------------------------------------------
          |                Property Printout                |
           -------------------------------------------------

    * Orbital Energies and Occupations

         #    Occupation            Energy/Eh            Energy/eV
      -------------------------------------------------------------
         1        2.0000           -0.6802832             -18.5114
       ...           ...                  ...                  ...
       340        2.0000           -0.3714676             -10.1081
       341        2.0000           -0.3714585             -10.1079
       342        2.0000           -0.3703564             -10.0779
       343        2.0000           -0.3703043             -10.0765
       344        2.0000           -0.3702879             -10.0760
       345        2.0000           -0.3689521             -10.0397
       346        2.0000           -0.3653753              -9.9424
       347        2.0000           -0.3598555              -9.7922
       348        2.0000           -0.3542679              -9.6401
       349        2.0000           -0.3498670              -9.5204
       350        1.0103           -0.3229474              -8.7878
       351        1.0093           -0.3229455              -8.7878
       352        1.0085           -0.3229439              -8.7878 (HOMO)
       353        0.9845           -0.3228964              -8.7865 (LUMO)
       354        0.9835           -0.3228944              -8.7864
       355        0.0038           -0.3169096              -8.6235
       356        0.0000           -0.3125502              -8.5049
       357        0.0000           -0.3069025              -8.3512
       358                         -0.3014315              -8.2024
       359                         -0.3008569              -8.1867
       360                         -0.3008419              -8.1863
       361                         -0.3005261              -8.1777
       362                         -0.3005151              -8.1774
       363                         -0.3004674              -8.1761
       ...                                ...                  ...
       673                          1.7147332              46.6603
      -------------------------------------------------------------
                  HL-Gap            0.0000475 Eh            0.0013 eV
             Fermi-level           -0.3229271 Eh           -8.7873 eV

     #   Z          covCN         q      C6AA      α(0)
     1  29 Cu       2.957     0.199   146.170    27.530
     2   6 C        3.023    -0.051    29.229     8.868
     3   6 C        3.020    -0.049    29.193     8.863
     4   6 C        3.165     0.079    25.917     8.320
     5   6 C        2.953     0.017    27.636     8.622
     6   6 C        3.165     0.079    25.918     8.320
     7   6 C        3.020    -0.049    29.191     8.863
     8   6 C        3.023    -0.051    29.229     8.868
     9   6 C        3.148     0.077    26.021     8.345
    10   7 N        2.620    -0.172    24.725     7.385
    11   6 C        2.901    -0.050    29.229     8.865
    12   6 C        3.144     0.079    26.008     8.344
    13   6 C        3.019    -0.050    29.206     8.865
    14   6 C        3.020    -0.050    29.210     8.865
    15   6 C        3.144     0.079    25.993     8.342
    16   7 N        2.623    -0.170    24.685     7.379
    17   6 C        2.901    -0.051    29.272     8.871
    18   6 C        3.144     0.079    25.992     8.341
    19   6 C        3.020    -0.050    29.210     8.865
    20   6 C        3.019    -0.050    29.206     8.865
    21   6 C        3.144     0.079    26.007     8.344
    22   7 N        2.623    -0.170    24.685     7.379
    23   6 C        2.901    -0.049    29.228     8.864
    24   6 C        3.148     0.077    26.021     8.345
    25   7 N        2.619    -0.172    24.724     7.385
    26   1 H        0.926     0.035     2.521     2.483
    27   1 H        0.926     0.037     2.493     2.469
    28   1 H        0.926     0.037     2.493     2.469
    29   1 H        0.926     0.035     2.521     2.483
    30   1 H        0.926     0.050     2.318     2.381
    31   1 H        0.926     0.035     2.512     2.479
    32   1 H        0.926     0.035     2.513     2.479
    33   1 H        0.926     0.049     2.327     2.386
    34   1 H        0.926     0.035     2.513     2.479
    35   1 H        0.926     0.035     2.512     2.479
    36   1 H        0.926     0.050     2.318     2.381
    37  29 Cu       2.957     0.198   146.171    27.530
    38   6 C        3.023    -0.051    29.229     8.868
    39   6 C        3.020    -0.049    29.193     8.863
    40   6 C        3.165     0.079    25.917     8.320
    41   6 C        2.953     0.017    27.636     8.622
    42   6 C        3.165     0.079    25.918     8.320
    43   6 C        3.020    -0.049    29.191     8.862
    44   6 C        3.023    -0.051    29.229     8.868
    45   6 C        3.148     0.077    26.021     8.345
    46   7 N        2.620    -0.172    24.725     7.385
    47   6 C        2.901    -0.050    29.229     8.865
    48   6 C        3.144     0.079    26.008     8.344
    49   6 C        3.019    -0.050    29.206     8.865
    50   6 C        3.020    -0.050    29.210     8.865
    51   6 C        3.144     0.079    25.992     8.342
    52   7 N        2.623    -0.170    24.685     7.379
    53   6 C        2.901    -0.051    29.272     8.871
    54   6 C        3.144     0.079    25.992     8.341
    55   6 C        3.020    -0.050    29.210     8.865
    56   6 C        3.019    -0.050    29.206     8.865
    57   6 C        3.144     0.079    26.008     8.344
    58   7 N        2.623    -0.170    24.685     7.379
    59   6 C        2.901    -0.050    29.228     8.865
    60   6 C        3.148     0.077    26.021     8.344
    61   7 N        2.620    -0.172    24.724     7.385
    62   1 H        0.926     0.035     2.521     2.483
    63   1 H        0.926     0.037     2.493     2.469
    64   1 H        0.926     0.037     2.493     2.469
    65   1 H        0.926     0.035     2.521     2.483
    66   1 H        0.926     0.050     2.318     2.381
    67   1 H        0.926     0.035     2.512     2.479
    68   1 H        0.926     0.035     2.513     2.479
    69   1 H        0.926     0.049     2.327     2.386
    70   1 H        0.926     0.035     2.513     2.479
    71   1 H        0.926     0.035     2.512     2.479
    72   1 H        0.926     0.050     2.318     2.381
    73   6 C        1.995    -0.019    31.553     9.072
    74   6 C        1.963    -0.010    31.327     9.039
    75   6 C        1.965    -0.002    31.122     9.009
    76   6 C        1.964    -0.002    31.117     9.008
    77   6 C        1.963    -0.010    31.330     9.039
    78   6 C        1.995    -0.019    31.545     9.070
    79   6 C        1.995    -0.019    31.547     9.071
    80   6 C        1.963    -0.010    31.326     9.039
    81   6 C        1.965    -0.002    31.118     9.009
    82   6 C        1.965    -0.002    31.117     9.008
    83   6 C        1.963    -0.010    31.328     9.039
    84   6 C        1.995    -0.019    31.546     9.070
    85   6 C        1.995    -0.019    31.546     9.070
    86   6 C        1.963    -0.010    31.328     9.039
    87   6 C        1.965    -0.002    31.117     9.008
    88   6 C        1.965    -0.002    31.119     9.009
    89   6 C        1.963    -0.010    31.327     9.039
    90   6 C        1.995    -0.019    31.547     9.071
    91   6 C        1.995    -0.019    31.544     9.070
    92   6 C        1.963    -0.010    31.329     9.039
    93   6 C        1.964    -0.002    31.115     9.008
    94   6 C        1.964    -0.002    31.121     9.009
    95   6 C        1.963    -0.010    31.326     9.039
    96   6 C        1.995    -0.019    31.552     9.071
    97  29 Cu       2.947     0.201   146.137    27.527
    98   6 C        3.023    -0.051    29.229     8.868
    99   6 C        3.020    -0.049    29.200     8.864
   100   6 C        3.166     0.079    25.904     8.317
   101   6 C        2.953     0.017    27.638     8.623
   102   6 C        3.166     0.079    25.904     8.317
   103   6 C        3.020    -0.049    29.200     8.864
   104   6 C        3.023    -0.051    29.229     8.868
   105   6 C        3.149     0.077    26.029     8.345
   106   7 N        2.619    -0.173    24.760     7.390
   107   6 C        2.901    -0.047    29.173     8.856
   108   6 C        3.149     0.077    26.029     8.345
   109   6 C        3.023    -0.051    29.229     8.868
   110   6 C        3.020    -0.049    29.200     8.864
   111   6 C        3.166     0.079    25.903     8.317
   112   7 N        2.619    -0.173    24.759     7.390
   113   6 C        2.953     0.017    27.636     8.622
   114   6 C        3.166     0.079    25.902     8.317
   115   6 C        3.020    -0.049    29.200     8.864
   116   6 C        3.023    -0.051    29.229     8.868
   117   6 C        3.149     0.077    26.028     8.345
   118   7 N        2.619    -0.173    24.759     7.390
   119   6 C        2.901    -0.047    29.173     8.856
   120   6 C        3.149     0.077    26.030     8.345
   121   7 N        2.619    -0.173    24.760     7.390
   122   1 H        0.926     0.034     2.529     2.487
   123   1 H        0.926     0.036     2.504     2.474
   124   1 H        0.926     0.036     2.503     2.474
   125   1 H        0.926     0.034     2.529     2.487
   126   1 H        0.926     0.050     2.316     2.380
   127   1 H        0.926     0.034     2.528     2.486
   128   1 H        0.926     0.036     2.502     2.474
   129   1 H        0.926     0.036     2.502     2.474
   130   1 H        0.926     0.034     2.529     2.487
   131   1 H        0.926     0.050     2.316     2.380
   132  29 Cu       2.947     0.201   146.134    27.526
   133   6 C        3.023    -0.051    29.229     8.868
   134   6 C        3.020    -0.049    29.200     8.864
   135   6 C        3.166     0.079    25.902     8.317
   136   6 C        2.953     0.017    27.638     8.623
   137   6 C        3.166     0.079    25.902     8.317
   138   6 C        3.020    -0.049    29.200     8.864
   139   6 C        3.023    -0.051    29.229     8.868
   140   6 C        3.150     0.077    26.028     8.345
   141   7 N        2.619    -0.173    24.758     7.390
   142   6 C        2.901    -0.047    29.171     8.856
   143   6 C        3.150     0.077    26.028     8.345
   144   6 C        3.023    -0.051    29.229     8.868
   145   6 C        3.020    -0.049    29.200     8.864
   146   6 C        3.166     0.079    25.902     8.317
   147   7 N        2.619    -0.173    24.758     7.390
   148   6 C        2.953     0.017    27.638     8.623
   149   6 C        3.166     0.079    25.902     8.317
   150   6 C        3.020    -0.049    29.200     8.864
   151   6 C        3.023    -0.051    29.229     8.868
   152   6 C        3.150     0.077    26.028     8.345
   153   7 N        2.619    -0.173    24.758     7.390
   154   6 C        2.901    -0.047    29.171     8.856
   155   6 C        3.150     0.077    26.028     8.345
   156   7 N        2.619    -0.173    24.758     7.390
   157   1 H        0.926     0.034     2.528     2.486
   158   1 H        0.926     0.036     2.502     2.474
   159   1 H        0.926     0.036     2.502     2.474
   160   1 H        0.926     0.034     2.528     2.486
   161   1 H        0.926     0.050     2.316     2.380
   162   1 H        0.926     0.034     2.528     2.486
   163   1 H        0.926     0.036     2.502     2.474
   164   1 H        0.926     0.036     2.502     2.474
   165   1 H        0.926     0.034     2.528     2.486
   166   1 H        0.926     0.050     2.316     2.380
   167  29 Cu       2.947     0.201   146.137    27.527
   168   6 C        3.023    -0.051    29.229     8.868
   169   6 C        3.020    -0.049    29.201     8.864
   170   6 C        3.166     0.079    25.902     8.317
   171   6 C        2.953     0.017    27.636     8.622
   172   6 C        3.166     0.079    25.902     8.317
   173   6 C        3.020    -0.049    29.199     8.864
   174   6 C        3.023    -0.051    29.229     8.868
   175   6 C        3.149     0.077    26.028     8.345
   176   7 N        2.619    -0.173    24.759     7.390
   177   6 C        2.901    -0.047    29.173     8.856
   178   6 C        3.149     0.077    26.029     8.345
   179   6 C        3.023    -0.051    29.229     8.868
   180   6 C        3.020    -0.049    29.200     8.864
   181   6 C        3.166     0.079    25.905     8.317
   182   7 N        2.619    -0.173    24.760     7.390
   183   6 C        2.953     0.017    27.638     8.623
   184   6 C        3.166     0.079    25.904     8.317
   185   6 C        3.020    -0.049    29.200     8.864
   186   6 C        3.023    -0.051    29.229     8.868
   187   6 C        3.149     0.077    26.028     8.345
   188   7 N        2.619    -0.173    24.760     7.390
   189   6 C        2.901    -0.047    29.173     8.856
   190   6 C        3.149     0.077    26.028     8.345
   191   7 N        2.619    -0.173    24.759     7.390
   192   1 H        0.926     0.034     2.528     2.486
   193   1 H        0.926     0.036     2.502     2.474
   194   1 H        0.926     0.036     2.502     2.474
   195   1 H        0.926     0.034     2.529     2.487
   196   1 H        0.926     0.050     2.316     2.380
   197   1 H        0.926     0.034     2.529     2.487
   198   1 H        0.926     0.036     2.504     2.474
   199   1 H        0.926     0.036     2.503     2.474
   200   1 H        0.926     0.034     2.529     2.487
   201   1 H        0.926     0.050     2.316     2.380

 Mol. C6AA /au·bohr⁶  :     809936.463517
 Mol. C8AA /au·bohr⁸  :   23345419.783764
 Mol. α(0) /au        :       1493.347871


Wiberg/Mayer (AO) data.
largest (>0.10) Wiberg bond orders for each atom

 ---------------------------------------------------------------------------
     #   Z sym  total        # sym  WBO       # sym  WBO       # sym  WBO
 ---------------------------------------------------------------------------
     1  29 Cu   2.330 --    22 N    0.535    16 N    0.535    10 N    0.533
                            25 N    0.533
     2   6 C    3.946 --     3 C    1.650    24 C    1.167    26 H    0.972
     3   6 C    3.949 --     2 C    1.650     4 C    1.175    27 H    0.971
     4   6 C    3.908 --    25 N    1.288     5 C    1.248     3 C    1.175
     5   6 C    3.942 --     6 C    1.249     4 C    1.248    73 C    1.188
     6   6 C    3.908 --    10 N    1.288     5 C    1.249     7 C    1.175
     7   6 C    3.949 --     8 C    1.650     6 C    1.175    28 H    0.971
     8   6 C    3.946 --     7 C    1.650     9 C    1.167    29 H    0.972
     9   6 C    3.921 --    11 C    1.355    10 N    1.249     8 C    1.167
    10   7 N    3.382 --     6 C    1.288     9 C    1.249     1 Cu   0.533
    11   6 C    3.932 --     9 C    1.355    12 C    1.352    30 H    0.964
    12   6 C    3.927 --    11 C    1.352    16 N    1.263    13 C    1.158
    13   6 C    3.950 --    14 C    1.666    12 C    1.158    31 H    0.972
    14   6 C    3.947 --    13 C    1.666    15 C    1.158    32 H    0.972
    15   6 C    3.929 --    17 C    1.352    16 N    1.265    14 C    1.158
    16   7 N    3.377 --    15 C    1.265    12 C    1.263     1 Cu   0.535
    17   6 C    3.926 --    18 C    1.352    15 C    1.352    33 H    0.964
    18   6 C    3.929 --    17 C    1.352    22 N    1.265    19 C    1.158
    19   6 C    3.947 --    20 C    1.666    18 C    1.158    34 H    0.972
    20   6 C    3.950 --    19 C    1.666    21 C    1.158    35 H    0.972
    21   6 C    3.927 --    23 C    1.352    22 N    1.263    20 C    1.158
    22   7 N    3.377 --    18 C    1.265    21 C    1.263     1 Cu   0.535
    23   6 C    3.932 --    24 C    1.355    21 C    1.352    36 H    0.964
    24   6 C    3.921 --    23 C    1.355    25 N    1.249     2 C    1.167
    25   7 N    3.382 --     4 C    1.288    24 C    1.249     1 Cu   0.533
    26   1 H    0.998 --     2 C    0.972
    27   1 H    0.998 --     3 C    0.971
    28   1 H    0.998 --     7 C    0.971
    29   1 H    0.998 --     8 C    0.972
    30   1 H    0.996 --    11 C    0.964
    31   1 H    0.998 --    13 C    0.972
    32   1 H    0.998 --    14 C    0.972
    33   1 H    0.996 --    17 C    0.964
    34   1 H    0.998 --    19 C    0.972
    35   1 H    0.998 --    20 C    0.972
    36   1 H    0.996 --    23 C    0.964
    37  29 Cu   2.331 --    52 N    0.535    58 N    0.535    46 N    0.533
                            61 N    0.533
    38   6 C    3.946 --    39 C    1.650    60 C    1.167    62 H    0.972
    39   6 C    3.949 --    38 C    1.650    40 C    1.175    63 H    0.971
    40   6 C    3.908 --    61 N    1.288    41 C    1.248    39 C    1.175
    41   6 C    3.942 --    42 C    1.249    40 C    1.248    96 C    1.188
    42   6 C    3.908 --    46 N    1.288    41 C    1.249    43 C    1.175
    43   6 C    3.949 --    44 C    1.650    42 C    1.175    64 H    0.971
    44   6 C    3.946 --    43 C    1.650    45 C    1.167    65 H    0.972
    45   6 C    3.921 --    47 C    1.355    46 N    1.249    44 C    1.167
    46   7 N    3.382 --    42 C    1.288    45 C    1.249    37 Cu   0.533
    47   6 C    3.932 --    45 C    1.355    48 C    1.352    66 H    0.964
    48   6 C    3.927 --    47 C    1.352    52 N    1.263    49 C    1.158
    49   6 C    3.950 --    50 C    1.666    48 C    1.158    67 H    0.972
    50   6 C    3.947 --    49 C    1.666    51 C    1.158    68 H    0.972
    51   6 C    3.929 --    53 C    1.352    52 N    1.265    50 C    1.158
    52   7 N    3.377 --    51 C    1.265    48 C    1.263    37 Cu   0.535
    53   6 C    3.926 --    51 C    1.352    54 C    1.352    69 H    0.964
    54   6 C    3.929 --    53 C    1.352    58 N    1.265    55 C    1.158
    55   6 C    3.947 --    56 C    1.666    54 C    1.158    70 H    0.972
    56   6 C    3.950 --    55 C    1.666    57 C    1.158    71 H    0.972
    57   6 C    3.927 --    59 C    1.352    58 N    1.263    56 C    1.158
    58   7 N    3.377 --    54 C    1.265    57 C    1.263    37 Cu   0.535
    59   6 C    3.932 --    60 C    1.355    57 C    1.352    72 H    0.964
    60   6 C    3.921 --    59 C    1.355    61 N    1.249    38 C    1.167
    61   7 N    3.382 --    40 C    1.288    60 C    1.249    37 Cu   0.533
    62   1 H    0.998 --    38 C    0.972
    63   1 H    0.998 --    39 C    0.971
    64   1 H    0.998 --    43 C    0.971
    65   1 H    0.998 --    44 C    0.972
    66   1 H    0.996 --    47 C    0.964
    67   1 H    0.998 --    49 C    0.972
    68   1 H    0.998 --    50 C    0.972
    69   1 H    0.996 --    53 C    0.964
    70   1 H    0.998 --    55 C    0.972
    71   1 H    0.998 --    56 C    0.972
    72   1 H    0.996 --    59 C    0.964
    73   6 C    3.883 --    74 C    2.442     5 C    1.188    76 C    0.193
    74   6 C    3.927 --    73 C    2.442    75 C    1.333
    75   6 C    3.918 --    76 C    2.356    74 C    1.333    78 C    0.192
    76   6 C    3.919 --    75 C    2.356    77 C    1.334    73 C    0.193
    77   6 C    3.924 --    78 C    2.439    76 C    1.334
    78   6 C    3.884 --    77 C    2.439   101 C    1.191    75 C    0.192
    79   6 C    3.882 --    80 C    2.436   113 C    1.192    82 C    0.192
    80   6 C    3.923 --    79 C    2.436    81 C    1.336
    81   6 C    3.917 --    82 C    2.352    80 C    1.336    84 C    0.192
    82   6 C    3.917 --    81 C    2.352    83 C    1.336    79 C    0.192
    83   6 C    3.923 --    84 C    2.436    82 C    1.336
    84   6 C    3.882 --    83 C    2.436   136 C    1.192    81 C    0.192
    85   6 C    3.882 --    86 C    2.436   148 C    1.192    88 C    0.192
    86   6 C    3.923 --    85 C    2.436    87 C    1.336
    87   6 C    3.918 --    88 C    2.352    86 C    1.336    90 C    0.192
    88   6 C    3.917 --    87 C    2.352    89 C    1.336    85 C    0.192
    89   6 C    3.923 --    90 C    2.436    88 C    1.336
    90   6 C    3.882 --    89 C    2.436   171 C    1.192    87 C    0.192
    91   6 C    3.883 --    92 C    2.439   183 C    1.191    94 C    0.192
    92   6 C    3.924 --    91 C    2.439    93 C    1.333
    93   6 C    3.919 --    94 C    2.356    92 C    1.333    96 C    0.193
    94   6 C    3.918 --    93 C    2.356    95 C    1.332    91 C    0.192
    95   6 C    3.927 --    96 C    2.442    94 C    1.332
    96   6 C    3.883 --    95 C    2.442    41 C    1.188    93 C    0.193
    97  29 Cu   2.301 --   118 N    0.528   112 N    0.528   106 N    0.528
                           121 N    0.528
    98   6 C    3.947 --    99 C    1.649   120 C    1.168   122 H    0.972
    99   6 C    3.948 --    98 C    1.649   100 C    1.176   123 H    0.971
   100   6 C    3.908 --   121 N    1.291   101 C    1.245    99 C    1.176
   101   6 C    3.930 --   102 C    1.245   100 C    1.245    78 C    1.191
   102   6 C    3.908 --   106 N    1.291   101 C    1.245   103 C    1.176
   103   6 C    3.948 --   104 C    1.649   102 C    1.176   124 H    0.971
   104   6 C    3.947 --   103 C    1.649   105 C    1.168   125 H    0.972
   105   6 C    3.920 --   107 C    1.354   106 N    1.248   104 C    1.168
   106   7 N    3.372 --   102 C    1.291   105 C    1.248    97 Cu   0.528
   107   6 C    3.926 --   105 C    1.354   108 C    1.354   126 H    0.964
   108   6 C    3.920 --   107 C    1.354   112 N    1.248   109 C    1.168
   109   6 C    3.947 --   110 C    1.649   108 C    1.168   127 H    0.972
   110   6 C    3.948 --   109 C    1.649   111 C    1.176   128 H    0.971
   111   6 C    3.908 --   112 N    1.291   113 C    1.245   110 C    1.176
   112   7 N    3.372 --   111 C    1.291   108 C    1.248    97 Cu   0.528
   113   6 C    3.930 --   114 C    1.245   111 C    1.245    79 C    1.192
   114   6 C    3.908 --   118 N    1.291   113 C    1.245   115 C    1.176
   115   6 C    3.948 --   116 C    1.649   114 C    1.176   129 H    0.971
   116   6 C    3.947 --   115 C    1.649   117 C    1.168   130 H    0.972
   117   6 C    3.920 --   119 C    1.354   118 N    1.248   116 C    1.168
   118   7 N    3.372 --   114 C    1.291   117 C    1.248    97 Cu   0.528
   119   6 C    3.926 --   120 C    1.354   117 C    1.354   131 H    0.964
   120   6 C    3.920 --   119 C    1.354   121 N    1.248    98 C    1.168
   121   7 N    3.372 --   100 C    1.291   120 C    1.248    97 Cu   0.528
   122   1 H    0.998 --    98 C    0.972
   123   1 H    0.998 --    99 C    0.971
   124   1 H    0.998 --   103 C    0.971
   125   1 H    0.998 --   104 C    0.972
   126   1 H    0.996 --   107 C    0.964
   127   1 H    0.998 --   109 C    0.972
   128   1 H    0.998 --   110 C    0.971
   129   1 H    0.998 --   115 C    0.971
   130   1 H    0.998 --   116 C    0.972
   131   1 H    0.996 --   119 C    0.964
   132  29 Cu   2.302 --   141 N    0.528   153 N    0.528   156 N    0.528
                           147 N    0.528
   133   6 C    3.947 --   134 C    1.649   155 C    1.168   157 H    0.972
   134   6 C    3.948 --   133 C    1.649   135 C    1.176   158 H    0.971
   135   6 C    3.908 --   156 N    1.292   136 C    1.245   134 C    1.176
   136   6 C    3.929 --   137 C    1.245   135 C    1.245    84 C    1.192
   137   6 C    3.908 --   141 N    1.291   136 C    1.245   138 C    1.176
   138   6 C    3.948 --   139 C    1.649   137 C    1.176   159 H    0.971
   139   6 C    3.947 --   138 C    1.649   140 C    1.168   160 H    0.972
   140   6 C    3.920 --   142 C    1.354   141 N    1.248   139 C    1.168
   141   7 N    3.372 --   137 C    1.291   140 C    1.248   132 Cu   0.528
   142   6 C    3.925 --   143 C    1.354   140 C    1.354   161 H    0.964
   143   6 C    3.920 --   142 C    1.354   147 N    1.248   144 C    1.168
   144   6 C    3.947 --   145 C    1.649   143 C    1.168   162 H    0.972
   145   6 C    3.948 --   144 C    1.649   146 C    1.176   163 H    0.971
   146   6 C    3.908 --   147 N    1.292   148 C    1.245   145 C    1.176
   147   7 N    3.372 --   146 C    1.292   143 C    1.248   132 Cu   0.528
   148   6 C    3.929 --   149 C    1.245   146 C    1.245    85 C    1.192
   149   6 C    3.908 --   153 N    1.292   148 C    1.245   150 C    1.176
   150   6 C    3.948 --   151 C    1.649   149 C    1.176   164 H    0.971
   151   6 C    3.947 --   150 C    1.649   152 C    1.168   165 H    0.972
   152   6 C    3.920 --   154 C    1.354   153 N    1.248   151 C    1.168
   153   7 N    3.372 --   149 C    1.292   152 C    1.248   132 Cu   0.528
   154   6 C    3.925 --   155 C    1.354   152 C    1.354   166 H    0.964
   155   6 C    3.920 --   154 C    1.354   156 N    1.248   133 C    1.168
   156   7 N    3.372 --   135 C    1.292   155 C    1.248   132 Cu   0.528
   157   1 H    0.998 --   133 C    0.972
   158   1 H    0.998 --   134 C    0.971
   159   1 H    0.998 --   138 C    0.971
   160   1 H    0.998 --   139 C    0.972
   161   1 H    0.996 --   142 C    0.964
   162   1 H    0.998 --   144 C    0.972
   163   1 H    0.998 --   145 C    0.971
   164   1 H    0.998 --   150 C    0.971
   165   1 H    0.998 --   151 C    0.972
   166   1 H    0.996 --   154 C    0.964
   167  29 Cu   2.302 --   176 N    0.528   191 N    0.528   182 N    0.528
                           188 N    0.528
   168   6 C    3.947 --   169 C    1.649   190 C    1.168   192 H    0.972
   169   6 C    3.948 --   168 C    1.649   170 C    1.176   193 H    0.971
   170   6 C    3.908 --   191 N    1.291   171 C    1.245   169 C    1.176
   171   6 C    3.930 --   172 C    1.245   170 C    1.245    90 C    1.192
   172   6 C    3.908 --   176 N    1.291   171 C    1.245   173 C    1.176
   173   6 C    3.948 --   174 C    1.649   172 C    1.176   194 H    0.971
   174   6 C    3.947 --   173 C    1.649   175 C    1.168   195 H    0.972
   175   6 C    3.920 --   177 C    1.354   176 N    1.248   174 C    1.168
   176   7 N    3.372 --   172 C    1.291   175 C    1.248   167 Cu   0.528
   177   6 C    3.926 --   178 C    1.354   175 C    1.354   196 H    0.964
   178   6 C    3.920 --   177 C    1.354   182 N    1.248   179 C    1.168
   179   6 C    3.947 --   180 C    1.649   178 C    1.168   197 H    0.972
   180   6 C    3.948 --   179 C    1.649   181 C    1.176   198 H    0.971
   181   6 C    3.909 --   182 N    1.291   183 C    1.246   180 C    1.176
   182   7 N    3.372 --   181 C    1.291   178 C    1.248   167 Cu   0.528
   183   6 C    3.930 --   181 C    1.246   184 C    1.246    91 C    1.191
   184   6 C    3.909 --   188 N    1.291   183 C    1.246   185 C    1.176
   185   6 C    3.948 --   186 C    1.649   184 C    1.176   199 H    0.971
   186   6 C    3.947 --   185 C    1.649   187 C    1.168   200 H    0.972
   187   6 C    3.920 --   189 C    1.354   188 N    1.248   186 C    1.168
   188   7 N    3.372 --   184 C    1.291   187 C    1.248   167 Cu   0.528
   189   6 C    3.926 --   187 C    1.354   190 C    1.354   201 H    0.964
   190   6 C    3.920 --   189 C    1.354   191 N    1.248   168 C    1.168
   191   7 N    3.372 --   170 C    1.291   190 C    1.248   167 Cu   0.528
   192   1 H    0.998 --   168 C    0.972
   193   1 H    0.998 --   169 C    0.971
   194   1 H    0.998 --   173 C    0.971
   195   1 H    0.998 --   174 C    0.972
   196   1 H    0.996 --   177 C    0.964
   197   1 H    0.998 --   179 C    0.972
   198   1 H    0.998 --   180 C    0.971
   199   1 H    0.998 --   185 C    0.971
   200   1 H    0.998 --   186 C    0.972
   201   1 H    0.996 --   189 C    0.964
 ---------------------------------------------------------------------------

Topologies differ in total number of bonds
Writing topology from bond orders to xtbtopo.mol

molecular dipole:
                 x           y           z       tot (Debye)
 q only:        0.013      -0.001      -0.003
   full:        0.013      -0.002      -0.005       0.035
molecular quadrupole (traceless):
                xx          xy          yy          xz          yz          zz
 q only:      152.908       0.475     -43.698      -0.259      -2.160    -109.210
  q+dip:      234.220       0.720     -37.548      -0.540      -5.434    -196.671
   full:      185.512       0.719     -46.649      -0.518      -3.153    -138.863


           -------------------------------------------------
          | TOTAL ENERGY             -369.720567254365 Eh   |
          | GRADIENT NORM               0.000597917117 Eh/α |
          | HOMO-LUMO GAP               0.001291991446 eV   |
           -------------------------------------------------

------------------------------------------------------------------------
 * finished run on 2021/11/21 at 19:12:31.370     
------------------------------------------------------------------------
 total:
 * wall-time:     0 d,  0 h,  0 min,  4.980 sec
 *  cpu-time:     0 d,  0 h,  0 min,  4.980 sec
 * ratio c/w:     1.000 speedup
 SCF:
 * wall-time:     0 d,  0 h,  0 min,  4.873 sec
 *  cpu-time:     0 d,  0 h,  0 min,  4.873 sec
 * ratio c/w:     1.000 speedup

