 Entering Gaussian System
 *********************************************
 Gaussian 98:
 frequency output generated by the xtb code
 *********************************************
                         Standard orientation:
 --------------------------------------------------------------------
  Center     Atomic     Atomic              Coordinates (Angstroms)
  Number     Number      Type              X           Y           Z
 --------------------------------------------------------------------
    1          6             0       28.948242    3.410067    0.280544
    2          6             0       29.906042    2.463912    0.229701
    3          6             0       29.208017    1.196527    0.108062
    4          6             0       29.871196   -0.044808    0.028320
    5          6             0       29.219210   -1.284404   -0.081228
    6          6             0       29.819052   -2.569580   -0.161145
    7          6             0       28.812274   -3.486367   -0.259076
    8          6             0       27.576185   -2.780744   -0.242364
    9          7             0       27.874811   -1.456458   -0.132553
   10          6             0       26.307809   -3.335788   -0.326451
   11          6             0       25.091183   -2.667580   -0.320158
   12          6             0       23.814470   -3.360071   -0.421432
   13          6             0       22.865604   -2.406308   -0.386511
   14          6             0       23.569828   -1.139457   -0.262761
   15          7             0       24.905040   -1.334796   -0.226281
   16          6             0       22.924327    0.088610   -0.191751
   17          6             0       23.551209    1.319129   -0.069593
   18          6             0       22.949719    2.607521    0.012598
   19          6             0       23.952390    3.524691    0.124875
   20          6             0       25.192135    2.820984    0.113300
   21          7             0       24.897445    1.499773   -0.004913
   22          6             0       26.460664    3.374850    0.202378
   23          6             0       27.677970    2.710535    0.187335
   24          7             0       27.876832    1.374211    0.085355
   25          1             0       29.053814    4.474176    0.369928
   26          1             0       30.972445    2.574512    0.268745
   27          1             0       30.875780   -2.753087   -0.144766
   28          1             0       28.906125   -4.552026   -0.337017
   29          1             0       27.206438   -0.695434   -0.094977
   30          1             0       26.265200   -4.413107   -0.409145
   31          1             0       23.702904   -4.424152   -0.506096
   32          1             0       21.798494   -2.509310   -0.436062
   33          1             0       21.844734    0.084621   -0.233606
   34          1             0       21.893364    2.792489   -0.011727
   35          1             0       23.857134    4.590025    0.208138
   36          1             0       25.564129    0.737986   -0.041899
   37          1             0       26.504723    4.451692    0.291554
   38          6             0       88.400652   -3.394249    0.470183
   39          6             0       87.442941   -2.447807    0.422385
   40          6             0       88.139150   -1.184431    0.256997
   41          6             0       87.475209    0.055796    0.165558
   42          6             0       88.125593    1.293407    0.027505
   43          6             0       87.524570    2.578136   -0.050756
   44          6             0       88.529271    3.493721   -0.177430
   45          6             0       89.765064    2.787487   -0.182634
   46          7             0       89.468597    1.464399   -0.053845
   47          6             0       91.031383    3.339911   -0.305921
   48          6             0       92.246183    2.668862   -0.331918
   49          6             0       93.520444    3.356762   -0.483196
   50          6             0       94.467344    2.400478   -0.473543
   51          6             0       93.764575    1.136859   -0.313343
   52          7             0       92.431984    1.336447   -0.232277
   53          6             0       94.409331   -0.092103   -0.251809
   54          6             0       93.785192   -1.319541   -0.090925
   55          6             0       94.387735   -2.607622   -0.011156
   56          6             0       93.388913   -3.521224    0.152629
   57          6             0       92.150395   -2.815667    0.175241
   58          7             0       92.442013   -1.496984    0.025391
   59          6             0       90.885044   -3.365546    0.318173
   60          6             0       89.668867   -2.699071    0.328765
   61          7             0       89.469134   -1.364663    0.205462
   62          1             0       88.296138   -4.455983    0.585340
   63          1             0       86.377731   -2.555840    0.490628
   64          1             0       86.468501    2.762253   -0.012749
   65          1             0       88.434078    4.558773   -0.261644
   66          1             0       90.138082    0.704037   -0.024521
   67          1             0       91.073447    4.416394   -0.398971
   68          1             0       93.631784    4.419702   -0.581363
   69          1             0       95.532318    2.499819   -0.561592
   70          1             0       95.486726   -0.091326   -0.332628
   71          1             0       95.442260   -2.794771   -0.071653
   72          1             0       93.486017   -4.585296    0.248866
   73          1             0       91.774593   -0.735380    0.001044
   74          1             0       90.842482   -4.440475    0.428377
   75          6             0       31.266805   -0.048493    0.054972
   76          6             0       32.487209   -0.042045    0.070166
   77          6             0       33.822694   -0.032617    0.079431
   78          6             0       35.047544   -0.016992    0.081115
   79          6             0       36.382804   -0.003100    0.076159
   80          6             0       37.603458    0.012053    0.066582
   81          6             0       47.426394   -0.024138   -0.018216
   82          6             0       48.647262   -0.009483   -0.017695
   83          6             0       49.982018    0.004701   -0.016301
   84          6             0       51.207160    0.019208   -0.011877
   85          6             0       52.541909    0.031584   -0.008422
   86          6             0       53.762832    0.042488   -0.003918
   87          6             0       63.588418   -0.026747   -0.011463
   88          6             0       64.809363   -0.016418   -0.014436
   89          6             0       66.144069   -0.004373   -0.015895
   90          6             0       67.369144    0.010076   -0.015220
   91          6             0       68.703858    0.023996   -0.011882
   92          6             0       69.924800    0.037650   -0.004349
   93          6             0       79.743894    0.003667    0.170377
   94          6             0       80.964340    0.018120    0.196211
   95          6             0       82.299371    0.031885    0.214090
   96          6             0       83.524206    0.045559    0.225025
   97          6             0       84.859610    0.054533    0.220738
   98          6             0       86.080060    0.059912    0.205345
   99          6             0       39.984620   -3.400377    0.462391
  100          6             0       39.007788   -2.477913    0.359658
  101          6             0       39.680453   -1.203051    0.193101
  102          6             0       38.997795    0.022095    0.050226
  103          6             0       39.644291    1.259589   -0.112814
  104          6             0       39.047506    2.537745   -0.267757
  105          6             0       40.058812    3.446431   -0.400193
  106          6             0       41.292560    2.741507   -0.328170
  107          7             0       40.989743    1.425628   -0.153754
  108          6             0       42.560603    3.299527   -0.419482
  109          6             0       43.788803    2.662166   -0.350591
  110          6             0       45.045722    3.383817   -0.457117
  111          6             0       46.022563    2.462782   -0.342412
  112          6             0       45.349672    1.188823   -0.169317
  113          7             0       44.014919    1.337070   -0.178382
  114          6             0       46.032443   -0.035147   -0.014520
  115          6             0       45.385671   -1.272959    0.144867
  116          6             0       45.982831   -2.551006    0.300315
  117          6             0       44.971723   -3.461493    0.420429
  118          6             0       43.737635   -2.757671    0.341722
  119          7             0       44.040346   -1.440648    0.174635
  120          6             0       42.469615   -3.316579    0.423379
  121          6             0       41.241421   -2.678324    0.357588
  122          7             0       41.015498   -1.352199    0.195461
  123          1             0       39.899953   -4.461723    0.595764
  124          1             0       37.943436   -2.609426    0.388844
  125          1             0       37.991167    2.723557   -0.275500
  126          1             0       39.968167    4.506661   -0.535283
  127          1             0       41.643434    0.655155   -0.065420
  128          1             0       42.590345    4.371595   -0.560665
  129          1             0       45.130778    4.444117   -0.598363
  130          1             0       47.086974    2.594623   -0.368213
  131          1             0       47.039328   -2.735477    0.315749
  132          1             0       45.062548   -4.522161    0.551867
  133          1             0       43.386025   -0.671078    0.083706
  134          1             0       42.439215   -4.389556    0.557323
  135          6             0       56.130001   -3.375823    0.427732
  136          6             0       55.156694   -2.451100    0.312702
  137          6             0       55.834462   -1.178236    0.151317
  138          6             0       55.156758    0.048700   -0.002108
  139          6             0       55.809336    1.284415   -0.154591
  140          6             0       55.218849    2.565300   -0.311253
  141          6             0       56.234965    3.471383   -0.423046
  142          6             0       57.465238    2.761927   -0.337366
  143          7             0       57.155615    1.445979   -0.175358
  144          6             0       58.735990    3.316653   -0.407430
  145          6             0       59.961615    2.675053   -0.331809
  146          6             0       61.221386    3.393895   -0.422543
  147          6             0       62.194687    2.468583   -0.312285
  148          6             0       61.516868    1.195176   -0.155459
  149          7             0       60.182549    1.347804   -0.170544
  150          6             0       62.194520   -0.032444   -0.007418
  151          6             0       61.541969   -1.267976    0.146687
  152          6             0       62.132490   -2.548951    0.302460
  153          6             0       61.116406   -3.454511    0.418833
  154          6             0       59.886137   -2.744696    0.336388
  155          7             0       60.195707   -1.429037    0.171967
  156          6             0       58.615367   -3.298898    0.410474
  157          6             0       57.389760   -2.657290    0.334503
  158          7             0       57.168793   -1.330656    0.168368
  159          1             0       56.040806   -4.436711    0.561828
  160          1             0       54.091741   -2.579628    0.330959
  161          1             0       54.163293    2.754374   -0.333339
  162          1             0       56.149877    4.532703   -0.552972
  163          1             0       57.804783    0.672237   -0.081857
  164          1             0       58.770775    4.389830   -0.538771
  165          1             0       61.310577    4.455361   -0.552048
  166          1             0       63.259657    2.597134   -0.330426
  167          1             0       63.188041   -2.738400    0.321178
  168          1             0       61.201551   -4.515718    0.549643
  169          1             0       59.546511   -0.655148    0.080057
  170          1             0       58.580528   -4.371749    0.544436
  171          6             0       72.293081   -3.374471    0.459650
  172          6             0       71.319750   -2.451879    0.328968
  173          6             0       71.997304   -1.177916    0.174806
  174          6             0       71.318735    0.046749    0.007511
  175          6             0       71.969020    1.283063   -0.148880
  176          6             0       71.375425    2.559498   -0.329425
  177          6             0       72.388921    3.468567   -0.439726
  178          6             0       73.620970    2.765735   -0.327738
  179          7             0       73.314663    1.450455   -0.153634
  180          6             0       74.890673    3.324036   -0.383472
  181          6             0       76.116402    2.687337   -0.272486
  182          6             0       77.375689    3.409175   -0.343589
  183          6             0       78.348891    2.489110   -0.195077
  184          6             0       77.671575    1.215578   -0.037047
  185          7             0       76.337383    1.363385   -0.086949
  186          6             0       78.349906   -0.007480    0.140501
  187          6             0       77.699908   -1.245470    0.285115
  188          6             0       78.293306   -2.522730    0.458896
  189          6             0       77.279784   -3.433870    0.552124
  190          6             0       76.048058   -2.731101    0.438160
  191          7             0       76.354193   -1.414140    0.278110
  192          6             0       74.778401   -3.290909    0.485718
  193          6             0       73.552553   -2.653317    0.384958
  194          7             0       73.331409   -1.327492    0.211879
  195          1             0       72.204082   -4.435281    0.594415
  196          1             0       70.254941   -2.582879    0.331321
  197          1             0       70.319483    2.743805   -0.367864
  198          1             0       72.300916    4.527730   -0.584556
  199          1             0       73.967511    0.682375   -0.042261
  200          1             0       74.924804    4.395265   -0.529900
  201          1             0       77.464390    4.468900   -0.486955
  202          1             0       79.413543    2.621304   -0.188942
  203          1             0       79.349090   -2.706422    0.503931
  204          1             0       77.367667   -4.494297    0.687393
  205          1             0       75.701969   -0.645528    0.166467
  206          1             0       74.745060   -4.363616    0.621058
 --------------------------------------------------------------------
     1 basis functions        1 primitive gaussians
     1 alpha electrons        1 beta electrons

 Harmonic frequencies (cm**-1), IR intensities (km*mol⁻¹),
 Raman scattering activities (A**4/amu), Raman depolarization ratios,
 reduced masses (AMU), force constants (mDyne/A) and normal coordinates:
                      1                      2                      3
                        a                      a                      a 
 Frequencies --    -2.7979                -1.0977                -1.0270
 Red. masses --    11.9053                11.8940                11.8667
 Frc consts  --     0.0000                 0.0000                 0.0000
 IR Inten    --     7.3526                17.3893                 0.4722
 Raman Activ --     0.0000                 0.0000                 0.0000
 Depolar     --     0.0000                 0.0000                 0.0000
 Atom AN      X      Y      Z        X      Y      Z        X      Y      Z
   1   6     0.00   0.01   0.06     0.00  -0.02   0.03     0.03   0.07   0.00
   2   6     0.00   0.01   0.05     0.00  -0.02   0.02     0.02   0.06   0.00
   3   6     0.00   0.01   0.06    -0.00  -0.02   0.03     0.01   0.07   0.00
   4   6     0.00   0.01   0.07    -0.00  -0.02   0.03    -0.00   0.06   0.00
   5   6    -0.00   0.01   0.08    -0.00  -0.02   0.04    -0.01   0.07   0.01
   6   6    -0.00   0.01   0.08     0.00  -0.02   0.04    -0.02   0.06   0.01
   7   6    -0.00   0.01   0.09    -0.00  -0.02   0.06    -0.03   0.07   0.01
   8   6    -0.00   0.01   0.09    -0.00  -0.02   0.07    -0.03   0.08   0.02
   9   7    -0.00   0.01   0.09    -0.00  -0.02   0.07    -0.02   0.09   0.01
  10   6    -0.00   0.01   0.11    -0.00  -0.02   0.09    -0.03   0.10   0.02
  11   6    -0.00   0.01   0.11    -0.00  -0.03   0.11    -0.03   0.11   0.02
  12   6    -0.00   0.01   0.12    -0.00  -0.03   0.13    -0.03   0.12   0.03
  13   6    -0.00   0.01   0.13    -0.00  -0.03   0.14    -0.02   0.13   0.03
  14   6    -0.00   0.01   0.11    -0.00  -0.03   0.12    -0.01   0.12   0.03
  15   7    -0.00   0.01   0.12    -0.00  -0.03   0.11    -0.01   0.12   0.02
  16   6    -0.00   0.01   0.11    -0.00  -0.03   0.13     0.00   0.13   0.03
  17   6     0.00   0.01   0.10    -0.00  -0.03   0.11     0.01   0.12   0.02
  18   6     0.00   0.01   0.10    -0.00  -0.03   0.11     0.02   0.13   0.02
  19   6     0.00   0.01   0.09    -0.00  -0.02   0.10     0.03   0.12   0.02
  20   6     0.00   0.01   0.08    -0.00  -0.02   0.08     0.03   0.11   0.02
  21   7     0.00   0.01   0.10    -0.00  -0.03   0.10     0.01   0.12   0.02
  22   6     0.00   0.01   0.07    -0.00  -0.02   0.06     0.03   0.10   0.01
  23   6     0.00   0.01   0.07    -0.00  -0.02   0.05     0.03   0.08   0.01
  24   7     0.00   0.01   0.08    -0.00  -0.02   0.06     0.01   0.09   0.01
  25   1     0.00   0.00   0.01     0.00  -0.01   0.01     0.01   0.02   0.00
  26   1     0.00   0.00   0.01     0.00  -0.01   0.00     0.01   0.02  -0.00
  27   1    -0.00   0.00   0.02     0.00  -0.01   0.01    -0.01   0.02   0.00
  28   1    -0.00   0.00   0.03    -0.00  -0.01   0.02    -0.01   0.02   0.00
  29   1    -0.00   0.00   0.03    -0.00  -0.01   0.02    -0.00   0.03   0.00
  30   1    -0.00   0.00   0.03    -0.00  -0.01   0.03    -0.01   0.03   0.01
  31   1    -0.00   0.00   0.04    -0.00  -0.01   0.04    -0.01   0.03   0.01
  32   1    -0.00   0.00   0.04    -0.00  -0.01   0.04    -0.01   0.04   0.01
  33   1    -0.00   0.00   0.03    -0.00  -0.01   0.04    -0.00   0.04   0.01
  34   1     0.00   0.00   0.03    -0.00  -0.01   0.04     0.01   0.04   0.01
  35   1     0.00   0.00   0.02    -0.00  -0.01   0.03     0.01   0.03   0.00
  36   1     0.00   0.00   0.03    -0.00  -0.01   0.03     0.00   0.03   0.01
  37   1     0.00   0.00   0.02    -0.00  -0.01   0.02     0.01   0.03   0.00
  38   6    -0.00   0.01   0.06    -0.01  -0.03  -0.00     0.03   0.07  -0.00
  39   6    -0.00   0.01   0.06    -0.01  -0.02   0.00     0.02   0.06  -0.00
  40   6    -0.00   0.01   0.07    -0.00  -0.03  -0.01     0.01   0.07  -0.01
  41   6    -0.00   0.01   0.07     0.00  -0.02  -0.00     0.00   0.06  -0.01
  42   6    -0.00   0.01   0.09     0.01  -0.03  -0.01    -0.01   0.07  -0.02
  43   6    -0.00   0.01   0.09     0.01  -0.02  -0.01    -0.02   0.06  -0.02
  44   6    -0.00   0.01   0.11     0.02  -0.03  -0.02    -0.03   0.07  -0.03
  45   6    -0.00   0.01   0.12     0.01  -0.04  -0.03    -0.02   0.08  -0.03
  46   7    -0.00   0.01   0.11     0.01  -0.04  -0.03    -0.01   0.08  -0.03
  47   6    -0.00   0.02   0.13     0.01  -0.05  -0.05    -0.03   0.09  -0.04
  48   6     0.00   0.02   0.14     0.01  -0.05  -0.06    -0.02   0.10  -0.04
  49   6     0.00   0.02   0.16     0.01  -0.06  -0.07    -0.03   0.10  -0.05
  50   6     0.00   0.02   0.16     0.01  -0.06  -0.08    -0.02   0.11  -0.05
  51   6     0.00   0.02   0.15     0.00  -0.06  -0.07    -0.01   0.11  -0.05
  52   7     0.00   0.02   0.15     0.00  -0.06  -0.06    -0.01   0.10  -0.04
  53   6     0.00   0.02   0.14    -0.00  -0.06  -0.07    -0.00   0.11  -0.05
  54   6     0.00   0.02   0.13    -0.01  -0.06  -0.06     0.01   0.11  -0.04
  55   6     0.00   0.02   0.12    -0.01  -0.06  -0.06     0.02   0.11  -0.04
  56   6     0.00   0.01   0.11    -0.02  -0.06  -0.05     0.03   0.11  -0.03
  57   6     0.00   0.01   0.10    -0.01  -0.05  -0.04     0.02   0.10  -0.03
  58   7     0.00   0.02   0.13    -0.01  -0.06  -0.05     0.01   0.11  -0.03
  59   6     0.00   0.01   0.09    -0.02  -0.04  -0.03     0.03   0.09  -0.02
  60   6    -0.00   0.01   0.08    -0.01  -0.04  -0.02     0.02   0.08  -0.01
  61   7    -0.00   0.01   0.09    -0.01  -0.04  -0.02     0.01   0.08  -0.02
  62   1    -0.00   0.00   0.02    -0.01  -0.01   0.00     0.01   0.02  -0.00
  63   1    -0.00   0.00   0.01    -0.00  -0.00   0.00     0.01   0.02   0.00
  64   1    -0.00   0.00   0.02     0.00  -0.01   0.00    -0.01   0.02  -0.00
  65   1    -0.00   0.00   0.03     0.01  -0.01  -0.01    -0.01   0.02  -0.01
  66   1    -0.00   0.00   0.03     0.00  -0.01  -0.01    -0.00   0.02  -0.01
  67   1    -0.00   0.00   0.04     0.01  -0.01  -0.02    -0.01   0.03  -0.01
  68   1     0.00   0.01   0.05     0.01  -0.02  -0.02    -0.01   0.03  -0.02
  69   1     0.00   0.01   0.05     0.00  -0.02  -0.03    -0.01   0.03  -0.02
  70   1     0.00   0.01   0.04    -0.00  -0.02  -0.02    -0.00   0.03  -0.01
  71   1     0.00   0.01   0.04    -0.00  -0.02  -0.02     0.01   0.03  -0.01
  72   1     0.00   0.00   0.03    -0.01  -0.02  -0.01     0.01   0.03  -0.01
  73   1     0.00   0.00   0.03    -0.00  -0.01  -0.01     0.00   0.03  -0.01
  74   1     0.00   0.00   0.02    -0.01  -0.01  -0.01     0.01   0.03  -0.00
  75   6     0.00   0.01   0.06     0.00  -0.02   0.01    -0.00   0.05  -0.00
  76   6     0.00   0.01   0.05     0.00  -0.02  -0.01    -0.00   0.04  -0.01
  77   6     0.00   0.01   0.04     0.00  -0.02  -0.03    -0.00   0.03  -0.01
  78   6     0.00   0.01   0.03     0.00  -0.01  -0.05    -0.00   0.02  -0.02
  79   6     0.00   0.01   0.02     0.00  -0.01  -0.06    -0.00   0.01  -0.02
  80   6     0.00   0.00   0.01     0.00  -0.01  -0.08    -0.00  -0.00  -0.02
  81   6    -0.00  -0.00  -0.05     0.00   0.01  -0.11    -0.00  -0.07  -0.03
  82   6    -0.00  -0.00  -0.06     0.00   0.01  -0.10    -0.00  -0.08  -0.03
  83   6    -0.00  -0.01  -0.07     0.00   0.01  -0.10    -0.00  -0.09  -0.03
  84   6    -0.00  -0.01  -0.07     0.00   0.02  -0.09    -0.00  -0.09  -0.02
  85   6    -0.00  -0.01  -0.08     0.00   0.02  -0.08    -0.00  -0.09  -0.02
  86   6    -0.00  -0.01  -0.08     0.00   0.02  -0.07    -0.00  -0.10  -0.02
  87   6    -0.00  -0.01  -0.10     0.00   0.04   0.03    -0.00  -0.09   0.02
  88   6    -0.00  -0.01  -0.10     0.00   0.04   0.04    -0.00  -0.09   0.02
  89   6    -0.00  -0.01  -0.10     0.00   0.04   0.05    -0.00  -0.08   0.03
  90   6    -0.00  -0.01  -0.09     0.00   0.04   0.06    -0.00  -0.07   0.03
  91   6    -0.00  -0.01  -0.09     0.00   0.04   0.07    -0.00  -0.07   0.04
  92   6    -0.00  -0.01  -0.08     0.00   0.04   0.08    -0.00  -0.06   0.04
  93   6    -0.00  -0.00  -0.02     0.00   0.02   0.07     0.00   0.01   0.03
  94   6    -0.00  -0.00  -0.00     0.00   0.01   0.06     0.00   0.02   0.03
  95   6    -0.00  -0.00   0.01     0.00   0.00   0.05     0.00   0.03   0.02
  96   6    -0.00   0.00   0.03     0.00  -0.00   0.04     0.00   0.03   0.01
  97   6    -0.00   0.00   0.04     0.00  -0.01   0.03     0.00   0.04   0.01
  98   6    -0.00   0.01   0.06     0.00  -0.02   0.01     0.00   0.05  -0.00
  99   6     0.00   0.00   0.00     0.01  -0.01  -0.11    -0.02  -0.02  -0.03
 100   6     0.00   0.00   0.01     0.01  -0.01  -0.10    -0.02  -0.02  -0.03
 101   6     0.00   0.00  -0.00     0.00  -0.01  -0.10    -0.01  -0.02  -0.03
 102   6     0.00   0.00  -0.00     0.00  -0.01  -0.09     0.00  -0.01  -0.03
 103   6     0.00   0.00  -0.01    -0.00  -0.01  -0.09     0.01  -0.02  -0.03
 104   6     0.00   0.00  -0.01    -0.00  -0.01  -0.08     0.02  -0.01  -0.02
 105   6     0.00   0.00  -0.02    -0.01  -0.01  -0.09     0.02  -0.02  -0.02
 106   6     0.00   0.00  -0.02    -0.01  -0.01  -0.10     0.02  -0.03  -0.03
 107   7     0.00   0.00  -0.02    -0.00  -0.01  -0.11     0.01  -0.03  -0.03
 108   6     0.00  -0.00  -0.03    -0.01  -0.01  -0.10     0.02  -0.04  -0.03
 109   6    -0.00  -0.00  -0.04    -0.01  -0.00  -0.11     0.02  -0.05  -0.03
 110   6    -0.00  -0.00  -0.05    -0.01   0.00  -0.11     0.02  -0.06  -0.03
 111   6    -0.00  -0.00  -0.05    -0.01   0.00  -0.11     0.02  -0.06  -0.03
 112   6    -0.00  -0.00  -0.04    -0.00   0.00  -0.11     0.01  -0.06  -0.03
 113   7    -0.00  -0.00  -0.04    -0.00  -0.00  -0.12     0.01  -0.05  -0.03
 114   6    -0.00  -0.00  -0.04     0.00   0.00  -0.11    -0.00  -0.07  -0.03
 115   6    -0.00  -0.00  -0.04     0.00   0.00  -0.11    -0.01  -0.06  -0.03
 116   6    -0.00  -0.00  -0.03     0.01   0.00  -0.12    -0.02  -0.06  -0.04
 117   6    -0.00  -0.00  -0.03     0.01  -0.00  -0.12    -0.02  -0.06  -0.04
 118   6     0.00   0.00  -0.02     0.01  -0.00  -0.12    -0.02  -0.05  -0.04
 119   7    -0.00  -0.00  -0.03     0.00  -0.00  -0.12    -0.01  -0.06  -0.04
 120   6     0.00   0.00  -0.01     0.01  -0.01  -0.12    -0.02  -0.04  -0.04
 121   6     0.00   0.00  -0.01     0.01  -0.01  -0.11    -0.02  -0.03  -0.04
 122   7     0.00   0.00  -0.01     0.00  -0.01  -0.11    -0.01  -0.03  -0.03
 123   1     0.00   0.00   0.00     0.00  -0.00  -0.03    -0.01  -0.01  -0.01
 124   1     0.00   0.00   0.00     0.00  -0.00  -0.03    -0.01  -0.00  -0.01
 125   1     0.00   0.00  -0.00    -0.00  -0.00  -0.02     0.01  -0.00  -0.01
 126   1     0.00   0.00  -0.01    -0.00  -0.00  -0.03     0.01  -0.01  -0.01
 127   1     0.00   0.00  -0.01    -0.00  -0.00  -0.03     0.00  -0.01  -0.01
 128   1     0.00  -0.00  -0.01    -0.00  -0.00  -0.03     0.01  -0.01  -0.01
 129   1    -0.00  -0.00  -0.01    -0.00   0.00  -0.03     0.01  -0.02  -0.01
 130   1    -0.00  -0.00  -0.02    -0.00   0.00  -0.03     0.01  -0.02  -0.01
 131   1    -0.00  -0.00  -0.01     0.00   0.00  -0.03    -0.01  -0.02  -0.01
 132   1    -0.00   0.00  -0.01     0.00  -0.00  -0.03    -0.01  -0.02  -0.01
 133   1    -0.00  -0.00  -0.01     0.00  -0.00  -0.03    -0.00  -0.01  -0.01
 134   1    -0.00   0.00  -0.00     0.00  -0.00  -0.03    -0.01  -0.01  -0.01
 135   6    -0.00  -0.01  -0.09     0.00   0.03  -0.06     0.00  -0.10  -0.02
 136   6    -0.00  -0.01  -0.09     0.00   0.02  -0.06     0.00  -0.10  -0.02
 137   6    -0.00  -0.01  -0.09     0.00   0.03  -0.05     0.00  -0.10  -0.01
 138   6     0.00  -0.01  -0.09     0.00   0.03  -0.05    -0.00  -0.10  -0.01
 139   6     0.00  -0.01  -0.09    -0.00   0.03  -0.04    -0.00  -0.09  -0.01
 140   6     0.00  -0.01  -0.09    -0.00   0.03  -0.04    -0.00  -0.09  -0.01
 141   6     0.00  -0.01  -0.09    -0.00   0.03  -0.03    -0.00  -0.09  -0.01
 142   6     0.00  -0.01  -0.10    -0.00   0.03  -0.02    -0.00  -0.09  -0.00
 143   7     0.00  -0.01  -0.10    -0.00   0.03  -0.03    -0.00  -0.10  -0.01
 144   6     0.00  -0.01  -0.10    -0.00   0.03  -0.00    -0.00  -0.09   0.00
 145   6     0.00  -0.01  -0.10    -0.00   0.03   0.01    -0.00  -0.09   0.01
 146   6     0.00  -0.01  -0.11    -0.00   0.04   0.02    -0.00  -0.09   0.01
 147   6     0.00  -0.01  -0.10    -0.00   0.04   0.03    -0.00  -0.09   0.02
 148   6    -0.00  -0.01  -0.10     0.00   0.04   0.02    -0.00  -0.09   0.01
 149   7     0.00  -0.01  -0.11    -0.00   0.04   0.00    -0.00  -0.10   0.01
 150   6    -0.00  -0.01  -0.10     0.00   0.04   0.02     0.00  -0.09   0.01
 151   6     0.00  -0.01  -0.10     0.00   0.04   0.01     0.00  -0.09   0.01
 152   6     0.00  -0.01  -0.10     0.00   0.04   0.01     0.00  -0.09   0.01
 153   6     0.00  -0.01  -0.09     0.00   0.03  -0.01     0.00  -0.09   0.00
 154   6     0.00  -0.01  -0.09     0.00   0.03  -0.02     0.00  -0.09  -0.00
 155   7     0.00  -0.01  -0.11     0.00   0.04  -0.01     0.00  -0.10   0.00
 156   6     0.00  -0.01  -0.09     0.00   0.03  -0.03     0.00  -0.09  -0.01
 157   6    -0.00  -0.01  -0.09     0.00   0.03  -0.04     0.00  -0.09  -0.01
 158   7     0.00  -0.01  -0.10     0.00   0.03  -0.04     0.00  -0.10  -0.01
 159   1    -0.00  -0.00  -0.02     0.00   0.01  -0.02     0.00  -0.03  -0.01
 160   1     0.00  -0.00  -0.02     0.00   0.01  -0.02     0.00  -0.03  -0.01
 161   1     0.00  -0.00  -0.03    -0.00   0.01  -0.01    -0.00  -0.03  -0.00
 162   1     0.00  -0.00  -0.03    -0.00   0.01  -0.01    -0.00  -0.03  -0.00
 163   1     0.00  -0.00  -0.03    -0.00   0.01  -0.01     0.00  -0.03  -0.00
 164   1     0.00  -0.00  -0.03    -0.00   0.01   0.00    -0.00  -0.03   0.00
 165   1     0.00  -0.00  -0.03    -0.00   0.01   0.01    -0.00  -0.03   0.00
 166   1     0.00  -0.00  -0.03    -0.00   0.01   0.01    -0.00  -0.03   0.01
 167   1     0.00  -0.00  -0.03     0.00   0.01   0.01     0.00  -0.03   0.00
 168   1     0.00  -0.00  -0.03     0.00   0.01  -0.00     0.00  -0.03  -0.00
 169   1    -0.00  -0.00  -0.03     0.00   0.01  -0.00     0.00  -0.03   0.00
 170   1    -0.00  -0.00  -0.03     0.00   0.01  -0.01     0.00  -0.03  -0.00
 171   6    -0.00  -0.01  -0.08    -0.01   0.04   0.09     0.02  -0.04   0.05
 172   6    -0.00  -0.01  -0.08    -0.01   0.04   0.09     0.02  -0.05   0.05
 173   6    -0.00  -0.01  -0.08    -0.00   0.04   0.09     0.01  -0.04   0.05
 174   6    -0.00  -0.01  -0.08     0.00   0.04   0.09    -0.00  -0.05   0.04
 175   6     0.00  -0.01  -0.07     0.00   0.04   0.09    -0.01  -0.05   0.04
 176   6     0.00  -0.01  -0.07     0.01   0.04   0.09    -0.02  -0.05   0.04
 177   6     0.00  -0.01  -0.06     0.01   0.04   0.09    -0.02  -0.04   0.04
 178   6     0.00  -0.01  -0.06     0.01   0.03   0.10    -0.02  -0.03   0.04
 179   7     0.00  -0.01  -0.07     0.00   0.04   0.10    -0.01  -0.04   0.05
 180   6     0.00  -0.01  -0.05     0.01   0.03   0.10    -0.02  -0.02   0.04
 181   6     0.00  -0.01  -0.04     0.01   0.03   0.09    -0.02  -0.02   0.04
 182   6     0.00  -0.01  -0.03     0.01   0.02   0.09    -0.02  -0.01   0.04
 183   6    -0.00  -0.01  -0.02     0.01   0.02   0.09    -0.02  -0.00   0.04
 184   6    -0.00  -0.01  -0.03     0.00   0.02   0.09    -0.01  -0.01   0.04
 185   7    -0.00  -0.01  -0.05     0.00   0.03   0.10    -0.01  -0.02   0.04
 186   6    -0.00  -0.01  -0.03     0.00   0.02   0.08     0.00  -0.00   0.04
 187   6    -0.00  -0.01  -0.04    -0.00   0.02   0.08     0.01  -0.01   0.04
 188   6    -0.00  -0.01  -0.04    -0.01   0.02   0.08     0.02  -0.00   0.04
 189   6    -0.00  -0.01  -0.05    -0.01   0.02   0.08     0.02  -0.01   0.04
 190   6    -0.00  -0.01  -0.05    -0.01   0.03   0.09     0.02  -0.02   0.05
 191   7    -0.00  -0.01  -0.05    -0.00   0.03   0.10     0.01  -0.01   0.05
 192   6    -0.00  -0.01  -0.07    -0.01   0.03   0.09     0.02  -0.02   0.05
 193   6    -0.00  -0.01  -0.07    -0.01   0.03   0.09     0.02  -0.03   0.05
 194   7    -0.00  -0.01  -0.08    -0.00   0.04   0.10     0.01  -0.04   0.05
 195   1    -0.00  -0.00  -0.02    -0.00   0.01   0.03     0.01  -0.01   0.01
 196   1    -0.00  -0.00  -0.03    -0.00   0.01   0.02     0.01  -0.02   0.01
 197   1     0.00  -0.00  -0.02     0.00   0.01   0.03    -0.01  -0.02   0.01
 198   1     0.00  -0.00  -0.02     0.00   0.01   0.03    -0.01  -0.01   0.01
 199   1    -0.00  -0.00  -0.02     0.00   0.01   0.03    -0.00  -0.01   0.01
 200   1     0.00  -0.00  -0.01     0.00   0.01   0.03    -0.01  -0.01   0.01
 201   1     0.00  -0.00  -0.01     0.00   0.01   0.03    -0.01  -0.00   0.01
 202   1    -0.00  -0.00  -0.00     0.00   0.01   0.02    -0.01   0.00   0.01
 203   1    -0.00  -0.00  -0.01    -0.00   0.01   0.02     0.01   0.00   0.01
 204   1    -0.00  -0.00  -0.01    -0.00   0.01   0.02     0.01  -0.00   0.01
 205   1    -0.00  -0.00  -0.02    -0.00   0.01   0.03     0.00  -0.01   0.01
 206   1    -0.00  -0.00  -0.02    -0.00   0.01   0.03     0.01  -0.01   0.01
                      4                      5                      6
                        a                      a                      a 
 Frequencies --     2.4580                 3.4879                 5.1068
 Red. masses --    11.7957                11.8697                11.6706
 Frc consts  --     0.0000                 0.0000                 0.0000
 IR Inten    --     0.4870                 0.7444                 3.2173
 Raman Activ --     0.0000                 0.0000                 0.0000
 Depolar     --     0.0000                 0.0000                 0.0000
 Atom AN      X      Y      Z        X      Y      Z        X      Y      Z
   1   6    -0.05  -0.02   0.01    -0.02  -0.00   0.05    -0.07   0.03   0.00
   2   6    -0.04  -0.00   0.00    -0.01   0.00   0.05    -0.05   0.05  -0.01
   3   6    -0.02  -0.01   0.00    -0.01  -0.00   0.03    -0.03   0.04  -0.00
   4   6     0.00  -0.00   0.00     0.00   0.00   0.02     0.00   0.05  -0.01
   5   6     0.02  -0.01   0.00     0.01   0.00  -0.00     0.03   0.04  -0.01
   6   6     0.04  -0.00  -0.00     0.02   0.01  -0.01     0.06   0.05  -0.01
   7   6     0.05  -0.02   0.00     0.02   0.00  -0.03     0.08   0.03  -0.01
   8   6     0.04  -0.04   0.01     0.02  -0.00  -0.04     0.06   0.00  -0.00
   9   7     0.02  -0.04   0.01     0.01  -0.00  -0.03     0.03   0.01  -0.00
  10   6     0.05  -0.06   0.01     0.02  -0.01  -0.07     0.07  -0.03  -0.00
  11   6     0.04  -0.08   0.01     0.02  -0.01  -0.08     0.06  -0.05   0.01
  12   6     0.05  -0.10   0.02     0.02  -0.02  -0.11     0.07  -0.08   0.01
  13   6     0.04  -0.11   0.02     0.02  -0.02  -0.11     0.05  -0.10   0.02
  14   6     0.02  -0.10   0.02     0.01  -0.02  -0.09     0.02  -0.09   0.02
  15   7     0.02  -0.09   0.02     0.01  -0.02  -0.07     0.03  -0.06   0.01
  16   6    -0.00  -0.11   0.02     0.00  -0.03  -0.08    -0.00  -0.10   0.02
  17   6    -0.02  -0.10   0.02    -0.00  -0.03  -0.06    -0.03  -0.09   0.02
  18   6    -0.04  -0.11   0.02    -0.01  -0.03  -0.05    -0.06  -0.10   0.03
  19   6    -0.05  -0.09   0.02    -0.02  -0.03  -0.02    -0.08  -0.08   0.02
  20   6    -0.04  -0.07   0.02    -0.01  -0.02  -0.01    -0.06  -0.05   0.02
  21   7    -0.02  -0.09   0.02    -0.01  -0.02  -0.04    -0.04  -0.06   0.02
  22   6    -0.05  -0.06   0.01    -0.02  -0.01   0.01    -0.07  -0.02   0.01
  23   6    -0.04  -0.04   0.01    -0.01  -0.01   0.02    -0.06   0.00   0.00
  24   7    -0.02  -0.04   0.01    -0.01  -0.01   0.01    -0.03   0.01   0.00
  25   1    -0.02  -0.00   0.00    -0.01  -0.00   0.02    -0.03   0.01   0.00
  26   1    -0.01   0.00  -0.00    -0.00   0.00   0.02    -0.02   0.02  -0.00
  27   1     0.01   0.00  -0.00     0.00   0.00   0.00     0.02   0.02  -0.01
  28   1     0.02  -0.00  -0.00     0.01   0.00  -0.01     0.03   0.01  -0.00
  29   1     0.00  -0.01   0.00     0.00  -0.00  -0.01     0.00  -0.00   0.00
  30   1     0.02  -0.02   0.00     0.01  -0.00  -0.02     0.03  -0.01  -0.00
  31   1     0.02  -0.03   0.00     0.01  -0.01  -0.04     0.03  -0.02   0.00
  32   1     0.01  -0.04   0.01     0.01  -0.01  -0.04     0.02  -0.04   0.01
  33   1    -0.00  -0.04   0.01     0.00  -0.01  -0.03    -0.00  -0.04   0.01
  34   1    -0.01  -0.04   0.01    -0.00  -0.01  -0.02    -0.02  -0.04   0.01
  35   1    -0.02  -0.03   0.01    -0.01  -0.01  -0.00    -0.03  -0.02   0.01
  36   1    -0.00  -0.02   0.00    -0.00  -0.00  -0.01    -0.00  -0.01   0.00
  37   1    -0.02  -0.02   0.00    -0.01  -0.00   0.01    -0.03  -0.01   0.00
  38   6     0.05   0.02   0.01    -0.01   0.00   0.04    -0.08   0.03  -0.03
  39   6     0.04   0.00   0.01    -0.01   0.01   0.04    -0.06   0.05  -0.02
  40   6     0.02   0.01  -0.00    -0.00   0.00   0.02    -0.03   0.04  -0.01
  41   6    -0.00   0.00  -0.00    -0.00   0.00   0.02     0.00   0.05  -0.01
  42   6    -0.02   0.01  -0.01     0.00  -0.00   0.00     0.03   0.04   0.00
  43   6    -0.04   0.00  -0.01     0.01   0.00  -0.00     0.06   0.05   0.01
  44   6    -0.06   0.02  -0.02     0.01  -0.00  -0.02     0.08   0.03   0.02
  45   6    -0.05   0.04  -0.02     0.00  -0.01  -0.04     0.06   0.00   0.02
  46   7    -0.03   0.04  -0.01     0.00  -0.01  -0.02     0.04   0.01   0.01
  47   6    -0.06   0.06  -0.02     0.00  -0.01  -0.06     0.08  -0.03   0.03
  48   6    -0.04   0.08  -0.02     0.00  -0.02  -0.07     0.06  -0.05   0.03
  49   6    -0.06   0.10  -0.03     0.00  -0.02  -0.09     0.08  -0.08   0.04
  50   6    -0.04   0.11  -0.03    -0.00  -0.03  -0.10     0.06  -0.10   0.04
  51   6    -0.02   0.10  -0.02    -0.00  -0.02  -0.08     0.03  -0.09   0.03
  52   7    -0.02   0.09  -0.02    -0.00  -0.02  -0.07     0.03  -0.06   0.02
  53   6    -0.00   0.11  -0.02    -0.01  -0.03  -0.08     0.00  -0.10   0.02
  54   6     0.02   0.10  -0.01    -0.01  -0.02  -0.06    -0.03  -0.09   0.01
  55   6     0.04   0.11  -0.01    -0.01  -0.02  -0.05    -0.06  -0.10   0.00
  56   6     0.06   0.10  -0.00    -0.01  -0.02  -0.03    -0.08  -0.08  -0.00
  57   6     0.04   0.08  -0.00    -0.01  -0.01  -0.02    -0.06  -0.05  -0.01
  58   7     0.02   0.09  -0.01    -0.01  -0.02  -0.04    -0.03  -0.06   0.00
  59   6     0.05   0.06   0.00    -0.01  -0.01   0.00    -0.07  -0.03  -0.01
  60   6     0.04   0.04   0.00    -0.01  -0.00   0.01    -0.06   0.00  -0.02
  61   7     0.02   0.04  -0.00    -0.01  -0.00   0.00    -0.03   0.01  -0.01
  62   1     0.02   0.00   0.00    -0.00   0.00   0.01    -0.03   0.01  -0.01
  63   1     0.01  -0.00   0.00    -0.00   0.00   0.02    -0.02   0.02  -0.01
  64   1    -0.01  -0.00  -0.00     0.00   0.00   0.00     0.02   0.02   0.00
  65   1    -0.02   0.00  -0.01     0.00  -0.00  -0.01     0.03   0.01   0.01
  66   1    -0.00   0.01  -0.00    -0.00  -0.00  -0.01     0.00  -0.00   0.00
  67   1    -0.02   0.02  -0.01     0.00  -0.00  -0.02     0.03  -0.01   0.01
  68   1    -0.02   0.03  -0.01     0.00  -0.01  -0.03     0.03  -0.02   0.01
  69   1    -0.01   0.04  -0.01    -0.00  -0.01  -0.03     0.02  -0.04   0.01
  70   1    -0.00   0.04  -0.01    -0.00  -0.01  -0.03     0.00  -0.04   0.01
  71   1     0.01   0.04  -0.00    -0.00  -0.01  -0.02    -0.02  -0.04   0.00
  72   1     0.02   0.03  -0.00    -0.00  -0.01  -0.01    -0.03  -0.02  -0.00
  73   1     0.00   0.02  -0.00    -0.00  -0.00  -0.01    -0.00  -0.01   0.00
  74   1     0.02   0.02   0.00    -0.00  -0.00   0.00    -0.03  -0.01  -0.01
  75   6     0.00   0.02  -0.00     0.00   0.01   0.04     0.00   0.08  -0.01
  76   6     0.00   0.04  -0.01     0.00   0.01   0.06     0.00   0.10  -0.02
  77   6     0.00   0.05  -0.01     0.00   0.02   0.07     0.00   0.11  -0.02
  78   6     0.00   0.07  -0.01     0.00   0.02   0.08     0.00   0.12  -0.02
  79   6     0.00   0.08  -0.02     0.00   0.02   0.09     0.00   0.12  -0.02
  80   6     0.00   0.08  -0.02     0.00   0.03   0.10     0.00   0.12  -0.02
  81   6     0.00   0.10  -0.02    -0.00   0.01   0.02    -0.00  -0.01  -0.00
  82   6     0.00   0.10  -0.02    -0.00   0.00  -0.00    -0.00  -0.03   0.00
  83   6     0.00   0.09  -0.02     0.00  -0.00  -0.03    -0.00  -0.05   0.01
  84   6     0.00   0.08  -0.01     0.00  -0.01  -0.05    -0.00  -0.06   0.01
  85   6     0.00   0.07  -0.01     0.00  -0.01  -0.07    -0.00  -0.07   0.02
  86   6     0.00   0.06  -0.01     0.00  -0.02  -0.09    -0.00  -0.08   0.02
  87   6    -0.00  -0.06   0.01     0.00  -0.02  -0.09    -0.00  -0.08   0.02
  88   6    -0.00  -0.07   0.02     0.00  -0.01  -0.07    -0.00  -0.07   0.02
  89   6    -0.00  -0.09   0.02     0.00  -0.01  -0.05    -0.00  -0.06   0.01
  90   6    -0.00  -0.09   0.02     0.00  -0.00  -0.03    -0.00  -0.05   0.01
  91   6    -0.00  -0.10   0.02     0.00   0.00  -0.00    -0.00  -0.03   0.00
  92   6    -0.00  -0.10   0.02     0.00   0.01   0.02    -0.00  -0.01  -0.00
  93   6    -0.00  -0.08   0.01    -0.00   0.02   0.10     0.00   0.12  -0.03
  94   6    -0.00  -0.08   0.01    -0.00   0.02   0.09     0.00   0.12  -0.03
  95   6    -0.00  -0.07   0.01    -0.00   0.02   0.08     0.00   0.12  -0.03
  96   6    -0.00  -0.05   0.01     0.00   0.02   0.07     0.00   0.11  -0.02
  97   6    -0.00  -0.04   0.00     0.00   0.01   0.06     0.00   0.10  -0.02
  98   6    -0.00  -0.02   0.00    -0.00   0.01   0.04     0.00   0.08  -0.01
  99   6     0.01   0.09  -0.02    -0.00   0.03   0.11    -0.05   0.09  -0.04
 100   6     0.01   0.09  -0.02    -0.00   0.03   0.11    -0.03   0.10  -0.03
 101   6     0.00   0.09  -0.02    -0.00   0.02   0.10    -0.02   0.09  -0.03
 102   6     0.00   0.09  -0.02     0.00   0.02   0.10     0.00   0.10  -0.02
 103   6    -0.00   0.09  -0.02     0.00   0.02   0.10     0.02   0.09  -0.02
 104   6    -0.00   0.09  -0.02     0.00   0.02   0.10     0.03   0.10  -0.01
 105   6    -0.01   0.09  -0.02     0.00   0.02   0.09     0.05   0.09  -0.01
 106   6    -0.00   0.09  -0.02     0.00   0.02   0.09     0.04   0.07  -0.01
 107   7    -0.00   0.10  -0.02     0.00   0.02   0.10     0.02   0.08  -0.01
 108   6    -0.01   0.09  -0.02     0.00   0.02   0.08     0.04   0.05  -0.00
 109   6    -0.00   0.10  -0.02     0.00   0.02   0.07     0.04   0.04  -0.00
 110   6    -0.01   0.10  -0.02     0.00   0.01   0.05     0.05   0.02   0.00
 111   6    -0.00   0.10  -0.02     0.00   0.01   0.04     0.03   0.01   0.00
 112   6    -0.00   0.10  -0.02     0.00   0.01   0.05     0.02   0.02  -0.00
 113   7    -0.00   0.10  -0.02     0.00   0.02   0.07     0.02   0.04  -0.01
 114   6     0.00   0.10  -0.02    -0.00   0.01   0.04    -0.00   0.01  -0.01
 115   6     0.00   0.10  -0.02    -0.00   0.01   0.05    -0.02   0.01  -0.01
 116   6     0.01   0.10  -0.02    -0.00   0.01   0.05    -0.03   0.01  -0.02
 117   6     0.01   0.10  -0.02    -0.00   0.02   0.07    -0.05   0.02  -0.02
 118   6     0.01   0.10  -0.02    -0.00   0.02   0.08    -0.04   0.03  -0.02
 119   7     0.00   0.10  -0.02    -0.00   0.02   0.08    -0.02   0.03  -0.02
 120   6     0.01   0.09  -0.02    -0.00   0.02   0.09    -0.05   0.05  -0.03
 121   6     0.01   0.09  -0.02    -0.00   0.02   0.10    -0.04   0.07  -0.03
 122   7     0.00   0.10  -0.02    -0.00   0.02   0.11    -0.02   0.08  -0.03
 123   1     0.00   0.03  -0.01    -0.00   0.01   0.03    -0.02   0.02  -0.01
 124   1     0.00   0.02  -0.01    -0.00   0.01   0.03    -0.01   0.03  -0.01
 125   1    -0.00   0.02  -0.00     0.00   0.01   0.03     0.01   0.03  -0.00
 126   1    -0.00   0.03  -0.00     0.00   0.01   0.03     0.02   0.03  -0.00
 127   1    -0.00   0.03  -0.01     0.00   0.01   0.03     0.00   0.02  -0.00
 128   1    -0.00   0.03  -0.01     0.00   0.01   0.02     0.02   0.02   0.00
 129   1    -0.00   0.03  -0.01     0.00   0.00   0.02     0.02   0.01   0.00
 130   1    -0.00   0.03  -0.01     0.00   0.00   0.01     0.01  -0.00   0.00
 131   1     0.00   0.03  -0.01    -0.00   0.00   0.01    -0.01  -0.00  -0.00
 132   1     0.00   0.03  -0.01    -0.00   0.00   0.02    -0.02   0.00  -0.01
 133   1     0.00   0.03  -0.01    -0.00   0.01   0.02    -0.00   0.01  -0.00
 134   1     0.00   0.03  -0.01    -0.00   0.01   0.03    -0.02   0.01  -0.01
 135   6    -0.04   0.03  -0.01     0.00  -0.02  -0.12     0.00  -0.08   0.03
 136   6    -0.03   0.04  -0.01     0.00  -0.02  -0.11     0.00  -0.08   0.03
 137   6    -0.01   0.04  -0.01     0.00  -0.02  -0.11    -0.00  -0.08   0.03
 138   6     0.00   0.04  -0.01     0.00  -0.02  -0.10     0.00  -0.08   0.02
 139   6     0.02   0.04  -0.00     0.00  -0.02  -0.11     0.00  -0.08   0.02
 140   6     0.03   0.04   0.00     0.00  -0.02  -0.11     0.00  -0.08   0.02
 141   6     0.04   0.03   0.01     0.00  -0.02  -0.12     0.00  -0.08   0.02
 142   6     0.04   0.02   0.01     0.00  -0.02  -0.12     0.00  -0.08   0.02
 143   7     0.02   0.02   0.00     0.00  -0.02  -0.13     0.00  -0.09   0.02
 144   6     0.04   0.00   0.01     0.00  -0.02  -0.13     0.00  -0.08   0.02
 145   6     0.03  -0.02   0.01     0.00  -0.02  -0.13     0.00  -0.08   0.02
 146   6     0.04  -0.03   0.02     0.00  -0.02  -0.13     0.00  -0.08   0.02
 147   6     0.03  -0.04   0.02     0.00  -0.02  -0.12     0.00  -0.08   0.02
 148   6     0.01  -0.04   0.01     0.00  -0.02  -0.11     0.00  -0.08   0.02
 149   7     0.02  -0.02   0.01     0.00  -0.02  -0.13     0.00  -0.09   0.02
 150   6    -0.00  -0.04   0.01     0.00  -0.02  -0.11     0.00  -0.08   0.02
 151   6    -0.02  -0.04   0.01     0.00  -0.02  -0.11     0.00  -0.08   0.03
 152   6    -0.03  -0.04   0.01     0.00  -0.02  -0.11     0.00  -0.08   0.03
 153   6    -0.04  -0.03   0.00     0.00  -0.02  -0.11     0.00  -0.08   0.03
 154   6    -0.04  -0.02   0.00     0.00  -0.02  -0.12     0.00  -0.08   0.03
 155   7    -0.02  -0.02   0.00     0.00  -0.02  -0.13     0.00  -0.09   0.03
 156   6    -0.04  -0.00  -0.00     0.00  -0.02  -0.13     0.00  -0.08   0.03
 157   6    -0.03   0.01  -0.01     0.00  -0.02  -0.12     0.00  -0.08   0.03
 158   7    -0.02   0.02  -0.00     0.00  -0.02  -0.13     0.00  -0.09   0.03
 159   1    -0.02   0.01  -0.00     0.00  -0.01  -0.04     0.00  -0.02   0.01
 160   1    -0.01   0.02  -0.00     0.00  -0.01  -0.03     0.00  -0.02   0.01
 161   1     0.01   0.02  -0.00     0.00  -0.00  -0.03     0.00  -0.02   0.00
 162   1     0.02   0.01   0.00     0.00  -0.01  -0.03     0.00  -0.02   0.00
 163   1     0.00   0.00   0.00     0.00  -0.01  -0.04     0.00  -0.02   0.01
 164   1     0.02   0.00   0.00     0.00  -0.01  -0.04     0.00  -0.02   0.00
 165   1     0.02  -0.01   0.01     0.00  -0.01  -0.04     0.00  -0.02   0.00
 166   1     0.01  -0.02   0.01     0.00  -0.01  -0.03     0.00  -0.02   0.01
 167   1    -0.01  -0.02   0.00     0.00  -0.01  -0.03     0.00  -0.02   0.01
 168   1    -0.02  -0.01  -0.00     0.00  -0.01  -0.03     0.00  -0.02   0.01
 169   1    -0.00  -0.00   0.00     0.00  -0.01  -0.04     0.00  -0.02   0.01
 170   1    -0.02  -0.00  -0.00     0.00  -0.01  -0.04     0.00  -0.02   0.01
 171   6     0.01  -0.10   0.02     0.00   0.01   0.06     0.05   0.02   0.01
 172   6     0.00  -0.10   0.02     0.00   0.01   0.04     0.03   0.01   0.01
 173   6     0.00  -0.10   0.02     0.00   0.01   0.05     0.02   0.02  -0.00
 174   6    -0.00  -0.10   0.02    -0.00   0.01   0.04    -0.00   0.01  -0.01
 175   6    -0.00  -0.10   0.02    -0.00   0.01   0.05    -0.02   0.01  -0.01
 176   6    -0.01  -0.10   0.02    -0.00   0.01   0.05    -0.03   0.00  -0.02
 177   6    -0.01  -0.10   0.01    -0.00   0.01   0.06    -0.05   0.02  -0.03
 178   6    -0.01  -0.10   0.01    -0.00   0.02   0.08    -0.04   0.03  -0.03
 179   7    -0.00  -0.11   0.02    -0.00   0.02   0.07    -0.02   0.03  -0.02
 180   6    -0.01  -0.09   0.01    -0.00   0.02   0.09    -0.04   0.05  -0.03
 181   6    -0.01  -0.09   0.01    -0.00   0.02   0.10    -0.04   0.07  -0.03
 182   6    -0.01  -0.09   0.01    -0.00   0.02   0.11    -0.05   0.08  -0.04
 183   6    -0.01  -0.09   0.01    -0.00   0.02   0.11    -0.03   0.10  -0.04
 184   6    -0.00  -0.09   0.01    -0.00   0.02   0.10    -0.02   0.09  -0.03
 185   7    -0.00  -0.10   0.02    -0.00   0.02   0.10    -0.02   0.08  -0.03
 186   6    -0.00  -0.09   0.01    -0.00   0.02   0.10     0.00   0.10  -0.02
 187   6     0.00  -0.09   0.02    -0.00   0.02   0.10     0.02   0.09  -0.02
 188   6     0.00  -0.09   0.02     0.00   0.02   0.10     0.03   0.10  -0.01
 189   6     0.01  -0.09   0.02     0.00   0.02   0.10     0.05   0.09  -0.00
 190   6     0.01  -0.09   0.02     0.00   0.02   0.09     0.04   0.07  -0.01
 191   7     0.00  -0.10   0.02     0.00   0.02   0.10     0.02   0.08  -0.01
 192   6     0.01  -0.09   0.02     0.00   0.02   0.08     0.04   0.05   0.00
 193   6     0.01  -0.10   0.02     0.00   0.02   0.07     0.04   0.04   0.00
 194   7     0.00  -0.11   0.02     0.00   0.02   0.07     0.02   0.04  -0.01
 195   1     0.00  -0.03   0.01     0.00   0.00   0.02     0.02   0.01   0.00
 196   1     0.00  -0.03   0.01     0.00   0.00   0.01     0.01  -0.00   0.00
 197   1    -0.00  -0.03   0.00    -0.00   0.00   0.01    -0.01  -0.00  -0.00
 198   1    -0.00  -0.03   0.00    -0.00   0.00   0.02    -0.02   0.00  -0.01
 199   1    -0.00  -0.03   0.01    -0.00   0.00   0.02    -0.00   0.01  -0.01
 200   1    -0.00  -0.03   0.00    -0.00   0.01   0.03    -0.02   0.01  -0.01
 201   1    -0.00  -0.03   0.00    -0.00   0.01   0.03    -0.02   0.02  -0.01
 202   1    -0.00  -0.02   0.00    -0.00   0.01   0.03    -0.01   0.03  -0.01
 203   1     0.00  -0.02   0.00     0.00   0.01   0.03     0.01   0.03  -0.00
 204   1     0.00  -0.03   0.01     0.00   0.01   0.03     0.02   0.03   0.00
 205   1     0.00  -0.03   0.01     0.00   0.01   0.03     0.00   0.02  -0.00
 206   1     0.00  -0.03   0.01     0.00   0.01   0.02     0.02   0.02   0.00
                      7                      8                      9
                        a                      a                      a 
 Frequencies --     6.2673                 6.8531                 7.4186
 Red. masses --    11.2640                11.2659                11.4346
 Frc consts  --     0.0000                 0.0000                 0.0000
 IR Inten    --     0.6468                 0.8280                 0.0660
 Raman Activ --     0.0000                 0.0000                 0.0000
 Depolar     --     0.0000                 0.0000                 0.0000
 Atom AN      X      Y      Z        X      Y      Z        X      Y      Z
   1   6     0.01   0.01  -0.25     0.01  -0.01   0.05    -0.06   0.04  -0.02
   2   6     0.01   0.01  -0.19     0.00  -0.01   0.04    -0.04   0.06  -0.02
   3   6     0.00   0.00  -0.10     0.00  -0.01   0.02    -0.02   0.05  -0.02
   4   6     0.00  -0.00  -0.02    -0.00  -0.01   0.01     0.00   0.06  -0.01
   5   6    -0.00  -0.01   0.06    -0.00  -0.00  -0.00     0.02   0.05  -0.01
   6   6    -0.00  -0.02   0.14    -0.01  -0.01  -0.02     0.04   0.06  -0.00
   7   6    -0.01  -0.02   0.20    -0.01  -0.00  -0.03     0.06   0.04   0.00
   8   6    -0.00  -0.02   0.16    -0.01   0.00  -0.03     0.05   0.02   0.01
   9   7    -0.00  -0.01   0.08    -0.00  -0.00  -0.01     0.03   0.02  -0.00
  10   6    -0.01  -0.02   0.20    -0.01   0.00  -0.04     0.06  -0.01   0.01
  11   6    -0.01  -0.02   0.17    -0.01   0.01  -0.04     0.04  -0.03   0.02
  12   6    -0.01  -0.02   0.22    -0.01   0.01  -0.05     0.06  -0.05   0.03
  13   6    -0.01  -0.02   0.16    -0.00   0.01  -0.05     0.04  -0.06   0.03
  14   6    -0.00  -0.01   0.07    -0.00   0.01  -0.03     0.02  -0.05   0.02
  15   7    -0.00  -0.01   0.09    -0.00   0.01  -0.03     0.02  -0.03   0.01
  16   6     0.00  -0.01  -0.01     0.00   0.01  -0.02    -0.00  -0.06   0.02
  17   6     0.00   0.00  -0.09     0.00   0.01  -0.00    -0.02  -0.05   0.01
  18   6     0.01   0.01  -0.17     0.00   0.01   0.01    -0.04  -0.06   0.01
  19   6     0.01   0.01  -0.24     0.01   0.00   0.03    -0.06  -0.04  -0.00
  20   6     0.01   0.01  -0.20     0.00   0.00   0.02    -0.05  -0.02  -0.00
  21   7     0.00   0.00  -0.12     0.00   0.00   0.01    -0.03  -0.03   0.00
  22   6     0.01   0.01  -0.24     0.01  -0.00   0.04    -0.06   0.00  -0.01
  23   6     0.01   0.01  -0.20     0.00  -0.00   0.03    -0.05   0.02  -0.02
  24   7     0.00   0.00  -0.12     0.00  -0.00   0.02    -0.03   0.03  -0.01
  25   1     0.00   0.01  -0.09     0.00  -0.00   0.02    -0.02   0.01  -0.01
  26   1     0.00   0.00  -0.06     0.00  -0.00   0.01    -0.01   0.02  -0.01
  27   1    -0.00  -0.00   0.04    -0.00  -0.00  -0.00     0.01   0.02  -0.00
  28   1    -0.00  -0.01   0.08    -0.00  -0.00  -0.01     0.02   0.01   0.00
  29   1    -0.00  -0.00   0.01    -0.00  -0.00  -0.00     0.00   0.00  -0.00
  30   1    -0.00  -0.01   0.08    -0.00   0.00  -0.02     0.02  -0.00   0.01
  31   1    -0.00  -0.01   0.08    -0.00   0.00  -0.02     0.02  -0.01   0.01
  32   1    -0.00  -0.01   0.05    -0.00   0.00  -0.02     0.01  -0.02   0.01
  33   1     0.00  -0.00   0.00     0.00   0.00  -0.01    -0.00  -0.02   0.01
  34   1     0.00   0.00  -0.05     0.00   0.00   0.00    -0.01  -0.02   0.00
  35   1     0.00   0.01  -0.09     0.00   0.00   0.01    -0.02  -0.01  -0.00
  36   1     0.00   0.00  -0.02     0.00   0.00   0.00    -0.00  -0.00   0.00
  37   1     0.00   0.01  -0.09     0.00  -0.00   0.01    -0.02   0.00  -0.01
  38   6    -0.01  -0.00  -0.09    -0.01  -0.02  -0.24     0.06  -0.04   0.03
  39   6    -0.01  -0.00  -0.07    -0.01  -0.01  -0.18     0.04  -0.05   0.03
  40   6    -0.00   0.00  -0.04    -0.00  -0.01  -0.10     0.02  -0.04   0.02
  41   6    -0.00   0.01  -0.01     0.00   0.00  -0.03    -0.00  -0.06   0.01
  42   6     0.00   0.01   0.02     0.00   0.01   0.04    -0.02  -0.04   0.00
  43   6     0.01   0.01   0.05     0.01   0.01   0.11    -0.04  -0.06  -0.00
  44   6     0.01   0.01   0.07     0.01   0.02   0.17    -0.06  -0.04  -0.01
  45   6     0.01   0.01   0.05     0.01   0.02   0.14    -0.05  -0.02  -0.01
  46   7     0.00   0.01   0.03     0.01   0.01   0.06    -0.03  -0.02  -0.00
  47   6     0.01   0.01   0.07     0.01   0.02   0.18    -0.06   0.00  -0.02
  48   6     0.01   0.00   0.05     0.01   0.02   0.15    -0.05   0.02  -0.02
  49   6     0.01   0.00   0.07     0.01   0.03   0.21    -0.06   0.04  -0.04
  50   6     0.01  -0.00   0.04     0.01   0.02   0.16    -0.04   0.06  -0.03
  51   6     0.00  -0.00   0.01     0.01   0.02   0.08    -0.02   0.05  -0.02
  52   7     0.00   0.00   0.02     0.01   0.02   0.08    -0.03   0.03  -0.02
  53   6    -0.00  -0.01  -0.02     0.00   0.01   0.01    -0.00   0.06  -0.02
  54   6    -0.00  -0.01  -0.05     0.00   0.00  -0.07     0.02   0.05  -0.01
  55   6    -0.01  -0.01  -0.08    -0.00  -0.00  -0.13     0.04   0.06  -0.00
  56   6    -0.01  -0.01  -0.10    -0.01  -0.01  -0.20     0.06   0.04   0.01
  57   6    -0.01  -0.01  -0.08    -0.01  -0.01  -0.17     0.05   0.02   0.01
  58   7    -0.01  -0.01  -0.05    -0.00  -0.00  -0.10     0.02   0.03  -0.00
  59   6    -0.01  -0.01  -0.10    -0.01  -0.02  -0.22     0.06   0.00   0.02
  60   6    -0.01  -0.01  -0.08    -0.01  -0.01  -0.19     0.04  -0.02   0.02
  61   7    -0.00  -0.00  -0.05    -0.00  -0.01  -0.12     0.02  -0.02   0.01
  62   1    -0.00  -0.00  -0.03    -0.00  -0.01  -0.09     0.02  -0.01   0.01
  63   1    -0.00   0.00  -0.02    -0.00  -0.00  -0.06     0.01  -0.02   0.01
  64   1     0.00   0.00   0.02     0.00   0.00   0.03    -0.01  -0.02   0.00
  65   1     0.00   0.00   0.03     0.00   0.01   0.07    -0.02  -0.01  -0.00
  66   1     0.00   0.00   0.00     0.00   0.00   0.01    -0.00  -0.00  -0.00
  67   1     0.00   0.00   0.03     0.00   0.01   0.07    -0.02   0.00  -0.01
  68   1     0.00   0.00   0.03     0.00   0.01   0.08    -0.02   0.01  -0.01
  69   1     0.00  -0.00   0.01     0.00   0.01   0.05    -0.01   0.02  -0.01
  70   1    -0.00  -0.00  -0.00     0.00   0.00   0.01    -0.00   0.02  -0.01
  71   1    -0.00  -0.00  -0.02    -0.00  -0.00  -0.04     0.01   0.02  -0.00
  72   1    -0.00  -0.00  -0.04    -0.00  -0.00  -0.08     0.02   0.01   0.00
  73   1    -0.00  -0.00  -0.01    -0.00   0.00  -0.02     0.00   0.00  -0.00
  74   1    -0.00  -0.00  -0.04    -0.00  -0.01  -0.08     0.02   0.00   0.01
  75   6     0.00  -0.00  -0.02    -0.00  -0.01   0.02     0.00   0.08  -0.02
  76   6     0.00  -0.00  -0.02    -0.00  -0.01   0.02     0.00   0.09  -0.02
  77   6    -0.00  -0.00  -0.01    -0.00  -0.01   0.02     0.00   0.10  -0.02
  78   6     0.00  -0.00  -0.01    -0.00  -0.01   0.02     0.00   0.10  -0.02
  79   6    -0.00  -0.00   0.00    -0.00  -0.01   0.02     0.00   0.09  -0.02
  80   6     0.00   0.00   0.01    -0.00  -0.01   0.01     0.00   0.07  -0.02
  81   6     0.00   0.01   0.02    -0.00   0.01  -0.02    -0.00  -0.08   0.02
  82   6     0.00   0.01   0.02    -0.00   0.01  -0.02     0.00  -0.10   0.02
  83   6     0.00   0.01   0.01    -0.00   0.02  -0.03     0.00  -0.10   0.02
  84   6     0.00   0.01   0.01    -0.00   0.02  -0.03     0.00  -0.10   0.02
  85   6     0.00   0.01   0.00    -0.00   0.01  -0.03    -0.00  -0.10   0.02
  86   6     0.00   0.00  -0.00    -0.00   0.01  -0.02    -0.00  -0.08   0.02
  87   6     0.00  -0.02  -0.01    -0.00  -0.01   0.02     0.00   0.08  -0.01
  88   6     0.00  -0.02  -0.01    -0.00  -0.01   0.03     0.00   0.09  -0.02
  89   6     0.00  -0.02  -0.01    -0.00  -0.01   0.03     0.00   0.10  -0.02
  90   6     0.00  -0.01  -0.00    -0.00  -0.01   0.04     0.00   0.10  -0.02
  91   6     0.00  -0.01   0.00    -0.00  -0.01   0.04     0.00   0.10  -0.02
  92   6     0.00  -0.01   0.01    -0.00  -0.01   0.04     0.00   0.08  -0.02
  93   6    -0.00   0.01   0.02     0.00  -0.00  -0.01    -0.00  -0.07   0.02
  94   6    -0.00   0.01   0.01     0.00  -0.00  -0.02    -0.00  -0.08   0.02
  95   6    -0.00   0.01   0.01     0.00  -0.00  -0.03    -0.00  -0.09   0.02
  96   6    -0.00   0.01   0.00     0.00   0.00  -0.03    -0.00  -0.09   0.02
  97   6    -0.00   0.01  -0.00     0.00   0.00  -0.04    -0.00  -0.09   0.02
  98   6    -0.00   0.01  -0.00     0.00   0.00  -0.04    -0.00  -0.08   0.02
  99   6     0.00   0.01   0.04     0.01   0.01   0.11    -0.06   0.04  -0.02
 100   6     0.00   0.01   0.03     0.01   0.00   0.09    -0.04   0.05  -0.02
 101   6     0.00   0.01   0.03     0.00  -0.00   0.04    -0.02   0.04  -0.02
 102   6     0.00   0.00   0.01    -0.00  -0.01   0.01     0.00   0.05  -0.01
 103   6    -0.00   0.00   0.01    -0.00  -0.01  -0.03     0.02   0.04  -0.01
 104   6    -0.00   0.00   0.00    -0.01  -0.02  -0.06     0.04   0.05  -0.01
 105   6    -0.00   0.00  -0.00    -0.01  -0.02  -0.10     0.06   0.04  -0.00
 106   6    -0.00   0.01   0.01    -0.01  -0.01  -0.08     0.05   0.02   0.00
 107   7    -0.00   0.01   0.01    -0.01  -0.01  -0.04     0.03   0.02  -0.00
 108   6    -0.00   0.01   0.01    -0.01  -0.01  -0.10     0.06  -0.01   0.01
 109   6    -0.00   0.01   0.01    -0.01  -0.01  -0.09     0.05  -0.03   0.01
 110   6    -0.00   0.01   0.01    -0.01  -0.01  -0.12     0.06  -0.05   0.01
 111   6    -0.00   0.01   0.02    -0.01  -0.00  -0.09     0.04  -0.06   0.02
 112   6    -0.00   0.01   0.02    -0.00   0.00  -0.05     0.02  -0.05   0.01
 113   7    -0.00   0.01   0.02    -0.01  -0.00  -0.06     0.02  -0.03   0.01
 114   6     0.00   0.01   0.03    -0.00   0.01  -0.02    -0.00  -0.06   0.01
 115   6     0.00   0.01   0.03     0.00   0.01   0.02    -0.02  -0.05   0.00
 116   6     0.00   0.01   0.04     0.01   0.02   0.06    -0.04  -0.06   0.00
 117   6     0.00   0.01   0.05     0.01   0.02   0.09    -0.06  -0.05  -0.00
 118   6     0.00   0.01   0.04     0.01   0.01   0.07    -0.05  -0.03  -0.01
 119   7     0.00   0.01   0.04     0.00   0.01   0.04    -0.03  -0.03  -0.00
 120   6     0.00   0.01   0.05     0.01   0.01   0.10    -0.06  -0.01  -0.01
 121   6     0.00   0.01   0.04     0.01   0.01   0.08    -0.04   0.01  -0.02
 122   7     0.00   0.01   0.03     0.00   0.00   0.05    -0.02   0.02  -0.01
 123   1     0.00   0.00   0.01     0.00   0.00   0.04    -0.02   0.01  -0.01
 124   1     0.00   0.00   0.01     0.00  -0.00   0.03    -0.01   0.02  -0.01
 125   1    -0.00   0.00  -0.00    -0.00  -0.01  -0.02     0.01   0.02  -0.00
 126   1    -0.00   0.00  -0.00    -0.00  -0.01  -0.04     0.02   0.01   0.00
 127   1    -0.00   0.00   0.01    -0.00  -0.00  -0.01     0.00   0.00  -0.00
 128   1    -0.00   0.00   0.00    -0.00  -0.00  -0.04     0.02  -0.00   0.00
 129   1    -0.00   0.00   0.00    -0.00  -0.00  -0.04     0.02  -0.01   0.01
 130   1    -0.00   0.00   0.00    -0.00   0.00  -0.03     0.01  -0.02   0.01
 131   1     0.00   0.00   0.01     0.00   0.01   0.02    -0.01  -0.02   0.00
 132   1     0.00   0.00   0.01     0.00   0.01   0.04    -0.02  -0.01  -0.00
 133   1     0.00   0.00   0.01     0.00   0.00   0.00    -0.00  -0.01  -0.00
 134   1     0.00   0.00   0.02     0.00   0.00   0.04    -0.02  -0.00  -0.00
 135   6    -0.01  -0.01  -0.09    -0.01   0.02   0.12     0.06  -0.03   0.12
 136   6    -0.00  -0.01  -0.06    -0.01   0.02   0.08     0.04  -0.05   0.09
 137   6    -0.00  -0.00  -0.03    -0.00   0.01   0.03     0.02  -0.05   0.05
 138   6     0.00   0.00  -0.01    -0.00   0.01  -0.02    -0.00  -0.06   0.02
 139   6     0.00   0.00   0.02     0.00   0.00  -0.06    -0.02  -0.06  -0.02
 140   6     0.01   0.01   0.05     0.01  -0.00  -0.12    -0.04  -0.07  -0.06
 141   6     0.01   0.01   0.07     0.01  -0.01  -0.15    -0.06  -0.06  -0.09
 142   6     0.01   0.00   0.05     0.01  -0.01  -0.12    -0.05  -0.03  -0.07
 143   7     0.00   0.00   0.02     0.00  -0.00  -0.07    -0.03  -0.04  -0.04
 144   6     0.01   0.00   0.06     0.01  -0.01  -0.13    -0.06  -0.01  -0.10
 145   6     0.01  -0.00   0.05     0.01  -0.01  -0.10    -0.05   0.01  -0.08
 146   6     0.01  -0.00   0.06     0.01  -0.02  -0.12    -0.06   0.03  -0.11
 147   6     0.01  -0.01   0.04     0.01  -0.02  -0.08    -0.04   0.05  -0.08
 148   6     0.00  -0.01   0.01     0.00  -0.01  -0.04    -0.02   0.04  -0.04
 149   7     0.00  -0.01   0.02     0.00  -0.01  -0.05    -0.02   0.02  -0.05
 150   6     0.00  -0.01  -0.01    -0.00  -0.00   0.01     0.00   0.06  -0.01
 151   6    -0.00  -0.02  -0.04    -0.00   0.00   0.06     0.02   0.05   0.03
 152   6    -0.00  -0.02  -0.07    -0.01   0.01   0.11     0.04   0.06   0.07
 153   6    -0.01  -0.02  -0.09    -0.01   0.01   0.14     0.06   0.05   0.10
 154   6    -0.00  -0.02  -0.07    -0.01   0.01   0.11     0.05   0.03   0.08
 155   7    -0.00  -0.01  -0.05    -0.00   0.01   0.06     0.03   0.03   0.05
 156   6    -0.01  -0.02  -0.09    -0.01   0.02   0.12     0.06   0.01   0.11
 157   6    -0.00  -0.01  -0.07    -0.01   0.02   0.09     0.05  -0.01   0.09
 158   7    -0.00  -0.01  -0.04    -0.00   0.01   0.05     0.03  -0.03   0.06
 159   1    -0.00  -0.00  -0.03    -0.00   0.01   0.05     0.02  -0.01   0.04
 160   1    -0.00  -0.00  -0.02    -0.00   0.01   0.02     0.01  -0.02   0.03
 161   1     0.00   0.00   0.02     0.00  -0.00  -0.04    -0.01  -0.03  -0.02
 162   1     0.00   0.00   0.03     0.00  -0.00  -0.06    -0.02  -0.02  -0.04
 163   1     0.00  -0.00   0.00     0.00   0.00  -0.01    -0.00  -0.01  -0.00
 164   1     0.00   0.00   0.02     0.00  -0.01  -0.05    -0.02  -0.01  -0.04
 165   1     0.00   0.00   0.02     0.00  -0.01  -0.05    -0.02   0.01  -0.04
 166   1     0.00  -0.00   0.01     0.00  -0.01  -0.02    -0.01   0.02  -0.03
 167   1    -0.00  -0.01  -0.02    -0.00   0.00   0.04     0.01   0.02   0.02
 168   1    -0.00  -0.01  -0.03    -0.00   0.01   0.05     0.02   0.02   0.04
 169   1    -0.00  -0.00  -0.01    -0.00   0.00   0.01     0.00   0.00   0.01
 170   1    -0.00  -0.01  -0.03    -0.00   0.01   0.05     0.02   0.00   0.04
 171   6     0.01  -0.02  -0.07     0.01  -0.01   0.05    -0.05   0.03  -0.13
 172   6     0.01  -0.01  -0.05     0.00  -0.01   0.05    -0.04   0.05  -0.10
 173   6     0.00  -0.01  -0.02     0.00  -0.01   0.04    -0.02   0.05  -0.06
 174   6    -0.00  -0.01   0.01    -0.00  -0.01   0.04     0.00   0.07  -0.01
 175   6    -0.00  -0.00   0.04    -0.00  -0.01   0.03     0.02   0.06   0.03
 176   6    -0.01   0.00   0.07    -0.00  -0.01   0.03     0.04   0.08   0.08
 177   6    -0.01   0.01   0.10    -0.01  -0.01   0.03     0.05   0.06   0.11
 178   6    -0.01   0.01   0.09    -0.00  -0.01   0.03     0.04   0.04   0.09
 179   7    -0.00   0.00   0.06    -0.00  -0.01   0.03     0.02   0.04   0.05
 180   6    -0.01   0.01   0.10    -0.01  -0.01   0.02     0.05   0.02   0.12
 181   6    -0.01   0.01   0.09    -0.00  -0.01   0.01     0.04   0.00   0.10
 182   6    -0.01   0.02   0.11    -0.01  -0.00   0.01     0.05  -0.02   0.13
 183   6    -0.01   0.02   0.08    -0.00  -0.00   0.00     0.04  -0.04   0.10
 184   6    -0.00   0.01   0.05    -0.00  -0.00   0.01     0.02  -0.03   0.06
 185   7    -0.00   0.01   0.06    -0.00  -0.01   0.02     0.02  -0.01   0.06
 186   6    -0.00   0.01   0.02     0.00  -0.00   0.00    -0.00  -0.05   0.01
 187   6     0.00   0.00  -0.01     0.00  -0.00   0.01    -0.02  -0.04  -0.03
 188   6     0.01  -0.00  -0.05     0.00  -0.00   0.01    -0.04  -0.06  -0.08
 189   6     0.01  -0.01  -0.07     0.01  -0.00   0.02    -0.05  -0.05  -0.11
 190   6     0.01  -0.01  -0.05     0.00  -0.00   0.02    -0.04  -0.02  -0.09
 191   7     0.00  -0.00  -0.02     0.00  -0.00   0.02    -0.02  -0.02  -0.05
 192   6     0.01  -0.01  -0.07     0.01  -0.01   0.03    -0.05  -0.01  -0.12
 193   6     0.01  -0.01  -0.05     0.00  -0.01   0.04    -0.04   0.02  -0.10
 194   7     0.00  -0.01  -0.02     0.00  -0.01   0.04    -0.02   0.03  -0.06
 195   1     0.00  -0.01  -0.03     0.00  -0.00   0.02    -0.02   0.01  -0.05
 196   1     0.00  -0.00  -0.02     0.00  -0.00   0.02    -0.01   0.02  -0.03
 197   1    -0.00   0.00   0.02    -0.00  -0.00   0.01     0.01   0.03   0.02
 198   1    -0.00   0.00   0.04    -0.00  -0.00   0.01     0.02   0.02   0.04
 199   1    -0.00   0.00   0.01    -0.00  -0.00   0.01     0.00   0.01   0.01
 200   1    -0.00   0.01   0.04    -0.00  -0.00   0.01     0.02   0.01   0.05
 201   1    -0.00   0.01   0.04    -0.00  -0.00   0.00     0.02  -0.00   0.05
 202   1    -0.00   0.01   0.03    -0.00  -0.00  -0.00     0.01  -0.02   0.03
 203   1     0.00   0.00  -0.02     0.00  -0.00  -0.00    -0.01  -0.02  -0.02
 204   1     0.00  -0.00  -0.03     0.00  -0.00   0.00    -0.02  -0.02  -0.04
 205   1     0.00   0.00   0.00     0.00  -0.00   0.01    -0.00  -0.00  -0.01
 206   1     0.00  -0.00  -0.03     0.00  -0.00   0.01    -0.02  -0.00  -0.05
                     10                     11                     12
                        a                      a                      a 
 Frequencies --     7.5530                 7.9186                 9.5066
 Red. masses --    11.2534                11.3580                11.5993
 Frc consts  --     0.0000                 0.0000                 0.0000
 IR Inten    --     0.0333                 0.0369                 1.6338
 Raman Activ --     0.0000                 0.0000                 0.0000
 Depolar     --     0.0000                 0.0000                 0.0000
 Atom AN      X      Y      Z        X      Y      Z        X      Y      Z
   1   6    -0.01   0.01  -0.07     0.04  -0.03  -0.03     0.01  -0.00  -0.05
   2   6    -0.00   0.01  -0.06     0.03  -0.04  -0.03     0.01  -0.00  -0.08
   3   6    -0.00   0.01  -0.03     0.02  -0.03  -0.02     0.00  -0.00  -0.07
   4   6    -0.00   0.01  -0.01     0.00  -0.04  -0.02     0.00  -0.00  -0.10
   5   6     0.00   0.00   0.01    -0.02  -0.03  -0.01    -0.00   0.00  -0.09
   6   6     0.00   0.00   0.03    -0.03  -0.04  -0.01    -0.01   0.00  -0.12
   7   6     0.01  -0.00   0.05    -0.04  -0.03  -0.00    -0.01   0.00  -0.11
   8   6     0.00  -0.00   0.04    -0.03  -0.01   0.00    -0.01   0.00  -0.06
   9   7     0.00   0.00   0.02    -0.02  -0.02  -0.00    -0.00   0.00  -0.06
  10   6     0.00  -0.01   0.06    -0.04   0.00   0.01    -0.01   0.00  -0.03
  11   6     0.00  -0.01   0.05    -0.03   0.01   0.02    -0.01   0.00   0.02
  12   6     0.00  -0.01   0.07    -0.04   0.03   0.03    -0.01   0.00   0.06
  13   6     0.00  -0.01   0.06    -0.03   0.04   0.04    -0.01   0.00   0.10
  14   6     0.00  -0.01   0.03    -0.02   0.03   0.03    -0.01   0.00   0.09
  15   7     0.00  -0.01   0.03    -0.02   0.02   0.02    -0.01   0.00   0.04
  16   6    -0.00  -0.01   0.01    -0.00   0.04   0.03    -0.01   0.00   0.13
  17   6    -0.00  -0.01  -0.02     0.02   0.03   0.02    -0.00  -0.00   0.11
  18   6    -0.00  -0.01  -0.04     0.03   0.04   0.02    -0.00  -0.00   0.15
  19   6    -0.01  -0.00  -0.06     0.04   0.03   0.01     0.00  -0.00   0.12
  20   6    -0.00  -0.00  -0.05     0.03   0.01   0.00     0.00  -0.00   0.07
  21   7    -0.00  -0.00  -0.03     0.02   0.02   0.01    -0.00  -0.00   0.07
  22   6    -0.01   0.00  -0.07     0.04  -0.00  -0.01     0.01  -0.00   0.03
  23   6    -0.00   0.01  -0.06     0.03  -0.02  -0.01     0.01  -0.00  -0.02
  24   7    -0.00   0.00  -0.04     0.02  -0.02  -0.01     0.00  -0.00  -0.03
  25   1    -0.00   0.00  -0.03     0.02  -0.01  -0.01     0.00  -0.00  -0.01
  26   1    -0.00   0.00  -0.02     0.01  -0.02  -0.01     0.00  -0.00  -0.03
  27   1     0.00   0.00   0.01    -0.01  -0.02  -0.01    -0.00   0.00  -0.05
  28   1     0.00  -0.00   0.02    -0.02  -0.01  -0.00    -0.00   0.00  -0.04
  29   1     0.00  -0.00   0.00    -0.00  -0.00  -0.00    -0.00   0.00  -0.01
  30   1     0.00  -0.00   0.02    -0.02   0.00   0.00    -0.00   0.00  -0.01
  31   1     0.00  -0.00   0.03    -0.02   0.01   0.01    -0.00   0.00   0.01
  32   1     0.00  -0.00   0.02    -0.01   0.02   0.01    -0.00   0.00   0.04
  33   1    -0.00  -0.00   0.00    -0.00   0.02   0.01    -0.00   0.00   0.05
  34   1    -0.00  -0.00  -0.01     0.01   0.02   0.01    -0.00  -0.00   0.05
  35   1    -0.00  -0.00  -0.02     0.02   0.01   0.00     0.00  -0.00   0.04
  36   1    -0.00  -0.00  -0.00     0.00   0.00   0.00    -0.00  -0.00   0.01
  37   1    -0.00   0.00  -0.02     0.02  -0.00  -0.00     0.00  -0.00   0.01
  38   6     0.02  -0.02  -0.08    -0.04   0.04   0.06     0.00  -0.00   0.01
  39   6     0.01  -0.02  -0.06    -0.03   0.05   0.06     0.00  -0.00   0.05
  40   6     0.01  -0.02  -0.03    -0.01   0.04   0.04    -0.00   0.00   0.04
  41   6     0.00  -0.02  -0.01    -0.00   0.04   0.02    -0.00   0.00   0.07
  42   6    -0.01  -0.01   0.02     0.01   0.03   0.01    -0.00   0.00   0.08
  43   6    -0.01  -0.01   0.04     0.03   0.04  -0.01    -0.00   0.01   0.11
  44   6    -0.02  -0.01   0.06     0.04   0.03  -0.02    -0.01   0.01   0.10
  45   6    -0.01  -0.00   0.05     0.03   0.01  -0.03    -0.01   0.01   0.06
  46   7    -0.01  -0.01   0.02     0.02   0.02  -0.01    -0.01   0.00   0.05
  47   6    -0.01   0.01   0.07     0.03  -0.01  -0.04    -0.01   0.01   0.04
  48   6    -0.01   0.01   0.06     0.03  -0.02  -0.05    -0.01   0.00  -0.00
  49   6    -0.01   0.02   0.07     0.03  -0.04  -0.07    -0.01   0.00  -0.03
  50   6    -0.01   0.03   0.06     0.02  -0.05  -0.06    -0.02   0.00  -0.07
  51   6    -0.00   0.02   0.03     0.01  -0.04  -0.04    -0.01   0.00  -0.07
  52   7    -0.01   0.01   0.03     0.01  -0.02  -0.03    -0.01   0.00  -0.03
  53   6     0.00   0.02   0.00    -0.01  -0.04  -0.03    -0.01  -0.00  -0.10
  54   6     0.01   0.02  -0.02    -0.02  -0.04  -0.01    -0.01  -0.00  -0.10
  55   6     0.01   0.02  -0.05    -0.03  -0.04   0.00    -0.01  -0.00  -0.14
  56   6     0.02   0.01  -0.07    -0.04  -0.03   0.02    -0.01  -0.00  -0.12
  57   6     0.01   0.00  -0.06    -0.03  -0.01   0.02    -0.01  -0.00  -0.08
  58   7     0.01   0.01  -0.03    -0.02  -0.02   0.01    -0.01  -0.00  -0.07
  59   6     0.02  -0.01  -0.08    -0.04   0.00   0.04    -0.00  -0.00  -0.05
  60   6     0.01  -0.01  -0.06    -0.03   0.02   0.04    -0.00  -0.00  -0.01
  61   7     0.01  -0.01  -0.04    -0.02   0.02   0.03    -0.00  -0.00   0.01
  62   1     0.01  -0.01  -0.03    -0.01   0.01   0.02     0.00  -0.00   0.00
  63   1     0.00  -0.01  -0.02    -0.01   0.02   0.02     0.00  -0.00   0.02
  64   1    -0.00  -0.01   0.01     0.01   0.02   0.00    -0.00   0.00   0.04
  65   1    -0.01  -0.00   0.02     0.01   0.01  -0.01    -0.00   0.00   0.03
  66   1    -0.00  -0.00   0.00     0.00   0.00  -0.00    -0.00   0.00   0.01
  67   1    -0.01   0.00   0.03     0.01  -0.00  -0.02    -0.00   0.00   0.02
  68   1    -0.01   0.01   0.03     0.01  -0.01  -0.02    -0.00   0.00  -0.00
  69   1    -0.00   0.01   0.02     0.01  -0.02  -0.02    -0.01   0.00  -0.03
  70   1     0.00   0.01   0.00    -0.00  -0.02  -0.01    -0.00  -0.00  -0.04
  71   1     0.00   0.01  -0.01    -0.01  -0.02  -0.00    -0.00  -0.00  -0.05
  72   1     0.01   0.00  -0.03    -0.02  -0.01   0.01    -0.00  -0.00  -0.04
  73   1     0.00   0.00  -0.01    -0.00  -0.00   0.00    -0.00  -0.00  -0.01
  74   1     0.01  -0.00  -0.03    -0.01   0.00   0.02    -0.00  -0.00  -0.02
  75   6    -0.00   0.01  -0.01     0.00  -0.06  -0.03     0.00  -0.00  -0.12
  76   6    -0.00   0.01  -0.01     0.00  -0.06  -0.03     0.00  -0.00  -0.14
  77   6    -0.00   0.01  -0.01     0.00  -0.07  -0.03     0.00  -0.00  -0.14
  78   6    -0.00   0.01  -0.01     0.00  -0.07  -0.03     0.00  -0.00  -0.14
  79   6    -0.00   0.01  -0.01     0.00  -0.06  -0.03     0.00  -0.00  -0.13
  80   6     0.00   0.01  -0.00     0.00  -0.05  -0.03     0.00  -0.00  -0.11
  81   6    -0.00  -0.02   0.02     0.00   0.06   0.03     0.00   0.00   0.11
  82   6    -0.00  -0.02   0.02     0.00   0.07   0.03     0.00   0.00   0.12
  83   6    -0.00  -0.02   0.01     0.00   0.08   0.03     0.00   0.00   0.13
  84   6    -0.00  -0.02   0.01     0.00   0.08   0.03     0.00   0.00   0.13
  85   6    -0.00  -0.01   0.00     0.00   0.07   0.03     0.00   0.00   0.12
  86   6    -0.00  -0.01  -0.00     0.00   0.06   0.03     0.00   0.00   0.10
  87   6    -0.00   0.03  -0.02     0.00  -0.06  -0.03     0.00  -0.00  -0.10
  88   6    -0.00   0.03  -0.01     0.00  -0.07  -0.03     0.00  -0.00  -0.12
  89   6    -0.00   0.03  -0.01     0.00  -0.08  -0.03     0.00  -0.00  -0.12
  90   6    -0.00   0.03  -0.00     0.00  -0.08  -0.03     0.00  -0.00  -0.12
  91   6    -0.00   0.03   0.00     0.00  -0.07  -0.03     0.00  -0.00  -0.11
  92   6    -0.00   0.02   0.01     0.00  -0.06  -0.03     0.00  -0.00  -0.10
  93   6     0.00  -0.03   0.01    -0.00   0.05   0.03    -0.00   0.00   0.10
  94   6     0.00  -0.03   0.00    -0.00   0.06   0.03    -0.00   0.00   0.11
  95   6     0.00  -0.03  -0.00    -0.00   0.07   0.04    -0.00   0.00   0.12
  96   6     0.00  -0.03  -0.01    -0.00   0.07   0.04    -0.00   0.00   0.12
  97   6     0.00  -0.03  -0.01    -0.00   0.07   0.03    -0.00   0.00   0.11
  98   6     0.00  -0.03  -0.01    -0.00   0.06   0.03    -0.00   0.00   0.10
  99   6    -0.01  -0.02  -0.19     0.04  -0.03  -0.11    -0.00   0.01   0.01
 100   6    -0.01  -0.01  -0.14     0.03  -0.04  -0.09    -0.00   0.00  -0.03
 101   6    -0.00  -0.00  -0.06     0.01  -0.03  -0.05    -0.00   0.00  -0.04
 102   6    -0.00   0.01   0.00     0.00  -0.03  -0.02     0.00  -0.00  -0.08
 103   6     0.00   0.01   0.07    -0.01  -0.02   0.02     0.00  -0.00  -0.08
 104   6     0.01   0.02   0.14    -0.03  -0.02   0.05     0.01  -0.01  -0.12
 105   6     0.01   0.03   0.20    -0.04  -0.01   0.08     0.01  -0.01  -0.11
 106   6     0.01   0.02   0.16    -0.03   0.00   0.07     0.01  -0.01  -0.07
 107   7     0.01   0.01   0.10    -0.02  -0.01   0.03     0.01  -0.00  -0.06
 108   6     0.01   0.02   0.20    -0.03   0.02   0.09     0.01  -0.01  -0.04
 109   6     0.01   0.01   0.17    -0.03   0.03   0.08     0.01  -0.00  -0.00
 110   6     0.01   0.02   0.21    -0.04   0.05   0.11     0.01  -0.00   0.01
 111   6     0.01   0.01   0.16    -0.03   0.06   0.09     0.01  -0.00   0.05
 112   6     0.00  -0.00   0.09    -0.01   0.05   0.05     0.01   0.00   0.06
 113   7     0.00   0.00   0.10    -0.01   0.03   0.05     0.01  -0.00   0.03
 114   6    -0.00  -0.01   0.02     0.00   0.05   0.02     0.00   0.00   0.09
 115   6    -0.00  -0.02  -0.05     0.01   0.04  -0.02     0.00   0.01   0.10
 116   6    -0.01  -0.03  -0.12     0.03   0.04  -0.05    -0.00   0.01   0.13
 117   6    -0.01  -0.03  -0.17     0.04   0.03  -0.08    -0.00   0.01   0.13
 118   6    -0.01  -0.03  -0.14     0.03   0.01  -0.07    -0.00   0.01   0.09
 119   7    -0.01  -0.02  -0.07     0.02   0.02  -0.03     0.00   0.01   0.08
 120   6    -0.01  -0.03  -0.17     0.04  -0.00  -0.09    -0.00   0.01   0.07
 121   6    -0.01  -0.02  -0.14     0.03  -0.02  -0.08    -0.00   0.01   0.02
 122   7    -0.01  -0.01  -0.07     0.02  -0.02  -0.05    -0.00   0.00  -0.01
 123   1    -0.00  -0.01  -0.07     0.01  -0.01  -0.04    -0.00   0.00   0.01
 124   1    -0.00  -0.00  -0.04     0.01  -0.02  -0.03    -0.00   0.00  -0.02
 125   1     0.00   0.01   0.04    -0.01  -0.01   0.01     0.00  -0.00  -0.04
 126   1     0.00   0.01   0.07    -0.01  -0.00   0.03     0.00  -0.00  -0.04
 127   1     0.00   0.00   0.01    -0.00   0.00   0.00     0.00  -0.00  -0.01
 128   1     0.00   0.01   0.08    -0.01   0.01   0.04     0.00  -0.00  -0.02
 129   1     0.00   0.01   0.08    -0.01   0.02   0.04     0.00  -0.00  -0.00
 130   1     0.00   0.00   0.05    -0.01   0.02   0.03     0.00  -0.00   0.02
 131   1    -0.00  -0.01  -0.04     0.01   0.02  -0.01    -0.00   0.00   0.05
 132   1    -0.00  -0.01  -0.07     0.01   0.01  -0.03    -0.00   0.00   0.04
 133   1    -0.00  -0.00  -0.01     0.00   0.00  -0.00     0.00   0.00   0.01
 134   1    -0.00  -0.01  -0.07     0.01  -0.00  -0.04    -0.00   0.00   0.02
 135   6     0.01   0.00   0.04    -0.04   0.05   0.17     0.01  -0.00   0.03
 136   6     0.01  -0.00   0.03    -0.03   0.06   0.13     0.01  -0.00   0.06
 137   6     0.00  -0.00   0.01    -0.01   0.04   0.07     0.01   0.00   0.05
 138   6    -0.00  -0.01  -0.01     0.00   0.04   0.02     0.00   0.00   0.08
 139   6    -0.01  -0.01  -0.03     0.02   0.03  -0.04     0.00   0.00   0.07
 140   6    -0.01  -0.01  -0.05     0.03   0.03  -0.09    -0.00   0.00   0.10
 141   6    -0.01  -0.01  -0.07     0.04   0.01  -0.14    -0.00   0.00   0.08
 142   6    -0.01  -0.00  -0.06     0.03  -0.00  -0.11    -0.00   0.00   0.05
 143   7    -0.01  -0.00  -0.04     0.02   0.01  -0.06     0.00   0.00   0.05
 144   6    -0.01  -0.00  -0.08     0.04  -0.02  -0.15    -0.00   0.00   0.02
 145   6    -0.01   0.01  -0.07     0.03  -0.03  -0.13    -0.00   0.00  -0.01
 146   6    -0.01   0.01  -0.08     0.04  -0.05  -0.17    -0.00   0.00  -0.04
 147   6    -0.01   0.02  -0.07     0.03  -0.06  -0.13    -0.00   0.00  -0.06
 148   6    -0.01   0.02  -0.04     0.01  -0.04  -0.07     0.00  -0.00  -0.06
 149   7    -0.01   0.01  -0.05     0.02  -0.03  -0.07     0.00   0.00  -0.03
 150   6    -0.00   0.02  -0.02     0.00  -0.05  -0.02     0.00  -0.00  -0.08
 151   6     0.01   0.02  -0.00    -0.01  -0.03   0.04     0.01  -0.00  -0.08
 152   6     0.01   0.03   0.02    -0.03  -0.03   0.09     0.01  -0.00  -0.10
 153   6     0.01   0.02   0.03    -0.04  -0.01   0.14     0.01  -0.00  -0.09
 154   6     0.01   0.02   0.02    -0.03  -0.00   0.11     0.01  -0.00  -0.05
 155   7     0.01   0.02   0.00    -0.02  -0.01   0.06     0.01  -0.00  -0.05
 156   6     0.01   0.01   0.03    -0.04   0.02   0.15     0.01  -0.00  -0.03
 157   6     0.01   0.01   0.02    -0.03   0.03   0.13     0.01  -0.00   0.01
 158   7     0.01   0.00   0.00    -0.02   0.03   0.08     0.01  -0.00   0.02
 159   1     0.01   0.00   0.01    -0.01   0.02   0.06     0.00  -0.00   0.01
 160   1     0.00  -0.00   0.01    -0.01   0.02   0.04     0.00   0.00   0.02
 161   1    -0.00  -0.00  -0.01     0.01   0.01  -0.03    -0.00   0.00   0.04
 162   1    -0.01  -0.00  -0.02     0.02   0.00  -0.05    -0.00   0.00   0.03
 163   1    -0.00   0.00  -0.01     0.00   0.00  -0.01     0.00   0.00   0.01
 164   1    -0.01  -0.00  -0.03     0.02  -0.01  -0.06    -0.00   0.00   0.01
 165   1    -0.01   0.00  -0.03     0.02  -0.02  -0.06    -0.00   0.00  -0.01
 166   1    -0.00   0.01  -0.02     0.01  -0.02  -0.04    -0.00  -0.00  -0.02
 167   1     0.00   0.01   0.01    -0.01  -0.01   0.03     0.00  -0.00  -0.04
 168   1     0.01   0.01   0.01    -0.02  -0.00   0.05     0.00  -0.00  -0.03
 169   1     0.00   0.00  -0.00    -0.00  -0.00   0.01     0.00  -0.00  -0.01
 170   1     0.01   0.00   0.01    -0.01   0.01   0.06     0.00  -0.00  -0.01
 171   6    -0.02   0.03   0.17     0.04  -0.05  -0.13    -0.01   0.00  -0.01
 172   6    -0.01   0.03   0.12     0.03  -0.06  -0.11    -0.00   0.00  -0.04
 173   6    -0.01   0.02   0.07     0.01  -0.05  -0.06    -0.00  -0.00  -0.04
 174   6    -0.00   0.01   0.01     0.00  -0.05  -0.02     0.00  -0.00  -0.08
 175   6     0.01   0.00  -0.04    -0.01  -0.04   0.02     0.01  -0.01  -0.08
[...]
 166   1    -0.00  -0.00  -0.00     0.00   0.00  -0.00     0.00   0.00   0.00
 167   1    -0.00   0.00  -0.00     0.00  -0.00  -0.00    -0.00   0.00   0.00
 168   1    -0.00   0.00  -0.00    -0.00  -0.00   0.00    -0.00   0.00  -0.00
 169   1    -0.00   0.00  -0.00    -0.00   0.00  -0.00    -0.00   0.00  -0.00
 170   1     0.00   0.00  -0.00    -0.00  -0.00  -0.00    -0.00   0.00  -0.00
 171   6     0.00  -0.00   0.00     0.00   0.00  -0.00     0.00  -0.00   0.00
 172   6    -0.00   0.00  -0.00     0.00   0.00  -0.00    -0.00   0.00  -0.00
 173   6    -0.00   0.00  -0.00    -0.00   0.00  -0.00    -0.00  -0.00   0.00
 174   6     0.00  -0.00   0.00    -0.00  -0.00   0.00    -0.00  -0.00   0.00
 175   6     0.00  -0.00   0.00     0.00  -0.00   0.00     0.00   0.00   0.00
 176   6    -0.00   0.00  -0.00    -0.00   0.00  -0.00     0.00   0.00  -0.00
 177   6    -0.00   0.00  -0.00    -0.00   0.00  -0.00    -0.00   0.00   0.00
 178   6     0.00   0.00  -0.00     0.00   0.00  -0.00     0.00   0.00  -0.00
 179   7     0.00  -0.00   0.00     0.13  -0.15   0.02     0.00  -0.00   0.00
 180   6    -0.00  -0.00   0.00     0.00  -0.00   0.00    -0.00  -0.00   0.00
 181   6    -0.00   0.00  -0.00    -0.00   0.00  -0.00    -0.00  -0.00   0.00
 182   6    -0.00  -0.00  -0.00    -0.00  -0.00   0.00     0.00  -0.00   0.00
 183   6     0.00  -0.00  -0.00    -0.00  -0.00   0.00    -0.00   0.00  -0.00
 184   6     0.00   0.00  -0.00     0.00  -0.00   0.00    -0.00  -0.00   0.00
 185   7    -0.00  -0.00   0.00    -0.00  -0.00   0.00     0.00   0.00  -0.00
 186   6    -0.00  -0.00   0.00     0.00   0.00  -0.00     0.00  -0.00   0.00
 187   6     0.00   0.00  -0.00    -0.00   0.00  -0.00     0.00   0.00  -0.00
 188   6     0.00  -0.00   0.00     0.00  -0.00   0.00    -0.00   0.00  -0.00
 189   6     0.00  -0.00   0.00     0.00  -0.00   0.00     0.00   0.00  -0.00
 190   6     0.00   0.00   0.00    -0.00  -0.00   0.00    -0.00   0.00  -0.00
 191   7    -0.00   0.00  -0.00    -0.11   0.12  -0.02     0.00  -0.00   0.00
 192   6    -0.00  -0.00   0.00    -0.00  -0.00   0.00    -0.00  -0.00   0.00
 193   6     0.00  -0.00   0.00     0.00  -0.00   0.00    -0.00  -0.00   0.00
 194   7     0.00   0.00  -0.00     0.00   0.00  -0.00     0.00   0.00  -0.00
 195   1     0.00   0.00  -0.00     0.00   0.00  -0.00    -0.00   0.00  -0.00
 196   1     0.00   0.00   0.00     0.00   0.00  -0.00    -0.00   0.00   0.00
 197   1    -0.00   0.00  -0.00     0.00   0.00   0.00    -0.00   0.00   0.00
 198   1    -0.00   0.00  -0.00    -0.00   0.00  -0.00    -0.00   0.00  -0.00
 199   1    -0.00   0.00  -0.00    -0.50   0.56  -0.08    -0.00   0.00  -0.00
 200   1     0.00   0.00  -0.00     0.00   0.00  -0.00    -0.00   0.00  -0.00
 201   1    -0.00   0.00  -0.00    -0.00  -0.00   0.00    -0.00   0.00  -0.00
 202   1    -0.00  -0.00  -0.00    -0.00  -0.00   0.00    -0.00  -0.00  -0.00
 203   1    -0.00   0.00   0.00    -0.00   0.00  -0.00    -0.00  -0.00  -0.00
 204   1    -0.00   0.00  -0.00     0.00   0.00  -0.00    -0.00  -0.00   0.00
 205   1     0.00  -0.00   0.00     0.40  -0.44   0.07    -0.00   0.00  -0.00
 206   1     0.00   0.00  -0.00     0.00   0.00  -0.00    -0.00   0.00  -0.00
                    610                    611                    612
                        a                      a                      a 
 Frequencies --  3344.4216              3349.3645              3350.0586
 Red. masses --     1.8920                 1.8895                 1.8893
 Frc consts  --     0.0000                 0.0000                 0.0000
 IR Inten    --  1972.7680               786.5453               808.8620
 Raman Activ --     0.0000                 0.0000                 0.0000
 Depolar     --     0.0000                 0.0000                 0.0000
 Atom AN      X      Y      Z        X      Y      Z        X      Y      Z
   1   6     0.00  -0.00  -0.00    -0.00  -0.00  -0.00     0.00  -0.00  -0.00
   2   6    -0.00   0.00   0.00     0.00  -0.00  -0.00    -0.00   0.00  -0.00
   3   6    -0.00   0.00   0.00     0.00   0.00   0.00    -0.00   0.00  -0.00
   4   6    -0.00  -0.00  -0.00    -0.00  -0.00  -0.00     0.00   0.00  -0.00
   5   6     0.00  -0.00  -0.00     0.00   0.00   0.00    -0.00  -0.00  -0.00
   6   6    -0.00   0.00   0.00     0.00  -0.00  -0.00    -0.00   0.00  -0.00
   7   6    -0.00  -0.00  -0.00     0.00  -0.00  -0.00    -0.00  -0.00  -0.00
   8   6     0.00  -0.00   0.00    -0.00  -0.00  -0.00     0.00   0.00   0.00
   9   7     0.00  -0.00  -0.00    -0.06   0.06   0.00     0.00  -0.00  -0.00
  10   6     0.00  -0.00  -0.00     0.00  -0.00  -0.00    -0.00  -0.00  -0.00
  11   6    -0.00   0.00   0.00     0.00  -0.00  -0.00     0.00   0.00  -0.00
  12   6    -0.00  -0.00  -0.00     0.00   0.00   0.00    -0.00  -0.00  -0.00
  13   6    -0.00   0.00  -0.00     0.00   0.00   0.00    -0.00  -0.00  -0.00
  14   6    -0.00   0.00   0.00    -0.00   0.00   0.00     0.00  -0.00  -0.00
  15   7    -0.00  -0.00  -0.00     0.00   0.00   0.00    -0.00  -0.00  -0.00
  16   6     0.00  -0.00  -0.00     0.00  -0.00  -0.00    -0.00   0.00  -0.00
  17   6     0.00  -0.00  -0.00     0.00  -0.00  -0.00    -0.00   0.00   0.00
  18   6     0.00   0.00   0.00    -0.00   0.00   0.00    -0.00  -0.00  -0.00
  19   6    -0.00  -0.00  -0.00    -0.00   0.00  -0.00     0.00  -0.00  -0.00
  20   6     0.00  -0.00  -0.00     0.00  -0.00   0.00    -0.00   0.00  -0.00
  21   7     0.00  -0.00  -0.00     0.16  -0.18  -0.01    -0.00   0.00   0.00
  22   6     0.00  -0.00  -0.00     0.00  -0.00  -0.00    -0.00  -0.00  -0.00
  23   6    -0.00  -0.00  -0.00    -0.00   0.00   0.00     0.00  -0.00  -0.00
  24   7     0.00   0.00   0.00    -0.00  -0.00  -0.00     0.00   0.00   0.00
  25   1     0.00   0.00   0.00    -0.00  -0.00  -0.00     0.00   0.00   0.00
  26   1     0.00   0.00   0.00    -0.00  -0.00  -0.00     0.00   0.00   0.00
  27   1    -0.00   0.00  -0.00    -0.00   0.00  -0.00     0.00  -0.00  -0.00
  28   1    -0.00   0.00   0.00    -0.00   0.00   0.00     0.00   0.00  -0.00
  29   1    -0.01   0.01   0.00     0.21  -0.23  -0.01    -0.00   0.00   0.00
  30   1     0.00   0.00   0.00     0.00   0.00   0.00     0.00   0.00  -0.00
  31   1     0.00   0.00   0.00     0.00  -0.00  -0.00     0.00   0.00   0.00
  32   1     0.00   0.00   0.00    -0.00  -0.00  -0.00     0.00   0.00  -0.00
  33   1    -0.00   0.00  -0.00    -0.00  -0.00  -0.00     0.00   0.00   0.00
  34   1    -0.00   0.00  -0.00    -0.00   0.00  -0.00     0.00  -0.00   0.00
  35   1    -0.00   0.00   0.00    -0.00   0.00   0.00     0.00   0.00   0.00
  36   1    -0.00   0.00   0.00    -0.61   0.68   0.03     0.00  -0.00  -0.00
  37   1     0.00   0.00   0.00     0.00   0.00   0.00     0.00   0.00   0.00
  38   6    -0.00   0.00   0.00     0.00   0.00  -0.00     0.00   0.00  -0.00
  39   6     0.00  -0.00   0.00     0.00   0.00  -0.00    -0.00   0.00  -0.00
  40   6     0.00  -0.00   0.00    -0.00  -0.00   0.00    -0.00  -0.00   0.00
  41   6     0.00   0.00  -0.00    -0.00  -0.00  -0.00     0.00   0.00  -0.00
  42   6    -0.00   0.00  -0.00    -0.00  -0.00   0.00    -0.00  -0.00   0.00
  43   6     0.00  -0.00   0.00    -0.00   0.00  -0.00    -0.00   0.00  -0.00
  44   6     0.00  -0.00  -0.00    -0.00   0.00  -0.00    -0.00   0.00  -0.00
  45   6    -0.00   0.00   0.00     0.00   0.00  -0.00     0.00   0.00  -0.00
  46   7    -0.16   0.18  -0.01     0.00  -0.00   0.00     0.06  -0.06   0.00
  47   6    -0.00   0.00  -0.00     0.00   0.00  -0.00    -0.00   0.00  -0.00
  48   6     0.00  -0.00   0.00    -0.00   0.00  -0.00    -0.00   0.00  -0.00
  49   6     0.00   0.00  -0.00    -0.00   0.00  -0.00    -0.00  -0.00   0.00
  50   6     0.00  -0.00  -0.00     0.00  -0.00  -0.00    -0.00  -0.00   0.00
  51   6     0.00  -0.00   0.00     0.00  -0.00  -0.00     0.00  -0.00  -0.00
  52   7     0.00   0.00  -0.00    -0.00  -0.00   0.00    -0.00  -0.00   0.00
  53   6    -0.00   0.00  -0.00     0.00   0.00  -0.00    -0.00   0.00  -0.00
  54   6    -0.00   0.00   0.00    -0.00   0.00  -0.00    -0.00   0.00  -0.00
  55   6    -0.00  -0.00   0.00     0.00  -0.00   0.00     0.00  -0.00   0.00
  56   6     0.00   0.00  -0.00     0.00   0.00  -0.00     0.00  -0.00  -0.00
  57   6    -0.00   0.00  -0.00    -0.00   0.00   0.00    -0.00   0.00   0.00
  58   7    -0.06   0.06  -0.00    -0.00   0.00  -0.00    -0.16   0.18  -0.01
  59   6    -0.00   0.00  -0.00    -0.00   0.00  -0.00    -0.00   0.00   0.00
  60   6     0.00   0.00  -0.00     0.00  -0.00   0.00     0.00  -0.00   0.00
  61   7    -0.00  -0.00   0.00     0.00   0.00  -0.00     0.00   0.00  -0.00
  62   1    -0.00  -0.00   0.00    -0.00  -0.00   0.00     0.00   0.00  -0.00
  63   1    -0.00  -0.00   0.00    -0.00  -0.00   0.00     0.00   0.00  -0.00
  64   1     0.00  -0.00  -0.00    -0.00  -0.00  -0.00     0.00  -0.00  -0.00
  65   1     0.00  -0.00   0.00    -0.00  -0.00   0.00     0.00  -0.00   0.00
  66   1     0.61  -0.68   0.03    -0.00   0.00  -0.00    -0.21   0.23  -0.01
  67   1    -0.00  -0.01   0.00    -0.00  -0.00   0.00    -0.00  -0.00   0.00
  68   1    -0.00  -0.00   0.00    -0.00  -0.00   0.00    -0.00   0.00  -0.00
  69   1    -0.00   0.00   0.00    -0.00  -0.00   0.00     0.00   0.00  -0.00
  70   1     0.00   0.00  -0.00    -0.00  -0.00   0.00     0.00   0.00  -0.00
  71   1     0.00  -0.00  -0.00    -0.00  -0.00   0.00     0.00  -0.00  -0.00
  72   1     0.00  -0.00   0.00    -0.00  -0.00   0.00     0.00  -0.00   0.00
  73   1     0.20  -0.23   0.01     0.00  -0.00   0.00     0.61  -0.68   0.02
  74   1    -0.00  -0.01   0.00    -0.00  -0.00   0.00    -0.00  -0.00   0.00
  75   6     0.00  -0.00  -0.00     0.00  -0.00   0.00     0.00   0.00  -0.00
  76   6    -0.00   0.00  -0.00    -0.00  -0.00  -0.00     0.00   0.00  -0.00
  77   6     0.00   0.00  -0.00     0.00  -0.00   0.00     0.00   0.00  -0.00
  78   6    -0.00   0.00  -0.00     0.00   0.00  -0.00     0.00   0.00  -0.00
  79   6     0.00   0.00   0.00    -0.00   0.00   0.00     0.00   0.00  -0.00
  80   6     0.00   0.00  -0.00     0.00  -0.00  -0.00     0.00   0.00  -0.00
  81   6     0.00  -0.00   0.00    -0.00   0.00   0.00     0.00  -0.00   0.00
  82   6    -0.00  -0.00   0.00     0.00   0.00   0.00    -0.00  -0.00   0.00
  83   6     0.00  -0.00   0.00    -0.00   0.00   0.00     0.00  -0.00   0.00
  84   6     0.00  -0.00   0.00     0.00   0.00   0.00     0.00  -0.00   0.00
  85   6    -0.00  -0.00   0.00    -0.00   0.00   0.00     0.00  -0.00   0.00
  86   6     0.00  -0.00   0.00    -0.00   0.00   0.00     0.00  -0.00   0.00
  87   6    -0.00  -0.00   0.00    -0.00   0.00   0.00     0.00  -0.00   0.00
  88   6     0.00  -0.00   0.00    -0.00   0.00   0.00     0.00  -0.00   0.00
  89   6     0.00  -0.00   0.00    -0.00   0.00   0.00    -0.00  -0.00   0.00
  90   6    -0.00  -0.00   0.00    -0.00   0.00   0.00     0.00  -0.00   0.00
  91   6     0.00  -0.00   0.00    -0.00   0.00   0.00    -0.00  -0.00   0.00
  92   6    -0.00  -0.00   0.00    -0.00   0.00   0.00     0.00  -0.00   0.00
  93   6     0.00  -0.00   0.00    -0.00  -0.00  -0.00    -0.00   0.00  -0.00
  94   6    -0.00  -0.00  -0.00    -0.00  -0.00  -0.00     0.00  -0.00   0.00
  95   6     0.00  -0.00   0.00    -0.00  -0.00  -0.00    -0.00  -0.00  -0.00
  96   6    -0.00  -0.00  -0.00    -0.00  -0.00  -0.00    -0.00   0.00   0.00
  97   6     0.00  -0.00  -0.00     0.00  -0.00  -0.00     0.00   0.00  -0.00
  98   6    -0.00   0.00   0.00    -0.00  -0.00  -0.00    -0.00   0.00   0.00
  99   6    -0.00   0.00   0.00     0.00   0.00  -0.00    -0.00  -0.00  -0.00
 100   6     0.00  -0.00   0.00     0.00   0.00  -0.00    -0.00  -0.00   0.00
 101   6     0.00   0.00  -0.00    -0.00   0.00   0.00     0.00   0.00  -0.00
 102   6     0.00   0.00  -0.00    -0.00  -0.00   0.00     0.00   0.00  -0.00
 103   6     0.00  -0.00  -0.00     0.00  -0.00  -0.00     0.00  -0.00   0.00
 104   6     0.00  -0.00   0.00     0.00  -0.00   0.00    -0.00   0.00   0.00
 105   6    -0.00  -0.00   0.00    -0.00  -0.00   0.00     0.00  -0.00   0.00
 106   6     0.00  -0.00   0.00     0.00   0.00  -0.00     0.00   0.00  -0.00
 107   7    -0.00   0.00  -0.00     0.00  -0.00   0.00    -0.00   0.00  -0.00
 108   6     0.00   0.00  -0.00    -0.00  -0.00   0.00    -0.00   0.00  -0.00
 109   6     0.00   0.00  -0.00     0.00  -0.00   0.00     0.00   0.00  -0.00
 110   6    -0.00   0.00  -0.00     0.00  -0.00   0.00    -0.00   0.00  -0.00
 111   6     0.00  -0.00   0.00    -0.00   0.00  -0.00    -0.00  -0.00   0.00
 112   6     0.00   0.00  -0.00    -0.00  -0.00   0.00     0.00   0.00  -0.00
 113   7    -0.00  -0.00   0.00     0.00   0.00  -0.00    -0.00   0.00   0.00
 114   6     0.00  -0.00   0.00    -0.00  -0.00   0.00     0.00   0.00  -0.00
 115   6    -0.00  -0.00   0.00     0.00   0.00  -0.00     0.00  -0.00  -0.00
 116   6    -0.00  -0.00   0.00    -0.00   0.00  -0.00    -0.00   0.00  -0.00
 117   6     0.00  -0.00   0.00     0.00   0.00  -0.00     0.00  -0.00  -0.00
 118   6    -0.00  -0.00   0.00     0.00   0.00  -0.00     0.00   0.00  -0.00
 119   7    -0.00   0.00  -0.00     0.00  -0.00   0.00    -0.00   0.00  -0.00
 120   6     0.00   0.00  -0.00    -0.00   0.00   0.00    -0.00   0.00  -0.00
 121   6     0.00   0.00  -0.00     0.00  -0.00   0.00     0.00  -0.00  -0.00
 122   7    -0.00  -0.00   0.00    -0.00   0.00  -0.00    -0.00   0.00  -0.00
 123   1     0.00  -0.00   0.00    -0.00  -0.00   0.00     0.00  -0.00  -0.00
 124   1     0.00   0.00  -0.00    -0.00  -0.00   0.00     0.00   0.00  -0.00
 125   1     0.00   0.00  -0.00    -0.00   0.00  -0.00     0.00  -0.00   0.00
 126   1     0.00   0.00  -0.00    -0.00   0.00  -0.00     0.00   0.00   0.00
 127   1     0.00  -0.00   0.00    -0.00   0.00  -0.00     0.00  -0.00   0.00
 128   1     0.00  -0.00  -0.00    -0.00   0.00  -0.00     0.00  -0.00   0.00
 129   1     0.00  -0.00   0.00     0.00   0.00  -0.00     0.00  -0.00   0.00
 130   1     0.00  -0.00  -0.00     0.00   0.00  -0.00     0.00   0.00  -0.00
 131   1     0.00  -0.00   0.00     0.00  -0.00   0.00     0.00  -0.00   0.00
 132   1     0.00  -0.00   0.00     0.00  -0.00   0.00     0.00   0.00  -0.00
 133   1     0.00  -0.00   0.00    -0.00   0.00  -0.00     0.00  -0.00   0.00
 134   1     0.00  -0.00   0.00    -0.00  -0.00   0.00     0.00  -0.00  -0.00
 135   6    -0.00   0.00  -0.00     0.00   0.00   0.00     0.00   0.00  -0.00
 136   6     0.00  -0.00   0.00     0.00   0.00  -0.00     0.00  -0.00   0.00
 137   6     0.00  -0.00   0.00    -0.00   0.00   0.00     0.00   0.00  -0.00
 138   6     0.00   0.00  -0.00    -0.00  -0.00   0.00     0.00   0.00  -0.00
 139   6    -0.00  -0.00   0.00     0.00   0.00   0.00    -0.00  -0.00   0.00
 140   6    -0.00  -0.00   0.00     0.00  -0.00   0.00    -0.00  -0.00   0.00
 141   6     0.00   0.00  -0.00    -0.00  -0.00   0.00     0.00   0.00  -0.00
 142   6    -0.00  -0.00   0.00    -0.00  -0.00   0.00     0.00   0.00  -0.00
 143   7    -0.00   0.00  -0.00     0.00  -0.00   0.00    -0.00   0.00  -0.00
 144   6     0.00   0.00  -0.00     0.00  -0.00   0.00    -0.00   0.00  -0.00
 145   6     0.00   0.00  -0.00    -0.00   0.00   0.00     0.00  -0.00   0.00
 146   6    -0.00   0.00  -0.00    -0.00  -0.00   0.00    -0.00  -0.00   0.00
 147   6    -0.00  -0.00   0.00    -0.00   0.00  -0.00    -0.00  -0.00   0.00
 148   6     0.00  -0.00   0.00    -0.00  -0.00   0.00     0.00  -0.00   0.00
 149   7     0.00  -0.00   0.00     0.00   0.00   0.00    -0.00   0.00   0.00
 150   6     0.00  -0.00   0.00    -0.00  -0.00   0.00     0.00   0.00   0.00
 151   6    -0.00   0.00   0.00     0.00   0.00  -0.00    -0.00  -0.00   0.00
 152   6    -0.00  -0.00   0.00     0.00   0.00  -0.00    -0.00   0.00  -0.00
 153   6     0.00   0.00  -0.00    -0.00  -0.00   0.00     0.00   0.00  -0.00
 154   6    -0.00  -0.00   0.00    -0.00  -0.00   0.00     0.00   0.00  -0.00
 155   7    -0.00   0.00  -0.00     0.00  -0.00   0.00    -0.00   0.00  -0.00
 156   6     0.00   0.00  -0.00     0.00  -0.00   0.00    -0.00   0.00  -0.00
 157   6    -0.00   0.00  -0.00    -0.00   0.00   0.00     0.00  -0.00   0.00
 158   7    -0.00  -0.00   0.00     0.00  -0.00   0.00    -0.00  -0.00   0.00
 159   1    -0.00  -0.00   0.00    -0.00   0.00   0.00     0.00  -0.00   0.00
 160   1    -0.00  -0.00   0.00    -0.00   0.00   0.00     0.00  -0.00   0.00
 161   1     0.00  -0.00   0.00    -0.00   0.00   0.00     0.00  -0.00   0.00
 162   1     0.00  -0.00   0.00    -0.00   0.00  -0.00     0.00  -0.00   0.00
 163   1     0.00  -0.00   0.00    -0.00   0.00  -0.00     0.00  -0.00   0.00
 164   1     0.00  -0.00   0.00    -0.00   0.00  -0.00     0.00  -0.00   0.00
 165   1     0.00  -0.00   0.00    -0.00   0.00  -0.00     0.00  -0.00   0.00
 166   1     0.00  -0.00   0.00    -0.00   0.00   0.00     0.00  -0.00   0.00
 167   1     0.00  -0.00   0.00    -0.00   0.00   0.00     0.00  -0.00   0.00
 168   1     0.00  -0.00   0.00    -0.00   0.00   0.00     0.00  -0.00   0.00
 169   1     0.00  -0.00   0.00    -0.00   0.00  -0.00     0.00  -0.00   0.00
 170   1    -0.00  -0.00   0.00    -0.00   0.00  -0.00     0.00  -0.00   0.00
 171   6    -0.00   0.00  -0.00     0.00  -0.00   0.00    -0.00   0.00  -0.00
 172   6     0.00  -0.00   0.00     0.00   0.00  -0.00     0.00  -0.00   0.00
 173   6     0.00  -0.00   0.00    -0.00  -0.00   0.00     0.00   0.00  -0.00
 174   6     0.00   0.00  -0.00    -0.00  -0.00   0.00     0.00   0.00  -0.00
 175   6    -0.00   0.00   0.00    -0.00   0.00  -0.00    -0.00  -0.00   0.00
 176   6    -0.00  -0.00   0.00     0.00  -0.00   0.00     0.00  -0.00   0.00
 177   6     0.00   0.00  -0.00    -0.00   0.00  -0.00    -0.00  -0.00   0.00
 178   6    -0.00  -0.00   0.00    -0.00  -0.00   0.00    -0.00  -0.00   0.00
 179   7    -0.00   0.00  -0.00     0.00  -0.00   0.00    -0.00   0.00  -0.00
 180   6    -0.00   0.00  -0.00     0.00  -0.00  -0.00     0.00  -0.00   0.00
 181   6     0.00   0.00  -0.00    -0.00   0.00  -0.00    -0.00   0.00  -0.00
 182   6    -0.00   0.00  -0.00     0.00  -0.00  -0.00    -0.00  -0.00   0.00
 183   6     0.00  -0.00   0.00     0.00   0.00  -0.00    -0.00  -0.00   0.00
 184   6     0.00  -0.00   0.00    -0.00  -0.00   0.00     0.00  -0.00   0.00
 185   7    -0.00  -0.00   0.00     0.00  -0.00   0.00     0.00  -0.00   0.00
 186   6    -0.00  -0.00  -0.00    -0.00  -0.00   0.00     0.00   0.00   0.00
 187   6    -0.00   0.00  -0.00    -0.00   0.00  -0.00    -0.00   0.00   0.00
 188   6    -0.00  -0.00   0.00     0.00   0.00   0.00    -0.00   0.00  -0.00
 189   6     0.00   0.00  -0.00    -0.00   0.00  -0.00     0.00   0.00  -0.00
 190   6    -0.00  -0.00   0.00    -0.00  -0.00   0.00    -0.00  -0.00   0.00
 191   7    -0.00   0.00  -0.00     0.00  -0.00   0.00    -0.00   0.00  -0.00
 192   6     0.00   0.00  -0.00     0.00  -0.00   0.00     0.00   0.00  -0.00
 193   6     0.00   0.00   0.00    -0.00  -0.00   0.00    -0.00   0.00  -0.00
 194   7    -0.00  -0.00   0.00     0.00  -0.00   0.00    -0.00  -0.00   0.00
 195   1    -0.00  -0.00   0.00    -0.00   0.00   0.00    -0.00  -0.00   0.00
 196   1    -0.00  -0.00   0.00    -0.00  -0.00   0.00    -0.00  -0.00   0.00
 197   1     0.00  -0.00   0.00    -0.00   0.00  -0.00    -0.00   0.00   0.00
 198   1     0.00  -0.00   0.00    -0.00   0.00  -0.00    -0.00   0.00  -0.00
 199   1     0.00  -0.00   0.00    -0.00   0.00  -0.00     0.00  -0.00   0.00
 200   1     0.00  -0.00   0.00    -0.00   0.00  -0.00     0.00   0.00  -0.00
 201   1    -0.00  -0.00   0.00    -0.00   0.00  -0.00     0.00   0.00  -0.00
 202   1    -0.00  -0.00   0.00    -0.00  -0.00  -0.00     0.00   0.00   0.00
 203   1     0.00  -0.00   0.00    -0.00   0.00  -0.00     0.00  -0.00   0.00
 204   1     0.00  -0.00   0.00    -0.00  -0.00   0.00     0.00  -0.00   0.00
 205   1     0.00  -0.00   0.00    -0.00   0.00  -0.00     0.00  -0.00   0.00
 206   1    -0.00  -0.00   0.00    -0.00   0.00   0.00     0.00  -0.00   0.00
