      -----------------------------------------------------------      
     |                   =====================                   |     
     |                           x T B                           |     
     |                   =====================                   |     
     |                         S. Grimme                         |     
     |          Mulliken Center for Theoretical Chemistry        |     
     |                    University of Bonn                     |     
      -----------------------------------------------------------      

   * xtb version 6.4.1 (bd6e46d) compiled by 'conda@4901f00b25ba' on 2021-06-10

   xtb is free software: you can redistribute it and/or modify it under
   the terms of the GNU Lesser General Public License as published by
   the Free Software Foundation, either version 3 of the License, or
   (at your option) any later version.
   
   xtb is distributed in the hope that it will be useful,
   but WITHOUT ANY WARRANTY; without even the implied warranty of
   MERCHANTABILITY or FITNESS FOR A PARTICULAR PURPOSE.  See the
   GNU Lesser General Public License for more details.
   
   Cite this work as:
   * C. Bannwarth, E. Caldeweyher, S. Ehlert, A. Hansen, P. Pracht,
     J. Seibert, S. Spicher, S. Grimme, WIREs Comput. Mol. Sci., 2020, 11,
     e01493. DOI: 10.1002/wcms.1493
   
   for GFN2-xTB:
   * C. Bannwarth, S. Ehlert and S. Grimme., J. Chem. Theory Comput., 2019,
     15, 1652-1671. DOI: 10.1021/acs.jctc.8b01176
   for GFN1-xTB:
   * S. Grimme, C. Bannwarth, P. Shushkov, J. Chem. Theory Comput., 2017,
     13, 1989-2009. DOI: 10.1021/acs.jctc.7b00118
   for GFN0-xTB:
   * P. Pracht, E. Caldeweyher, S. Ehlert, S. Grimme, ChemRxiv, 2019, preprint.
     DOI: 10.26434/chemrxiv.8326202.v1
   for GFN-FF:
   * S. Spicher and S. Grimme, Angew. Chem. Int. Ed., 2020, 59, 15665-15673.
     DOI: 10.1002/anie.202004239
   
   for DFT-D4:
   * E. Caldeweyher, C. Bannwarth and S. Grimme, J. Chem. Phys., 2017,
     147, 034112. DOI: 10.1063/1.4993215
   * E. Caldeweyher, S. Ehlert, A. Hansen, H. Neugebauer, S. Spicher,
     C. Bannwarth and S. Grimme, J. Chem. Phys., 2019, 150, 154122.
     DOI: 10.1063/1.5090222
   * E. Caldeweyher, J.-M. Mewes, S. Ehlert and S. Grimme, Phys. Chem. Chem. Phys.
     2020, 22, 8499-8512. DOI: 10.1039/D0CP00502A
   
   for sTDA-xTB:
   * S. Grimme and C. Bannwarth, J. Chem. Phys., 2016, 145, 054103.
     DOI: 10.1063/1.4959605
   
   in the mass-spec context:
   * V. Asgeirsson, C. Bauer and S. Grimme, Chem. Sci., 2017, 8, 4879.
     DOI: 10.1039/c7sc00601b
   * J. Koopman and S. Grimme, ACS Omega 2019, 4, 12, 15120-15133.
     DOI: 10.1021/acsomega.9b02011
   
   for metadynamics refer to:
   * S. Grimme, J. Chem. Theory Comput., 2019, 155, 2847-2862
     DOI: 10.1021/acs.jctc.9b00143
   
   for SPH calculations refer to:
   * S. Spicher and S. Grimme, J. Chem. Theory Comput., 2021, 17, 1701-1714
     DOI: 10.1021/acs.jctc.0c01306
   
   with help from (in alphabetical order)
   P. Atkinson, C. Bannwarth, F. Bohle, G. Brandenburg, E. Caldeweyher
   M. Checinski, S. Dohm, S. Ehlert, S. Ehrlich, I. Gerasimov, J. Koopman
   C. Lavigne, S. Lehtola, F. März, M. Müller, F. Musil, H. Neugebauer
   J. Pisarek, C. Plett, P. Pracht, J. Seibert, P. Shushkov, S. Spicher
   M. Stahn, M. Steiner, T. Strunk, J. Stückrath, T. Rose, and J. Unsleber
   
 * started run on 2021/11/19 at 16:29:43.392     

           -------------------------------------------------
          |                Calculation Setup                |
           -------------------------------------------------

          program call               : /home/jeff/miniconda3/bin/xtb input_structure_1.xyz --gfn 2 --ohess normal --parallel 1 --etemp 300 --chrg 0 --uhf 0 -I det_control.in
          hostname                   : jelfscompute1
          coordinate file            : input_structure_1.xyz
          omp threads                :                     1
          number of atoms            :                   206
          number of electrons        :                   658
          charge                     :                     0
          spin                       :                   0.0
          first test random number   :      0.98801925601578

   ID    Z sym.   atoms
    1    6 C      1-8, 10-14, 16-20, 22, 23, 38-45, 47-51, 53-57, 59, 60,
                  75-106, 108-112, 114-118, 120, 121, 135-142, 144-148,
                  150-154, 156, 157, 171-178, 180-184, 186-190, 192, 193
    2    7 N      9, 15, 21, 24, 46, 52, 58, 61, 107, 113, 119, 122, 143,
                  149, 155, 158, 179, 185, 191, 194
    3    1 H      25-37, 62-74, 123-134, 159-170, 195-206

molecular fragmentation (1/2 indicates fragments):
111111111111111111111111111111111111122222222222222222222222222222222222
222222222222222222222222222222222222222222222222222222222222222222222222
22222222222222222222222222222222222222222222222222222222222222
# atoms in fragment 1/2:    37   169
 fragment masses (1/2) :      309.34     1522.61
CMA distance (Bohr)    :  74.886
constraining FC (au)   :  0.0500

           -------------------------------------------------
          |                 G F N 2 - x T B                 |
           -------------------------------------------------

        Reference                      10.1021/acs.jctc.8b01176
      * Hamiltonian:
        H0-scaling (s, p, d)           1.850000    2.230000    2.230000
        zeta-weighting                 0.500000
      * Dispersion:
        s8                             2.700000
        a1                             0.520000
        a2                             5.000000
        s9                             5.000000
      * Repulsion:
        kExp                           1.500000    1.000000
        rExp                           1.000000
      * Coulomb:
        alpha                          2.000000
        third order                    shell-resolved
        anisotropic                    true
        a3                             3.000000
        a5                             4.000000
        cn-shift                       1.200000
        cn-exp                         4.000000
        max-rad                        5.000000


          ...................................................
          :                      SETUP                      :
          :.................................................:
          :  # basis functions                 638          :
          :  # atomic orbitals                 638          :
          :  # shells                          350          :
          :  # electrons                       658          :
          :  max. iterations                   250          :
          :  Hamiltonian                  GFN2-xTB          :
          :  restarted?                      false          :
          :  GBSA solvation                  false          :
          :  PC potential                    false          :
          :  electronic temp.          300.0000000     K    :
          :  accuracy                    1.0000000          :
          :  -> integral cutoff          0.2500000E+02      :
          :  -> integral neglect         0.1000000E-07      :
          :  -> SCF convergence          0.1000000E-05 Eh   :
          :  -> wf. convergence          0.1000000E-03 e    :
          :  Broyden damping             0.4000000          :
          ...................................................

 iter      E             dE          RMSdq      gap      omega  full diag
   1   -359.8689442 -0.359869E+03  0.608E+00    0.00       0.0  T
   2   -343.1480481  0.167209E+02  0.531E+00    0.22       1.0  T
   3   -277.0430182  0.661050E+02  0.853E+00    0.14       1.0  T
   4   -254.5506835  0.224923E+02  0.903E+00    0.06       1.0  T
   5   -345.6752962 -0.911246E+02  0.444E+00    0.08       1.0  T
   6   -350.0476757 -0.437238E+01  0.348E+00    0.14       1.0  T
   7   -344.8709398  0.517674E+01  0.366E+00    0.05       1.0  T
   8   -355.1909926 -0.103201E+02  0.268E+00    0.14       1.0  T
   9   -359.5687305 -0.437774E+01  0.191E+00    0.02       1.0  T
  10   -359.8626228 -0.293892E+00  0.168E+00    0.29       1.0  T
  11   -359.9562381 -0.936153E-01  0.157E+00    0.23       1.0  T
  12   -360.2072437 -0.251006E+00  0.126E+00    0.10       1.0  T
  13   -360.4610924 -0.253849E+00  0.111E+00    0.16       1.0  T
  14   -360.4576784  0.341397E-02  0.958E-01    0.04       1.0  T
  15   -360.6824265 -0.224748E+00  0.628E-01    0.06       1.0  T
  16   -360.7013370 -0.189105E-01  0.529E-01    0.00       1.0  T
  17   -360.6062394  0.950976E-01  0.642E-01    0.02       1.0  T
  18   -360.4744036  0.131836E+00  0.774E-01    0.08       1.0  T
  19   -360.8111507 -0.336747E+00  0.243E-01    0.08       1.0  T
  20   -360.7328522  0.782985E-01  0.426E-01    0.00       1.0  T
  21   -360.8235561 -0.907038E-01  0.256E-01    0.10       1.0  T
  22   -360.8274024 -0.384638E-02  0.217E-01    0.06       1.0  T
  23   -360.8303153 -0.291291E-02  0.186E-01    0.08       1.0  T
  24   -360.8246183  0.569708E-02  0.178E-01    0.06       1.0  T
  25   -360.8322461 -0.762782E-02  0.121E-01    0.07       1.0  T
  26   -360.8355449 -0.329878E-02  0.722E-02    0.09       1.0  T
  27   -360.8367969 -0.125207E-02  0.488E-02    0.09       1.0  T
  28   -360.8372726 -0.475692E-03  0.347E-02    0.08       1.0  T
  29   -360.8369040  0.368666E-03  0.401E-02    0.07       1.0  T
  30   -360.8374924 -0.588462E-03  0.275E-02    0.08       1.0  T
  31   -360.8376258 -0.133408E-03  0.226E-02    0.07       1.0  T
  32   -360.8377312 -0.105334E-03  0.171E-02    0.08       1.0  T
  33   -360.8377984 -0.672672E-04  0.128E-02    0.08       1.0  T
  34   -360.8378748 -0.763944E-04  0.639E-03    0.08       1.1  T
  35   -360.8378907 -0.158565E-04  0.338E-03    0.08       2.1  T
  36   -360.8378902  0.456555E-06  0.310E-03    0.08       2.2  T
  37   -360.8378911 -0.893646E-06  0.271E-03    0.08       2.6  T
  38   -360.8378930 -0.192736E-05  0.192E-03    0.08       3.6  T
  39   -360.8378938 -0.749769E-06  0.150E-03    0.08       4.6  T
  40   -360.8378942 -0.388324E-06  0.122E-03    0.08       5.7  T
  41   -360.8378946 -0.469389E-06  0.761E-04    0.08       9.2  T
  42   -360.8378949 -0.272392E-06  0.331E-04    0.08      21.1  T

   *** convergence criteria satisfied after 42 iterations ***

         #    Occupation            Energy/Eh            Energy/eV
      -------------------------------------------------------------
         1        2.0000           -0.6942611             -18.8918
       ...           ...                  ...                  ...
       323        2.0000           -0.3555207              -9.6742
       324        2.0000           -0.3554853              -9.6732
       325        2.0000           -0.3509692              -9.5504
       326        2.0000           -0.3461211              -9.4184
       327        2.0000           -0.3461009              -9.4179
       328        1.9998           -0.3417924              -9.3006
       329        1.4834           -0.3337856              -9.0828 (HOMO)
       330        0.2606           -0.3309800              -9.0064 (LUMO)
       331        0.2562           -0.3309616              -9.0059
       332        0.0000           -0.3217254              -8.7546
       333                         -0.3129560              -8.5160
       334                         -0.3085366              -8.3957
       ...                                ...                  ...
       638                          2.0160604              54.8598
      -------------------------------------------------------------
                  HL-Gap            0.0028056 Eh            0.0763 eV
             Fermi-level           -0.3327836 Eh           -9.0555 eV

 SCC (total)                   0 d,  0 h,  0 min,  4.656 sec
 SCC setup                      ...        0 min,  0.007 sec (  0.156%)
 Dispersion                     ...        0 min,  0.020 sec (  0.426%)
 classical contributions        ...        0 min,  0.004 sec (  0.078%)
 integral evaluation            ...        0 min,  0.107 sec (  2.300%)
 iterations                     ...        0 min,  4.212 sec ( 90.453%)
 molecular gradient             ...        0 min,  0.294 sec (  6.314%)
 printout                       ...        0 min,  0.013 sec (  0.273%)

         :::::::::::::::::::::::::::::::::::::::::::::::::::::
         ::                     SUMMARY                     ::
         :::::::::::::::::::::::::::::::::::::::::::::::::::::
         :: total energy            -353.417692733287 Eh    ::
         :: gradient norm              1.386842049875 Eh/a0 ::
         :: HOMO-LUMO gap              0.076345117044 eV    ::
         ::.................................................::
         :: SCC energy              -360.837894921560 Eh    ::
         :: -> isotropic ES            0.195508846417 Eh    ::
         :: -> anisotropic ES         -0.009796127499 Eh    ::
         :: -> anisotropic XC          0.281407523613 Eh    ::
         :: -> dispersion             -0.278131902467 Eh    ::
         :: repulsion energy           7.422324159534 Eh    ::
         :: add. restraining           0.000000000000 Eh    ::
         :: total charge              -0.000000000052 e     ::
         :::::::::::::::::::::::::::::::::::::::::::::::::::::

      ----------------------------------------------------------- 
     |                   =====================                   |
     |                        A N C O P T                        |
     |                   =====================                   |
     |               Approximate Normal Coordinate               |
     |                Rational Function Optimizer                |
      ----------------------------------------------------------- 

          ...................................................
          :                      SETUP                      :
          :.................................................:
          :   optimization level            normal          :
          :   max. optcycles                   618          :
          :   ANC micro-cycles                  20          :
          :   degrees of freedom               612          :
          :.................................................:
          :   RF solver                   davidson          :
          :   write xtbopt.log                true          :
          :   linear?                        false          :
          :   energy convergence         0.5000000E-05 Eh   :
          :   grad. convergence          0.1000000E-02 Eh/α :
          :   maximium RF displ.         1.0000000          :
          :   Hlow (freq-cutoff)         0.1000000E-01      :
          :   Hmax (freq-cutoff)         5.0000000          :
          :   S6 in model hess.         20.0000000          :
          ...................................................

generating ANC from model Hessian ...
Using Lindh-Hessian (1995)
 Shifting diagonal of input Hessian by    1.0167616042010342E-002
 Lowest  eigenvalues of input Hessian
    0.010000    0.010025    0.010154    0.010156    0.010165    0.010166
    0.010166    0.010167    0.000000    0.000000    0.000000    0.000000
    0.000000    0.000000    0.010169    0.010171    0.010175    0.010176
 Highest eigenvalues
    3.277966    3.277969    3.285284    3.328868    3.334022    3.334025


........................................................................
.............................. CYCLE    1 ..............................
........................................................................
   1   -360.8378949 -0.360838E+03  0.205E-04    0.08       0.0  T
   2   -360.8378899  0.503978E-05  0.268E-03    0.08       2.6  T
   3   -360.8378928 -0.289947E-05  0.166E-03    0.08       4.2  T
   4   -360.8378947 -0.187936E-05  0.660E-04    0.08      10.6  T
   5   -360.8378948 -0.641071E-07  0.567E-04    0.08      12.3  T
   6   -360.8378948 -0.186837E-07  0.541E-04    0.08      12.9  T
     SCC iter.                  ...        0 min,  0.607 sec
     gradient                   ...        0 min,  0.293 sec
 * total energy  :  -353.4176926 Eh     change        0.1526383E-06 Eh
   gradient norm :     1.3868470 Eh/α   predicted     0.0000000E+00 (-100.00%)
   displ. norm   :     0.5817750 α      lambda       -0.7207398E+00
   maximum displ.:     0.1789600 α      in ANC's #490, #603, #387, ...

........................................................................
.............................. CYCLE    2 ..............................
........................................................................
   1   -360.9617019 -0.360962E+03  0.348E-01    0.15       0.0  T
   2   -359.6406963  0.132101E+01  0.144E+00    0.25       1.0  T
   3   -360.9332929 -0.129260E+01  0.379E-01    0.26       1.0  T
   4   -360.9802543 -0.469615E-01  0.206E-01    0.06       1.0  T
   5   -360.7902266  0.190028E+00  0.725E-01    0.09       1.0  T
   6   -360.8967161 -0.106490E+00  0.351E-01    0.00       1.0  T
   7   -360.4937329  0.402983E+00  0.821E-01    0.15       1.0  T
   8   -360.9725202 -0.478787E+00  0.214E-01    0.09       1.0  T
   9   -360.9775775 -0.505735E-02  0.177E-01    0.11       1.0  T
  10   -360.9865324 -0.895485E-02  0.978E-02    0.08       1.0  T
  11   -360.9902955 -0.376315E-02  0.368E-02    0.07       1.0  T
  12   -360.9906597 -0.364173E-03  0.286E-02    0.07       1.0  T
  13   -360.9905764  0.832941E-04  0.292E-02    0.07       1.0  T
  14   -360.9911436 -0.567252E-03  0.131E-02    0.08       1.0  T
  15   -360.9912345 -0.908778E-04  0.466E-03    0.07       1.5  T
  16   -360.9912464 -0.119024E-04  0.230E-03    0.08       3.0  T
  17   -360.9912475 -0.104767E-05  0.202E-03    0.08       3.5  T
  18   -360.9912470  0.461838E-06  0.209E-03    0.08       3.3  T
  19   -360.9912465  0.558696E-06  0.207E-03    0.08       3.4  T
  20   -360.9912477 -0.127627E-05  0.150E-03    0.08       4.6  T
  21   -360.9912481 -0.365487E-06  0.124E-03    0.08       5.6  T
  22   -360.9912487 -0.638626E-06  0.794E-04    0.08       8.8  T
  23   -360.9912490 -0.264743E-06  0.480E-04    0.08      14.5  T
     SCC iter.                  ...        0 min,  2.313 sec
     gradient                   ...        0 min,  0.293 sec
 * total energy  :  -353.9035973 Eh     change       -0.4859047E+00 Eh
   gradient norm :     0.5140002 Eh/α   predicted    -0.4823541E+00 (  -0.73%)
   displ. norm   :     0.5921437 α      lambda       -0.2484097E+00
   maximum displ.:     0.1619094 α      in ANC's #387, #318, #298, ...

........................................................................
.............................. CYCLE    3 ..............................
........................................................................
   1   -361.1317003 -0.361132E+03  0.275E-01    0.09       0.0  T
   2   -360.6410969  0.490603E+00  0.864E-01    0.00       1.0  T
   3   -361.1006940 -0.459597E+00  0.363E-01    0.11       1.0  T
   4   -361.0501979  0.504962E-01  0.460E-01    0.08       1.0  T
   5   -360.8017983  0.248400E+00  0.706E-01    0.08       1.0  T
   6   -360.5705490  0.231249E+00  0.926E-01    0.19       1.0  T
   7   -361.1060395 -0.535491E+00  0.253E-01    0.06       1.0  T
   8   -361.1024652  0.357430E-02  0.313E-01    0.13       1.0  T
   9   -361.1043044 -0.183921E-02  0.228E-01    0.04       1.0  T
  10   -361.1257057 -0.214012E-01  0.164E-01    0.07       1.0  T
  11   -361.1310565 -0.535088E-02  0.116E-01    0.06       1.0  T
  12   -361.1380792 -0.702266E-02  0.579E-02    0.07       1.0  T
  13   -361.1394487 -0.136952E-02  0.292E-02    0.06       1.0  T
  14   -361.1398650 -0.416276E-03  0.157E-02    0.06       1.0  T
  15   -361.1399259 -0.608790E-04  0.126E-02    0.06       1.0  T
  16   -361.1399958 -0.699401E-04  0.730E-03    0.06       1.0  T
  17   -361.1400290 -0.332069E-04  0.197E-03    0.07       3.5  T
  18   -361.1400288  0.235680E-06  0.198E-03    0.07       3.5  T
  19   -361.1400277  0.104663E-05  0.227E-03    0.07       3.1  T
  20   -361.1400298 -0.205460E-05  0.805E-04    0.07       8.7  T
  21   -361.1400299 -0.532024E-07  0.536E-04    0.07      13.0  T
  22   -361.1400300 -0.138595E-06  0.229E-04    0.07      30.5  T
     SCC iter.                  ...        0 min,  2.217 sec
     gradient                   ...        0 min,  0.293 sec
 * total energy  :  -354.0873002 Eh     change       -0.1837029E+00 Eh
   gradient norm :     0.2208255 Eh/α   predicted    -0.1677554E+00 (  -8.68%)
   displ. norm   :     0.6614621 α      lambda       -0.1134578E+00
   maximum displ.:     0.1967162 α      in ANC's #135, #318, #128, ...

........................................................................
.............................. CYCLE    4 ..............................
........................................................................
   1   -361.2434746 -0.361243E+03  0.263E-01    0.12       0.0  T
   2   -360.0058870  0.123759E+01  0.136E+00    0.25       1.0  T
   3   -361.2541434 -0.124826E+01  0.186E-01    0.06       1.0  T
   4   -361.1499354  0.104208E+00  0.482E-01    0.04       1.0  T
   5   -360.7917389  0.358197E+00  0.777E-01    0.14       1.0  T
   6   -360.9390354 -0.147297E+00  0.705E-01    0.07       1.0  T
   7   -361.2205483 -0.281513E+00  0.311E-01    0.13       1.0  T
   8   -361.2275206 -0.697232E-02  0.245E-01    0.12       1.0  T
   9   -361.2454316 -0.179110E-01  0.171E-01    0.11       1.0  T
  10   -361.2563435 -0.109119E-01  0.691E-02    0.08       1.0  T
  11   -361.2586295 -0.228602E-02  0.240E-02    0.07       1.0  T
  12   -361.2586461 -0.165279E-04  0.212E-02    0.07       1.0  T
  13   -361.2587590 -0.112936E-03  0.123E-02    0.07       1.0  T
  14   -361.2587996 -0.406275E-04  0.100E-02    0.07       1.0  T
  15   -361.2587987  0.946775E-06  0.806E-03    0.07       1.0  T
  16   -361.2588430 -0.442825E-04  0.221E-03    0.07       3.1  T
  17   -361.2588420  0.100436E-05  0.225E-03    0.07       3.1  T
  18   -361.2588439 -0.194331E-05  0.106E-03    0.07       6.6  T
  19   -361.2588442 -0.270853E-06  0.645E-04    0.07      10.8  T
  20   -361.2588443 -0.836263E-07  0.488E-04    0.07      14.3  T
     SCC iter.                  ...        0 min,  2.015 sec
     gradient                   ...        0 min,  0.292 sec
 * total energy  :  -354.1717593 Eh     change       -0.8445907E-01 Eh
   gradient norm :     0.1080925 Eh/α   predicted    -0.8154965E-01 (  -3.44%)
   displ. norm   :     0.7640905 α      lambda       -0.6253020E-01
   maximum displ.:     0.2587008 α      in ANC's #135, #56, #80, ...

........................................................................
.............................. CYCLE    5 ..............................
........................................................................
   1   -361.2666395 -0.361267E+03  0.243E-01    0.17       0.0  T
   2   -359.9307224  0.133592E+01  0.140E+00    0.25       1.0  T
   3   -361.2821917 -0.135147E+01  0.137E-01    0.06       1.0  T
   4   -361.2357232  0.464686E-01  0.335E-01    0.06       1.0  T
   5   -360.9839858  0.251737E+00  0.609E-01    0.06       1.0  T
   6   -361.1427102 -0.158724E+00  0.452E-01    0.01       1.0  T
   7   -361.2705965 -0.127886E+00  0.170E-01    0.14       1.0  T
   8   -361.2735986 -0.300212E-02  0.131E-01    0.10       1.0  T
   9   -361.2821310 -0.853248E-02  0.694E-02    0.10       1.0  T
  10   -361.2841979 -0.206681E-02  0.332E-02    0.09       1.0  T
  11   -361.2848076 -0.609722E-03  0.176E-02    0.08       1.0  T
  12   -361.2847664  0.411491E-04  0.173E-02    0.08       1.0  T
  13   -361.2849553 -0.188844E-03  0.679E-03    0.08       1.0  T
  14   -361.2849773 -0.219944E-04  0.342E-03    0.08       2.0  T
  15   -361.2849800 -0.273357E-05  0.232E-03    0.08       3.0  T
  16   -361.2849822 -0.221817E-05  0.138E-03    0.08       5.0  T
  17   -361.2849833 -0.107184E-05  0.466E-04    0.08      14.9  T
  18   -361.2849834 -0.906846E-07  0.267E-04    0.08      26.1  T
  19   -361.2849834 -0.155952E-07  0.187E-04    0.08      37.2  T
     SCC iter.                  ...        0 min,  1.913 sec
     gradient                   ...        0 min,  0.292 sec
 * total energy  :  -354.2246663 Eh     change       -0.5290706E-01 Eh
   gradient norm :     0.0803548 Eh/α   predicted    -0.4951907E-01 (  -6.40%)
   displ. norm   :     0.8463652 α      lambda       -0.4894236E-01
   maximum displ.:     0.2775959 α      in ANC's #56, #80, #135, ...

........................................................................
.............................. CYCLE    6 ..............................
........................................................................
   1   -361.2701300 -0.361270E+03  0.220E-01    0.22       0.0  T
   2   -359.9247779  0.134535E+01  0.136E+00    0.24       1.0  T
   3   -361.2728252 -0.134805E+01  0.198E-01    0.13       1.0  T
   4   -361.2284001  0.444251E-01  0.392E-01    0.16       1.0  T
   5   -361.2621611 -0.337611E-01  0.170E-01    0.04       1.0  T
   6   -361.2563102  0.585089E-02  0.181E-01    0.05       1.0  T
   7   -361.2684221 -0.121118E-01  0.136E-01    0.07       1.0  T
   8   -361.2835573 -0.151352E-01  0.231E-02    0.11       1.0  T
   9   -361.2836396 -0.822982E-04  0.171E-02    0.10       1.0  T
  10   -361.2834717  0.167907E-03  0.230E-02    0.10       1.0  T
  11   -361.2837191 -0.247410E-03  0.135E-02    0.10       1.0  T
  12   -361.2837379 -0.188363E-04  0.839E-03    0.10       1.0  T
  13   -361.2837606 -0.226431E-04  0.347E-03    0.10       2.0  T
  14   -361.2837653 -0.468430E-05  0.194E-03    0.10       3.6  T
  15   -361.2837657 -0.396171E-06  0.151E-03    0.10       4.6  T
  16   -361.2837662 -0.536877E-06  0.111E-03    0.10       6.3  T
  17   -361.2837669 -0.715362E-06  0.532E-04    0.10      13.1  T
  18   -361.2837670 -0.138442E-06  0.270E-04    0.10      25.8  T
     SCC iter.                  ...        0 min,  1.815 sec
     gradient                   ...        0 min,  0.293 sec
 * total energy  :  -354.2685302 Eh     change       -0.4386390E-01 Eh
   gradient norm :     0.0618026 Eh/α   predicted    -0.4200072E-01 (  -4.25%)
   displ. norm   :     0.9054446 α      lambda       -0.4285706E-01
   maximum displ.:     0.3308197 α      in ANC's #56, #52, #80, ...

........................................................................
.............................. CYCLE    7 ..............................
........................................................................
   1   -361.2652238 -0.361265E+03  0.214E-01    0.29       0.0  T
   2   -360.5189546  0.746269E+00  0.961E-01    0.01       1.0  T
   3   -361.2478306 -0.728876E+00  0.282E-01    0.29       1.0  T
   4   -361.2506372 -0.280664E-02  0.263E-01    0.25       1.0  T
   5   -361.2719450 -0.213078E-01  0.858E-02    0.18       1.0  T
   6   -361.2727182 -0.773192E-03  0.498E-02    0.15       1.0  T
   7   -361.2709330  0.178522E-02  0.640E-02    0.12       1.0  T
   8   -361.2737801 -0.284710E-02  0.305E-02    0.14       1.0  T
   9   -361.2740832 -0.303147E-03  0.287E-02    0.15       1.0  T
  10   -361.2741979 -0.114698E-03  0.185E-02    0.14       1.0  T
  11   -361.2742902 -0.923013E-04  0.109E-02    0.13       1.0  T
  12   -361.2743436 -0.534035E-04  0.382E-03    0.14       1.8  T
  13   -361.2743493 -0.566100E-05  0.156E-03    0.14       4.5  T
  14   -361.2743494 -0.125792E-06  0.996E-04    0.14       7.0  T
  15   -361.2743500 -0.561142E-06  0.472E-04    0.14      14.8  T
     SCC iter.                  ...        0 min,  1.514 sec
     gradient                   ...        0 min,  0.293 sec
 * total energy  :  -354.3091256 Eh     change       -0.4059538E-01 Eh
   gradient norm :     0.0533413 Eh/α   predicted    -0.3899629E-01 (  -3.94%)
   displ. norm   :     0.9560958 α      lambda       -0.4231708E-01
   maximum displ.:     0.3487813 α      in ANC's #56, #52, #80, ...

........................................................................
.............................. CYCLE    8 ..............................
........................................................................
   1   -361.2527492 -0.361253E+03  0.238E-01    0.41       0.0  T
   2   -361.2044824  0.482668E-01  0.374E-01    0.11       1.0  T
   3   -361.2512227 -0.467403E-01  0.183E-01    0.36       1.0  T
   4   -361.2573641 -0.614136E-02  0.798E-02    0.37       1.0  T
   5   -361.2581291 -0.765048E-03  0.693E-02    0.23       1.0  T
   6   -361.2593216 -0.119245E-02  0.191E-02    0.26       1.0  T
   7   -361.2593138  0.773506E-05  0.205E-02    0.25       1.0  T
   8   -361.2592715  0.422920E-04  0.198E-02    0.23       1.0  T
   9   -361.2593492 -0.777057E-04  0.108E-02    0.24       1.0  T
  10   -361.2593646 -0.153931E-04  0.578E-03    0.24       1.2  T
  11   -361.2593647 -0.622319E-07  0.355E-03    0.25       2.0  T
  12   -361.2593705 -0.583568E-05  0.203E-03    0.24       3.4  T
  13   -361.2593714 -0.836594E-06  0.919E-04    0.24       7.6  T
  14   -361.2593715 -0.172103E-06  0.531E-04    0.24      13.1  T
     SCC iter.                  ...        0 min,  1.414 sec
     gradient                   ...        0 min,  0.292 sec
 * total energy  :  -354.3516119 Eh     change       -0.4248626E-01 Eh
   gradient norm :     0.0591891 Eh/α   predicted    -0.4049999E-01 (  -4.68%)
   displ. norm   :     0.9502700 α      lambda       -0.4378829E-01
   maximum displ.:     0.3291106 α      in ANC's #56, #52, #30, ...

........................................................................
.............................. CYCLE    9 ..............................
........................................................................
   1   -361.2389421 -0.361239E+03  0.230E-01    0.59       0.0  T
   2   -361.2265217  0.124204E-01  0.245E-01    0.52       1.0  T
   3   -361.2353231 -0.880137E-02  0.185E-01    0.59       1.0  T
   4   -361.2414720 -0.614889E-02  0.679E-02    0.63       1.0  T
   5   -361.2420171 -0.545179E-03  0.456E-02    0.58       1.0  T
   6   -361.2425941 -0.577009E-03  0.809E-03    0.60       1.0  T
   7   -361.2426061 -0.119582E-04  0.517E-03    0.60       1.3  T
   8   -361.2426093 -0.320072E-05  0.357E-03    0.60       1.9  T
   9   -361.2426114 -0.209355E-05  0.195E-03    0.60       3.6  T
  10   -361.2426123 -0.888739E-06  0.657E-04    0.60      10.6  T
  11   -361.2426123 -0.565053E-07  0.402E-04    0.60      17.3  T
     SCC iter.                  ...        0 min,  1.110 sec
     gradient                   ...        0 min,  0.293 sec
 * total energy  :  -354.3973846 Eh     change       -0.4577277E-01 Eh
   gradient norm :     0.0768845 Eh/α   predicted    -0.4166486E-01 (  -8.97%)
   displ. norm   :     0.9258425 α      lambda       -0.4880602E-01
   maximum displ.:     0.2884876 α      in ANC's #56, #30, #52, ...

........................................................................
.............................. CYCLE   10 ..............................
........................................................................
   1   -361.2256890 -0.361226E+03  0.217E-01    0.70       0.0  T
   2   -361.2216668  0.402219E-02  0.180E-01    0.70       1.0  T
   3   -361.2233807 -0.171385E-02  0.159E-01    0.70       1.0  T
   4   -361.2280462 -0.466550E-02  0.399E-02    0.70       1.0  T
   5   -361.2280845 -0.383048E-04  0.230E-02    0.70       1.0  T
   6   -361.2282337 -0.149179E-03  0.679E-03    0.70       1.0  T
   7   -361.2282445 -0.107994E-04  0.394E-03    0.70       1.8  T
   8   -361.2282472 -0.278896E-05  0.190E-03    0.70       3.7  T
   9   -361.2282477 -0.464526E-06  0.994E-04    0.70       7.0  T
  10   -361.2282478 -0.106360E-06  0.627E-04    0.70      11.1  T
     SCC iter.                  ...        0 min,  1.013 sec
     gradient                   ...        0 min,  0.292 sec
 * total energy  :  -354.4495890 Eh     change       -0.5220439E-01 Eh
   gradient norm :     0.0952523 Eh/α   predicted    -0.4532090E-01 ( -13.19%)
   displ. norm   :     0.9022263 α      lambda       -0.5642260E-01
   maximum displ.:     0.2931136 α      in ANC's #30, #66, #31, ...

........................................................................
.............................. CYCLE   11 ..............................
........................................................................
   1   -361.2187613 -0.361219E+03  0.187E-01    0.72       0.0  T
   2   -361.2171524  0.160897E-02  0.152E-01    0.72       1.0  T
   3   -361.2179913 -0.838908E-03  0.119E-01    0.72       1.0  T
   4   -361.2203390 -0.234773E-02  0.327E-02    0.72       1.0  T
   5   -361.2203637 -0.247102E-04  0.197E-02    0.72       1.0  T
   6   -361.2205044 -0.140714E-03  0.678E-03    0.72       1.0  T
   7   -361.2205133 -0.888000E-05  0.304E-03    0.72       2.3  T
   8   -361.2205143 -0.949201E-06  0.162E-03    0.72       4.3  T
   9   -361.2205145 -0.266101E-06  0.772E-04    0.72       9.0  T
  10   -361.2205146 -0.831438E-07  0.364E-04    0.72      19.1  T
     SCC iter.                  ...        0 min,  1.009 sec
     gradient                   ...        0 min,  0.293 sec
 * total energy  :  -354.5088717 Eh     change       -0.5928267E-01 Eh
   gradient norm :     0.1084945 Eh/α   predicted    -0.5117567E-01 ( -13.68%)
   displ. norm   :     0.8891669 α      lambda       -0.6291433E-01
   maximum displ.:     0.2998505 α      in ANC's #30, #66, #31, ...

........................................................................
.............................. CYCLE   12 ..............................
........................................................................
   1   -361.2210710 -0.361221E+03  0.145E-01    0.73       0.0  T
   2   -361.2199390  0.113199E-02  0.137E-01    0.73       1.0  T
   3   -361.2215201 -0.158104E-02  0.733E-02    0.73       1.0  T
   4   -361.2219366 -0.416473E-03  0.331E-02    0.73       1.0  T
   5   -361.2221257 -0.189179E-03  0.165E-02    0.73       1.0  T
   6   -361.2222205 -0.947850E-04  0.529E-03    0.73       1.3  T
   7   -361.2222239 -0.333360E-05  0.284E-03    0.73       2.5  T
   8   -361.2222247 -0.848970E-06  0.141E-03    0.73       4.9  T
   9   -361.2222249 -0.198774E-06  0.767E-04    0.73       9.1  T
  10   -361.2222250 -0.116540E-06  0.273E-04    0.73      25.5  T
     SCC iter.                  ...        0 min,  1.012 sec
     gradient                   ...        0 min,  0.293 sec
 * total energy  :  -354.5708814 Eh     change       -0.6200965E-01 Eh
   gradient norm :     0.1043312 Eh/α   predicted    -0.5632779E-01 (  -9.16%)
   displ. norm   :     0.9140671 α      lambda       -0.7157533E-01
   maximum displ.:     0.3290486 α      in ANC's #66, #30, #15, ...

........................................................................
.............................. CYCLE   13 ..............................
........................................................................
   1   -361.2507472 -0.361251E+03  0.197E-01    0.68       0.0  T
   2   -361.2482712  0.247601E-02  0.189E-01    0.68       1.0  T
   3   -361.2513822 -0.311095E-02  0.980E-02    0.68       1.0  T
   4   -361.2519025 -0.520332E-03  0.426E-02    0.68       1.0  T
   5   -361.2524067 -0.504236E-03  0.160E-02    0.68       1.0  T
   6   -361.2524843 -0.775750E-04  0.596E-03    0.68       1.2  T
   7   -361.2524883 -0.402815E-05  0.324E-03    0.68       2.1  T
   8   -361.2524891 -0.754963E-06  0.167E-03    0.68       4.2  T
   9   -361.2524896 -0.548873E-06  0.588E-04    0.68      11.9  T
  10   -361.2524897 -0.755754E-07  0.241E-04    0.68      28.9  T
     SCC iter.                  ...        0 min,  1.011 sec
     gradient                   ...        0 min,  0.294 sec
 * total energy  :  -354.6196186 Eh     change       -0.4873721E-01 Eh
   gradient norm :     0.0959303 Eh/α   predicted    -0.6568946E-01 (  34.78%)
   displ. norm   :     0.7548232 α      lambda       -0.4103315E-01
   maximum displ.:     0.2737436 α      in ANC's #30, #56, #31, ...

........................................................................
.............................. CYCLE   14 ..............................
........................................................................
   1   -361.3093213 -0.361309E+03  0.115E-01    0.70       0.0  T
   2   -361.3091934  0.127955E-03  0.782E-02    0.70       1.0  T
   3   -361.3071663  0.202707E-02  0.803E-02    0.70       1.0  T
   4   -361.3093913 -0.222503E-02  0.177E-02    0.70       1.0  T
   5   -361.3094628 -0.714325E-04  0.458E-03    0.70       1.5  T
   6   -361.3094665 -0.373917E-05  0.206E-03    0.70       3.4  T
   7   -361.3094671 -0.605941E-06  0.117E-03    0.70       6.0  T
   8   -361.3094672 -0.816968E-07  0.668E-04    0.70      10.4  T
   9   -361.3094673 -0.108380E-06  0.262E-04    0.70      26.6  T
     SCC iter.                  ...        0 min,  0.912 sec
     gradient                   ...        0 min,  0.292 sec
 * total energy  :  -354.6567827 Eh     change       -0.3716418E-01 Eh
   gradient norm :     0.0711496 Eh/α   predicted    -0.3220601E-01 ( -13.34%)
   displ. norm   :     0.8621024 α      lambda       -0.4501481E-01
   maximum displ.:     0.3065422 α      in ANC's #30, #56, #15, ...

........................................................................
.............................. CYCLE   15 ..............................
........................................................................
   1   -361.4063436 -0.361406E+03  0.143E-01    0.69       0.0  T
   2   -361.4063086  0.350485E-04  0.974E-02    0.69       1.0  T
   3   -361.4050933  0.121529E-02  0.784E-02    0.69       1.0  T
   4   -361.4065556 -0.146237E-02  0.247E-02    0.69       1.0  T
   5   -361.4066843 -0.128642E-03  0.553E-03    0.69       1.3  T
   6   -361.4066888 -0.448027E-05  0.288E-03    0.69       2.4  T
   7   -361.4066898 -0.101986E-05  0.166E-03    0.69       4.2  T
   8   -361.4066900 -0.169801E-06  0.903E-04    0.69       7.7  T
   9   -361.4066902 -0.201867E-06  0.378E-04    0.69      18.4  T
     SCC iter.                  ...        0 min,  0.912 sec
     gradient                   ...        0 min,  0.292 sec
 * total energy  :  -354.6938525 Eh     change       -0.3706972E-01 Eh
   gradient norm :     0.0550778 Eh/α   predicted    -0.3923532E-01 (   5.84%)
   displ. norm   :     0.9209743 α      lambda       -0.3696927E-01
   maximum displ.:     0.3506748 α      in ANC's #30, #31, #15, ...

........................................................................
.............................. CYCLE   16 ..............................
........................................................................
   1   -361.4623317 -0.361462E+03  0.114E-01    0.70       0.0  T
   2   -361.4620047  0.326908E-03  0.860E-02    0.70       1.0  T
   3   -361.4605579  0.144689E-02  0.785E-02    0.70       1.0  T
   4   -361.4624785 -0.192063E-02  0.130E-02    0.70       1.0  T
   5   -361.4625233 -0.447967E-04  0.427E-03    0.70       1.6  T
   6   -361.4625280 -0.466608E-05  0.197E-03    0.70       3.5  T
   7   -361.4625283 -0.340001E-06  0.124E-03    0.70       5.6  T
   8   -361.4625285 -0.247016E-06  0.645E-04    0.70      10.8  T
   9   -361.4625286 -0.964015E-07  0.191E-04    0.70      36.6  T
     SCC iter.                  ...        0 min,  0.914 sec
     gradient                   ...        0 min,  0.292 sec
 * total energy  :  -354.7267333 Eh     change       -0.3288079E-01 Eh
   gradient norm :     0.0448111 Eh/α   predicted    -0.3416326E-01 (   3.90%)
   displ. norm   :     0.9192871 α      lambda       -0.3140603E-01
   maximum displ.:     0.3655979 α      in ANC's #30, #56, #15, ...

........................................................................
.............................. CYCLE   17 ..............................
........................................................................
   1   -361.5213024 -0.361521E+03  0.131E-01    0.71       0.0  T
   2   -361.5212382  0.641664E-04  0.819E-02    0.71       1.0  T
   3   -361.5190887  0.214951E-02  0.784E-02    0.72       1.0  T
   4   -361.5213434 -0.225477E-02  0.103E-02    0.71       1.0  T
   5   -361.5213731 -0.296476E-04  0.338E-03    0.71       2.1  T
   6   -361.5213749 -0.176117E-05  0.170E-03    0.71       4.1  T
   7   -361.5213750 -0.186716E-06  0.969E-04    0.71       7.2  T
   8   -361.5213752 -0.111755E-06  0.469E-04    0.71      14.9  T
     SCC iter.                  ...        0 min,  0.812 sec
     gradient                   ...        0 min,  0.293 sec
 * total energy  :  -354.7544217 Eh     change       -0.2768848E-01 Eh
   gradient norm :     0.0465762 Eh/α   predicted    -0.2897344E-01 (   4.64%)
   displ. norm   :     0.9422022 α      lambda       -0.3068671E-01
   maximum displ.:     0.3462914 α      in ANC's #56, #31, #52, ...

........................................................................
.............................. CYCLE   18 ..............................
........................................................................
   1   -361.5974493 -0.361597E+03  0.155E-01    0.73       0.0  T
   2   -361.5973825  0.667447E-04  0.956E-02    0.72       1.0  T
   3   -361.5946820  0.270052E-02  0.904E-02    0.73       1.0  T
   4   -361.5974856 -0.280356E-02  0.150E-02    0.73       1.0  T
   5   -361.5975471 -0.615506E-04  0.494E-03    0.73       1.4  T
   6   -361.5975523 -0.513958E-05  0.213E-03    0.72       3.3  T
   7   -361.5975526 -0.336757E-06  0.116E-03    0.72       6.0  T
   8   -361.5975527 -0.145739E-06  0.592E-04    0.72      11.8  T
   9   -361.5975528 -0.920971E-07  0.216E-04    0.72      32.3  T
     SCC iter.                  ...        0 min,  0.908 sec
     gradient                   ...        0 min,  0.293 sec
 * total energy  :  -354.7794681 Eh     change       -0.2504639E-01 Eh
   gradient norm :     0.0476361 Eh/α   predicted    -0.2896438E-01 (  15.64%)
   displ. norm   :     0.8885797 α      lambda       -0.2478517E-01
   maximum displ.:     0.3698503 α      in ANC's #56, #52, #30, ...

........................................................................
.............................. CYCLE   19 ..............................
........................................................................
   1   -361.6380058 -0.361638E+03  0.114E-01    0.74       0.0  T
   2   -361.6379164  0.893441E-04  0.728E-02    0.74       1.0  T
   3   -361.6362196  0.169680E-02  0.733E-02    0.74       1.0  T
   4   -361.6380600 -0.184038E-02  0.111E-02    0.74       1.0  T
   5   -361.6380974 -0.373395E-04  0.337E-03    0.74       2.1  T
   6   -361.6380997 -0.232758E-05  0.156E-03    0.74       4.5  T
   7   -361.6380999 -0.166717E-06  0.966E-04    0.74       7.2  T
   8   -361.6381000 -0.151385E-06  0.464E-04    0.74      15.0  T
     SCC iter.                  ...        0 min,  0.812 sec
     gradient                   ...        0 min,  0.292 sec
 * total energy  :  -354.8018047 Eh     change       -0.2233658E-01 Eh
   gradient norm :     0.0407846 Eh/α   predicted    -0.2217742E-01 (  -0.71%)
   displ. norm   :     0.9220845 α      lambda       -0.2341788E-01
   maximum displ.:     0.3874057 α      in ANC's #56, #52, #30, ...

........................................................................
.............................. CYCLE   20 ..............................
........................................................................
   1   -361.6799428 -0.361680E+03  0.124E-01    0.75       0.0  T
   2   -361.6796250  0.317823E-03  0.927E-02    0.74       1.0  T
   3   -361.6787629  0.862135E-03  0.748E-02    0.75       1.0  T
   4   -361.6801034 -0.134054E-02  0.207E-02    0.74       1.0  T
   5   -361.6802340 -0.130544E-03  0.573E-03    0.74       1.2  T
   6   -361.6802428 -0.879473E-05  0.188E-03    0.74       3.7  T
   7   -361.6802429 -0.120349E-06  0.121E-03    0.74       5.8  T
   8   -361.6802431 -0.203022E-06  0.644E-04    0.74      10.8  T
   9   -361.6802432 -0.105605E-06  0.220E-04    0.74      31.7  T
     SCC iter.                  ...        0 min,  0.908 sec
     gradient                   ...        0 min,  0.293 sec
 * total energy  :  -354.8197685 Eh     change       -0.1796377E-01 Eh
   gradient norm :     0.0611762 Eh/α   predicted    -0.2166432E-01 (  20.60%)
   displ. norm   :     0.8417967 α      lambda       -0.2233336E-01
   maximum displ.:     0.3665449 α      in ANC's #56, #52, #30, ...
 * RMSD in coord.:     0.9510923 α      energy gain  -0.1402076E+01 Eh

generating ANC from model Hessian ...
Using Lindh-Hessian (1995)
 Shifting diagonal of input Hessian by    9.9988910796911558E-003
 Lowest  eigenvalues of input Hessian
    0.000000    0.000000    0.000000    0.000000    0.000000    0.000000
    0.010000    0.010001    0.010002    0.010003    0.010006    0.010008
    0.010013    0.010015    0.010016    0.010022    0.010027    0.010033
 Highest eigenvalues
    2.717377    2.717485    2.879697    2.880220    3.058268    3.058312


........................................................................
.............................. CYCLE   21 ..............................
........................................................................
   1   -361.7198395 -0.361720E+03  0.113E-01    0.75       0.0  T
   2   -361.7195185  0.320988E-03  0.861E-02    0.75       1.0  T
   3   -361.7189395  0.578962E-03  0.685E-02    0.75       1.0  T
   4   -361.7199755 -0.103602E-02  0.201E-02    0.75       1.0  T
   5   -361.7201024 -0.126897E-03  0.524E-03    0.75       1.3  T
   6   -361.7201095 -0.708204E-05  0.178E-03    0.75       3.9  T
   7   -361.7201096 -0.577688E-07  0.121E-03    0.75       5.8  T
   8   -361.7201098 -0.213232E-06  0.611E-04    0.75      11.4  T
   9   -361.7201099 -0.913539E-07  0.206E-04    0.75      33.9  T
     SCC iter.                  ...        0 min,  0.911 sec
     gradient                   ...        0 min,  0.293 sec
 * total energy  :  -354.8375007 Eh     change       -0.1773222E-01 Eh
   gradient norm :     0.0308120 Eh/α   predicted     0.0000000E+00 (-100.00%)
   displ. norm   :     0.6795942 α      lambda       -0.1302895E-01
   maximum displ.:     0.3008020 α      in ANC's #46, #54, #42, ...

........................................................................
.............................. CYCLE   22 ..............................
........................................................................
   1   -361.7462823 -0.361746E+03  0.905E-02    0.75       0.0  T
   2   -361.7462629  0.194798E-04  0.549E-02    0.75       1.0  T
   3   -361.7454152  0.847651E-03  0.476E-02    0.75       1.0  T
   4   -361.7463049 -0.889695E-03  0.511E-03    0.75       1.4  T
   5   -361.7463102 -0.530997E-05  0.235E-03    0.75       3.0  T
   6   -361.7463115 -0.127721E-05  0.998E-04    0.75       7.0  T
   7   -361.7463116 -0.866733E-07  0.564E-04    0.75      12.4  T
   8   -361.7463116 -0.301979E-07  0.298E-04    0.75      23.4  T
     SCC iter.                  ...        0 min,  0.810 sec
     gradient                   ...        0 min,  0.292 sec
 * total energy  :  -354.8496695 Eh     change       -0.1216876E-01 Eh
   gradient norm :     0.0220531 Eh/α   predicted    -0.9523211E-02 ( -21.74%)
   displ. norm   :     0.9291255 α      lambda       -0.1586846E-01
   maximum displ.:     0.3735168 α      in ANC's #46, #54, #49, ...

........................................................................
.............................. CYCLE   23 ..............................
........................................................................
   1   -361.7719805 -0.361772E+03  0.124E-01    0.76       0.0  T
   2   -361.7719477  0.327576E-04  0.752E-02    0.76       1.0  T
   3   -361.7704456  0.150208E-02  0.628E-02    0.76       1.0  T
   4   -361.7720215 -0.157582E-02  0.729E-03    0.76       1.0  T
   5   -361.7720329 -0.114025E-04  0.311E-03    0.76       2.2  T
   6   -361.7720349 -0.205077E-05  0.140E-03    0.76       5.0  T
   7   -361.7720351 -0.183830E-06  0.769E-04    0.76       9.1  T
   8   -361.7720352 -0.553056E-07  0.400E-04    0.76      17.4  T
     SCC iter.                  ...        0 min,  0.812 sec
     gradient                   ...        0 min,  0.294 sec
 * total energy  :  -354.8641174 Eh     change       -0.1444796E-01 Eh
   gradient norm :     0.0179621 Eh/α   predicted    -0.1478427E-01 (   2.33%)
   displ. norm   :     0.9258099 α      lambda       -0.1385612E-01
   maximum displ.:     0.4060652 α      in ANC's #46, #54, #42, ...

........................................................................
.............................. CYCLE   24 ..............................
........................................................................
   1   -361.7890031 -0.361789E+03  0.136E-01    0.76       0.0  T
   2   -361.7889823  0.207734E-04  0.809E-02    0.76       1.0  T
   3   -361.7877302  0.125210E-02  0.553E-02    0.76       1.0  T
   4   -361.7890352 -0.130492E-02  0.703E-03    0.76       1.0  T
   5   -361.7890466 -0.114352E-04  0.287E-03    0.76       2.4  T
   6   -361.7890480 -0.140010E-05  0.146E-03    0.76       4.8  T
   7   -361.7890482 -0.172105E-06  0.787E-04    0.76       8.9  T
   8   -361.7890483 -0.950275E-07  0.353E-04    0.76      19.7  T
     SCC iter.                  ...        0 min,  0.810 sec
     gradient                   ...        0 min,  0.293 sec
 * total energy  :  -354.8764991 Eh     change       -0.1238166E-01 Eh
   gradient norm :     0.0188630 Eh/α   predicted    -0.1286645E-01 (   3.92%)
   displ. norm   :     0.9121591 α      lambda       -0.1180513E-01
   maximum displ.:     0.3726933 α      in ANC's #46, #54, #42, ...

........................................................................
.............................. CYCLE   25 ..............................
........................................................................
   1   -361.8099163 -0.361810E+03  0.120E-01    0.77       0.0  T
   2   -361.8099016  0.146545E-04  0.714E-02    0.77       1.0  T
   3   -361.8089214  0.980262E-03  0.482E-02    0.77       1.0  T
   4   -361.8099412 -0.101984E-02  0.699E-03    0.77       1.0  T
   5   -361.8099532 -0.119782E-04  0.265E-03    0.77       2.6  T
   6   -361.8099543 -0.115124E-05  0.137E-03    0.77       5.1  T
   7   -361.8099545 -0.148593E-06  0.734E-04    0.77       9.5  T
   8   -361.8099546 -0.992425E-07  0.315E-04    0.77      22.1  T
     SCC iter.                  ...        0 min,  0.813 sec
     gradient                   ...        0 min,  0.294 sec
 * total energy  :  -354.8869966 Eh     change       -0.1049756E-01 Eh
   gradient norm :     0.0166229 Eh/α   predicted    -0.1081372E-01 (   3.01%)
   displ. norm   :     0.9056372 α      lambda       -0.1010097E-01
   maximum displ.:     0.3733301 α      in ANC's #46, #54, #42, ...

........................................................................
.............................. CYCLE   26 ..............................
........................................................................
   1   -361.8280298 -0.361828E+03  0.135E-01    0.78       0.0  T
   2   -361.8280241  0.569247E-05  0.798E-02    0.78       1.0  T
   3   -361.8272756  0.748517E-03  0.424E-02    0.78       1.0  T
   4   -361.8280497 -0.774176E-03  0.671E-03    0.78       1.0  T
   5   -361.8280615 -0.117247E-04  0.268E-03    0.78       2.6  T
   6   -361.8280623 -0.837808E-06  0.161E-03    0.78       4.3  T
   7   -361.8280626 -0.283191E-06  0.772E-04    0.78       9.0  T
   8   -361.8280627 -0.114335E-06  0.311E-04    0.78      22.4  T
     SCC iter.                  ...        0 min,  0.814 sec
     gradient                   ...        0 min,  0.293 sec
 * total energy  :  -354.8954283 Eh     change       -0.8431664E-02 Eh
   gradient norm :     0.0159801 Eh/α   predicted    -0.9192783E-02 (   9.03%)
   displ. norm   :     0.8836624 α      lambda       -0.8978664E-02
   maximum displ.:     0.3745091 α      in ANC's #46, #42, #54, ...

........................................................................
.............................. CYCLE   27 ..............................
........................................................................
   1   -361.8488338 -0.361849E+03  0.145E-01    0.79       0.0  T
   2   -361.8488312  0.259799E-05  0.860E-02    0.79       1.0  T
   3   -361.8481807  0.650503E-03  0.406E-02    0.79       1.0  T
   4   -361.8488534 -0.672699E-03  0.629E-03    0.79       1.1  T
   5   -361.8488633 -0.992812E-05  0.268E-03    0.79       2.6  T
   6   -361.8488639 -0.605239E-06  0.173E-03    0.79       4.0  T
   7   -361.8488642 -0.345522E-06  0.776E-04    0.79       9.0  T
   8   -361.8488644 -0.118146E-06  0.306E-04    0.79      22.7  T
     SCC iter.                  ...        0 min,  0.811 sec
     gradient                   ...        0 min,  0.293 sec
 * total energy  :  -354.9023749 Eh     change       -0.6946587E-02 Eh
   gradient norm :     0.0134957 Eh/α   predicted    -0.7994864E-02 (  15.09%)
   displ. norm   :     0.8337267 α      lambda       -0.6744805E-02
   maximum displ.:     0.3604734 α      in ANC's #46, #42, #54, ...

........................................................................
.............................. CYCLE   28 ..............................
........................................................................
   1   -361.8622721 -0.361862E+03  0.128E-01    0.80       0.0  T
   2   -361.8622722 -0.869837E-07  0.760E-02    0.79       1.0  T
   3   -361.8618440  0.428178E-03  0.332E-02    0.79       1.0  T
   4   -361.8622886 -0.444536E-03  0.485E-03    0.80       1.4  T
   5   -361.8622941 -0.554456E-05  0.235E-03    0.80       3.0  T
   6   -361.8622946 -0.440469E-06  0.152E-03    0.79       4.6  T
   7   -361.8622948 -0.257897E-06  0.686E-04    0.79      10.2  T
   8   -361.8622949 -0.994060E-07  0.254E-04    0.80      27.4  T
     SCC iter.                  ...        0 min,  0.813 sec
     gradient                   ...        0 min,  0.294 sec
 * total energy  :  -354.9074335 Eh     change       -0.5058622E-02 Eh
   gradient norm :     0.0175598 Eh/α   predicted    -0.5716568E-02 (  13.01%)
   displ. norm   :     0.8120794 α      lambda       -0.6028367E-02
   maximum displ.:     0.3276535 α      in ANC's #46, #41, #42, ...

........................................................................
.............................. CYCLE   29 ..............................
........................................................................
   1   -361.8731084 -0.361873E+03  0.139E-01    0.79       0.0  T
   2   -361.8731074  0.961083E-06  0.829E-02    0.79       1.0  T
   3   -361.8727069  0.400494E-03  0.356E-02    0.79       1.0  T
   4   -361.8731245 -0.417582E-03  0.388E-03    0.79       1.8  T
   5   -361.8731271 -0.257232E-05  0.221E-03    0.79       3.2  T
   6   -361.8731276 -0.496393E-06  0.142E-03    0.79       4.9  T
   7   -361.8731279 -0.287665E-06  0.717E-04    0.79       9.7  T
   8   -361.8731280 -0.121072E-06  0.220E-04    0.79      31.7  T
     SCC iter.                  ...        0 min,  0.813 sec
     gradient                   ...        0 min,  0.294 sec
 * total energy  :  -354.9115106 Eh     change       -0.4077101E-02 Eh
   gradient norm :     0.0165630 Eh/α   predicted    -0.5001961E-02 (  22.68%)
   displ. norm   :     0.7221549 α      lambda       -0.3970902E-02
   maximum displ.:     0.3146353 α      in ANC's #46, #42, #41, ...

........................................................................
.............................. CYCLE   30 ..............................
........................................................................
   1   -361.8902858 -0.361890E+03  0.959E-02    0.80       0.0  T
   2   -361.8902876 -0.188929E-05  0.568E-02    0.80       1.0  T
   3   -361.8901040  0.183628E-03  0.246E-02    0.80       1.0  T
   4   -361.8902963 -0.192297E-03  0.282E-03    0.80       2.5  T
   5   -361.8902976 -0.132783E-05  0.151E-03    0.80       4.6  T
   6   -361.8902979 -0.242398E-06  0.959E-04    0.80       7.3  T
   7   -361.8902980 -0.963482E-07  0.569E-04    0.80      12.2  T
     SCC iter.                  ...        0 min,  0.711 sec
     gradient                   ...        0 min,  0.293 sec
 * total energy  :  -354.9146612 Eh     change       -0.3150567E-02 Eh
   gradient norm :     0.0142723 Eh/α   predicted    -0.3020876E-02 (  -4.12%)
   displ. norm   :     0.7585620 α      lambda       -0.3458745E-02
   maximum displ.:     0.3455193 α      in ANC's #46, #42, #41, ...

........................................................................
.............................. CYCLE   31 ..............................
........................................................................
   1   -361.9063971 -0.361906E+03  0.115E-01    0.79       0.0  T
   2   -361.9064003 -0.319528E-05  0.685E-02    0.79       1.0  T
   3   -361.9062026  0.197723E-03  0.272E-02    0.79       1.0  T
   4   -361.9064080 -0.205467E-03  0.396E-03    0.79       1.8  T
   5   -361.9064107 -0.264040E-05  0.209E-03    0.79       3.3  T
   6   -361.9064114 -0.706637E-06  0.114E-03    0.79       6.1  T
   7   -361.9064115 -0.140221E-06  0.626E-04    0.79      11.1  T
   8   -361.9064116 -0.980517E-07  0.240E-04    0.79      29.1  T
     SCC iter.                  ...        0 min,  0.813 sec
     gradient                   ...        0 min,  0.294 sec
 * total energy  :  -354.9167777 Eh     change       -0.2116542E-02 Eh
   gradient norm :     0.0165090 Eh/α   predicted    -0.2724484E-02 (  28.72%)
   displ. norm   :     0.6666242 α      lambda       -0.3092066E-02
   maximum displ.:     0.2737157 α      in ANC's #46, #42, #41, ...

........................................................................
.............................. CYCLE   32 ..............................
........................................................................
   1   -361.9198165 -0.361920E+03  0.101E-01    0.79       0.0  T
   2   -361.9198143  0.222469E-05  0.604E-02    0.79       1.0  T
   3   -361.9194826  0.331714E-03  0.352E-02    0.79       1.0  T
   4   -361.9198264 -0.343832E-03  0.425E-03    0.79       1.6  T
   5   -361.9198301 -0.368282E-05  0.205E-03    0.79       3.4  T
   6   -361.9198308 -0.718682E-06  0.108E-03    0.79       6.5  T
   7   -361.9198309 -0.794556E-07  0.640E-04    0.79      10.9  T
   8   -361.9198310 -0.102878E-06  0.223E-04    0.79      31.2  T
     SCC iter.                  ...        0 min,  0.811 sec
     gradient                   ...        0 min,  0.294 sec
 * total energy  :  -354.9187901 Eh     change       -0.2012413E-02 Eh
   gradient norm :     0.0134010 Eh/α   predicted    -0.2233079E-02 (  10.97%)
   displ. norm   :     0.6567847 α      lambda       -0.2220101E-02
   maximum displ.:     0.2481333 α      in ANC's #46, #42, #41, ...

........................................................................
.............................. CYCLE   33 ..............................
........................................................................
   1   -361.9219397 -0.361922E+03  0.116E-01    0.79       0.0  T
   2   -361.9219402 -0.493283E-06  0.692E-02    0.79       1.0  T
   3   -361.9216814  0.258758E-03  0.303E-02    0.79       1.0  T
   4   -361.9219489 -0.267474E-03  0.460E-03    0.79       1.5  T
   5   -361.9219534 -0.450322E-05  0.216E-03    0.79       3.2  T
   6   -361.9219542 -0.810636E-06  0.107E-03    0.79       6.5  T
   7   -361.9219543 -0.569581E-07  0.640E-04    0.79      10.9  T
   8   -361.9219544 -0.957699E-07  0.234E-04    0.79      29.8  T
     SCC iter.                  ...        0 min,  0.809 sec
     gradient                   ...        0 min,  0.293 sec
 * total energy  :  -354.9196715 Eh     change       -0.8813606E-03 Eh
   gradient norm :     0.0160698 Eh/α   predicted    -0.1588903E-02 (  80.28%)
   displ. norm   :     0.5066531 α      lambda       -0.1884835E-02
   maximum displ.:     0.2168819 α      in ANC's #46, #21, #42, ...

........................................................................
.............................. CYCLE   34 ..............................
........................................................................
   1   -361.9256190 -0.361926E+03  0.766E-02    0.79       0.0  T
   2   -361.9256171  0.191085E-05  0.457E-02    0.79       1.0  T
   3   -361.9253928  0.224300E-03  0.281E-02    0.79       1.0  T
   4   -361.9256250 -0.232187E-03  0.337E-03    0.79       2.1  T
   5   -361.9256273 -0.231727E-05  0.156E-03    0.79       4.5  T
   6   -361.9256277 -0.413657E-06  0.799E-04    0.79       8.7  T
   7   -361.9256278 -0.404882E-07  0.491E-04    0.79      14.2  T
     SCC iter.                  ...        0 min,  0.714 sec
     gradient                   ...        0 min,  0.293 sec
 * total energy  :  -354.9209054 Eh     change       -0.1233942E-02 Eh
   gradient norm :     0.0101124 Eh/α   predicted    -0.1184342E-02 (  -4.02%)
   displ. norm   :     0.5152864 α      lambda       -0.1107696E-02
   maximum displ.:     0.2008265 α      in ANC's #46, #21, #42, ...

........................................................................
.............................. CYCLE   35 ..............................
........................................................................
   1   -361.9363832 -0.361936E+03  0.728E-02    0.79       0.0  T
   2   -361.9363814  0.178757E-05  0.436E-02    0.79       1.0  T
   3   -361.9361458  0.235543E-03  0.288E-02    0.79       1.0  T
   4   -361.9363898 -0.243983E-03  0.413E-03    0.79       1.7  T
   5   -361.9363935 -0.371108E-05  0.166E-03    0.79       4.2  T
   6   -361.9363940 -0.468739E-06  0.823E-04    0.79       8.5  T
   7   -361.9363940 -0.283716E-07  0.507E-04    0.79      13.8  T
     SCC iter.                  ...        0 min,  0.712 sec
     gradient                   ...        0 min,  0.293 sec
 * total energy  :  -354.9214904 Eh     change       -0.5849639E-03 Eh
   gradient norm :     0.0115370 Eh/α   predicted    -0.7009176E-03 (  19.82%)
   displ. norm   :     0.5402172 α      lambda       -0.1115296E-02
   maximum displ.:     0.2119527 α      in ANC's #46, #21, #42, ...

........................................................................
.............................. CYCLE   36 ..............................
........................................................................
   1   -361.9445281 -0.361945E+03  0.742E-02    0.79       0.0  T
   2   -361.9445268  0.134842E-05  0.444E-02    0.79       1.0  T
   3   -361.9443065  0.220248E-03  0.279E-02    0.79       1.0  T
   4   -361.9445347 -0.228126E-03  0.405E-03    0.79       1.7  T
   5   -361.9445382 -0.354883E-05  0.159E-03    0.79       4.4  T
   6   -361.9445386 -0.363439E-06  0.866E-04    0.79       8.0  T
   7   -361.9445386 -0.450162E-07  0.513E-04    0.79      13.6  T
     SCC iter.                  ...        0 min,  0.712 sec
     gradient                   ...        0 min,  0.294 sec
 * total energy  :  -354.9221065 Eh     change       -0.6160851E-03 Eh
   gradient norm :     0.0106982 Eh/α   predicted    -0.7203952E-03 (  16.93%)
   displ. norm   :     0.4535857 α      lambda       -0.8146757E-03
   maximum displ.:     0.1792530 α      in ANC's #21, #46, #42, ...

........................................................................
.............................. CYCLE   37 ..............................
........................................................................
   1   -361.9325169 -0.361933E+03  0.557E-02    0.79       0.0  T
   2   -361.9325166  0.314902E-06  0.331E-02    0.79       1.0  T
   3   -361.9323837  0.132900E-03  0.214E-02    0.79       1.0  T
   4   -361.9325225 -0.138776E-03  0.304E-03    0.79       2.3  T
   5   -361.9325243 -0.188054E-05  0.120E-03    0.79       5.8  T
   6   -361.9325246 -0.236542E-06  0.673E-04    0.79      10.4  T
   7   -361.9325246 -0.590028E-07  0.383E-04    0.79      18.2  T
     SCC iter.                  ...        0 min,  0.711 sec
     gradient                   ...        0 min,  0.294 sec
 * total energy  :  -354.9225783 Eh     change       -0.4718051E-03 Eh
   gradient norm :     0.0066232 Eh/α   predicted    -0.4911481E-03 (   4.10%)
   displ. norm   :     0.4172888 α      lambda       -0.6610291E-03
   maximum displ.:     0.1856975 α      in ANC's #21, #17, #46, ...

........................................................................
.............................. CYCLE   38 ..............................
........................................................................
   1   -361.9346432 -0.361935E+03  0.523E-02    0.80       0.0  T
   2   -361.9346438 -0.658684E-06  0.310E-02    0.80       1.0  T
   3   -361.9345679  0.758852E-04  0.164E-02    0.79       1.0  T
   4   -361.9346469 -0.789496E-04  0.242E-03    0.80       2.9  T
   5   -361.9346480 -0.111103E-05  0.102E-03    0.80       6.8  T
   6   -361.9346482 -0.170986E-06  0.558E-04    0.80      12.5  T
   7   -361.9346482 -0.392183E-07  0.322E-04    0.80      21.6  T
     SCC iter.                  ...        0 min,  0.708 sec
     gradient                   ...        0 min,  0.294 sec
 * total energy  :  -354.9230308 Eh     change       -0.4525307E-03 Eh
   gradient norm :     0.0072258 Eh/α   predicted    -0.3880621E-03 ( -14.25%)
   displ. norm   :     0.4933300 α      lambda       -0.5955131E-03
   maximum displ.:     0.2113836 α      in ANC's #21, #54, #17, ...

........................................................................
.............................. CYCLE   39 ..............................
........................................................................
   1   -361.9429307 -0.361943E+03  0.563E-02    0.80       0.0  T
   2   -361.9429314 -0.765960E-06  0.333E-02    0.80       1.0  T
   3   -361.9428475  0.839416E-04  0.160E-02    0.80       1.0  T
   4   -361.9429354 -0.878721E-04  0.219E-03    0.80       3.2  T
   5   -361.9429363 -0.988860E-06  0.948E-04    0.80       7.3  T
   6   -361.9429364 -0.705858E-07  0.606E-04    0.80      11.5  T
     SCC iter.                  ...        0 min,  0.613 sec
     gradient                   ...        0 min,  0.294 sec
 * total energy  :  -354.9234069 Eh     change       -0.3760964E-03 Eh
   gradient norm :     0.0073552 Eh/α   predicted    -0.3702275E-03 (  -1.56%)
   displ. norm   :     0.4290784 α      lambda       -0.3674194E-03
   maximum displ.:     0.1987931 α      in ANC's #21, #17, #18, ...

........................................................................
.............................. CYCLE   40 ..............................
........................................................................
   1   -361.9382826 -0.361938E+03  0.446E-02    0.80       0.0  T
   2   -361.9382820  0.652313E-06  0.265E-02    0.80       1.0  T
   3   -361.9381939  0.880450E-04  0.156E-02    0.80       1.0  T
   4   -361.9382865 -0.925353E-04  0.162E-03    0.80       4.3  T
   5   -361.9382870 -0.476817E-06  0.832E-04    0.80       8.4  T
   6   -361.9382870 -0.815149E-07  0.501E-04    0.80      13.9  T
     SCC iter.                  ...        0 min,  0.612 sec
     gradient                   ...        0 min,  0.294 sec
 * total energy  :  -354.9236467 Eh     change       -0.2397699E-03 Eh
   gradient norm :     0.0065495 Eh/α   predicted    -0.2175329E-03 (  -9.27%)
   displ. norm   :     0.3359729 α      lambda       -0.2610296E-03
   maximum displ.:     0.1580212 α      in ANC's #21, #17, #18, ...

........................................................................
.............................. CYCLE   41 ..............................
........................................................................
   1   -361.9407714 -0.361941E+03  0.385E-02    0.80       0.0  T
   2   -361.9407713  0.329633E-07  0.228E-02    0.80       1.0  T
   3   -361.9407256  0.457466E-04  0.109E-02    0.80       1.0  T
   4   -361.9407733 -0.476662E-04  0.153E-03    0.80       4.5  T
   5   -361.9407739 -0.602678E-06  0.680E-04    0.80      10.2  T
   6   -361.9407739 -0.552888E-07  0.403E-04    0.80      17.3  T
     SCC iter.                  ...        0 min,  0.611 sec
     gradient                   ...        0 min,  0.294 sec
 * total energy  :  -354.9238023 Eh     change       -0.1556434E-03 Eh
   gradient norm :     0.0057381 Eh/α   predicted    -0.1452424E-03 (  -6.68%)
   displ. norm   :     0.3006136 α      lambda       -0.2430790E-03
   maximum displ.:     0.1513959 α      in ANC's #21, #17, #18, ...

........................................................................
.............................. CYCLE   42 ..............................
........................................................................
   1   -361.9456903 -0.361946E+03  0.387E-02    0.79       0.0  T
   2   -361.9456906 -0.323871E-06  0.230E-02    0.79       1.0  T
   3   -361.9456545  0.361017E-04  0.967E-03    0.79       1.0  T
   4   -361.9456914 -0.368846E-04  0.200E-03    0.79       3.5  T
   5   -361.9456926 -0.125552E-05  0.685E-04    0.79      10.2  T
   6   -361.9456927 -0.532920E-07  0.397E-04    0.79      17.6  T
   7   -361.9456927 -0.123729E-07  0.218E-04    0.79      32.0  T
     SCC iter.                  ...        0 min,  0.710 sec
     gradient                   ...        0 min,  0.294 sec
 * total energy  :  -354.9239302 Eh     change       -0.1278863E-03 Eh
   gradient norm :     0.0043527 Eh/α   predicted    -0.1325295E-03 (   3.63%)
   displ. norm   :     0.2062335 α      lambda       -0.1566990E-03
   maximum displ.:     0.1036098 α      in ANC's #21, #17, #18, ...
 * RMSD in coord.:     0.8004223 α      energy gain  -0.1041617E+00 Eh

generating ANC from model Hessian ...
Using Lindh-Hessian (1995)
 Shifting diagonal of input Hessian by    9.9994161182812430E-003
 Lowest  eigenvalues of input Hessian
    0.000000    0.000000    0.000000    0.000000    0.000000    0.000000
    0.010000    0.010001    0.010002    0.010004    0.010006    0.010009
    0.010010    0.010010    0.010013    0.010013    0.010015    0.010016
 Highest eigenvalues
    2.697409    2.698245    3.028377    3.028542    3.035722    3.035821


........................................................................
.............................. CYCLE   43 ..............................
........................................................................
   1   -361.9459849 -0.361946E+03  0.287E-02    0.79       0.0  T
   2   -361.9459853 -0.338314E-06  0.169E-02    0.79       1.0  T
   3   -361.9459749  0.103395E-04  0.558E-03    0.79       1.2  T
   4   -361.9459855 -0.105816E-04  0.116E-03    0.79       6.0  T
   5   -361.9459859 -0.354838E-06  0.477E-04    0.79      14.6  T
   6   -361.9459859 -0.222071E-07  0.297E-04    0.79      23.4  T
     SCC iter.                  ...        0 min,  0.609 sec
     gradient                   ...        0 min,  0.294 sec
 * total energy  :  -354.9240137 Eh     change       -0.8345810E-04 Eh
   gradient norm :     0.0054340 Eh/α   predicted     0.0000000E+00 (-100.00%)
   displ. norm   :     0.0668926 α      lambda       -0.1061944E-03
   maximum displ.:     0.0315684 α      in ANC's #41, #21, #49, ...

........................................................................
.............................. CYCLE   44 ..............................
........................................................................
   1   -361.9471703 -0.361947E+03  0.141E-02    0.79       0.0  T
   2   -361.9471704 -0.758698E-07  0.843E-03    0.79       1.0  T
   3   -361.9471645  0.591755E-05  0.420E-03    0.79       1.7  T
   4   -361.9471706 -0.608052E-05  0.789E-04    0.79       8.8  T
   5   -361.9471708 -0.184970E-06  0.287E-04    0.79      24.2  T
   6   -361.9471708 -0.140716E-07  0.155E-04    0.79      44.8  T
     SCC iter.                  ...        0 min,  0.612 sec
     gradient                   ...        0 min,  0.294 sec
 * total energy  :  -354.9240903 Eh     change       -0.7658860E-04 Eh
   gradient norm :     0.0025753 Eh/α   predicted    -0.5439655E-04 ( -28.98%)
   displ. norm   :     0.2010331 α      lambda       -0.2041302E-03
   maximum displ.:     0.0925938 α      in ANC's #41, #21, #20, ...

........................................................................
.............................. CYCLE   45 ..............................
........................................................................
   1   -361.9486080 -0.361949E+03  0.348E-02    0.80       0.0  T
   2   -361.9486082 -0.194135E-06  0.209E-02    0.80       1.0  T
   3   -361.9485679  0.403476E-04  0.104E-02    0.80       1.0  T
   4   -361.9486091 -0.411933E-04  0.207E-03    0.80       3.4  T
   5   -361.9486103 -0.125664E-05  0.817E-04    0.80       8.5  T
   6   -361.9486104 -0.115448E-06  0.411E-04    0.80      16.9  T
   7   -361.9486104 -0.172954E-07  0.238E-04    0.80      29.3  T
     SCC iter.                  ...        0 min,  0.712 sec
     gradient                   ...        0 min,  0.294 sec
 * total energy  :  -354.9240748 Eh     change        0.1543617E-04 Eh
   gradient norm :     0.0071549 Eh/α   predicted    -0.1061902E-03 (-787.93%)
   displ. norm   :     0.1010565 α      lambda       -0.2616869E-03
   maximum displ.:     0.0340996 α      in ANC's #41, #21, #24, ...

........................................................................
.............................. CYCLE   46 ..............................
........................................................................
   1   -361.9478120 -0.361948E+03  0.303E-02    0.80       0.0  T
   2   -361.9478120  0.104832E-07  0.182E-02    0.80       1.0  T
   3   -361.9478037  0.834164E-05  0.506E-03    0.80       1.4  T
   4   -361.9478124 -0.869937E-05  0.583E-04    0.80      11.9  T
   5   -361.9478124 -0.471670E-07  0.354E-04    0.80      19.7  T
   6   -361.9478124 -0.723105E-08  0.233E-04    0.80      29.9  T
     SCC iter.                  ...        0 min,  0.610 sec
     gradient                   ...        0 min,  0.294 sec
 * total energy  :  -354.9242025 Eh     change       -0.1277105E-03 Eh
   gradient norm :     0.0049914 Eh/α   predicted    -0.1321803E-03 (   3.50%)
   displ. norm   :     0.0848753 α      lambda       -0.1230390E-03
   maximum displ.:     0.0376263 α      in ANC's #44, #21, #18, ...

........................................................................
.............................. CYCLE   47 ..............................
........................................................................
   1   -361.9457738 -0.361946E+03  0.319E-02    0.80       0.0  T
   2   -361.9457740 -0.208065E-06  0.190E-02    0.80       1.0  T
   3   -361.9457703  0.364861E-05  0.352E-03    0.80       2.0  T
   4   -361.9457741 -0.378528E-05  0.788E-04    0.80       8.8  T
   5   -361.9457742 -0.118639E-06  0.420E-04    0.80      16.6  T
   6   -361.9457743 -0.188130E-07  0.259E-04    0.80      26.9  T
     SCC iter.                  ...        0 min,  0.611 sec
     gradient                   ...        0 min,  0.295 sec
 * total energy  :  -354.9242363 Eh     change       -0.3375000E-04 Eh
   gradient norm :     0.0027112 Eh/α   predicted    -0.6196769E-04 (  83.61%)
   displ. norm   :     0.1107065 α      lambda       -0.1055015E-03
   maximum displ.:     0.0503771 α      in ANC's #21, #41, #19, ...

........................................................................
.............................. CYCLE   48 ..............................
........................................................................
   1   -361.9451675 -0.361945E+03  0.190E-02    0.80       0.0  T
   2   -361.9451675 -0.249523E-07  0.114E-02    0.80       1.0  T
   3   -361.9451635  0.395525E-05  0.358E-03    0.80       1.9  T
   4   -361.9451677 -0.413411E-05  0.484E-04    0.80      14.4  T
   5   -361.9451677 -0.282332E-07  0.278E-04    0.80      25.1  T
   6   -361.9451677 -0.322700E-08  0.178E-04    0.80      39.0  T
     SCC iter.                  ...        0 min,  0.611 sec
     gradient                   ...        0 min,  0.294 sec
 * total energy  :  -354.9242984 Eh     change       -0.6206347E-04 Eh
   gradient norm :     0.0021517 Eh/α   predicted    -0.5339841E-04 ( -13.96%)
   displ. norm   :     0.2487007 α      lambda       -0.1530808E-03
   maximum displ.:     0.1122155 α      in ANC's #21, #41, #19, ...

........................................................................
.............................. CYCLE   49 ..............................
........................................................................
   1   -361.9445972 -0.361945E+03  0.409E-02    0.80       0.0  T
   2   -361.9445973 -0.701729E-07  0.243E-02    0.80       1.0  T
   3   -361.9445795  0.177537E-04  0.745E-03    0.80       1.0  T
   4   -361.9445981 -0.185991E-04  0.841E-04    0.80       8.3  T
   5   -361.9445982 -0.655579E-07  0.547E-04    0.80      12.7  T
   6   -361.9445982 -0.261028E-07  0.330E-04    0.80      21.1  T
     SCC iter.                  ...        0 min,  0.613 sec
     gradient                   ...        0 min,  0.294 sec
 * total energy  :  -354.9243543 Eh     change       -0.5598133E-04 Eh
   gradient norm :     0.0027893 Eh/α   predicted    -0.8127579E-04 (  45.18%)
   displ. norm   :     0.1747210 α      lambda       -0.9787945E-04
   maximum displ.:     0.0861823 α      in ANC's #21, #19, #41, ...

........................................................................
.............................. CYCLE   50 ..............................
........................................................................
   1   -361.9446038 -0.361945E+03  0.223E-02    0.80       0.0  T
   2   -361.9446038 -0.187015E-10  0.132E-02    0.80       1.0  T
   3   -361.9445966  0.720189E-05  0.505E-03    0.80       1.4  T
   4   -361.9446041 -0.753264E-05  0.510E-04    0.80      13.7  T
   5   -361.9446041 -0.279742E-07  0.310E-04    0.80      22.5  T
   6   -361.9446041 -0.100155E-07  0.174E-04    0.80      40.1  T
     SCC iter.                  ...        0 min,  0.612 sec
     gradient                   ...        0 min,  0.294 sec
 * total energy  :  -354.9244220 Eh     change       -0.6768044E-04 Eh
   gradient norm :     0.0021845 Eh/α   predicted    -0.5043467E-04 ( -25.48%)
   displ. norm   :     0.2609471 α      lambda       -0.1149066E-03
   maximum displ.:     0.1284072 α      in ANC's #21, #19, #18, ...

........................................................................
.............................. CYCLE   51 ..............................
........................................................................
   1   -361.9445755 -0.361945E+03  0.353E-02    0.80       0.0  T
   2   -361.9445757 -0.176999E-06  0.209E-02    0.80       1.0  T
   3   -361.9445628  0.128797E-04  0.678E-03    0.80       1.0  T
   4   -361.9445763 -0.134371E-04  0.966E-04    0.80       7.2  T
   5   -361.9445764 -0.133519E-06  0.516E-04    0.80      13.5  T
   6   -361.9445764 -0.267899E-07  0.286E-04    0.80      24.3  T
     SCC iter.                  ...        0 min,  0.610 sec
     gradient                   ...        0 min,  0.294 sec
 * total energy  :  -354.9244739 Eh     change       -0.5183125E-04 Eh
   gradient norm :     0.0026304 Eh/α   predicted    -0.6136664E-04 (  18.40%)
   displ. norm   :     0.2657687 α      lambda       -0.1150701E-03
   maximum displ.:     0.1354988 α      in ANC's #21, #19, #18, ...

........................................................................
.............................. CYCLE   52 ..............................
........................................................................
   1   -361.9451540 -0.361945E+03  0.304E-02    0.79       0.0  T
   2   -361.9451541 -0.159314E-06  0.180E-02    0.79       1.0  T
   3   -361.9451388  0.153494E-04  0.709E-03    0.79       1.0  T
   4   -361.9451546 -0.158553E-04  0.116E-03    0.79       6.0  T
[...]
 577: 22.22 578:  6.60 579: 50.89 580:105.02 581: 94.73 582: 47.29 583:192.76 584:136.75
 585: 41.72 586:960.39 587:583.11 588:  7.06 589:  5.32 590:  0.66 591: 28.11 592: 53.02
 593:156.48 594: 10.61 595: 12.39 596:  1.37 597: 24.77 598:  2.18 599:360.49 600:276.64
 601:  6.35 602:  5.58 603:110.45 604:  0.33 605:117.32 606:  0.99 607: 18.62 608:  0.06
 609:****** 610:****** 611:****** 612: 15.87 613: 60.32 614: 32.33 615:****** 616:******
 617:786.55 618:808.86
 Raman intensities (amu)
   1:  0.00   2:  0.00   3:  0.00   4:  0.00   5:  0.00   6:  0.00   7:  0.00   8:  0.00
   9:  0.00  10:  0.00  11:  0.00  12:  0.00  13:  0.00  14:  0.00  15:  0.00  16:  0.00
  17:  0.00  18:  0.00  19:  0.00  20:  0.00  21:  0.00  22:  0.00  23:  0.00  24:  0.00
  25:  0.00  26:  0.00  27:  0.00  28:  0.00  29:  0.00  30:  0.00  31:  0.00  32:  0.00
  33:  0.00  34:  0.00  35:  0.00  36:  0.00  37:  0.00  38:  0.00  39:  0.00  40:  0.00
  41:  0.00  42:  0.00  43:  0.00  44:  0.00  45:  0.00  46:  0.00  47:  0.00  48:  0.00
  49:  0.00  50:  0.00  51:  0.00  52:  0.00  53:  0.00  54:  0.00  55:  0.00  56:  0.00
  57:  0.00  58:  0.00  59:  0.00  60:  0.00  61:  0.00  62:  0.00  63:  0.00  64:  0.00
  65:  0.00  66:  0.00  67:  0.00  68:  0.00  69:  0.00  70:  0.00  71:  0.00  72:  0.00
  73:  0.00  74:  0.00  75:  0.00  76:  0.00  77:  0.00  78:  0.00  79:  0.00  80:  0.00
  81:  0.00  82:  0.00  83:  0.00  84:  0.00  85:  0.00  86:  0.00  87:  0.00  88:  0.00
  89:  0.00  90:  0.00  91:  0.00  92:  0.00  93:  0.00  94:  0.00  95:  0.00  96:  0.00
  97:  0.00  98:  0.00  99:  0.00 100:  0.00 101:  0.00 102:  0.00 103:  0.00 104:  0.00
 105:  0.00 106:  0.00 107:  0.00 108:  0.00 109:  0.00 110:  0.00 111:  0.00 112:  0.00
 113:  0.00 114:  0.00 115:  0.00 116:  0.00 117:  0.00 118:  0.00 119:  0.00 120:  0.00
 121:  0.00 122:  0.00 123:  0.00 124:  0.00 125:  0.00 126:  0.00 127:  0.00 128:  0.00
 129:  0.00 130:  0.00 131:  0.00 132:  0.00 133:  0.00 134:  0.00 135:  0.00 136:  0.00
 137:  0.00 138:  0.00 139:  0.00 140:  0.00 141:  0.00 142:  0.00 143:  0.00 144:  0.00
 145:  0.00 146:  0.00 147:  0.00 148:  0.00 149:  0.00 150:  0.00 151:  0.00 152:  0.00
 153:  0.00 154:  0.00 155:  0.00 156:  0.00 157:  0.00 158:  0.00 159:  0.00 160:  0.00
 161:  0.00 162:  0.00 163:  0.00 164:  0.00 165:  0.00 166:  0.00 167:  0.00 168:  0.00
 169:  0.00 170:  0.00 171:  0.00 172:  0.00 173:  0.00 174:  0.00 175:  0.00 176:  0.00
 177:  0.00 178:  0.00 179:  0.00 180:  0.00 181:  0.00 182:  0.00 183:  0.00 184:  0.00
 185:  0.00 186:  0.00 187:  0.00 188:  0.00 189:  0.00 190:  0.00 191:  0.00 192:  0.00
 193:  0.00 194:  0.00 195:  0.00 196:  0.00 197:  0.00 198:  0.00 199:  0.00 200:  0.00
 201:  0.00 202:  0.00 203:  0.00 204:  0.00 205:  0.00 206:  0.00 207:  0.00 208:  0.00
 209:  0.00 210:  0.00 211:  0.00 212:  0.00 213:  0.00 214:  0.00 215:  0.00 216:  0.00
 217:  0.00 218:  0.00 219:  0.00 220:  0.00 221:  0.00 222:  0.00 223:  0.00 224:  0.00
 225:  0.00 226:  0.00 227:  0.00 228:  0.00 229:  0.00 230:  0.00 231:  0.00 232:  0.00
 233:  0.00 234:  0.00 235:  0.00 236:  0.00 237:  0.00 238:  0.00 239:  0.00 240:  0.00
 241:  0.00 242:  0.00 243:  0.00 244:  0.00 245:  0.00 246:  0.00 247:  0.00 248:  0.00
 249:  0.00 250:  0.00 251:  0.00 252:  0.00 253:  0.00 254:  0.00 255:  0.00 256:  0.00
 257:  0.00 258:  0.00 259:  0.00 260:  0.00 261:  0.00 262:  0.00 263:  0.00 264:  0.00
 265:  0.00 266:  0.00 267:  0.00 268:  0.00 269:  0.00 270:  0.00 271:  0.00 272:  0.00
 273:  0.00 274:  0.00 275:  0.00 276:  0.00 277:  0.00 278:  0.00 279:  0.00 280:  0.00
 281:  0.00 282:  0.00 283:  0.00 284:  0.00 285:  0.00 286:  0.00 287:  0.00 288:  0.00
 289:  0.00 290:  0.00 291:  0.00 292:  0.00 293:  0.00 294:  0.00 295:  0.00 296:  0.00
 297:  0.00 298:  0.00 299:  0.00 300:  0.00 301:  0.00 302:  0.00 303:  0.00 304:  0.00
 305:  0.00 306:  0.00 307:  0.00 308:  0.00 309:  0.00 310:  0.00 311:  0.00 312:  0.00
 313:  0.00 314:  0.00 315:  0.00 316:  0.00 317:  0.00 318:  0.00 319:  0.00 320:  0.00
 321:  0.00 322:  0.00 323:  0.00 324:  0.00 325:  0.00 326:  0.00 327:  0.00 328:  0.00
 329:  0.00 330:  0.00 331:  0.00 332:  0.00 333:  0.00 334:  0.00 335:  0.00 336:  0.00
 337:  0.00 338:  0.00 339:  0.00 340:  0.00 341:  0.00 342:  0.00 343:  0.00 344:  0.00
 345:  0.00 346:  0.00 347:  0.00 348:  0.00 349:  0.00 350:  0.00 351:  0.00 352:  0.00
 353:  0.00 354:  0.00 355:  0.00 356:  0.00 357:  0.00 358:  0.00 359:  0.00 360:  0.00
 361:  0.00 362:  0.00 363:  0.00 364:  0.00 365:  0.00 366:  0.00 367:  0.00 368:  0.00
 369:  0.00 370:  0.00 371:  0.00 372:  0.00 373:  0.00 374:  0.00 375:  0.00 376:  0.00
 377:  0.00 378:  0.00 379:  0.00 380:  0.00 381:  0.00 382:  0.00 383:  0.00 384:  0.00
 385:  0.00 386:  0.00 387:  0.00 388:  0.00 389:  0.00 390:  0.00 391:  0.00 392:  0.00
 393:  0.00 394:  0.00 395:  0.00 396:  0.00 397:  0.00 398:  0.00 399:  0.00 400:  0.00
 401:  0.00 402:  0.00 403:  0.00 404:  0.00 405:  0.00 406:  0.00 407:  0.00 408:  0.00
 409:  0.00 410:  0.00 411:  0.00 412:  0.00 413:  0.00 414:  0.00 415:  0.00 416:  0.00
 417:  0.00 418:  0.00 419:  0.00 420:  0.00 421:  0.00 422:  0.00 423:  0.00 424:  0.00
 425:  0.00 426:  0.00 427:  0.00 428:  0.00 429:  0.00 430:  0.00 431:  0.00 432:  0.00
 433:  0.00 434:  0.00 435:  0.00 436:  0.00 437:  0.00 438:  0.00 439:  0.00 440:  0.00
 441:  0.00 442:  0.00 443:  0.00 444:  0.00 445:  0.00 446:  0.00 447:  0.00 448:  0.00
 449:  0.00 450:  0.00 451:  0.00 452:  0.00 453:  0.00 454:  0.00 455:  0.00 456:  0.00
 457:  0.00 458:  0.00 459:  0.00 460:  0.00 461:  0.00 462:  0.00 463:  0.00 464:  0.00
 465:  0.00 466:  0.00 467:  0.00 468:  0.00 469:  0.00 470:  0.00 471:  0.00 472:  0.00
 473:  0.00 474:  0.00 475:  0.00 476:  0.00 477:  0.00 478:  0.00 479:  0.00 480:  0.00
 481:  0.00 482:  0.00 483:  0.00 484:  0.00 485:  0.00 486:  0.00 487:  0.00 488:  0.00
 489:  0.00 490:  0.00 491:  0.00 492:  0.00 493:  0.00 494:  0.00 495:  0.00 496:  0.00
 497:  0.00 498:  0.00 499:  0.00 500:  0.00 501:  0.00 502:  0.00 503:  0.00 504:  0.00
 505:  0.00 506:  0.00 507:  0.00 508:  0.00 509:  0.00 510:  0.00 511:  0.00 512:  0.00
 513:  0.00 514:  0.00 515:  0.00 516:  0.00 517:  0.00 518:  0.00 519:  0.00 520:  0.00
 521:  0.00 522:  0.00 523:  0.00 524:  0.00 525:  0.00 526:  0.00 527:  0.00 528:  0.00
 529:  0.00 530:  0.00 531:  0.00 532:  0.00 533:  0.00 534:  0.00 535:  0.00 536:  0.00
 537:  0.00 538:  0.00 539:  0.00 540:  0.00 541:  0.00 542:  0.00 543:  0.00 544:  0.00
 545:  0.00 546:  0.00 547:  0.00 548:  0.00 549:  0.00 550:  0.00 551:  0.00 552:  0.00
 553:  0.00 554:  0.00 555:  0.00 556:  0.00 557:  0.00 558:  0.00 559:  0.00 560:  0.00
 561:  0.00 562:  0.00 563:  0.00 564:  0.00 565:  0.00 566:  0.00 567:  0.00 568:  0.00
 569:  0.00 570:  0.00 571:  0.00 572:  0.00 573:  0.00 574:  0.00 575:  0.00 576:  0.00
 577:  0.00 578:  0.00 579:  0.00 580:  0.00 581:  0.00 582:  0.00 583:  0.00 584:  0.00
 585:  0.00 586:  0.00 587:  0.00 588:  0.00 589:  0.00 590:  0.00 591:  0.00 592:  0.00
 593:  0.00 594:  0.00 595:  0.00 596:  0.00 597:  0.00 598:  0.00 599:  0.00 600:  0.00
 601:  0.00 602:  0.00 603:  0.00 604:  0.00 605:  0.00 606:  0.00 607:  0.00 608:  0.00
 609:  0.00 610:  0.00 611:  0.00 612:  0.00 613:  0.00 614:  0.00 615:  0.00 616:  0.00
 617:  0.00 618:  0.00
 output can be read by thermo (or use thermo option).
 writing <g98.out> molden fake output.
 recommended (thermochemical) frequency scaling factor: 1.0
           -------------------------------------------------
          |             Thermodynamic Functions             |
           -------------------------------------------------
 symmetry recognition skipped because # atoms >         200
 inverting freq            1   2.7978931628405479     
 inverting freq            2   1.0976710543982600     
 inverting freq            3   1.0270006882661811     

          ...................................................
          :                      SETUP                      :
          :.................................................:
          :  # frequencies                         612      :
          :  # imaginary freq.                       0      :
          :  linear?                             false      :
          :  only rotor calc.                    false      :
          :  symmetry                               C1      :
          :  rotational number                       1      :
          :  scaling factor                  1.0000000      :
          :  rotor cutoff                   50.0000000 cm⁻¹ :
          :  imag. cutoff                  -20.0000000 cm⁻¹ :
          :.................................................:

    mode    ω/cm⁻¹     T·S(HO)/kcal·mol⁻¹    T·S(FR)/kcal·mol⁻¹   T·S(vib)
   ------------------------------------------------------------------------
       1      2.80    -3.14310 (  0.00%)    -1.91066 (100.00%)    -1.91067
       2      1.10    -3.69747 (  0.00%)    -2.18784 (100.00%)    -2.18784
       3      1.03    -3.73689 (  0.00%)    -2.20756 (100.00%)    -2.20756
       4      2.46    -3.21984 (  0.00%)    -1.94903 (100.00%)    -1.94904
       5      3.49    -3.01250 (  0.00%)    -1.84536 (100.00%)    -1.84539
       6      5.11    -2.78661 (  0.01%)    -1.73241 ( 99.99%)    -1.73253
       7      6.27    -2.66529 (  0.02%)    -1.67175 ( 99.98%)    -1.67199
       8      6.85    -2.61235 (  0.04%)    -1.64528 ( 99.96%)    -1.64562
       9      7.42    -2.56538 (  0.05%)    -1.62179 ( 99.95%)    -1.62225
      10      7.55    -2.55474 (  0.05%)    -1.61647 ( 99.95%)    -1.61696
      11      7.92    -2.52674 (  0.06%)    -1.60247 ( 99.94%)    -1.60305
      12      9.51    -2.41847 (  0.13%)    -1.54832 ( 99.87%)    -1.54946
      13     11.25    -2.31863 (  0.26%)    -1.49840 ( 99.74%)    -1.50049
      14     15.14    -2.14273 (  0.83%)    -1.41042 ( 99.17%)    -1.41653
      15     15.85    -2.11581 (  1.00%)    -1.39695 ( 99.00%)    -1.40413
      16     17.48    -2.05774 (  1.47%)    -1.36790 ( 98.53%)    -1.37805
      17     19.61    -1.98966 (  2.31%)    -1.33384 ( 97.69%)    -1.34899
      18     20.60    -1.96037 (  2.80%)    -1.31918 ( 97.20%)    -1.33715
      19     24.28    -1.86322 (  5.27%)    -1.27056 ( 94.73%)    -1.30177
      20     25.13    -1.84281 (  6.00%)    -1.26034 ( 94.00%)    -1.29529
      21     28.16    -1.77548 (  9.14%)    -1.22663 ( 90.86%)    -1.27680
      22     33.60    -1.67097 ( 16.94%)    -1.17428 ( 83.06%)    -1.25844
      23     34.25    -1.65977 ( 18.04%)    -1.16866 ( 81.96%)    -1.25725
      24     38.84    -1.58541 ( 26.69%)    -1.13139 ( 73.31%)    -1.25256
      25     41.54    -1.54573 ( 32.26%)    -1.11149 ( 67.74%)    -1.25158
      26     41.97    -1.53959 ( 33.18%)    -1.10841 ( 66.82%)    -1.25146
      27     42.16    -1.53696 ( 33.57%)    -1.10709 ( 66.43%)    -1.25141
      28     42.84    -1.52754 ( 35.01%)    -1.10236 ( 64.99%)    -1.25122
      29     43.04    -1.52479 ( 35.44%)    -1.10098 ( 64.56%)    -1.25116
      30     45.84    -1.48751 ( 41.40%)    -1.08227 ( 58.60%)    -1.25006
      31     49.83    -1.43826 ( 49.67%)    -1.05754 ( 50.33%)    -1.24663
      32     53.03    -1.40165 ( 55.85%)    -1.03914 ( 44.15%)    -1.24161
      33     61.64    -1.31303 ( 69.79%)    -0.99454 ( 30.21%)    -1.21681
      34     62.14    -1.30832 ( 70.46%)    -0.99217 ( 29.54%)    -1.21493
      35     68.39    -1.25201 ( 77.78%)    -0.96378 ( 22.22%)    -1.18795
      36     68.62    -1.25005 ( 78.01%)    -0.96279 ( 21.99%)    -1.18687
      37     76.34    -1.18750 ( 84.46%)    -0.93120 ( 15.54%)    -1.14766
      38     82.84    -1.13965 ( 88.28%)    -0.90698 ( 11.72%)    -1.11239
      39     84.86    -1.12560 ( 89.24%)    -0.89985 ( 10.76%)    -1.10131
      40     86.36    -1.11533 ( 89.90%)    -0.89465 ( 10.10%)    -1.09304
      41     87.51    -1.10759 ( 90.37%)    -0.89072 (  9.63%)    -1.08671
      42     90.25    -1.08966 ( 91.39%)    -0.88162 (  8.61%)    -1.07174
      43     92.18    -1.07726 ( 92.03%)    -0.87532 (  7.97%)    -1.06118
      44     92.87    -1.07293 ( 92.25%)    -0.87312 (  7.75%)    -1.05745
      45     93.29    -1.07033 ( 92.38%)    -0.87179 (  7.62%)    -1.05520
      46     95.63    -1.05590 ( 93.05%)    -0.86445 (  6.95%)    -1.04259
      47     97.11    -1.04696 ( 93.43%)    -0.85990 (  6.57%)    -1.03467
      48    101.65    -1.02039 ( 94.47%)    -0.84636 (  5.53%)    -1.01077
      49    104.40    -1.00492 ( 95.00%)    -0.83846 (  5.00%)    -0.99660
      50    110.97    -0.96956 ( 96.04%)    -0.82038 (  3.96%)    -0.96365
      51    112.51    -0.96156 ( 96.25%)    -0.81629 (  3.75%)    -0.95611
      52    113.26    -0.95773 ( 96.34%)    -0.81432 (  3.66%)    -0.95248
      53    113.42    -0.95694 ( 96.36%)    -0.81392 (  3.64%)    -0.95174
      54    114.75    -0.95017 ( 96.52%)    -0.81044 (  3.48%)    -0.94530
      55    115.75    -0.94515 ( 96.64%)    -0.80787 (  3.36%)    -0.94053
      56    117.72    -0.93544 ( 96.85%)    -0.80288 (  3.15%)    -0.93126
      57    119.48    -0.92686 ( 97.02%)    -0.79848 (  2.98%)    -0.92304
      58    119.87    -0.92502 ( 97.06%)    -0.79753 (  2.94%)    -0.92127
      59    139.41    -0.83840 ( 98.37%)    -0.75279 (  1.63%)    -0.83701
      60    141.82    -0.82862 ( 98.48%)    -0.74771 (  1.52%)    -0.82739
      61    141.85    -0.82850 ( 98.48%)    -0.74765 (  1.52%)    -0.82728
      62    142.49    -0.82594 ( 98.51%)    -0.74632 (  1.49%)    -0.82475
      63    142.93    -0.82416 ( 98.52%)    -0.74539 (  1.48%)    -0.82300
      64    143.35    -0.82249 ( 98.54%)    -0.74453 (  1.46%)    -0.82135
      65    148.03    -0.80422 ( 98.72%)    -0.73501 (  1.28%)    -0.80333
      66    150.84    -0.79355 ( 98.81%)    -0.72944 (  1.19%)    -0.79279
      67    154.69    -0.77928 ( 98.92%)    -0.72197 (  1.08%)    -0.77866
      68    155.70    -0.77559 ( 98.95%)    -0.72004 (  1.05%)    -0.77501
      69    161.31    -0.75563 ( 99.09%)    -0.70957 (  0.91%)    -0.75521
      70    173.05    -0.71619 ( 99.31%)    -0.68875 (  0.69%)    -0.71600
      71    179.76    -0.69495 ( 99.41%)    -0.67747 (  0.59%)    -0.69484
      72    181.24    -0.69040 ( 99.42%)    -0.67505 (  0.58%)    -0.69031
      73    181.92    -0.68830 ( 99.43%)    -0.67393 (  0.57%)    -0.68822
      74    182.30    -0.68717 ( 99.44%)    -0.67333 (  0.56%)    -0.68709
      75    184.15    -0.68155 ( 99.46%)    -0.67033 (  0.54%)    -0.68149
      76    184.60    -0.68019 ( 99.46%)    -0.66961 (  0.54%)    -0.68013
      77    185.15    -0.67853 ( 99.47%)    -0.66872 (  0.53%)    -0.67848
      78    185.18    -0.67846 ( 99.47%)    -0.66868 (  0.53%)    -0.67840
      79    185.60    -0.67720 ( 99.48%)    -0.66801 (  0.52%)    -0.67715
      80    190.08    -0.66398 ( 99.52%)    -0.66093 (  0.48%)    -0.66397
      81    197.15    -0.64386 ( 99.59%)    -0.65012 (  0.41%)    -0.64389
      82    198.20    -0.64096 ( 99.60%)    -0.64856 (  0.40%)    -0.64099
      83    200.96    -0.63335 ( 99.62%)    -0.64445 (  0.38%)    -0.63339
      84    201.09    -0.63301 ( 99.62%)    -0.64427 (  0.38%)    -0.63305
      85    201.36    -0.63226 ( 99.62%)    -0.64386 (  0.38%)    -0.63231
      86    202.26    -0.62982 ( 99.63%)    -0.64254 (  0.37%)    -0.62987
      87    202.57    -0.62898 ( 99.63%)    -0.64209 (  0.37%)    -0.62903
      88    207.47    -0.61592 ( 99.66%)    -0.63501 (  0.34%)    -0.61599
      89    216.59    -0.59256 ( 99.72%)    -0.62227 (  0.28%)    -0.59264
      90    224.77    -0.57254 ( 99.76%)    -0.61128 (  0.24%)    -0.57263
      91    249.35    -0.51733 ( 99.84%)    -0.58053 (  0.16%)    -0.51743
      92    257.64    -0.50020 ( 99.86%)    -0.57084 (  0.14%)    -0.50030
      93    262.62    -0.49025 ( 99.87%)    -0.56518 (  0.13%)    -0.49035
      94    264.86    -0.48584 ( 99.87%)    -0.56266 (  0.13%)    -0.48594
      95    265.01    -0.48555 ( 99.87%)    -0.56250 (  0.13%)    -0.48565
      96    265.14    -0.48529 ( 99.87%)    -0.56235 (  0.13%)    -0.48539
      97    265.20    -0.48518 ( 99.87%)    -0.56228 (  0.13%)    -0.48528
      98    265.58    -0.48444 ( 99.87%)    -0.56186 (  0.13%)    -0.48453
      99    265.69    -0.48421 ( 99.87%)    -0.56173 (  0.13%)    -0.48431
     100    267.95    -0.47983 ( 99.88%)    -0.55922 (  0.12%)    -0.47993
     101    268.65    -0.47849 ( 99.88%)    -0.55845 (  0.12%)    -0.47858
     102    269.85    -0.47619 ( 99.88%)    -0.55713 (  0.12%)    -0.47629
     103    271.77    -0.47254 ( 99.89%)    -0.55503 (  0.11%)    -0.47264
     104    275.45    -0.46564 ( 99.89%)    -0.55105 (  0.11%)    -0.46574
     105    279.25    -0.45862 ( 99.90%)    -0.54698 (  0.10%)    -0.45871
     106    281.94    -0.45375 ( 99.90%)    -0.54415 (  0.10%)    -0.45383
     107    288.76    -0.44162 ( 99.91%)    -0.53707 (  0.09%)    -0.44170
     108    289.44    -0.44044 ( 99.91%)    -0.53637 (  0.09%)    -0.44052
     109    294.01    -0.43254 ( 99.92%)    -0.53173 (  0.08%)    -0.43263
     110    298.18    -0.42548 ( 99.92%)    -0.52755 (  0.08%)    -0.42556
     111    298.27    -0.42534 ( 99.92%)    -0.52747 (  0.08%)    -0.42542
   ------------------------------------------------------------------------

   temp. (K)  partition function   enthalpy   heat capacity  entropy
                                   cal/mol     cal/K/mol   cal/K/mol   J/K/mol
 298.15  VIB  0.644E+68            74137.047    468.572    481.906
         ROT  0.673E+10              888.752      2.981     47.952
         INT  0.433E+78            75025.800    471.553    529.858
         TR   0.759E+29             1481.254      4.968     48.364
         TOT                       76507.0535   476.5210   578.2225  2419.2830

       T/K    H(0)-H(T)+PV         H(T)/Eh          T*S/Eh         G(T)/Eh
   ------------------------------------------------------------------------
    298.15    0.121922E+00    0.157953E+01    0.274732E+00    0.130479E+01
   ------------------------------------------------------------------------

         :::::::::::::::::::::::::::::::::::::::::::::::::::::
         ::                  THERMODYNAMIC                  ::
         :::::::::::::::::::::::::::::::::::::::::::::::::::::
         :: total free energy        -353.620014856767 Eh   ::
         ::.................................................::
         :: total energy             -354.924809365009 Eh   ::
         :: zero point energy           1.457604928468 Eh   ::
         :: G(RRHO) w/o ZPVE           -0.152810420226 Eh   ::
         :: G(RRHO) contrib.            1.304794508242 Eh   ::
         :::::::::::::::::::::::::::::::::::::::::::::::::::::

optimized geometry written to: xtbopt.xyz


           -------------------------------------------------
          | TOTAL ENERGY             -354.924809365009 Eh   |
          | TOTAL ENTHALPY           -353.345282686213 Eh   |
          | TOTAL FREE ENERGY        -353.620014856767 Eh   |
          | GRADIENT NORM               0.000722890444 Eh/α |
          | HOMO-LUMO GAP               0.795856881258 eV   |
           -------------------------------------------------

------------------------------------------------------------------------
 * finished run on 2021/11/19 at 16:48:54.306     
------------------------------------------------------------------------
 total:
 * wall-time:     0 d,  0 h, 19 min, 10.914 sec
 *  cpu-time:     0 d,  0 h, 19 min, 10.913 sec
 * ratio c/w:     1.000 speedup
 SCF:
 * wall-time:     0 d,  0 h,  0 min,  4.659 sec
 *  cpu-time:     0 d,  0 h,  0 min,  4.659 sec
 * ratio c/w:     1.000 speedup
 ANC optimizer:
 * wall-time:     0 d,  0 h,  1 min, 23.412 sec
 *  cpu-time:     0 d,  0 h,  1 min, 23.399 sec
 * ratio c/w:     1.000 speedup
 analytical hessian:
 * wall-time:     0 d,  0 h, 17 min, 42.590 sec
 *  cpu-time:     0 d,  0 h, 17 min, 42.602 sec
 * ratio c/w:     1.000 speedup

