206
 energy: -353.417692580649 gnorm: 1.386846964905 xtb: 6.4.1 (bd6e46d)
C        28.54500200000000    3.50850100000000    0.78846000000000
C        29.43497900000000    2.56824200000000    0.59026400000000
C        28.77347800000000    1.30816700000000    0.28945700000000
C        29.13191600000000    0.00250500000000    0.00077600000000
C        28.30673800000000   -1.12856700000000   -0.08444000000000
C        28.76230300000000   -2.33729100000000    0.49686700000000
C        27.78960900000000   -3.26983800000000    0.29671200000000
C        26.75851500000000   -2.60213700000000   -0.40627600000000
N        27.09524000000000   -1.32127700000000   -0.62319000000000
C        25.60055500000000   -3.32825200000000   -0.73799300000000
C        24.28245400000000   -2.88555600000000   -0.62445800000000
C        22.97010700000000   -3.48769000000000   -0.72143700000000
C        22.04848000000000   -2.54104300000000   -0.51535200000000
C        22.74536500000000   -1.29521200000000   -0.27862100000000
N        24.06643900000000   -1.57496400000000   -0.35830700000000
C        22.34612300000000    0.00678500000000   -0.01061800000000
C        23.17873600000000    1.14346100000000    0.06529000000000
C        22.74459200000000    2.34545100000000   -0.54485000000000
C        23.74010500000000    3.26183900000000   -0.35289400000000
C        24.75425600000000    2.58859600000000    0.37103700000000
N        24.38906000000000    1.32077400000000    0.60986100000000
C        25.92389800000000    3.29555200000000    0.69253600000000
C        27.23915100000000    2.89202800000000    0.62252100000000
N        27.42877400000000    1.58092400000000    0.32611900000000
H        28.71226600000000    4.53704500000000    1.02704900000000
H        30.50523800000000    2.69157900000000    0.63928300000000
H        29.72282500000000   -2.52299400000000    1.01544300000000
H        27.82649100000000   -4.32644700000000    0.62203900000000
H        26.49195500000000   -0.55386700000000   -1.17070900000000
H        25.68894500000000   -4.36367900000000   -1.11634000000000
H        22.77143200000000   -4.54839100000000   -0.93018200000000
H        20.97907000000000   -2.73297700000000   -0.53458600000000
H        21.27118000000000    0.09605400000000    0.12712600000000
H        21.79093800000000    2.53700800000000   -1.07364800000000
H        23.72568400000000    4.31206800000000   -0.69933600000000
H        24.98238400000000    0.56333000000000    1.18185700000000
H        25.85539000000000    4.35295700000000    1.04925200000000
C        88.80979300000000   -3.49512100000000    0.82483000000000
C        87.91981500000001   -2.55697100000000    0.61688000000000
C        88.58131700000000   -1.30008900000000    0.30300200000000
C        88.22287900000001    0.00250500000000    0.00077600000000
C        89.04805700000000    1.13263100000000   -0.09618300000000
C        88.59249100000000    2.34732700000000    0.47253900000000
C        89.56518600000000    3.27774500000000    0.26271000000000
C        90.59627999999999    2.60277800000000   -0.43330500000000
N        90.25955500000001    1.31973500000000   -0.63690500000000
C        91.75424000000000    3.32541000000000   -0.77254600000000
C        93.07234100000001    2.88391700000000   -0.65441900000000
C        94.38468800000000    3.48501100000000   -0.75764700000000
C        95.30631500000000    2.54055500000000   -0.54174100000000
C        94.60943000000000    1.29725100000000   -0.29208400000000
N        93.28835600000001    1.57616000000000   -0.37467100000000
C        95.00867100000001   -0.00189300000000   -0.01057300000000
C        94.17605900000000   -1.13772000000000    0.07713700000000
C        94.61020300000000   -2.34598100000000   -0.52048700000000
C        93.61469000000000   -3.26032600000000   -0.31902400000000
C        92.60053800000000   -2.57960100000000    0.39787600000000
N        92.96573500000000   -1.30936700000000    0.62351900000000
C        91.43089700000000   -3.28318000000000    0.72670000000000
C        90.11564400000000   -2.88040400000000    0.65249700000000
N        89.92602100000001   -1.57245000000000    0.34249400000000
H        88.64252900000000   -4.52113200000000    1.07408900000000
H        86.84955600000001   -2.67979300000000    0.66717700000000
H        87.63197000000000    2.53840600000000    0.98915900000000
H        89.52830400000001    4.33767600000000    0.57704600000000
H        90.86284000000002    0.54668000000000   -1.17642400000000
H        91.66584899999999    4.35685200000000   -1.16162600000000
H        94.58336300000001    4.54348700000000   -0.97739700000000
H        96.37572500000000    2.73227900000000   -0.56296700000000
H        96.08361499999999   -0.08972700000000    0.12809100000000
H        95.56385700000001   -2.54302000000000   -1.04726700000000
H        93.62911099999999   -4.31409700000000   -0.65453900000000
H        92.37241100000000   -0.54602400000000    1.18761800000000
H        91.49940500000000   -4.33682300000000    1.09437900000000
C        32.04867300000000    0.01430500000000    0.00506000000000
C        33.26420600000000   -0.01103800000000   -0.00541900000000
C        34.68572300000000   -0.03246200000000   -0.00959500000000
C        35.89428400000000   -0.03467300000000   -0.00949000000000
C        37.31536000000000   -0.01571300000000   -0.01011700000000
C        38.52650200000000    0.01430500000000    0.00506000000000
C        47.64139900000000    0.01430500000000    0.00506000000000
C        48.85693200000001   -0.01103800000000   -0.00541900000000
C        50.27844900000000   -0.03246200000000   -0.00959500000000
C        51.48701100000001   -0.03467300000000   -0.00949000000000
C        52.90808600000000   -0.01571300000000   -0.01011700000000
C        54.11922800000000    0.01430500000000    0.00506000000000
C        63.23412600000000    0.01430500000000    0.00506000000000
C        64.44965900000000   -0.01103800000000   -0.00541900000000
C        65.87117600000001   -0.03246200000000   -0.00959500000000
C        67.07973699999999   -0.03467300000000   -0.00949000000000
C        68.50081299999999   -0.01571300000000   -0.01011700000000
C        69.71195500000000    0.01430500000000    0.00506000000000
C        78.82685300000000    0.01430500000000    0.00506000000000
C        80.04238500000000   -0.01103800000000   -0.00541900000000
C        81.46390200000000   -0.03246200000000   -0.00959500000000
C        82.67246400000001   -0.03467300000000   -0.00949000000000
C        84.09353900000001   -0.01571300000000   -0.01011700000000
C        85.30468200000000    0.01430500000000    0.00506000000000
C        40.29003600000000   -3.59416800000000    0.00023500000000
C        39.41548600000000   -2.59926400000000   -0.01006700000000
C        40.08694900000000   -1.32048100000000    0.00312200000000
C        39.68991800000000   -0.00489500000000   -0.00165600000000
C        40.50111100000001    1.13942800000000   -0.15578300000000
C        40.02208500000000    2.19194500000000   -0.96784800000000
C        41.00917000000000    3.13469700000000   -0.95931700000000
C        42.05644100000001    2.63290200000000   -0.14651400000000
N        41.71758800000000    1.42653500000000    0.32623200000000
C        43.21681900000000    3.41088500000000    0.00783600000000
C        44.53780800000000    2.95301200000000   -0.02155700000000
C        45.85037800000000    3.58114500000000   -0.08268500000000
C        46.76449000000000    2.62608100000000   -0.08526800000000
C        46.09094300000000    1.33920800000000   -0.02607900000000
N        44.77888500000000    1.62780600000000    0.00871100000000
C        46.49322700000000   -0.00489500000000   -0.00165600000000
C        45.66107300000000   -1.11868400000000    0.18062500000000
C        46.10103100000000   -2.15034100000000    1.04393600000000
C        45.10284900000000   -3.07368200000000    1.04855700000000
C        44.07993300000000   -2.59374400000000    0.19512700000000
N        44.44711000000001   -1.41249700000000   -0.31538100000000
C        42.92302400000000   -3.36915200000000    0.03805900000000
C        41.60224900000000   -2.94967400000000    0.02137300000000
N        41.42585800000000   -1.61147000000000    0.02227400000000
H        40.12151600000001   -4.65633600000000   -0.00516800000000
H        38.32765800000000   -2.78530000000000   -0.02709400000000
H        39.05800700000000    2.26731600000000   -1.50216400000000
H        40.97102300000000    4.10581200000000   -1.49175900000000
H        42.32526700000000    0.78943500000000    1.01486100000000
H        43.16171900000000    4.49714700000000    0.15195200000000
H        46.06880400000000    4.64913800000000   -0.12101500000000
H        47.84080500000001    2.77212500000000   -0.12489500000000
H        47.05504100000000   -2.21475300000000    1.60148400000000
H        45.12826800000001   -4.01899900000000    1.62387700000000
H        43.86003400000000   -0.79304100000000   -1.03903100000000
H        42.98374200000000   -4.48089200000000   -0.07607000000000
C        55.88276200000000   -3.59416800000000    0.00023500000000
C        55.00821200000000   -2.59926400000000   -0.01006700000000
C        55.67967600000000   -1.32048100000000    0.00312200000000
C        55.28264500000001   -0.00489500000000   -0.00165600000000
C        56.09383700000000    1.13942800000000   -0.15578300000000
C        55.61481100000000    2.19194500000000   -0.96784800000000
C        56.60189700000000    3.13469700000000   -0.95931700000000
C        57.64916800000001    2.63290200000000   -0.14651400000000
N        57.31031500000000    1.42653500000000    0.32623200000000
C        58.80954500000001    3.41088500000000    0.00783600000000
C        60.13053400000000    2.95301200000000   -0.02155700000000
C        61.44310400000000    3.58114500000000   -0.08268500000000
C        62.35721700000000    2.62608100000000   -0.08526800000000
C        61.68367000000000    1.33920800000000   -0.02607900000000
N        60.37161200000000    1.62780600000000    0.00871100000000
C        62.08595300000000   -0.00489500000000   -0.00165600000000
C        61.25379900000001   -1.11868400000000    0.18062500000000
C        61.69375800000001   -2.15034100000000    1.04393600000000
C        60.69557600000000   -3.07368200000000    1.04855700000000
C        59.67266000000000   -2.59374400000000    0.19512700000000
N        60.03983700000001   -1.41249700000000   -0.31538100000000
C        58.51575100000000   -3.36915200000000    0.03805900000000
C        57.19497500000000   -2.94967400000000    0.02137300000000
N        57.01858400000000   -1.61147000000000    0.02227400000000
H        55.71424300000001   -4.65633600000000   -0.00516800000000
H        53.92038400000000   -2.78530000000000   -0.02709400000000
H        54.65073400000001    2.26731600000000   -1.50216400000000
H        56.56375000000000    4.10581200000000   -1.49175900000000
H        57.91799300000000    0.78943500000000    1.01486100000000
H        58.75444600000000    4.49714700000000    0.15195200000000
H        61.66153100000000    4.64913800000000   -0.12101500000000
H        63.43353200000001    2.77212500000000   -0.12489500000000
H        62.64776700000000   -2.21475300000000    1.60148400000000
H        60.72099400000000   -4.01899900000000    1.62387700000000
H        59.45276100000001   -0.79304100000000   -1.03903100000000
H        58.57646900000000   -4.48089200000000   -0.07607000000000
C        71.47548900000001   -3.59416800000000    0.00023500000000
C        70.60093900000000   -2.59926400000000   -0.01006700000000
C        71.27240200000001   -1.32048100000000    0.00312200000000
C        70.87537100000002   -0.00489500000000   -0.00165600000000
C        71.68656400000000    1.13942800000000   -0.15578300000000
C        71.20753800000001    2.19194500000000   -0.96784800000000
C        72.19462300000001    3.13469700000000   -0.95931700000000
C        73.24189500000000    2.63290200000000   -0.14651400000000
N        72.90304200000000    1.42653500000000    0.32623200000000
C        74.40227200000000    3.41088500000000    0.00783600000000
C        75.72326100000001    2.95301200000000   -0.02155700000000
C        77.03583100000000    3.58114500000000   -0.08268500000000
C        77.94994300000000    2.62608100000000   -0.08526800000000
C        77.27639700000000    1.33920800000000   -0.02607900000000
N        75.96433800000000    1.62780600000000    0.00871100000000
C        77.67868000000001   -0.00489500000000   -0.00165600000000
C        76.84652600000000   -1.11868400000000    0.18062500000000
C        77.28648400000002   -2.15034100000000    1.04393600000000
C        76.28830200000000   -3.07368200000000    1.04855700000000
C        75.26538600000001   -2.59374400000000    0.19512700000000
N        75.63256400000000   -1.41249700000000   -0.31538100000000
C        74.10847700000001   -3.36915200000000    0.03805900000000
C        72.78770200000000   -2.94967400000000    0.02137300000000
N        72.61131100000000   -1.61147000000000    0.02227400000000
H        71.30696900000001   -4.65633600000000   -0.00516800000000
H        69.51311100000001   -2.78530000000000   -0.02709400000000
H        70.24346000000000    2.26731600000000   -1.50216400000000
H        72.15647700000000    4.10581200000000   -1.49175900000000
H        73.51072000000002    0.78943500000000    1.01486100000000
H        74.34717200000000    4.49714700000000    0.15195200000000
H        77.25425799999999    4.64913800000000   -0.12101500000000
H        79.02625800000000    2.77212500000000   -0.12489500000000
H        78.24049400000001   -2.21475300000000    1.60148400000000
H        76.31372100000000   -4.01899900000000    1.62387700000000
H        75.04548699999999   -0.79304100000000   -1.03903100000000
H        74.16919500000000   -4.48089200000000   -0.07607000000000
206
 energy: -353.903597300123 gnorm: 0.514000151175 xtb: 6.4.1 (bd6e46d)
C        28.53845623741512    3.51162693638251    0.79022233438545
C        29.44680742249433    2.56190507924180    0.58724052521947
C        28.76928420675393    1.30845904792308    0.28648456326033
C        29.12966457852263    0.01269001414906    0.00244885556269
C        28.32174793858711   -1.11989641598531   -0.08016665904260
C        28.76897263406028   -2.34047516643211    0.49849049657986
C        27.79408133645815   -3.27289733943628    0.29214028709560
C        26.75207883934169   -2.61133452309546   -0.41091256444310
N        27.09120562203780   -1.31577989655344   -0.62607831676375
C        25.58911741471467   -3.33196704909299   -0.74299090482217
C        24.28050967240930   -2.87265396780727   -0.62910368639566
C        22.97059398516527   -3.49561559289349   -0.72501999808091
C        22.04406615998101   -2.54392169703885   -0.51449439184289
C        22.75595395696738   -1.29936387456047   -0.27291449875837
N        24.07696482231127   -1.56583691800447   -0.35579940868841
C        22.34259165630968   -0.00371648166935   -0.00842050540997
C        23.16799758731878    1.13809582034227    0.06379796723500
C        22.73943576467282    2.34797667592206   -0.54193927019561
C        23.73657918338339    3.26536641880626   -0.34907126442036
C        24.76022226154151    2.59962762798369    0.37342623298802
N        24.39585037383873    1.31478097789867    0.60746715366977
C        25.93134038086481    3.30539379471038    0.69955903226306
C        27.23996791902934    2.87745716438115    0.62424536688181
N        27.42619399717426    1.57143864711657    0.32622789270505
H        28.71034031473640    4.53985364933106    1.02792173342102
H        30.50947634044327    2.68896576141685    0.63857247787251
H        29.71691492073514   -2.51868588778102    1.01241554956145
H        27.82366051809424   -4.31782466336121    0.61848205759312
H        26.50434652575251   -0.57158442664128   -1.15514548947947
H        25.69070756666488   -4.36216077215718   -1.10655182997114
H        22.77358170386341   -4.54548921547414   -0.92978430551525
H        20.97967342688238   -2.72899462527372   -0.53356040286183
H        21.27080740194249    0.10067868156692    0.12068933671312
H        21.79801991055580    2.53245415811299   -1.06970506183885
H        23.72862895399951    4.30359923897510   -0.69599716231137
H        24.96969726638619    0.58021261260738    1.16483539350486
H        25.85100303606144    4.35113721495342    1.04109499273214
C        88.81634178202557   -3.49822517650389    0.82662570503586
C        87.90797697886073   -2.55066076286479    0.61379123124838
C        88.58548809567914   -1.30038312697838    0.30002999140344
C        88.22513850548346   -0.00753957820047    0.00253824621987
C        89.03308742745391    1.12401725796049   -0.09182348065680
C        88.58582988290782    2.35053319031723    0.47413089800084
C        89.56071340618486    3.28075774166329    0.25810975603644
C        90.60272442005238    2.61193311129972   -0.43804051628063
N        90.26361311683598    1.31421526038595   -0.63973606230201
C        91.76567687431105    3.32907554790756   -0.77758326542542
C        93.07428580500206    2.87096722583176   -0.65893138286907
C        94.38420130470332    3.49289943312902   -0.76131038571178
C        95.31072897307874    2.54344252783719   -0.54091300439664
C        94.59884163007055    1.30146196454843   -0.28642131740863
N        93.27782968579638    1.56706026698718   -0.37206782333280
C        95.01220250240458    0.00863080143800   -0.00848551902157
C        94.18679806953701   -1.13237046540762    0.07558810103845
C        94.61535913215673   -2.34847544061034   -0.51755043897600
C        93.61821502658383   -3.26381380543206   -0.31516473209343
C        92.59457165795646   -2.59060695510094    0.40038013111323
N        92.95894489991016   -1.30339978681978    0.62106439809572
C        91.42345299224246   -3.29294861102008    0.73382260729984
C        90.11482273086357   -2.86581049349155    0.65406607362539
N        89.92858466638135   -1.56295967066921    0.34250398024215
H        88.64445634628974   -4.52393100616249    1.07498901420882
H        86.84532258295002   -2.67720014486459    0.66643953872996
H        87.63788395250107    2.53406648153267    0.98617239634754
H        89.53113394674638    4.32901826699968    0.57357867558416
H        90.85045180899580    0.56456015371408   -1.16104860713458
H        91.66408705685009    4.35543738073032   -1.15182101928412
H        94.58121331081715    4.54058944898536   -0.97696869103501
H        96.37512151366585    2.72830749846177   -0.56190005812601
H        96.08398726850142   -0.09441820467577    0.12170264818880
H        95.55677477049026   -2.53842528968138   -1.04337221698906
H        93.62616580719481   -4.30559392597024   -0.65128958281714
H        92.38509771470959   -0.56308214494976    1.17077161000505
H        91.50379177101370   -4.33508854744763    1.08620120821645
C        32.04711193789246    0.01321236815828    0.00539891122613
C        33.27187606947358   -0.01160715194688   -0.00519616359820
C        34.67078837888121   -0.03205841679420   -0.00962996126395
C        35.89535480738834   -0.03436257900150   -0.00885782410269
C        37.26077426272549   -0.01342255763756   -0.00916740309769
C        38.45885193661724    0.02261349594320    0.00119122069159
C        47.71326828894666    0.00859763293765    0.00895183313333
C        48.91310659753753   -0.01563457510935   -0.00610482435807
C        50.27083953043930   -0.03140519802818   -0.01060355472511
C        51.49464528473136   -0.03397613914212   -0.00873900929147
C        52.85328815966795   -0.01370203588877   -0.00905856848963
C        54.05270551336638    0.02236289037852    0.00132435202089
C        63.30589833006199    0.00856855069994    0.00889408894219
C        64.50593699203368   -0.01565160680212   -0.00609930612439
C        65.86355375397059   -0.03141390463489   -0.01059218359872
C        67.08738445088682   -0.03397856270145   -0.00871760694687
C        68.44608536659912   -0.01371053265596   -0.00906475900888
C        69.64536674810211    0.02233207843931    0.00125775098608
C        78.89963365515867    0.00839481076084    0.00908568583115
C        80.09842122878723   -0.01578350759406   -0.00587679881241
C        81.46237041955037   -0.03120428267598   -0.01050166015074
C        82.68704390633238   -0.03362364345649   -0.00966744675950
C        84.08469832635365   -0.01596991004074   -0.00971574153858
C        85.30831776742389    0.01457599534901    0.00548482298604
C        40.29845483262794   -3.59711031111965   -0.00093551972268
C        39.40534725520173   -2.60030748182618   -0.00935153122902
C        40.11743154330696   -1.33960308611120    0.00769539258172
C        39.73543256749568   -0.01100800146815   -0.00022221598741
C        40.50815762801340    1.14007669748858   -0.15867113769599
C        40.02148502818570    2.19351973460844   -0.96560273200895
C        41.00884806011205    3.14232305051957   -0.95688683575837
C        42.06242199777608    2.64590856932985   -0.14664853135398
N        41.72859989263922    1.42435965799200    0.32688000867937
C        43.23173012048697    3.41653278847655    0.01204924681642
C        44.53801133761337    2.94900688248116   -0.01588919092145
C        45.84700001168434    3.59136794901382   -0.08073685190356
C        46.77064583171637    2.62368629859573   -0.08617087477617
C        46.06025087855759    1.35516768218943   -0.03111157941144
N        44.76047722303154    1.61872920929176    0.00690958018993
C        46.44187638021451    0.00572694100210   -0.00368301234285
C        45.65118536184391   -1.12045290955768    0.18378634098548
C        46.10267614789267   -2.15097741380615    1.04175499532591
C        45.10411850449616   -3.08256073157121    1.04692642216312
C        44.07467486887180   -2.60788926867901    0.19581549615825
N        44.43618406005558   -1.40970752660735   -0.31626369818258
C        42.91301487099712   -3.38209630951402    0.03301222876563
C        41.60518492249012   -2.94372628804043    0.01556123364550
N        41.43379092541828   -1.60700437046510    0.02355560237129
H        40.12320821364492   -4.65619716362865   -0.00524804477347
H        38.32987922378700   -2.77930604648487   -0.02684282825817
H        39.06590759227523    2.26284392378164   -1.49683457738445
H        40.97424508064690    4.09908443509945   -1.48713173219654
H        42.31333447532909    0.80315396002774    0.99607296041832
H        43.15858792279113    4.49601766134874    0.14433616343119
H        46.06528213045521    4.64905041763626   -0.12082289031150
H        47.84039972108319    2.76912437895052   -0.12514302814943
H        47.04715125847115   -2.21022089383151    1.59572894247854
H        45.12462013710218   -4.01343142383832    1.61908648125512
H        43.87169092021484   -0.80631283123212   -1.01941751087507
H        42.98880888898753   -4.47733652593684   -0.06838269810006
C        55.89110779547631   -3.59728348502973   -0.00092466970362
C        54.99817997743530   -2.60059362190057   -0.00932846265513
C        55.71048492641629   -1.33984277618129    0.00757460013982
C        55.32780492644162   -0.01080988339657   -0.00010448430407
C        56.10112872339738    1.14049679245884   -0.15882206841751
C        55.61443051682247    2.19344011254487   -0.96578504216377
C        56.60159593301618    3.14258721954137   -0.95665419402192
C        57.65519427611900    2.64619623784164   -0.14666460281621
N        57.32106057768906    1.42427064627121    0.32689396112919
C        58.82429621418428    3.41644052236821    0.01188944336540
C        60.13088850491260    2.94904703025967   -0.01586368838126
C        61.43962934697376    3.59136706964777   -0.08069768130220
C        62.36338749429851    2.62358668120260   -0.08613458498094
C        61.65306683582371    1.35531549195927   -0.03106650401147
N        60.35321188620461    1.61879894527818    0.00699952478975
C        62.03473748313041    0.00572103641451   -0.00371310490832
C        61.24399492770504   -1.12056425266541    0.18383569535054
C        61.69548614004092   -2.15078535667044    1.04167471938046
C        60.69650915113871   -3.08237837558035    1.04707911889847
C        59.66760363979644   -2.60765816966380    0.19593218163529
N        60.02891718631765   -1.40990591612255   -0.31631596051539
C        58.50511123074419   -3.38222591664105    0.03284337944078
C        57.19829106202176   -2.94403046120906    0.01576136115899
N        57.02598471623120   -1.60652670278753    0.02367163562013
H        55.71589895044140   -4.65628372706735   -0.00525832882400
H        53.92257738321486   -2.77933157283674   -0.02683714896429
H        54.65869563915583    2.26280086711153   -1.49684434468864
H        56.56698266175520    4.09916475125670   -1.48710841881951
H        57.90597808855148    0.80309602017437    0.99602896340905
H        58.75131657856413    4.49600534020271    0.14423627879283
H        61.65798838809190    4.64903317510108   -0.12083139013117
H        63.43311267798167    2.76910643821721   -0.12515038595605
H        62.63991687076661   -2.21022670557541    1.59568603892318
H        60.71731453163169   -4.01340852978276    1.61905856585699
H        59.46440273791767   -0.80638108316148   -1.01943077445059
H        58.58147090156172   -4.47735589565396   -0.06860623188917
C        71.48373189411193   -3.59729415135688   -0.00088518851733
C        70.59093154864779   -2.60071185585508   -0.00929028486966
C        71.30332367593185   -1.33971520463371    0.00764513747226
C        70.92064971686520   -0.01080681174265   -0.00014399329991
C        71.69393558538509    1.14040746021359   -0.15877956674708
C        71.20722836890404    2.19362716442670   -0.96584890366102
C        72.19401347923011    3.14274524022255   -0.95650573365637
C        73.24811615363757    2.64641225069491   -0.14657266091677
N        72.91378778263376    1.42409446472967    0.32683930472385
C        74.41643918106097    3.41633023658577    0.01176487810689
C        75.72396688858730    2.94877318948958   -0.01566796642162
C        77.03228145638714    3.59120960254835   -0.08069853927448
C        77.95619860698891    2.62332204246440   -0.08610545118461
C        77.24603384224702    1.35512008816945   -0.03135787217008
N        75.94547336361151    1.61920168151423    0.00711880628888
C        77.62711786681054    0.00588915037121   -0.00356701782005
C        76.83698864064893   -1.12017484394561    0.18370380776560
C        77.28844677775713   -2.15090579954397    1.04148292328010
C        76.28924547363491   -3.08209990307946    1.04731902843903
C        75.26038567185265   -2.60736360462545    0.19591085104675
N        75.62137555158493   -1.41000320394243   -0.31628948777798
C        74.09766184261768   -3.38232644075510    0.03266717238555
C        72.79118971290472   -2.94399433613007    0.01579573207410
N        72.61868815367677   -1.60642697882262    0.02375970097531
H        71.30860292649797   -4.65630140183853   -0.00526834856020
H        69.51528937569795   -2.77935190164106   -0.02684691062804
H        70.25145697117446    2.26279820065336   -1.49688467931641
H        72.15968065748868    4.09918644861921   -1.48713436659859
H        73.49868679334482    0.80303122000101    0.99601127038003
H        74.34397187833670    4.49599325212763    0.14404649579999
H        77.25067942046574    4.64894909649987   -0.12083964438486
H        79.02581739830040    2.76908103241090   -0.12514670787823
H        78.23270559087803   -2.21027592008993    1.59567901781075
H        76.31004731544513   -4.01332776879170    1.61908364567810
H        75.05705227861847   -0.80643829867698   -1.01947101769113
H        74.17420149293720   -4.47736864631010   -0.06871738989379
206
 energy: -354.087300208790 gnorm: 0.220825528746 xtb: 6.4.1 (bd6e46d)
C        28.53229903107763    3.50808326823174    0.79283219892430
C        29.45819414651434    2.55682956036706    0.58118748500412
C        28.76425814384708    1.31177403055212    0.28037715599113
C        29.12776390079837    0.02568553450205    0.00475143958996
C        28.34257098386906   -1.11236116967731   -0.07440242384899
C        28.77747477107930   -2.34450701874711    0.49651183045250
C        27.80214018377661   -3.27488511002742    0.27928089611598
C        26.74793321051618   -2.62285137196408   -0.41919041344025
N        27.09402198154034   -1.31569670896464   -0.62428635584213
C        25.57572035849205   -3.33391559268214   -0.75172814363974
C        24.27917414977179   -2.85178982341052   -0.64017901541947
C        22.97324979142652   -3.50009258801437   -0.73177750018782
C        22.04393659756256   -2.54741856345651   -0.51089659738736
C        22.77229925033451   -1.30565327787202   -0.25973175967770
N        24.09280396431040   -1.55148118599173   -0.35143382992243
C        22.33852771885364   -0.01768433511679   -0.00252747099293
C        23.15433438022517    1.13295625641559    0.06245738684870
C        22.73244742754122    2.35109170228782   -0.53147037554382
C        23.72978964820714    3.26892356718293   -0.33717019933874
C        24.76584010119256    2.61454220889721    0.37736382831823
N        24.40120482302553    1.31327491094492    0.59455655002906
C        25.94076040205622    3.31568483682941    0.71049549008448
C        27.24095242527717    2.85347016717799    0.63110882124500
N        27.42146295963041    1.55441883587603    0.32976854894352
H        28.70517367111405    4.53995479696974    1.02909043072017
H        30.51810566755045    2.68391166346813    0.63613591721031
H        29.71097031846744   -2.51128438417883    1.00955701974263
H        27.81840870274322   -4.30524717712634    0.61118285115906
H        26.52614685266782   -0.60195042115355   -1.12488858565586
H        25.69201328783531   -4.36395138898264   -1.08384952840498
H        22.77997735039126   -4.54190664189065   -0.93068406503654
H        20.98128913892155   -2.71936459350313   -0.53015044607075