 Entering Gaussian System
 *********************************************
 Gaussian 98:
 frequency output generated by the xtb code
 *********************************************
                         Standard orientation:
 --------------------------------------------------------------------
  Center     Atomic     Atomic              Coordinates (Angstroms)
  Number     Number      Type              X           Y           Z
 --------------------------------------------------------------------
    1         30             0        7.930214   -0.057642    0.048503
    2          6             0       10.425843   -3.519565    0.116662
    3          6             0       11.388708   -2.566793    0.149654
    4          6             0       10.713156   -1.300724    0.134744
    5          6             0       11.364382   -0.056840    0.160842
    6          6             0       10.711689    1.186732    0.149784
    7          6             0       11.386172    2.453119    0.181019
    8          6             0       10.422630    3.405433    0.155728
    9          6             0        9.163110    2.718546    0.108601
   10          7             0        9.370837    1.371660    0.107194
   11          6             0        7.929270    3.346074    0.066943
   12          6             0        6.696647    2.716911    0.015631
   13          6             0        5.431422    3.398466   -0.031311
   14          6             0        4.475160    2.441789   -0.074189
   15          6             0        5.155374    1.174737   -0.052732
   16          7             0        6.498377    1.372689    0.001035
   17          6             0        4.524197   -0.058173   -0.080273
   18          6             0        5.156096   -1.290866   -0.057225
   19          6             0        4.476601   -2.558165   -0.083015
   20          6             0        5.433612   -3.514441   -0.047902
   21          6             0        6.698584   -2.832433   -0.001747
   22          7             0        6.499323   -1.488178   -0.007580
   23          6             0        7.931891   -3.461115    0.039219
   24          6             0        9.165595   -2.833252    0.080936
   25          7             0        9.372275   -1.486306    0.093214
   26          1             0       10.543243   -4.586073    0.115375
   27          1             0       12.453850   -2.691380    0.181061
   28          1             0       12.451121    2.578354    0.216958
   29          1             0       10.539333    4.471998    0.166725
   30          1             0        7.929860    4.427277    0.073257
   31          1             0        5.310793    4.464863   -0.030851
   32          1             0        3.409674    2.563021   -0.116303
   33          1             0        3.443971   -0.058303   -0.122332
   34          1             0        3.411044   -2.679681   -0.122320
   35          1             0        5.313370   -4.580868   -0.052617
   36          1             0        7.932837   -4.542343    0.036776
   37          6             0       12.762719   -0.054222    0.193179
   38          6             0       13.980572   -0.043726    0.214000
   39          6             0       15.322717   -0.033257    0.218093
   40          6             0       16.540655   -0.015339    0.209576
   41         30             0       21.366608    0.059872   -0.053177
   42          6             0       18.826303    3.482316    0.170213
   43          6             0       17.878395    2.514963    0.210389
   44          6             0       18.570922    1.259624    0.144919
   45          6             0       17.938483    0.005892    0.166296
   46          6             0       18.609652   -1.227405    0.136727
   47          6             0       17.956353   -2.503858    0.193412
   48          6             0       18.933675   -3.441195    0.144552
   49          6             0       20.179987   -2.735063    0.053286
   50          7             0       19.951375   -1.391577    0.054694
   51          6             0       21.421053   -3.343172   -0.036819
   52          6             0       22.639571   -2.694792   -0.148630
   53          6             0       23.911177   -3.356537   -0.262529
   54          6             0       24.848510   -2.385095   -0.358139
   55          6             0       24.150779   -1.128794   -0.299486
   56          7             0       22.815890   -1.347582   -0.174100
   57          6             0       24.760771    0.113834   -0.355535
   58          6             0       24.112939    1.336427   -0.286187
   59          6             0       24.771668    2.614155   -0.330996
   60          6             0       23.804587    3.555179   -0.227201
   61          6             0       22.553953    2.853457   -0.122430
   62          7             0       22.771706    1.512661   -0.160387
   63          6             0       21.315655    3.462875   -0.007567
   64          6             0       20.094014    2.815761    0.075128
   65          7             0       19.907025    1.465897    0.065605
   66          1             0       18.694132    4.546717    0.199446
   67          1             0       16.813174    2.622488    0.279562
   68          1             0       16.895110   -2.645209    0.263325
   69          1             0       18.834137   -4.509340    0.165211
   70          1             0       21.438067   -4.424221   -0.027246
   71          1             0       24.047871   -4.420955   -0.268249
   72          1             0       25.911878   -2.489574   -0.458186
   73          1             0       25.836924    0.130742   -0.456922
   74          1             0       25.831490    2.752251   -0.428042
   75          1             0       23.908841    4.623269   -0.222154
   76          1             0       21.299201    4.543778    0.011544
 --------------------------------------------------------------------
     1 basis functions        1 primitive gaussians
     1 alpha electrons        1 beta electrons

 Harmonic frequencies (cm**-1), IR intensities (km*mol⁻¹),
 Raman scattering activities (A**4/amu), Raman depolarization ratios,
 reduced masses (AMU), force constants (mDyne/A) and normal coordinates:
                      1                      2                      3
                        a                      a                      a 
 Frequencies --     3.9297                 8.0712                 8.6153
 Red. masses --    11.2395                11.4510                11.5372
 Frc consts  --     0.0000                 0.0000                 0.0000
 IR Inten    --     0.0014                 0.1407                 0.0470
 Raman Activ --     0.0000                 0.0000                 0.0000
 Depolar     --     0.0000                 0.0000                 0.0000
 Atom AN      X      Y      Z        X      Y      Z        X      Y      Z
   1  30     0.00  -0.00  -0.00     0.00   0.02  -0.00     0.02   0.00  -0.02
   2   6    -0.01  -0.00   0.19    -0.13  -0.08   0.01     0.01   0.00   0.12
   3   6    -0.01  -0.00   0.14    -0.09  -0.12   0.01     0.00   0.00   0.16
   4   6    -0.00  -0.00   0.07    -0.04  -0.09   0.00     0.00   0.00   0.12
   5   6     0.00  -0.00   0.00     0.00  -0.12   0.00     0.00   0.00   0.15
   6   6     0.00  -0.00  -0.07     0.05  -0.09  -0.00     0.00   0.00   0.13
   7   6     0.01  -0.00  -0.14     0.09  -0.12  -0.00     0.00   0.00   0.16
   8   6     0.01   0.00  -0.19     0.13  -0.08  -0.01     0.00   0.00   0.13
   9   6     0.01   0.00  -0.16     0.11  -0.04  -0.00     0.01   0.00   0.06
  10   7     0.00  -0.00  -0.09     0.06  -0.05  -0.00     0.01   0.00   0.07
  11   6     0.01   0.00  -0.19     0.13   0.01  -0.01     0.01  -0.00   0.00
  12   6     0.01   0.00  -0.16     0.11   0.06  -0.01     0.01  -0.00  -0.07
  13   6     0.01   0.00  -0.20     0.13   0.10  -0.01     0.01  -0.00  -0.14
  14   6     0.01  -0.00  -0.15     0.09   0.14  -0.01     0.02  -0.00  -0.20
  15   6     0.00  -0.00  -0.07     0.05   0.11  -0.00     0.01  -0.00  -0.16
  16   7     0.00  -0.00  -0.09     0.06   0.07  -0.00     0.01  -0.00  -0.09
  17   6     0.00  -0.00  -0.00     0.00   0.14  -0.00     0.02  -0.00  -0.20
  18   6    -0.00  -0.00   0.07    -0.04   0.11   0.00     0.01  -0.00  -0.16
  19   6    -0.01  -0.00   0.14    -0.09   0.14   0.00     0.02  -0.00  -0.20
  20   6    -0.01  -0.00   0.20    -0.13   0.10   0.01     0.01  -0.00  -0.14
  21   6    -0.01  -0.00   0.16    -0.10   0.06   0.00     0.01  -0.00  -0.07
  22   7    -0.00  -0.00   0.09    -0.06   0.07   0.00     0.01  -0.00  -0.09
  23   6    -0.01  -0.00   0.19    -0.13   0.01   0.01     0.01  -0.00  -0.00
  24   6    -0.01  -0.00   0.16    -0.10  -0.04   0.01     0.01   0.00   0.06
  25   7    -0.00  -0.00   0.09    -0.06  -0.05   0.00     0.01   0.00   0.07
  26   1    -0.00  -0.00   0.07    -0.05  -0.03   0.00     0.00   0.00   0.04
  27   1    -0.00  -0.00   0.04    -0.03  -0.05   0.00     0.00   0.00   0.06
  28   1     0.00  -0.00  -0.04     0.03  -0.05  -0.00     0.00   0.00   0.06
  29   1     0.00   0.00  -0.07     0.05  -0.03  -0.00     0.00   0.00   0.04
  30   1     0.00   0.00  -0.07     0.05   0.00  -0.00     0.00  -0.00   0.00
  31   1     0.00   0.00  -0.08     0.05   0.03  -0.00     0.00  -0.00  -0.04
  32   1     0.00  -0.00  -0.04     0.03   0.05  -0.00     0.01  -0.00  -0.07
  33   1     0.00  -0.00  -0.00     0.00   0.05  -0.00     0.01  -0.00  -0.08
  34   1    -0.00  -0.00   0.04    -0.03   0.05   0.00     0.01  -0.00  -0.08
  35   1    -0.00  -0.00   0.08    -0.05   0.03   0.00     0.00  -0.00  -0.04
  36   1    -0.00  -0.00   0.07    -0.05   0.00   0.00     0.00  -0.00   0.00
  37   6     0.00  -0.00   0.00     0.00  -0.16   0.00     0.00   0.00   0.19
  38   6     0.00  -0.00   0.00     0.00  -0.18   0.00     0.00   0.00   0.20
  39   6     0.00  -0.00   0.00     0.00  -0.18   0.00     0.00   0.00   0.20
  40   6     0.00  -0.00   0.00     0.00  -0.16   0.00     0.00   0.00   0.19
  41  30    -0.00   0.00   0.00    -0.00   0.02  -0.00    -0.02  -0.00  -0.02
  42   6     0.01  -0.01   0.19    -0.13  -0.08  -0.01     0.00   0.00   0.12
  43   6     0.01  -0.01   0.14    -0.09  -0.12  -0.01     0.00   0.00   0.16
  44   6     0.00  -0.00   0.07    -0.05  -0.09  -0.00     0.00   0.00   0.12
  45   6     0.00  -0.00   0.00     0.00  -0.12   0.00     0.00   0.00   0.15
  46   6    -0.00  -0.00  -0.07     0.05  -0.09   0.00     0.00   0.00   0.12
  47   6    -0.01  -0.01  -0.14     0.09  -0.12   0.01     0.00   0.00   0.16
  48   6    -0.01  -0.01  -0.19     0.13  -0.08   0.01     0.00   0.00   0.12
  49   6    -0.01  -0.00  -0.15     0.10  -0.03   0.01    -0.00   0.00   0.06
  50   7    -0.00  -0.00  -0.08     0.06  -0.05   0.01    -0.00   0.00   0.07
  51   6    -0.01  -0.00  -0.19     0.13   0.01   0.01    -0.01   0.00   0.00
  52   6    -0.01   0.00  -0.16     0.10   0.06   0.01    -0.01  -0.00  -0.07
  53   6    -0.01   0.01  -0.20     0.13   0.11   0.01    -0.02  -0.00  -0.14
  54   6    -0.01   0.01  -0.15     0.09   0.14   0.01    -0.03  -0.00  -0.20
  55   6    -0.00   0.01  -0.07     0.04   0.12   0.00    -0.02  -0.00  -0.16
  56   7    -0.00   0.00  -0.09     0.06   0.07   0.01    -0.02  -0.00  -0.09
  57   6    -0.00   0.01  -0.00    -0.00   0.14  -0.00    -0.03  -0.00  -0.20
  58   6     0.00   0.01   0.07    -0.05   0.11  -0.01    -0.02  -0.00  -0.16
  59   6     0.01   0.01   0.14    -0.10   0.14  -0.01    -0.02  -0.00  -0.20
  60   6     0.01   0.01   0.20    -0.13   0.10  -0.01    -0.02  -0.00  -0.14
  61   6     0.01   0.00   0.16    -0.11   0.06  -0.01    -0.01  -0.00  -0.07
  62   7     0.00   0.00   0.09    -0.06   0.07  -0.01    -0.02  -0.00  -0.09
  63   6     0.01  -0.00   0.19    -0.13   0.01  -0.01    -0.01  -0.00   0.00
  64   6     0.01  -0.00   0.16    -0.11  -0.04  -0.01    -0.00  -0.00   0.06
  65   7     0.00  -0.00   0.09    -0.06  -0.05  -0.00    -0.00   0.00   0.07
  66   1     0.00  -0.00   0.07    -0.05  -0.03  -0.00     0.00  -0.00   0.04
  67   1     0.00  -0.00   0.04    -0.03  -0.05  -0.00     0.00   0.00   0.06
  68   1    -0.00  -0.00  -0.04     0.03  -0.05   0.00     0.00   0.00   0.06
  69   1    -0.00  -0.00  -0.07     0.05  -0.02   0.00     0.00   0.00   0.04
  70   1    -0.00  -0.00  -0.07     0.05   0.00   0.00    -0.00   0.00   0.00
  71   1    -0.00   0.00  -0.08     0.05   0.03   0.00    -0.01  -0.00  -0.04
  72   1    -0.00   0.00  -0.04     0.03   0.05   0.00    -0.01  -0.00  -0.07
  73   1    -0.00   0.00  -0.00    -0.00   0.05  -0.00    -0.01  -0.00  -0.08
  74   1     0.00   0.00   0.04    -0.03   0.05  -0.00    -0.01  -0.00  -0.07
  75   1     0.00   0.00   0.08    -0.05   0.03  -0.00    -0.01  -0.00  -0.04
  76   1     0.00  -0.00   0.07    -0.05   0.00  -0.00    -0.00  -0.00   0.00
                      4                      5                      6
                        a                      a                      a 
 Frequencies --    19.6480                34.4746                41.1188
 Red. masses --    12.4695                13.1342                10.9796
 Frc consts  --     0.0000                 0.0000                 0.0000
 IR Inten    --     0.1333                 0.0213                 1.4304
 Raman Activ --     0.0000                 0.0000                 0.0000
 Depolar     --     0.0000                 0.0000                 0.0000
 Atom AN      X      Y      Z        X      Y      Z        X      Y      Z
   1  30     0.01   0.00  -0.10     0.00  -0.12  -0.00    -0.00   0.01  -0.00
   2   6     0.01   0.00  -0.19    -0.12  -0.14  -0.01    -0.00   0.00   0.22
   3   6     0.01   0.00  -0.19    -0.08  -0.17  -0.01    -0.00   0.01   0.22
   4   6     0.01   0.00  -0.14    -0.04  -0.15  -0.00    -0.00   0.01   0.11
   5   6     0.01   0.00  -0.13     0.00  -0.17  -0.00     0.00   0.01   0.00
   6   6     0.01   0.00  -0.14     0.04  -0.15   0.00     0.00   0.01  -0.10
   7   6     0.01   0.00  -0.19     0.09  -0.17   0.01     0.00   0.01  -0.22
   8   6     0.01   0.00  -0.19     0.12  -0.14   0.01     0.00   0.01  -0.22
   9   6     0.01   0.00  -0.14     0.10  -0.09   0.00    -0.00   0.01  -0.10
  10   7     0.01   0.00  -0.13     0.05  -0.11   0.00     0.00   0.01  -0.06
  11   6     0.00   0.00  -0.09     0.12  -0.05   0.00    -0.01   0.00   0.00
  12   6     0.00   0.00  -0.00     0.10  -0.01   0.00    -0.01   0.00   0.11
  13   6    -0.00  -0.00   0.08     0.12   0.04  -0.00    -0.01  -0.00   0.22
  14   6    -0.01  -0.00   0.17     0.09   0.07  -0.00    -0.01  -0.00   0.22
  15   6    -0.00  -0.00   0.14     0.04   0.05  -0.00    -0.01  -0.00   0.11
  16   7    -0.00  -0.00   0.04     0.06   0.00   0.00    -0.01   0.00   0.07
  17   6    -0.01  -0.00   0.19     0.00   0.07   0.00    -0.00  -0.00   0.00
  18   6    -0.00  -0.00   0.14    -0.04   0.05   0.00     0.01  -0.00  -0.10
  19   6    -0.00  -0.00   0.17    -0.09   0.07   0.00     0.01  -0.00  -0.22
  20   6    -0.00  -0.00   0.08    -0.12   0.04   0.00     0.01  -0.00  -0.22
  21   6     0.00  -0.00  -0.00    -0.10  -0.01  -0.00     0.01   0.00  -0.11
  22   7    -0.00  -0.00   0.04    -0.05   0.00  -0.00     0.00   0.00  -0.07
  23   6     0.00   0.00  -0.09    -0.12  -0.05  -0.00     0.01   0.00  -0.00
  24   6     0.01   0.00  -0.14    -0.09  -0.09  -0.01     0.00   0.00   0.10
  25   7     0.01   0.00  -0.13    -0.05  -0.11  -0.00     0.00   0.00   0.06
  26   1     0.00   0.00  -0.07    -0.05  -0.04  -0.00    -0.00   0.00   0.08
  27   1     0.00   0.00  -0.06    -0.03  -0.06  -0.00    -0.00   0.00   0.08
  28   1     0.00   0.00  -0.06     0.03  -0.06   0.00     0.00   0.00  -0.08
  29   1     0.00   0.00  -0.07     0.05  -0.04   0.00     0.00   0.00  -0.08
  30   1     0.00   0.00  -0.03     0.05  -0.01   0.00    -0.00   0.00   0.00
  31   1    -0.00  -0.00   0.02     0.05   0.01  -0.00    -0.01  -0.00   0.08
  32   1    -0.00  -0.00   0.07     0.03   0.03  -0.00    -0.00  -0.00   0.08
  33   1    -0.00  -0.00   0.08     0.00   0.03   0.00    -0.00  -0.00   0.00
  34   1    -0.00  -0.00   0.07    -0.03   0.03   0.00     0.00  -0.00  -0.08
  35   1    -0.00  -0.00   0.02    -0.05   0.01   0.00     0.00  -0.00  -0.08
  36   1     0.00   0.00  -0.03    -0.05  -0.01  -0.00     0.00   0.00  -0.00
  37   6     0.00   0.00  -0.10     0.00  -0.18  -0.00     0.00   0.01   0.00
  38   6     0.00  -0.00  -0.03    -0.00  -0.05  -0.00     0.00  -0.00   0.00
  39   6     0.00  -0.00   0.03    -0.00   0.05  -0.00     0.00  -0.01   0.00
  40   6     0.00  -0.00   0.10    -0.00   0.18   0.00     0.00  -0.01   0.00
  41  30    -0.00  -0.00   0.10    -0.00   0.12   0.00     0.00  -0.01  -0.00
  42   6     0.01  -0.00   0.19     0.12   0.14  -0.02    -0.02  -0.00  -0.20
  43   6     0.01  -0.00   0.19     0.08   0.17  -0.02    -0.02  -0.01  -0.20
  44   6     0.01  -0.00   0.14     0.04   0.15  -0.01    -0.01  -0.01  -0.10
  45   6     0.00  -0.00   0.13    -0.00   0.17   0.00     0.00  -0.01   0.00
  46   6     0.01  -0.00   0.14    -0.04   0.15   0.01     0.01  -0.01   0.10
  47   6     0.01  -0.00   0.19    -0.09   0.17   0.03     0.02  -0.01   0.20
  48   6     0.01   0.00   0.19    -0.12   0.14   0.03     0.02  -0.00   0.20
  49   6     0.01   0.00   0.14    -0.10   0.09   0.01     0.01  -0.00   0.09
  50   7     0.00  -0.00   0.13    -0.05   0.11   0.01     0.01  -0.00   0.05
  51   6     0.00   0.00   0.09    -0.12   0.05   0.00     0.01  -0.00  -0.00
  52   6    -0.01   0.00   0.00    -0.10   0.00  -0.01    -0.00   0.00  -0.10
  53   6    -0.01   0.00  -0.08    -0.12  -0.04  -0.02    -0.01   0.00  -0.20
  54   6    -0.02   0.00  -0.17    -0.09  -0.07  -0.02    -0.01   0.00  -0.20
  55   6    -0.02   0.00  -0.13    -0.04  -0.05  -0.01    -0.01   0.00  -0.09
  56   7    -0.01   0.00  -0.04    -0.05  -0.00  -0.01    -0.00   0.00  -0.06
  57   6    -0.02   0.00  -0.19     0.00  -0.07  -0.00    -0.00   0.00   0.00
  58   6    -0.02   0.00  -0.14     0.05  -0.05   0.01     0.01   0.00   0.10
  59   6    -0.02   0.00  -0.17     0.09  -0.07   0.02     0.01   0.00   0.20
  60   6    -0.01  -0.00  -0.08     0.12  -0.04   0.02     0.01   0.00   0.20
  61   6    -0.01  -0.00   0.00     0.10   0.01   0.01     0.00  -0.00   0.10
  62   7    -0.01  -0.00  -0.04     0.05  -0.00   0.01     0.00   0.00   0.06
  63   6     0.00  -0.00   0.09     0.12   0.05  -0.00    -0.01  -0.00   0.00
  64   6     0.01  -0.00   0.14     0.09   0.10  -0.01    -0.01  -0.00  -0.09
  65   7     0.00  -0.00   0.13     0.05   0.11  -0.01    -0.01  -0.00  -0.06
  66   1     0.00  -0.00   0.06     0.04   0.04  -0.01    -0.01  -0.00  -0.08
  67   1     0.00  -0.00   0.06     0.02   0.06  -0.01    -0.01  -0.00  -0.08
  68   1     0.00  -0.00   0.06    -0.03   0.06   0.01     0.01  -0.00   0.08
  69   1     0.00   0.00   0.07    -0.05   0.04   0.01     0.01  -0.00   0.08
  70   1     0.00   0.00   0.03    -0.05   0.01   0.00     0.00  -0.00  -0.00
  71   1    -0.00   0.00  -0.02    -0.05  -0.01  -0.01    -0.00   0.00  -0.07
  72   1    -0.01   0.00  -0.07    -0.03  -0.03  -0.01    -0.01   0.00  -0.07
  73   1    -0.01   0.00  -0.08     0.00  -0.03  -0.00    -0.00   0.00   0.00
  74   1    -0.01   0.00  -0.07     0.03  -0.03   0.01     0.01   0.00   0.07
  75   1    -0.00  -0.00  -0.02     0.05  -0.01   0.01     0.00  -0.00   0.07
  76   1     0.00  -0.00   0.03     0.05   0.02  -0.00    -0.00  -0.00   0.00
                      7                      8                      9
                        a                      a                      a 
 Frequencies --    41.5860                46.2367                66.5321
 Red. masses --    10.9802                11.6128                18.2604
 Frc consts  --     0.0000                 0.0000                 0.0000
 IR Inten    --     0.2108                 0.1361                 0.5513
 Raman Activ --     0.0000                 0.0000                 0.0000
 Depolar     --     0.0000                 0.0000                 0.0000
 Atom AN      X      Y      Z        X      Y      Z        X      Y      Z
   1  30     0.00   0.01   0.00     0.04   0.00  -0.04     0.04   0.00  -0.26
   2   6     0.01   0.01  -0.20     0.02  -0.00  -0.13     0.01  -0.00   0.11
   3   6     0.01   0.01  -0.21     0.01   0.00   0.00     0.01   0.00  -0.04
   4   6     0.01   0.01  -0.10     0.01  -0.00   0.06     0.01  -0.00  -0.13
   5   6    -0.00   0.01  -0.00     0.01  -0.00   0.14     0.01   0.00  -0.19
   6   6    -0.01   0.01   0.10     0.01   0.00   0.06     0.01   0.00  -0.13
   7   6    -0.01   0.01   0.21     0.01  -0.00   0.01     0.01  -0.00  -0.05
   8   6    -0.02   0.01   0.21     0.02   0.00  -0.13     0.01   0.00   0.11
   9   6    -0.01   0.01   0.10     0.02   0.00  -0.14     0.01   0.00   0.09
  10   7    -0.01   0.01   0.06     0.02   0.00  -0.03     0.01   0.00  -0.07
  11   6    -0.01   0.00   0.00     0.02   0.00  -0.19     0.00   0.00   0.21
  12   6    -0.00   0.00  -0.09     0.02   0.00  -0.10     0.01   0.00   0.13
  13   6    -0.00  -0.00  -0.20     0.02   0.00  -0.05     0.00  -0.00   0.18
  14   6     0.00  -0.00  -0.20     0.01  -0.00   0.09     0.01  -0.00   0.02
  15   6     0.00  -0.00  -0.09     0.01  -0.00   0.11     0.02   0.00  -0.09
  16   7    -0.00   0.00  -0.06     0.02   0.00  -0.00     0.02   0.00  -0.04
  17   6     0.00  -0.01  -0.00     0.01  -0.00   0.19     0.02   0.00  -0.17
  18   6    -0.00  -0.00   0.09     0.01  -0.00   0.11     0.02   0.00  -0.09
  19   6    -0.00  -0.01   0.20     0.01  -0.00   0.10     0.01   0.00   0.02
  20   6     0.00  -0.00   0.20     0.02  -0.00  -0.05     0.01  -0.00   0.18
  21   6     0.00   0.00   0.10     0.02  -0.00  -0.10     0.01  -0.00   0.13
  22   7     0.00  -0.00   0.06     0.02  -0.00  -0.00     0.02  -0.00  -0.04
  23   6     0.01   0.00   0.00     0.02  -0.00  -0.19     0.00  -0.00   0.21
  24   6     0.01   0.01  -0.10     0.02  -0.00  -0.14     0.01  -0.00   0.09
  25   7     0.01   0.01  -0.06     0.02  -0.00  -0.03     0.01  -0.00  -0.07
  26   1     0.01   0.00  -0.08     0.01   0.00  -0.06     0.00  -0.00   0.06
  27   1     0.00   0.00  -0.08     0.00   0.00   0.02     0.00   0.00  -0.02
  28   1    -0.00   0.00   0.08     0.00  -0.00   0.02     0.00  -0.00  -0.02
  29   1    -0.01   0.00   0.08     0.01   0.00  -0.06     0.00  -0.00   0.06
  30   1    -0.00   0.00   0.00     0.01   0.00  -0.08    -0.00   0.00   0.10
  31   1    -0.00  -0.00  -0.07     0.01   0.00  -0.03    -0.00  -0.00   0.09
  32   1     0.00  -0.00  -0.07     0.00  -0.00   0.05     0.00  -0.00   0.00
  33   1     0.00  -0.00  -0.00     0.00  -0.00   0.08     0.01   0.00  -0.06
  34   1    -0.00  -0.00   0.07     0.00   0.00   0.05     0.00   0.00   0.00
  35   1     0.00  -0.00   0.07     0.01  -0.00  -0.03    -0.00  -0.00   0.09
  36   1     0.00   0.00  -0.00     0.01  -0.00  -0.08    -0.00  -0.00   0.10
  37   6    -0.00   0.01  -0.00     0.00  -0.00   0.25     0.01   0.00  -0.16
  38   6    -0.00   0.00  -0.00     0.00  -0.00   0.33     0.01   0.00  -0.06
  39   6     0.00  -0.01  -0.00     0.00  -0.00   0.33     0.01  -0.00   0.05
  40   6     0.00  -0.02  -0.00     0.00  -0.00   0.25     0.01  -0.00   0.15
  41  30    -0.00  -0.01   0.00    -0.04  -0.00  -0.04    -0.01  -0.00   0.26
  42   6    -0.03  -0.01  -0.22    -0.02   0.00  -0.13    -0.02   0.01  -0.10
  43   6    -0.02  -0.01  -0.22    -0.01   0.00   0.00    -0.01   0.00   0.04
  44   6    -0.01  -0.01  -0.10    -0.01   0.00   0.06    -0.00   0.00   0.13
  45   6     0.00  -0.01  -0.00    -0.00  -0.00   0.14     0.01  -0.00   0.18
  46   6     0.01  -0.01   0.10    -0.01  -0.00   0.06    -0.00  -0.00   0.13
  47   6     0.02  -0.01   0.22    -0.01  -0.00   0.00    -0.01  -0.00   0.04
  48   6     0.03  -0.01   0.22    -0.02  -0.00  -0.13    -0.02  -0.01  -0.10
  49   6     0.02  -0.01   0.11    -0.02  -0.00  -0.14    -0.02  -0.01  -0.09
  50   7     0.01  -0.01   0.06    -0.02  -0.00  -0.03    -0.01  -0.01   0.07
  51   6     0.01  -0.00   0.00    -0.03  -0.00  -0.19    -0.03  -0.01  -0.20
  52   6    -0.00   0.00  -0.10    -0.02  -0.00  -0.10    -0.02  -0.00  -0.13
  53   6    -0.01   0.00  -0.21    -0.02  -0.00  -0.05    -0.03  -0.00  -0.18
  54   6    -0.01   0.01  -0.21    -0.00  -0.00   0.10    -0.01  -0.00  -0.02
  55   6    -0.01   0.00  -0.10    -0.00  -0.00   0.11    -0.01  -0.00   0.09
  56   7    -0.00   0.00  -0.07    -0.01  -0.00  -0.00    -0.01  -0.00   0.04
  57   6    -0.00   0.01  -0.00     0.00  -0.00   0.19     0.00  -0.00   0.17
  58   6     0.01   0.00   0.10    -0.00  -0.00   0.11    -0.01   0.00   0.09
  59   6     0.01   0.00   0.21    -0.00  -0.00   0.10    -0.01   0.00  -0.02
  60   6     0.01   0.00   0.21    -0.02   0.00  -0.05    -0.03   0.00  -0.18
  61   6     0.00  -0.00   0.10    -0.02   0.00  -0.10    -0.02   0.01  -0.13
  62   7     0.00   0.00   0.07    -0.01   0.00  -0.00    -0.01   0.00   0.04
  63   6    -0.01  -0.00   0.00    -0.03   0.01  -0.19    -0.03   0.01  -0.20
  64   6    -0.02  -0.01  -0.10    -0.02   0.00  -0.14    -0.02   0.01  -0.09
  65   7    -0.01  -0.01  -0.06    -0.02   0.00  -0.03    -0.01   0.00   0.07
  66   1    -0.01  -0.00  -0.08    -0.01   0.00  -0.06    -0.01   0.00  -0.06
  67   1    -0.01  -0.00  -0.08    -0.00  -0.00   0.02    -0.00  -0.00   0.02
  68   1     0.01  -0.00   0.08    -0.00   0.00   0.02    -0.00   0.00   0.02
  69   1     0.01  -0.00   0.08    -0.01  -0.00  -0.06    -0.01  -0.00  -0.06
  70   1     0.00  -0.00   0.00    -0.01  -0.00  -0.08    -0.01  -0.00  -0.10
  71   1    -0.00   0.00  -0.08    -0.01  -0.00  -0.03    -0.01  -0.00  -0.09
  72   1    -0.01   0.00  -0.08     0.00   0.00   0.05    -0.00   0.00  -0.00
  73   1    -0.00   0.00  -0.00     0.00  -0.00   0.08     0.00  -0.00   0.06
  74   1     0.01   0.00   0.08     0.00  -0.00   0.05    -0.00  -0.00  -0.00
  75   1     0.00   0.00   0.08    -0.01   0.00  -0.03    -0.01   0.00  -0.09
  76   1    -0.00  -0.00  -0.00    -0.01   0.00  -0.08    -0.01   0.00  -0.10
                     10                     11                     12
                        a                      a                      a 
 Frequencies --    72.7820                75.9732                76.8268
 Red. masses --    38.8647                30.5133                23.7860
 Frc consts  --     0.0000                 0.0000                 0.0000
 IR Inten    --     0.8733                 0.8380                 0.4139
 Raman Activ --     0.0000                 0.0000                 0.0000
 Depolar     --     0.0000                 0.0000                 0.0000
 Atom AN      X      Y      Z        X      Y      Z        X      Y      Z
   1  30    -0.03  -0.00   0.50    -0.14  -0.00  -0.41    -0.29  -0.00   0.16
   2   6    -0.00   0.00  -0.14    -0.06   0.01   0.11    -0.11   0.01  -0.05
   3   6    -0.00   0.00  -0.12    -0.06  -0.00   0.18    -0.09  -0.01  -0.08
   4   6    -0.00   0.00   0.01    -0.04   0.00   0.08    -0.06   0.01  -0.04
   5   6    -0.00  -0.00   0.01    -0.02  -0.00   0.10    -0.03  -0.00  -0.04
   6   6    -0.00  -0.00   0.01    -0.04  -0.01   0.08    -0.06  -0.01  -0.04
   7   6     0.00   0.00  -0.12    -0.06  -0.00   0.18    -0.09   0.00  -0.08
   8   6     0.00   0.00  -0.14    -0.06  -0.01   0.12    -0.11  -0.02  -0.05
   9   6    -0.00  -0.00  -0.02    -0.05  -0.02  -0.03    -0.10  -0.04   0.01
  10   7    -0.01  -0.00   0.09    -0.04  -0.02  -0.05    -0.08  -0.04   0.02
  11   6    -0.00  -0.00  -0.05    -0.05  -0.02  -0.08    -0.10  -0.04   0.03
  12   6    -0.00  -0.00  -0.03    -0.06  -0.01  -0.06    -0.11  -0.02   0.03
  13   6     0.00   0.00  -0.16    -0.06  -0.00   0.05    -0.10  -0.01  -0.02
  14   6     0.00   0.00  -0.14    -0.07   0.00   0.14    -0.11   0.01  -0.06
  15   6    -0.01  -0.00   0.00    -0.07  -0.00   0.06    -0.13  -0.00  -0.03
  16   7    -0.01  -0.00   0.08    -0.07  -0.01  -0.07    -0.14  -0.02   0.03
  17   6    -0.01  -0.00  -0.00    -0.08   0.00   0.12    -0.14   0.00  -0.06
  18   6    -0.01  -0.00   0.00    -0.07   0.00   0.06    -0.13   0.00  -0.03
  19   6    -0.00  -0.00  -0.14    -0.07  -0.00   0.14    -0.12  -0.00  -0.06
  20   6     0.00   0.00  -0.16    -0.06   0.00   0.05    -0.11   0.01  -0.02
  21   6    -0.00   0.00  -0.03    -0.06   0.01  -0.06    -0.12   0.02   0.03
  22   7    -0.01   0.00   0.08    -0.07   0.01  -0.07    -0.14   0.02   0.03
  23   6    -0.00   0.00  -0.05    -0.05   0.02  -0.08    -0.10   0.04   0.03
  24   6    -0.00   0.00  -0.02    -0.05   0.02  -0.03    -0.10   0.04   0.01
  25   7    -0.01   0.00   0.09    -0.04   0.02  -0.05    -0.08   0.03   0.02
  26   1     0.00   0.00  -0.07    -0.02   0.00   0.05    -0.04   0.00  -0.02
  27   1     0.00   0.00  -0.06    -0.02  -0.00   0.09    -0.03  -0.01  -0.04
  28   1     0.00   0.00  -0.06    -0.02   0.00   0.09    -0.03   0.01  -0.04
  29   1     0.00   0.00  -0.07    -0.02  -0.00   0.05    -0.04  -0.00  -0.02
  30   1     0.00  -0.00  -0.04    -0.01  -0.01  -0.02    -0.03  -0.01   0.01
  31   1     0.00   0.00  -0.08    -0.02  -0.00   0.02    -0.03  -0.00  -0.01
  32   1     0.00   0.00  -0.06    -0.02   0.00   0.07    -0.03   0.01  -0.03
  33   1    -0.00   0.00  -0.02    -0.02   0.00   0.07    -0.04   0.00  -0.03
  34   1     0.00  -0.00  -0.06    -0.02  -0.00   0.07    -0.03  -0.00  -0.03
  35   1     0.00   0.00  -0.08    -0.02   0.00   0.02    -0.03   0.00  -0.01
  36   1     0.00   0.00  -0.04    -0.01   0.01  -0.02    -0.03   0.01   0.01
  37   6    -0.00   0.00  -0.05    -0.01  -0.00   0.12    -0.01  -0.00  -0.04
  38   6     0.00   0.00  -0.08    -0.01   0.00   0.05    -0.01   0.00   0.01
  39   6     0.00   0.00  -0.08     0.00   0.00  -0.01     0.01   0.00   0.06
  40   6     0.00   0.00  -0.05     0.00  -0.00  -0.08     0.02  -0.00   0.10
  41  30     0.05  -0.00   0.51     0.19   0.00   0.37     0.27   0.00  -0.20
  42   6    -0.01   0.00  -0.14     0.05  -0.01  -0.11     0.11  -0.01   0.06
  43   6    -0.00   0.00  -0.12     0.04   0.00  -0.16     0.10   0.00   0.13
  44   6     0.01  -0.00   0.02     0.03  -0.01  -0.06     0.06  -0.01   0.07
  45   6     0.00  -0.00   0.01     0.01  -0.00  -0.07     0.03  -0.00   0.09
  46   6     0.00  -0.00   0.02     0.03   0.01  -0.06     0.06   0.01   0.07
  47   6    -0.00  -0.00  -0.12     0.04  -0.00  -0.16     0.10  -0.00   0.13
  48   6    -0.01  -0.00  -0.14     0.05   0.01  -0.11     0.11   0.01   0.06
  49   6     0.00  -0.00  -0.02     0.06   0.02   0.02     0.10   0.04  -0.03
  50   7     0.01   0.00   0.09     0.05   0.02   0.05     0.07   0.04  -0.02
  51   6     0.00  -0.00  -0.05     0.06   0.02   0.05     0.10   0.04  -0.08
  52   6     0.00  -0.00  -0.03     0.07   0.01   0.04     0.11   0.02  -0.07
  53   6    -0.01  -0.00  -0.16     0.05   0.00  -0.06     0.11   0.01  -0.01
  54   6    -0.01  -0.00  -0.14     0.05  -0.00  -0.13     0.13  -0.00   0.07
  55   6     0.00   0.00   0.00     0.07   0.00  -0.05     0.14   0.01   0.04
  56   7     0.01  -0.00   0.08     0.08   0.01   0.06     0.14   0.02  -0.05
  57   6     0.00   0.00  -0.00     0.06   0.00  -0.10     0.15   0.00   0.09
  58   6     0.00   0.00   0.00     0.07  -0.00  -0.05     0.14  -0.00   0.04
  59   6    -0.01   0.00  -0.14     0.05   0.00  -0.13     0.12   0.01   0.07
  60   6    -0.01   0.00  -0.16     0.05  -0.00  -0.06     0.10  -0.00  -0.01
  61   6     0.00   0.00  -0.03     0.06  -0.01   0.04     0.11  -0.02  -0.07
  62   7     0.01  -0.00   0.08     0.08  -0.01   0.06     0.14  -0.01  -0.04
  63   6     0.00   0.00  -0.05     0.06  -0.02   0.05     0.10  -0.04  -0.08
  64   6     0.00   0.00  -0.02     0.06  -0.02   0.02     0.09  -0.04  -0.03
  65   7     0.01  -0.00   0.09     0.05  -0.02   0.05     0.07  -0.04  -0.02
  66   1    -0.00   0.00  -0.07     0.02  -0.00  -0.05     0.04  -0.00   0.02
  67   1    -0.00   0.00  -0.06     0.01   0.00  -0.08     0.03   0.01   0.06
  68   1    -0.00  -0.00  -0.06     0.01  -0.00  -0.07     0.03  -0.01   0.06
  69   1    -0.00  -0.00  -0.07     0.02   0.00  -0.05     0.04   0.00   0.02
  70   1    -0.00  -0.00  -0.04     0.02   0.01   0.01     0.02   0.01  -0.03
  71   1    -0.01  -0.00  -0.08     0.01   0.00  -0.03     0.03   0.00  -0.01
  72   1    -0.00   0.00  -0.07     0.01  -0.00  -0.07     0.04  -0.00   0.04
  73   1    -0.00   0.00  -0.02     0.02   0.00  -0.06     0.04   0.00   0.05
  74   1    -0.00   0.00  -0.07     0.01   0.00  -0.07     0.04   0.01   0.04
  75   1    -0.01   0.00  -0.08     0.01  -0.00  -0.03     0.03  -0.00  -0.01
  76   1    -0.00   0.00  -0.04     0.02  -0.01   0.01     0.02  -0.01  -0.03
                     13                     14                     15
                        a                      a                      a 
 Frequencies --   102.0249               127.3606               127.5815
 Red. masses --    11.0337                10.7118                10.7108
 Frc consts  --     0.0000                 0.0000                 0.0000
 IR Inten    --     0.2739                 0.0503                 0.0798
 Raman Activ --     0.0000                 0.0000                 0.0000
 Depolar     --     0.0000                 0.0000                 0.0000
 Atom AN      X      Y      Z        X      Y      Z        X      Y      Z
   1  30    -0.02  -0.00   0.03     0.00   0.00   0.00    -0.00  -0.00  -0.00
   2   6    -0.00   0.00  -0.15     0.00   0.00  -0.06    -0.00   0.00   0.06
   3   6     0.00  -0.00  -0.18     0.01   0.00  -0.21    -0.01  -0.00   0.21
   4   6     0.00   0.00  -0.06     0.00   0.00  -0.06    -0.00   0.00   0.06
   5   6     0.00  -0.00   0.00     0.00  -0.00  -0.00    -0.00   0.00   0.00
   6   6     0.00  -0.00  -0.06    -0.00  -0.00   0.06     0.00   0.00  -0.06
   7   6     0.00   0.00  -0.18    -0.01  -0.00   0.21     0.01   0.00  -0.21
   8   6    -0.00  -0.00  -0.15    -0.00  -0.00   0.07     0.00   0.00  -0.07
   9   6    -0.00  -0.00  -0.01     0.00   0.00  -0.14    -0.01  -0.00   0.14
  10   7    -0.00  -0.00   0.00     0.00   0.00  -0.13    -0.00  -0.00   0.12
  11   6    -0.01  -0.01   0.12     0.01   0.00  -0.23    -0.01  -0.00   0.23
  12   6    -0.01  -0.00   0.13     0.00   0.00  -0.12    -0.00  -0.00   0.12
  13   6    -0.01  -0.00   0.16    -0.00  -0.00   0.07     0.00   0.00  -0.07
  14   6    -0.01   0.00  -0.02    -0.01  -0.00   0.21     0.01   0.00  -0.21
  15   6    -0.00  -0.00  -0.12    -0.00  -0.00   0.07     0.00   0.00  -0.07
  16   7    -0.01  -0.00  -0.01     0.00   0.00  -0.10    -0.00  -0.00   0.10
  17   6    -0.00   0.00  -0.22     0.00  -0.00   0.00     0.00   0.00  -0.00
  18   6    -0.00   0.00  -0.12     0.00  -0.00  -0.07    -0.00   0.00   0.07
  19   6    -0.01  -0.00  -0.02     0.01  -0.00  -0.21    -0.01  -0.00   0.21
  20   6    -0.01   0.00   0.16     0.00  -0.00  -0.07    -0.00   0.00   0.07
  21   6    -0.01   0.00   0.13    -0.00  -0.00   0.12     0.00   0.00  -0.12
  22   7    -0.01   0.00  -0.01    -0.00  -0.00   0.10     0.00   0.00  -0.10
  23   6    -0.01   0.00   0.12    -0.01  -0.00   0.23     0.01   0.00  -0.23
  24   6    -0.00   0.00  -0.01    -0.00  -0.00   0.14     0.01   0.00  -0.14
  25   7    -0.00   0.00   0.00    -0.00   0.00   0.12     0.00   0.00  -0.12
  26   1    -0.00   0.00  -0.06     0.00   0.00  -0.03    -0.00   0.00   0.03
  27   1     0.00  -0.00  -0.08     0.00   0.00  -0.12    -0.00  -0.00   0.12
  28   1     0.00   0.00  -0.08    -0.00  -0.00   0.12     0.00   0.00  -0.12
  29   1    -0.00  -0.00  -0.06    -0.00  -0.00   0.03     0.00   0.00  -0.03
  30   1    -0.00  -0.00   0.05     0.00   0.00  -0.08    -0.00  -0.00   0.08
  31   1    -0.00  -0.00   0.08    -0.00  -0.00   0.03     0.00   0.00  -0.03
  32   1    -0.00   0.00  -0.02    -0.00  -0.00   0.11     0.00   0.00  -0.11
  33   1     0.00   0.00  -0.09     0.00  -0.00   0.00     0.00   0.00  -0.00
  34   1    -0.00  -0.00  -0.02     0.00  -0.00  -0.11    -0.00  -0.00   0.11
  35   1    -0.00   0.00   0.08     0.00  -0.00  -0.03    -0.00   0.00   0.03
  36   1    -0.00   0.00   0.05    -0.00  -0.00   0.08     0.00   0.00  -0.08
  37   6     0.00  -0.00   0.15     0.00  -0.00  -0.00    -0.00  -0.00   0.00
  38   6    -0.00  -0.00   0.34     0.00  -0.00  -0.00    -0.00  -0.00   0.00
  39   6    -0.00  -0.00   0.34     0.00  -0.00   0.00    -0.00  -0.00  -0.00
  40   6    -0.00  -0.00   0.15     0.00   0.00   0.00    -0.00   0.00  -0.00
  41  30     0.02   0.00   0.03     0.00  -0.01  -0.00     0.00  -0.01   0.00
  42   6    -0.00   0.00  -0.15    -0.00   0.00  -0.07    -0.00   0.00  -0.06
  43   6    -0.01   0.00  -0.18    -0.01   0.01  -0.21    -0.01   0.01  -0.21
  44   6    -0.00  -0.00  -0.06    -0.00   0.00  -0.06    -0.00   0.00  -0.06
  45   6    -0.00   0.00   0.00     0.00   0.00   0.00    -0.00   0.00  -0.00
  46   6    -0.00   0.00  -0.06     0.00   0.00   0.06     0.00   0.00   0.06
  47   6    -0.01  -0.00  -0.18     0.01   0.00   0.21     0.01   0.00   0.21
  48   6    -0.00   0.00  -0.15     0.00   0.00   0.06     0.00   0.00   0.07
  49   6     0.00   0.01  -0.01    -0.01  -0.00  -0.14    -0.01  -0.00  -0.14
  50   7     0.00   0.00   0.00    -0.01  -0.00  -0.12    -0.01  -0.00  -0.12
  51   6     0.02   0.01   0.12    -0.02  -0.00  -0.22    -0.02  -0.00  -0.23
  52   6     0.02   0.01   0.13    -0.01  -0.00  -0.12    -0.01  -0.00  -0.12
  53   6     0.02   0.00   0.16     0.01   0.00   0.07     0.01   0.00   0.07
  54   6     0.00   0.00  -0.02     0.02   0.00   0.21     0.02   0.00   0.21
  55   6    -0.00   0.00  -0.12     0.01   0.00   0.07     0.01   0.00   0.07
  56   7     0.01   0.00  -0.01    -0.01  -0.00  -0.10    -0.01  -0.00  -0.10
  57   6    -0.01   0.00  -0.22    -0.00   0.00  -0.00     0.00   0.00   0.00
  58   6    -0.00  -0.00  -0.12    -0.01   0.00  -0.07    -0.01   0.00  -0.07
  59   6     0.00  -0.00  -0.02    -0.02   0.00  -0.21    -0.02   0.00  -0.21
  60   6     0.02  -0.00   0.16    -0.01   0.00  -0.07    -0.01   0.00  -0.07
  61   6     0.02  -0.01   0.13     0.01  -0.00   0.12     0.01  -0.00   0.12
  62   7     0.01  -0.00  -0.01     0.01  -0.00   0.10     0.01  -0.00   0.10
  63   6     0.02  -0.01   0.12     0.02  -0.00   0.22     0.02  -0.00   0.23
  64   6     0.01  -0.00  -0.01     0.01  -0.00   0.14     0.01  -0.00   0.14
  65   7     0.00  -0.00   0.00     0.01  -0.00   0.13     0.01  -0.00   0.12
  66   1    -0.00   0.00  -0.06    -0.00   0.00  -0.03    -0.00   0.00  -0.03
  67   1    -0.00   0.00  -0.08    -0.01   0.00  -0.12    -0.01   0.00  -0.12
  68   1    -0.00  -0.00  -0.08     0.01   0.00   0.12     0.01   0.00   0.12
  69   1    -0.00  -0.00  -0.06     0.00   0.00   0.03     0.00   0.00   0.03
  70   1     0.01   0.00   0.05    -0.01  -0.00  -0.08    -0.01  -0.00  -0.08
  71   1     0.01   0.00   0.08     0.00   0.00   0.03     0.00   0.00   0.03
  72   1    -0.00  -0.00  -0.02     0.01   0.00   0.11     0.01   0.00   0.11
  73   1    -0.01   0.00  -0.09    -0.00   0.00  -0.00     0.00   0.00   0.00
  74   1     0.00   0.00  -0.02    -0.01   0.00  -0.11    -0.01   0.00  -0.11
  75   1     0.01  -0.00   0.08    -0.00   0.00  -0.03    -0.00   0.00  -0.03
  76   1     0.01  -0.00   0.05     0.01  -0.00   0.08     0.01  -0.00   0.08
                     16                     17                     18
                        a                      a                      a 
 Frequencies --   128.7488               149.0642               150.7131
 Red. masses --    11.2001                15.0171                11.7104
 Frc consts  --     0.0000                 0.0000                 0.0000
 IR Inten    --     0.0207                 2.0748                 0.8298
 Raman Activ --     0.0000                 0.0000                 0.0000
 Depolar     --     0.0000                 0.0000                 0.0000
 Atom AN      X      Y      Z        X      Y      Z        X      Y      Z
   1  30     0.01   0.00  -0.04     0.00  -0.17   0.00     0.00  -0.00  -0.04
   2   6     0.01  -0.00  -0.20    -0.02  -0.05  -0.00    -0.00  -0.00   0.12
   3   6     0.00   0.00  -0.07    -0.01  -0.07   0.00     0.00  -0.00  -0.03
   4   6    -0.01  -0.00   0.13     0.01  -0.05   0.00     0.00  -0.00  -0.18
   5   6    -0.01  -0.00   0.22    -0.00  -0.05   0.00     0.00   0.00  -0.19
   6   6    -0.01   0.00   0.13    -0.01  -0.05   0.00     0.00   0.00  -0.18
   7   6     0.00   0.00  -0.06     0.01  -0.06  -0.00     0.00  -0.00  -0.03
   8   6     0.01   0.00  -0.20     0.03  -0.05  -0.00    -0.00  -0.00   0.12
   9   6     0.00   0.00  -0.06     0.02  -0.03  -0.00    -0.00   0.00   0.04
  10   7    -0.00   0.00   0.11    -0.01  -0.04   0.00     0.00   0.00  -0.16
  11   6     0.00   0.00  -0.01     0.04  -0.01   0.00    -0.00   0.00   0.09
  12   6    -0.00   0.00   0.06     0.03   0.00   0.00     0.00   0.00   0.04
  13   6    -0.01  -0.00   0.20     0.05   0.03   0.00     0.01   0.00  -0.15
  14   6    -0.00  -0.00   0.07     0.03   0.04   0.00     0.01   0.00  -0.11
  15   6     0.01   0.00  -0.12     0.02   0.03  -0.00    -0.00   0.00   0.10
  16   7     0.01   0.00  -0.10     0.02   0.01  -0.00    -0.00   0.00   0.17
  17   6     0.01   0.00  -0.21     0.00   0.04  -0.00    -0.00  -0.00   0.14
  18   6     0.01   0.00  -0.12    -0.02   0.03  -0.00    -0.00  -0.00   0.10
  19   6     0.00   0.00   0.06    -0.03   0.04   0.00     0.01   0.00  -0.11
  20   6    -0.01  -0.00   0.19    -0.05   0.03   0.00     0.01  -0.00  -0.15
  21   6     0.00  -0.00   0.06    -0.03   0.00  -0.00    -0.00  -0.00   0.04
  22   7     0.01  -0.00  -0.10    -0.02   0.01  -0.00    -0.00  -0.00   0.17
  23   6     0.00  -0.00   0.00    -0.04  -0.01  -0.00    -0.00  -0.00   0.09
  24   6     0.00  -0.00  -0.06    -0.02  -0.04  -0.00    -0.00  -0.00   0.04
  25   7    -0.00  -0.00   0.12     0.01  -0.05   0.00     0.00  -0.00  -0.16
  26   1     0.00   0.00  -0.11    -0.01  -0.02  -0.00    -0.00  -0.00   0.08
  27   1     0.00   0.00  -0.03    -0.00  -0.02   0.00     0.00   0.00  -0.01
  28   1     0.00  -0.00  -0.03     0.00  -0.02  -0.00     0.00  -0.00  -0.01
  29   1     0.00   0.00  -0.11     0.01  -0.02  -0.00    -0.00  -0.00   0.08
  30   1     0.00   0.00  -0.00     0.02  -0.00   0.00    -0.00   0.00   0.04
  31   1    -0.00  -0.00   0.11     0.02   0.01   0.00     0.00   0.00  -0.09
  32   1    -0.00  -0.00   0.03     0.01   0.02   0.00     0.00   0.00  -0.07
  33   1     0.00   0.00  -0.07     0.00   0.02  -0.00    -0.00   0.00   0.03
  34   1    -0.00   0.00   0.03    -0.01   0.02   0.00     0.00   0.00  -0.07
  35   1    -0.00  -0.00   0.10    -0.02   0.01   0.00     0.00  -0.00  -0.09
  36   1     0.00  -0.00  -0.00    -0.02  -0.00  -0.00    -0.00  -0.00   0.04
  37   6    -0.01  -0.00   0.22    -0.00   0.09   0.00    -0.00   0.00   0.01
  38   6    -0.01  -0.00   0.07    -0.01   0.64  -0.00    -0.01   0.01   0.28
  39   6    -0.01  -0.00  -0.08    -0.01   0.64  -0.00    -0.01   0.01   0.28
  40   6    -0.01   0.00  -0.22     0.00   0.09   0.00    -0.01   0.00   0.01
  41  30     0.01   0.00   0.04    -0.00  -0.17  -0.00     0.01  -0.00  -0.04
  42   6     0.01  -0.01   0.20    -0.03  -0.05  -0.01     0.01  -0.01   0.12
  43   6     0.00  -0.00   0.07    -0.01  -0.07  -0.00    -0.00  -0.00  -0.03
  44   6    -0.01  -0.00  -0.13     0.02  -0.05  -0.00    -0.01  -0.00  -0.18
  45   6    -0.01   0.00  -0.22     0.00  -0.05   0.00    -0.02  -0.00  -0.19
  46   6    -0.01   0.00  -0.13    -0.01  -0.05   0.00    -0.01   0.00  -0.18
  47   6     0.00   0.00   0.07     0.01  -0.06   0.00    -0.00   0.00  -0.03
  48   6     0.01   0.01   0.20     0.03  -0.05   0.00     0.01   0.01   0.12
  49   6     0.00   0.00   0.06     0.02  -0.04   0.00     0.00   0.00   0.04
  50   7    -0.01   0.00  -0.12    -0.01  -0.05   0.00    -0.01   0.00  -0.16
  51   6    -0.00  -0.00   0.00     0.04  -0.01  -0.00     0.00   0.00   0.09
  52   6    -0.01  -0.00  -0.06     0.03   0.00  -0.00     0.00   0.00   0.04
  53   6    -0.02  -0.00  -0.19     0.05   0.03  -0.00    -0.02  -0.00  -0.15
  54   6    -0.01  -0.00  -0.07     0.03   0.04  -0.00    -0.01  -0.00  -0.11
  55   6     0.01  -0.00   0.12     0.01   0.03  -0.00     0.01  -0.00   0.10
  56   7     0.01  -0.00   0.10     0.02   0.01  -0.00     0.02   0.00   0.17
  57   6     0.02  -0.00   0.21    -0.00   0.04  -0.00     0.01   0.00   0.14
  58   6     0.01   0.00   0.12    -0.02   0.03   0.00     0.01   0.00   0.10
  59   6    -0.01   0.00  -0.06    -0.03   0.04   0.00    -0.01   0.00  -0.11
  60   6    -0.02   0.00  -0.19    -0.05   0.02   0.01    -0.02   0.00  -0.15
  61   6    -0.01   0.00  -0.06    -0.03   0.00   0.00     0.00  -0.00   0.04
  62   7     0.01   0.00   0.10    -0.02   0.01   0.00     0.02  -0.00   0.17
  63   6    -0.00   0.00   0.00    -0.04  -0.01   0.00     0.00  -0.00   0.09
  64   6     0.00  -0.00   0.06    -0.02  -0.04  -0.00     0.00  -0.01   0.04
  65   7    -0.01   0.00  -0.12     0.01  -0.04   0.00    -0.01  -0.00  -0.16
  66   1     0.01  -0.00   0.11    -0.01  -0.02  -0.00     0.01  -0.00   0.08
  67   1     0.00  -0.00   0.03    -0.00  -0.02  -0.00    -0.00  -0.00  -0.01
  68   1     0.00   0.00   0.03     0.00  -0.02   0.00    -0.00   0.00  -0.01
  69   1     0.01   0.00   0.11     0.01  -0.02   0.00     0.01   0.00   0.08
  70   1    -0.00  -0.00   0.00     0.02  -0.00  -0.00     0.00   0.00   0.04
  71   1    -0.01  -0.00  -0.10     0.02   0.01  -0.00    -0.01  -0.00  -0.09
  72   1    -0.00  -0.00  -0.03     0.01   0.02   0.00    -0.01  -0.00  -0.07
  73   1     0.01  -0.00   0.07    -0.00   0.02  -0.00     0.00   0.00   0.03
  74   1    -0.00   0.00  -0.03    -0.01   0.02   0.00    -0.01   0.00  -0.07
  75   1    -0.01   0.00  -0.10    -0.02   0.01   0.00    -0.01   0.00  -0.09
  76   1    -0.00   0.00   0.00    -0.02  -0.00   0.00     0.00  -0.00   0.04
                     19                     20                     21
                        a                      a                      a 
 Frequencies --   166.3276               168.1577               178.3198
 Red. masses --    27.8298                28.0064                14.7263
 Frc consts  --     0.0000                 0.0000                 0.0000
 IR Inten    --     0.0136                52.4597                 0.6880
 Raman Activ --     0.0000                 0.0000                 0.0000
 Depolar     --     0.0000                 0.0000                 0.0000
 Atom AN      X      Y      Z        X      Y      Z        X      Y      Z
   1  30    -0.02  -0.00   0.38    -0.01  -0.00   0.39    -0.15  -0.00  -0.00
   2   6    -0.00   0.00   0.08    -0.00  -0.00   0.11    -0.02   0.05   0.00
   3   6    -0.00  -0.00   0.10    -0.00  -0.00   0.10     0.05  -0.01   0.00
   4   6     0.01   0.00  -0.06    -0.00  -0.00  -0.11     0.13   0.03   0.00
   5   6     0.01  -0.00  -0.08    -0.00  -0.00  -0.12     0.19  -0.00   0.01
   6   6     0.01  -0.00  -0.06    -0.00   0.00  -0.11     0.13  -0.03   0.00
   7   6    -0.00  -0.00   0.10    -0.01  -0.00   0.10     0.04   0.01   0.00
   8   6    -0.00  -0.00   0.08    -0.00   0.00   0.11    -0.02  -0.06   0.00
   9   6     0.00  -0.00  -0.08     0.00   0.01  -0.09     0.02  -0.14  -0.00
  10   7     0.01  -0.00  -0.15     0.00   0.01  -0.22     0.11  -0.13  -0.00
  11   6     0.00  -0.00  -0.10     0.00   0.01  -0.08     0.00  -0.17   0.00
  12   6     0.00  -0.00  -0.09     0.00   0.01  -0.07    -0.03  -0.11   0.00
  13   6    -0.01  -0.00   0.11    -0.00   0.00   0.09     0.01  -0.04  -0.00
  14   6    -0.01   0.00   0.11    -0.00  -0.00   0.08    -0.05   0.02  -0.00
  15   6    -0.00   0.00  -0.09     0.01   0.00  -0.08    -0.13  -0.02  -0.00
  16   7     0.00  -0.00  -0.20     0.01   0.01  -0.16    -0.12  -0.10  -0.00
  17   6    -0.00   0.00  -0.11     0.01   0.00  -0.09    -0.17   0.00  -0.01
  18   6    -0.00   0.00  -0.09     0.01   0.00  -0.08    -0.13   0.02  -0.00
  19   6    -0.01   0.00   0.11     0.00   0.00   0.08    -0.05  -0.02  -0.00
  20   6    -0.00   0.00   0.11    -0.00  -0.00   0.09     0.01   0.04   0.00
  21   6     0.00   0.00  -0.09     0.01  -0.00  -0.07    -0.03   0.11   0.00
  22   7     0.00   0.00  -0.20     0.01  -0.00  -0.16    -0.12   0.10  -0.00
  23   6     0.00   0.01  -0.10     0.00  -0.01  -0.08     0.00   0.17   0.00
  24   6     0.00   0.00  -0.08     0.00  -0.01  -0.09     0.03   0.13  -0.00
  25   7     0.01   0.00  -0.15     0.00  -0.01  -0.22     0.12   0.12  -0.00
  26   1    -0.00  -0.00   0.05    -0.00  -0.00   0.07    -0.02   0.01   0.00
  27   1    -0.00  -0.00   0.06    -0.00   0.00   0.07     0.01  -0.02   0.00
  28   1    -0.00  -0.00   0.06    -0.00  -0.00   0.07     0.01   0.02   0.00
  29   1    -0.00  -0.00   0.05    -0.00  -0.00   0.07    -0.02  -0.01   0.00
  30   1     0.00  -0.00  -0.02     0.00   0.00  -0.00     0.00  -0.05   0.00
  31   1    -0.00  -0.00   0.07    -0.00   0.00   0.06     0.02  -0.01   0.00
  32   1    -0.00   0.00   0.07    -0.00  -0.00   0.06    -0.01   0.03  -0.00
  33   1    -0.00  -0.00  -0.01     0.00  -0.00  -0.01    -0.05  -0.00  -0.00
  34   1    -0.00  -0.00   0.07    -0.00   0.00   0.06    -0.01  -0.03  -0.00
  35   1    -0.00   0.00   0.07    -0.00  -0.00   0.06     0.02   0.01   0.00
  36   1     0.00   0.00  -0.02     0.00  -0.00  -0.00     0.00   0.05   0.00
  37   6     0.01   0.00  -0.06    -0.01   0.00  -0.02     0.20   0.00   0.01
  38   6     0.01  -0.00  -0.02    -0.01  -0.00   0.08     0.20   0.00   0.01
  39   6     0.01  -0.00   0.02    -0.01  -0.00   0.08     0.20   0.00   0.00
  40   6     0.01  -0.00   0.06    -0.01  -0.00  -0.02     0.20   0.00  -0.02
  41  30    -0.03   0.00  -0.39     0.03  -0.00   0.38    -0.15  -0.00   0.03
  42   6    -0.00   0.00  -0.08     0.01  -0.01   0.11    -0.02   0.05   0.01
  43   6    -0.00   0.00  -0.10     0.00  -0.00   0.09     0.05  -0.01   0.00
  44   6     0.01   0.00   0.06    -0.01  -0.00  -0.11     0.12   0.03  -0.02
  45   6     0.01  -0.00   0.08    -0.01   0.00  -0.11     0.19   0.00  -0.03
  46   6     0.01  -0.00   0.06    -0.01   0.00  -0.11     0.13  -0.03  -0.02
  47   6    -0.00  -0.00  -0.10     0.00   0.00   0.09     0.05   0.01   0.00
  48   6    -0.01  -0.00  -0.08     0.01   0.01   0.11    -0.02  -0.05   0.01
  49   6     0.01  -0.00   0.08    -0.01   0.00  -0.09     0.03  -0.13  -0.01
  50   7     0.01  -0.00   0.16    -0.02   0.00  -0.21     0.11  -0.12  -0.03
  51   6     0.01  -0.00   0.11    -0.01   0.00  -0.08     0.00  -0.17  -0.00
  52   6     0.01  -0.00   0.09    -0.00   0.00  -0.07    -0.03  -0.11  -0.00
  53   6    -0.01  -0.00  -0.11     0.01   0.00   0.09     0.01  -0.04   0.00
  54   6    -0.01  -0.00  -0.11     0.01   0.00   0.08    -0.05   0.02   0.01
  55   6     0.00  -0.00   0.09    -0.00   0.00  -0.07    -0.13  -0.02   0.01
  56   7     0.01  -0.00   0.21    -0.01   0.00  -0.15    -0.12  -0.10   0.00
  57   6     0.01  -0.00   0.11    -0.00   0.00  -0.09    -0.17  -0.00   0.01
  58   6     0.01   0.00   0.09    -0.00  -0.00  -0.07    -0.13   0.02   0.01
  59   6    -0.01   0.00  -0.11     0.01  -0.00   0.08    -0.05  -0.02   0.01
  60   6    -0.01   0.00  -0.11     0.01  -0.00   0.09     0.01   0.04   0.00
  61   6     0.01   0.00   0.09    -0.01  -0.00  -0.07    -0.03   0.11  -0.00
  62   7     0.02   0.00   0.21    -0.01  -0.00  -0.15    -0.12   0.10   0.00
  63   6     0.01   0.00   0.11    -0.01  -0.00  -0.08    -0.00   0.17  -0.00
  64   6     0.01   0.00   0.08    -0.01  -0.00  -0.09     0.02   0.13  -0.01
  65   7     0.01   0.00   0.16    -0.02  -0.00  -0.21     0.11   0.13  -0.03
  66   1    -0.00   0.00  -0.05     0.00  -0.00   0.07    -0.02   0.01   0.01
  67   1    -0.00   0.00  -0.07     0.00  -0.00   0.06     0.01  -0.02   0.00
  68   1    -0.00  -0.00  -0.07     0.00   0.00   0.06     0.01   0.02   0.00
  69   1    -0.00  -0.00  -0.05     0.00   0.00   0.07    -0.02  -0.01   0.01
  70   1     0.00  -0.00   0.02    -0.00   0.00  -0.00     0.00  -0.05   0.00
  71   1    -0.01  -0.00  -0.07     0.01   0.00   0.06     0.02  -0.01   0.00
  72   1    -0.01  -0.00  -0.07     0.01  -0.00   0.05    -0.01   0.03   0.00
  73   1    -0.00  -0.00   0.01     0.00   0.00  -0.01    -0.05  -0.00   0.00
  74   1    -0.01   0.00  -0.07     0.01  -0.00   0.05    -0.01  -0.03   0.00
  75   1    -0.01   0.00  -0.07     0.00  -0.00   0.06     0.02   0.01   0.00
  76   1     0.00   0.00   0.02    -0.00  -0.00  -0.00     0.00   0.05   0.00
                     22                     23                     24
                        a                      a                      a 
 Frequencies --   180.8886               181.0560               195.5586
 Red. masses --    12.3316                12.5516                53.7076
 Frc consts  --     0.0000                 0.0000                 0.0000
 IR Inten    --     0.0047                 0.5234                 0.0006
 Raman Activ --     0.0000                 0.0000                 0.0000
 Depolar     --     0.0000                 0.0000                 0.0000
 Atom AN      X      Y      Z        X      Y      Z        X      Y      Z
   1  30    -0.00  -0.05   0.00    -0.00  -0.07   0.00    -0.01   0.63   0.00
   2   6    -0.11   0.12  -0.00    -0.11   0.11  -0.00    -0.03  -0.05   0.00
   3   6    -0.11   0.11  -0.00    -0.11   0.11  -0.00    -0.03  -0.06   0.00
   4   6    -0.09   0.11  -0.00    -0.09   0.11  -0.00    -0.03  -0.05  -0.00
   5   6     0.00   0.07  -0.00     0.00   0.07  -0.00     0.00  -0.07   0.00
   6   6     0.09   0.11   0.00     0.09   0.11   0.00     0.03  -0.05   0.00
   7   6     0.11   0.11   0.01     0.11   0.11   0.01     0.03  -0.06   0.00
   8   6     0.11   0.12   0.01     0.11   0.11   0.00     0.03  -0.05  -0.00
   9   6     0.11   0.10   0.00     0.11   0.10   0.00     0.03  -0.03   0.00
  10   7     0.11   0.12   0.00     0.11   0.11   0.00     0.04  -0.03   0.01
  11   6     0.07   0.00   0.00     0.07   0.01   0.00     0.00  -0.06  -0.00
  12   6     0.11  -0.09   0.00     0.11  -0.09   0.00    -0.01  -0.04  -0.00
  13   6     0.12  -0.11   0.01     0.11  -0.10   0.00    -0.02  -0.07   0.00
  14   6     0.11  -0.11   0.01     0.11  -0.10   0.01    -0.02  -0.08  -0.00
  15   6     0.10  -0.10   0.00     0.10  -0.10   0.00    -0.02  -0.07  -0.00
  16   7     0.12  -0.11   0.00     0.11  -0.11   0.00    -0.02  -0.05  -0.00
  17   6    -0.00  -0.06  -0.00    -0.00  -0.05  -0.00     0.00  -0.08  -0.00
  18   6    -0.10  -0.10  -0.00    -0.10  -0.10  -0.00     0.02  -0.07   0.00
  19   6    -0.11  -0.11  -0.00    -0.11  -0.10  -0.00     0.02  -0.08  -0.00
  20   6    -0.11  -0.11  -0.00    -0.11  -0.10  -0.00     0.02  -0.07   0.00
  21   6    -0.11  -0.09  -0.00    -0.11  -0.09  -0.00     0.01  -0.05   0.00
  22   7    -0.12  -0.11  -0.01    -0.12  -0.11  -0.01     0.02  -0.05   0.01
  23   6    -0.07   0.01  -0.00    -0.07   0.01  -0.00    -0.00  -0.06  -0.00
  24   6    -0.11   0.10  -0.00    -0.11   0.10  -0.00    -0.02  -0.03  -0.00
  25   7    -0.11   0.12  -0.01    -0.10   0.11  -0.01    -0.04  -0.03  -0.01
  26   1    -0.03   0.03   0.00    -0.03   0.03   0.00    -0.01  -0.01   0.00
  27   1    -0.03   0.03  -0.00    -0.03   0.03   0.00    -0.01  -0.02   0.00
  28   1     0.03   0.03   0.00     0.03   0.03   0.00     0.01  -0.02  -0.00
  29   1     0.03   0.03   0.00     0.03   0.03   0.00     0.01  -0.01  -0.00
  30   1    -0.01   0.00  -0.00    -0.01   0.00  -0.00    -0.00  -0.02  -0.00
  31   1     0.03  -0.03   0.00     0.03  -0.03   0.00    -0.01  -0.02   0.00
  32   1     0.03  -0.03   0.00     0.03  -0.03   0.00    -0.00  -0.02   0.00
  33   1    -0.00   0.01  -0.00    -0.00   0.01  -0.00     0.00  -0.03  -0.00
  34   1    -0.03  -0.03  -0.00    -0.03  -0.03  -0.00     0.01  -0.02  -0.00
  35   1    -0.03  -0.03  -0.00    -0.03  -0.03  -0.00     0.01  -0.02  -0.00
  36   1     0.01   0.00   0.00     0.01   0.00   0.00     0.00  -0.02   0.00
  37   6     0.00  -0.02  -0.00     0.00  -0.01  -0.00     0.00  -0.11   0.00
  38   6     0.00   0.01   0.00     0.00   0.04   0.00     0.00  -0.02  -0.00
  39   6     0.00  -0.01   0.00     0.00   0.04   0.00    -0.00   0.03  -0.00
  40   6     0.00   0.02   0.00     0.00  -0.01   0.00    -0.00   0.10  -0.00
  41  30    -0.00   0.05   0.00     0.00  -0.07  -0.00     0.01  -0.62  -0.00
  42   6     0.11  -0.11  -0.01    -0.11   0.11   0.01     0.03   0.05  -0.00
  43   6     0.11  -0.11  -0.01    -0.11   0.11   0.01     0.03   0.05  -0.00
  44   6     0.09  -0.11  -0.01    -0.09   0.11   0.01     0.03   0.05   0.00
  45   6     0.00  -0.07  -0.00    -0.00   0.07   0.00    -0.00   0.07   0.00
  46   6    -0.09  -0.11   0.01     0.09   0.11  -0.01    -0.03   0.05   0.00
  47   6    -0.10  -0.11   0.01     0.11   0.11  -0.01    -0.03   0.05   0.00
  48   6    -0.11  -0.11   0.01     0.11   0.12  -0.00    -0.03   0.05   0.00
  49   6    -0.10  -0.10   0.01     0.11   0.10  -0.01    -0.02   0.03   0.00
  50   7    -0.10  -0.12   0.01     0.11   0.12  -0.02    -0.04   0.03  -0.00
  51   6    -0.07  -0.01   0.00     0.07   0.01  -0.00    -0.00   0.06   0.00
  52   6    -0.11   0.09   0.01     0.12  -0.09  -0.01     0.01   0.04   0.01
  53   6    -0.11   0.10   0.01     0.12  -0.10  -0.01     0.02   0.07  -0.00
  54   6    -0.11   0.10   0.01     0.12  -0.10  -0.01     0.02   0.08  -0.01
  55   6    -0.10   0.10   0.01     0.10  -0.10  -0.01     0.02   0.07   0.00
  56   7    -0.12   0.11   0.01     0.12  -0.11  -0.01     0.02   0.05   0.01
  57   6    -0.00   0.06  -0.00    -0.00  -0.06   0.00    -0.00   0.08   0.00
  58   6     0.10   0.10  -0.01    -0.10  -0.10   0.01    -0.02   0.07  -0.00
  59   6     0.11   0.10  -0.01    -0.11  -0.10   0.01    -0.02   0.08   0.01
  60   6     0.11   0.11  -0.01    -0.12  -0.11   0.01    -0.02   0.07   0.00
  61   6     0.11   0.09  -0.01    -0.11  -0.10   0.01    -0.01   0.04  -0.01
  62   7     0.11   0.11  -0.01    -0.12  -0.11   0.01    -0.02   0.05  -0.01
  63   6     0.07  -0.00  -0.00    -0.07   0.01   0.00     0.00   0.06  -0.00
  64   6     0.11  -0.10  -0.01    -0.11   0.10   0.01     0.02   0.03  -0.00
  65   7     0.11  -0.11  -0.02    -0.11   0.12   0.02     0.04   0.03   0.00
  66   1     0.03  -0.03   0.00    -0.03   0.03  -0.00     0.01   0.01  -0.00
  67   1     0.03  -0.03  -0.00    -0.03   0.03   0.00     0.01   0.02  -0.00
  68   1    -0.03  -0.03   0.00     0.03   0.03  -0.00    -0.01   0.01   0.00
  69   1    -0.03  -0.03   0.00     0.03   0.03   0.00    -0.01   0.01   0.00
  70   1     0.01  -0.00  -0.00    -0.01   0.00   0.00     0.00   0.02   0.00
  71   1    -0.03   0.03   0.00     0.03  -0.03  -0.00     0.01   0.02  -0.00
  72   1    -0.03   0.03   0.00     0.03  -0.03  -0.00     0.00   0.02  -0.00
  73   1     0.00  -0.01  -0.00    -0.00   0.01   0.00    -0.00   0.03   0.00
  74   1     0.03   0.03  -0.00    -0.03  -0.03   0.00    -0.01   0.02   0.00
  75   1     0.03   0.03  -0.00    -0.03  -0.03   0.00    -0.01   0.02   0.00
  76   1    -0.01  -0.00   0.00     0.01   0.00  -0.00    -0.00   0.02  -0.00
                     25                     26                     27
                        a                      a                      a 
 Frequencies --   197.0958               197.1915               198.4538
 Red. masses --    51.6639                51.0013                36.8338
 Frc consts  --     0.0000                 0.0000                 0.0000
 IR Inten    --     3.2588                 1.4396                 2.7859
 Raman Activ --     0.0000                 0.0000                 0.0000
 Depolar     --     0.0000                 0.0000                 0.0000
 Atom AN      X      Y      Z        X      Y      Z        X      Y      Z
   1  30    -0.84  -0.00  -0.03    -0.16  -0.00  -0.01    -0.00  -0.48  -0.00
   2   6     0.10   0.01   0.00     0.02  -0.00   0.00     0.03   0.04  -0.01
   3   6     0.06   0.04   0.00     0.01   0.01  -0.00     0.03   0.05  -0.03
   4   6     0.00   0.01  -0.00    -0.01   0.00   0.00     0.02   0.05   0.03
   5   6     0.01   0.00   0.00    -0.01  -0.00  -0.00     0.00   0.06  -0.00
   6   6     0.00  -0.01   0.00    -0.01  -0.00   0.00    -0.02   0.05  -0.03
   7   6     0.06  -0.04   0.01     0.01  -0.01  -0.00    -0.03   0.05   0.03
   8   6     0.10  -0.01   0.00     0.02   0.00   0.00    -0.03   0.04   0.02
   9   6     0.07   0.02  -0.00     0.01   0.01   0.00    -0.02   0.03  -0.04
  10   7     0.01   0.01  -0.00    -0.01   0.01   0.00    -0.03   0.03  -0.09
  11   6     0.10   0.07  -0.00     0.02   0.03  -0.00    -0.01   0.05  -0.00
  12   6     0.09   0.09   0.01     0.02   0.03  -0.00    -0.00   0.04   0.05
  13   6     0.09   0.05   0.00     0.01   0.01  -0.00     0.01   0.05  -0.03
  14   6     0.10   0.03   0.00     0.02   0.00   0.00     0.01   0.06  -0.03
  15   6     0.10   0.04   0.01     0.03   0.01   0.00     0.01   0.06   0.05
  16   7     0.10   0.09   0.02     0.03   0.03   0.00     0.01   0.04   0.12
  17   6     0.15   0.00   0.00     0.04   0.00   0.00     0.00   0.06   0.00
  18   6     0.10  -0.03  -0.00     0.03  -0.01  -0.00    -0.01   0.06  -0.05
  19   6     0.10  -0.03   0.00     0.02  -0.00   0.00    -0.01   0.06   0.03
  20   6     0.08  -0.05   0.01     0.01  -0.01   0.00    -0.01   0.05   0.03
  21   6     0.09  -0.09   0.00     0.02  -0.03  -0.00     0.00   0.04  -0.05
  22   7     0.10  -0.09  -0.01     0.03  -0.03  -0.01    -0.01   0.04  -0.12
  23   6     0.10  -0.07   0.01     0.02  -0.03   0.00     0.01   0.05   0.00
  24   6     0.07  -0.02   0.00     0.01  -0.01   0.00     0.02   0.03   0.04
  25   7     0.01  -0.01  -0.00    -0.01  -0.01   0.01     0.03   0.03   0.09
  26   1     0.04   0.00   0.00     0.01  -0.00  -0.00     0.01   0.01  -0.02
  27   1     0.02   0.03   0.00     0.00   0.01  -0.00     0.01   0.02  -0.03
  28   1     0.02  -0.03   0.00     0.00  -0.01  -0.00    -0.01   0.02   0.02
  29   1     0.04  -0.00  -0.00     0.01   0.00  -0.00    -0.01   0.01   0.02
  30   1     0.04   0.02  -0.00     0.01   0.01  -0.00    -0.00   0.01  -0.00
  31   1     0.02   0.01  -0.00     0.00   0.00  -0.00     0.01   0.02  -0.03
  32   1     0.03   0.01  -0.00     0.01  -0.00   0.00     0.00   0.02  -0.03
  33   1     0.04   0.00   0.00     0.01   0.00   0.00     0.00   0.02   0.00
  34   1     0.03  -0.01   0.00     0.01   0.00   0.00    -0.00   0.02   0.03
  35   1     0.02  -0.01   0.00     0.00  -0.00   0.00    -0.01   0.02   0.03
  36   1     0.04  -0.02   0.00     0.01  -0.01   0.00     0.00   0.01   0.00
  37   6     0.01   0.00   0.00    -0.01   0.00  -0.00     0.00   0.06  -0.00
  38   6     0.01   0.00   0.00    -0.01   0.00  -0.00     0.00  -0.12  -0.00
  39   6     0.01   0.00  -0.00    -0.01   0.00   0.00     0.00  -0.12   0.00
  40   6     0.01  -0.00  -0.00    -0.01  -0.00   0.01    -0.00   0.06   0.00
  41  30    -0.18   0.01   0.01     0.84   0.02  -0.07     0.01  -0.48  -0.00
  42   6     0.02   0.00  -0.00    -0.10  -0.01   0.00     0.03   0.05  -0.03
  43   6     0.01   0.01  -0.00    -0.06  -0.04   0.01     0.02   0.06  -0.06
  44   6     0.01   0.00  -0.00     0.00  -0.01   0.00     0.03   0.05   0.06
  45   6     0.01  -0.00  -0.00    -0.00  -0.00   0.01    -0.00   0.06   0.00
  46   6     0.01  -0.01  -0.00     0.00   0.01   0.01    -0.03   0.05  -0.06
  47   6     0.02  -0.01  -0.00    -0.06   0.04   0.01    -0.03   0.05   0.06
  48   6     0.02  -0.01  -0.00    -0.10   0.01   0.00    -0.03   0.04   0.03
  49   6     0.02  -0.00  -0.00    -0.07  -0.02  -0.00    -0.03   0.02  -0.08
  50   7     0.01  -0.01  -0.00    -0.00  -0.01   0.00    -0.04   0.02  -0.18
  51   6     0.02   0.00  -0.00    -0.10  -0.08   0.00    -0.01   0.05  -0.00
  52   6     0.02   0.01  -0.00    -0.09  -0.09   0.01     0.01   0.04   0.10
  53   6     0.02   0.01  -0.00    -0.08  -0.05   0.01    -0.00   0.05  -0.07
  54   6     0.02   0.01  -0.00    -0.10  -0.03   0.01    -0.00   0.06  -0.06
  55   6     0.01   0.00  -0.00    -0.11  -0.04   0.01     0.02   0.06   0.10
  56   7     0.01   0.01  -0.00    -0.10  -0.09   0.01     0.03   0.04   0.25
  57   6     0.02  -0.00  -0.00    -0.16  -0.00   0.01    -0.00   0.06  -0.00
  58   6     0.01  -0.01  -0.00    -0.11   0.03   0.00    -0.02   0.06  -0.10
  59   6     0.02  -0.01  -0.00    -0.10   0.03   0.01     0.00   0.06   0.06
  60   6     0.02  -0.01  -0.00    -0.08   0.05   0.02    -0.00   0.05   0.07
  61   6     0.02  -0.01  -0.00    -0.09   0.09   0.01    -0.01   0.04  -0.10
  62   7     0.01  -0.01  -0.00    -0.11   0.09   0.00    -0.03   0.04  -0.25
  63   6     0.02  -0.00  -0.00    -0.10   0.08   0.01     0.01   0.05   0.00
  64   6     0.02   0.00   0.00    -0.07   0.02   0.00     0.03   0.02   0.08
  65   7     0.01   0.01   0.00    -0.00   0.01  -0.00     0.04   0.02   0.17
  66   1     0.01   0.00  -0.00    -0.04  -0.00   0.00     0.01   0.01  -0.03
  67   1     0.00   0.00  -0.00    -0.02  -0.03   0.00     0.00   0.02  -0.05
  68   1     0.01  -0.00  -0.00    -0.02   0.03   0.00    -0.01   0.02   0.05
  69   1     0.01  -0.00   0.00    -0.04   0.00  -0.00    -0.01   0.01   0.03
  70   1     0.01   0.00  -0.00    -0.04  -0.02  -0.00    -0.00   0.01  -0.01
  71   1     0.00   0.00  -0.00    -0.01  -0.01   0.00     0.00   0.02  -0.06
  72   1     0.01   0.00  -0.00    -0.03  -0.01   0.00    -0.00   0.02  -0.06
  73   1     0.01  -0.00   0.00    -0.04  -0.00   0.00    -0.00   0.02  -0.00
  74   1     0.01  -0.00  -0.00    -0.03   0.01   0.00     0.00   0.02   0.06
  75   1     0.01  -0.00  -0.00    -0.01   0.01   0.01    -0.00   0.02   0.06
  76   1     0.01  -0.00  -0.00    -0.04   0.02   0.00     0.00   0.01   0.01
                     28                     29                     30
                        a                      a                      a 
 Frequencies --   198.5621               198.6091               202.5920
 Red. masses --    22.6846                16.5853                11.8636
 Frc consts  --     0.0000                 0.0000                 0.0000
 IR Inten    --     2.4461                 0.4151                 0.0221
 Raman Activ --     0.0000                 0.0000                 0.0000
 Depolar     --     0.0000                 0.0000                 0.0000
 Atom AN      X      Y      Z        X      Y      Z        X      Y      Z
   1  30     0.00   0.29   0.00     0.02   0.20   0.00     0.01  -0.01  -0.00
   2   6    -0.02  -0.03   0.02    -0.01  -0.02  -0.06    -0.00   0.00   0.11
   3   6    -0.02  -0.03   0.02    -0.01  -0.02  -0.10     0.00   0.00  -0.04
   4   6    -0.01  -0.03  -0.03    -0.01  -0.02   0.11     0.01   0.00  -0.19
   5   6    -0.00  -0.04   0.00    -0.00  -0.03   0.00    -0.00   0.00  -0.00
   6   6     0.01  -0.03   0.03     0.01  -0.02  -0.11    -0.01  -0.00   0.19
   7   6     0.02  -0.03  -0.02     0.01  -0.02   0.11    -0.00   0.00   0.03
   8   6     0.02  -0.03  -0.02     0.01  -0.02   0.06     0.00   0.00  -0.11
   9   6     0.01  -0.02   0.03     0.01  -0.01  -0.15    -0.00   0.00   0.04
  10   7     0.02  -0.02   0.07     0.02  -0.01  -0.32    -0.01  -0.00   0.28
  11   6     0.01  -0.03  -0.00     0.00  -0.02  -0.01     0.00   0.00  -0.12
  12   6     0.00  -0.02  -0.03    -0.01  -0.02   0.17    -0.00   0.00  -0.00
  13   6    -0.01  -0.03   0.02    -0.00  -0.02  -0.11     0.00   0.00  -0.11
  14   6    -0.00  -0.04   0.02     0.00  -0.03  -0.11    -0.00   0.00   0.07
  15   6    -0.00  -0.03  -0.03    -0.01  -0.03   0.17    -0.01   0.00   0.17
  16   7    -0.00  -0.02  -0.07    -0.02  -0.02   0.43    -0.01  -0.00   0.20
  17   6    -0.00  -0.04  -0.00    -0.00  -0.03  -0.00    -0.00   0.00   0.00
  18   6     0.00  -0.03   0.03     0.01  -0.02  -0.17     0.00   0.00  -0.17
  19   6     0.00  -0.04  -0.02    -0.00  -0.03   0.10     0.00   0.00  -0.06
  20   6     0.00  -0.03  -0.02    -0.00  -0.02   0.11    -0.00   0.00   0.11
  21   6    -0.00  -0.02   0.03     0.00  -0.01  -0.17    -0.00   0.00  -0.00
  22   7     0.00  -0.02   0.08     0.02  -0.01  -0.42     0.01   0.00  -0.21
  23   6    -0.01  -0.03   0.00    -0.01  -0.02   0.01    -0.00   0.00   0.12
  24   6    -0.01  -0.02  -0.03    -0.02  -0.01   0.14     0.00   0.00  -0.03
  25   7    -0.02  -0.02  -0.08    -0.02  -0.01   0.32     0.01   0.00  -0.27
  26   1    -0.01  -0.01   0.02    -0.00  -0.01  -0.06    -0.00  -0.00   0.09
  27   1    -0.01  -0.01   0.02    -0.00  -0.01  -0.09     0.00   0.00   0.00
  28   1     0.01  -0.01  -0.02     0.00  -0.01   0.09    -0.00   0.00  -0.01
  29   1     0.01  -0.01  -0.02     0.00  -0.01   0.06     0.00   0.00  -0.09
  30   1     0.00  -0.01  -0.00    -0.00  -0.01  -0.01     0.00   0.00  -0.11
  31   1    -0.00  -0.01   0.02     0.00  -0.01  -0.10     0.00   0.00  -0.08
  32   1    -0.00  -0.01   0.02     0.00  -0.01  -0.10    -0.00   0.00   0.02
  33   1    -0.00  -0.01  -0.00    -0.00  -0.01  -0.00    -0.00   0.00   0.00
  34   1     0.00  -0.01  -0.02    -0.00  -0.01   0.10     0.00   0.00  -0.01
  35   1     0.00  -0.01  -0.02    -0.00  -0.01   0.10    -0.00   0.00   0.08
  36   1    -0.00  -0.01   0.00    -0.00  -0.01   0.01    -0.00   0.00   0.11
  37   6    -0.00  -0.04   0.00    -0.00  -0.03   0.00    -0.00   0.00  -0.00
  38   6    -0.00   0.08   0.00    -0.00   0.05   0.00    -0.00  -0.01  -0.00
  39   6    -0.00   0.07  -0.00    -0.00   0.05  -0.00    -0.00  -0.01   0.00
  40   6     0.00  -0.04  -0.00     0.00  -0.02  -0.00    -0.00   0.01   0.00
  41  30    -0.01   0.33   0.00    -0.00   0.19   0.00     0.01  -0.01  -0.00
  42   6    -0.02  -0.03  -0.05    -0.01  -0.02   0.00    -0.01   0.00  -0.11
  43   6    -0.02  -0.04  -0.09    -0.01  -0.02  -0.00     0.00  -0.00   0.04
  44   6    -0.01  -0.04   0.11    -0.01  -0.02  -0.00     0.01  -0.00   0.18
  45   6     0.00  -0.04  -0.00     0.00  -0.02  -0.00    -0.00   0.00   0.00
  46   6     0.01  -0.03  -0.11     0.01  -0.02   0.00    -0.01  -0.00  -0.18
  47   6     0.02  -0.04   0.09     0.01  -0.02   0.00    -0.01  -0.00  -0.03
  48   6     0.02  -0.03   0.05     0.01  -0.02  -0.00     0.00   0.00   0.11
  49   6     0.01  -0.02  -0.13     0.01  -0.01  -0.00    -0.01  -0.00  -0.04
  50   7    -0.00  -0.02  -0.29     0.01  -0.01   0.00    -0.02  -0.00  -0.27
  51   6     0.01  -0.03  -0.01     0.00  -0.02  -0.00     0.01   0.00   0.12
  52   6     0.01  -0.02   0.15     0.00  -0.02   0.00    -0.00   0.00   0.00
  53   6    -0.01  -0.04  -0.10    -0.00  -0.02  -0.00     0.01   0.00   0.11
  54   6    -0.01  -0.04  -0.09    -0.00  -0.02   0.00    -0.01   0.00  -0.06
  55   6     0.01  -0.04   0.15    -0.00  -0.02   0.01    -0.02   0.00  -0.16
  56   7     0.02  -0.02   0.37    -0.00  -0.02   0.01    -0.02   0.00  -0.20
  57   6     0.00  -0.04   0.00     0.00  -0.02   0.00    -0.00   0.00  -0.00
  58   6    -0.00  -0.03  -0.15     0.00  -0.02  -0.01     0.02   0.00   0.16
  59   6     0.02  -0.04   0.09     0.00  -0.02  -0.00     0.01   0.00   0.06
  60   6     0.02  -0.04   0.10     0.00  -0.02   0.00    -0.01   0.01  -0.11
  61   6    -0.01  -0.02  -0.15     0.00  -0.02  -0.00     0.00   0.00   0.00
  62   7    -0.02  -0.02  -0.37     0.00  -0.02  -0.01     0.02   0.00   0.21
  63   6    -0.00  -0.03   0.01    -0.00  -0.02   0.00    -0.01   0.00  -0.12
  64   6    -0.01  -0.02   0.13    -0.01  -0.01   0.00     0.00  -0.00   0.03
  65   7     0.00  -0.03   0.30    -0.01  -0.01  -0.00     0.02  -0.01   0.26
  66   1    -0.01  -0.01  -0.06    -0.01  -0.01   0.00    -0.00   0.00  -0.09
  67   1    -0.01  -0.01  -0.08    -0.00  -0.01  -0.00     0.00  -0.00  -0.00
  68   1     0.01  -0.01   0.08     0.00  -0.01   0.00    -0.00  -0.00   0.01
  69   1     0.01  -0.01   0.06     0.01  -0.01  -0.00     0.00   0.00   0.09
  70   1     0.00  -0.01  -0.01     0.00  -0.01  -0.00     0.01   0.00   0.10
  71   1    -0.01  -0.01  -0.09    -0.00  -0.01  -0.00     0.01   0.00   0.08
  72   1    -0.01  -0.01  -0.08    -0.00  -0.01  -0.00    -0.00   0.00  -0.01
  73   1     0.00  -0.01   0.00     0.00  -0.01   0.00    -0.00   0.00  -0.00
  74   1     0.01  -0.01   0.08     0.00  -0.01   0.00     0.00   0.00   0.01
  75   1     0.01  -0.01   0.09     0.00  -0.01   0.00    -0.01   0.00  -0.08
  76   1     0.00  -0.01   0.01     0.00  -0.01   0.00    -0.01   0.00  -0.10
                     31                     32                     33
                        a                      a                      a 
 Frequencies --   203.1538               203.1973               215.0157
 Red. masses --    12.1820                11.8844                11.6857
 Frc consts  --     0.0000                 0.0000                 0.0000
 IR Inten    --     0.1525                 0.0408                 1.4997
 Raman Activ --     0.0000                 0.0000                 0.0000
 Depolar     --     0.0000                 0.0000                 0.0000
 Atom AN      X      Y      Z        X      Y      Z        X      Y      Z
   1  30    -0.00   0.01  -0.02    -0.01   0.01  -0.01    -0.01   0.00   0.03
   2   6    -0.00  -0.00   0.05     0.00   0.00  -0.10    -0.00   0.00   0.07
   3   6     0.00  -0.00  -0.11     0.00   0.00  -0.00     0.01   0.00  -0.15
   4   6     0.00  -0.00  -0.01    -0.01  -0.00   0.19     0.00   0.00  -0.04
   5   6     0.00  -0.00  -0.06     0.00  -0.00  -0.02     0.00   0.00  -0.10
   6   6    -0.00  -0.00   0.10     0.01   0.00  -0.16     0.00  -0.00  -0.04
   7   6     0.00  -0.00  -0.09     0.00   0.00  -0.06     0.01   0.00  -0.15
   8   6     0.00  -0.00  -0.01    -0.00  -0.00   0.11    -0.00  -0.00   0.07
   9   6    -0.00  -0.00   0.17     0.00   0.00   0.01    -0.01  -0.00   0.18
  10   7    -0.01  -0.00   0.32     0.01   0.00  -0.19    -0.00  -0.00   0.17
  11   6     0.00  -0.00  -0.03    -0.00  -0.00   0.11    -0.00  -0.00   0.06
  12   6     0.01  -0.00  -0.15     0.00   0.00  -0.04     0.01  -0.00  -0.17
  13   6     0.00  -0.00  -0.07    -0.00  -0.00   0.09     0.00  -0.00  -0.07
  14   6    -0.01  -0.00   0.12     0.00  -0.00  -0.03    -0.00   0.00   0.09
  15   6    -0.00  -0.00   0.03     0.01   0.00  -0.16    -0.00  -0.00  -0.01
  16   7     0.00  -0.00  -0.15     0.01   0.00  -0.25     0.01  -0.00  -0.23
  17   6    -0.01  -0.00   0.10     0.00  -0.00   0.03    -0.01  -0.00   0.14
  18   6     0.00  -0.00  -0.06    -0.00  -0.00   0.15    -0.00  -0.00  -0.01
  19   6    -0.00  -0.00   0.08    -0.00  -0.00   0.10    -0.00  -0.00   0.09
  20   6     0.00  -0.00  -0.01     0.00  -0.00  -0.12     0.00   0.00  -0.07
  21   6     0.01   0.00  -0.15     0.00  -0.00  -0.06     0.01   0.00  -0.17
  22   7     0.01   0.00  -0.26    -0.00  -0.00   0.11     0.01   0.00  -0.23
  23   6    -0.00   0.00   0.04     0.00  -0.00  -0.11    -0.00   0.00   0.06
  24   6    -0.00   0.00   0.15    -0.00  -0.00   0.09    -0.00   0.00   0.18
  25   7    -0.00  -0.00   0.17    -0.01  -0.00   0.35    -0.00   0.00   0.17
  26   1    -0.00  -0.00   0.01     0.00   0.00  -0.09    -0.00   0.00   0.02
  27   1     0.00  -0.00  -0.08     0.00   0.00  -0.04     0.00   0.00  -0.10
  28   1     0.00   0.00  -0.08     0.00  -0.00  -0.02     0.00   0.00  -0.10
  29   1     0.00  -0.00  -0.04    -0.00  -0.00   0.08    -0.00  -0.00   0.02
  30   1     0.00  -0.00  -0.03    -0.00  -0.00   0.10    -0.00  -0.00   0.03
  31   1     0.00  -0.00  -0.02    -0.00  -0.00   0.07     0.00  -0.00  -0.02
  32   1    -0.00  -0.00   0.08     0.00  -0.00   0.01    -0.00   0.00   0.07
  33   1    -0.00  -0.00   0.09    -0.00  -0.00   0.03    -0.01  -0.00   0.12
  34   1    -0.00  -0.00   0.07    -0.00  -0.00   0.04    -0.00  -0.00   0.07
  35   1     0.00  -0.00   0.02     0.00  -0.00  -0.07     0.00   0.00  -0.01
  36   1    -0.00   0.00   0.03     0.00  -0.00  -0.10    -0.00   0.00   0.03
  37   6     0.01   0.00  -0.22     0.00  -0.00  -0.07     0.00  -0.00  -0.09
  38   6     0.00   0.00  -0.07     0.00  -0.00  -0.02    -0.00  -0.00   0.17
  39   6     0.00   0.00   0.07     0.00  -0.00   0.02    -0.00  -0.00   0.17
  40   6     0.00  -0.00   0.22     0.00   0.01   0.07    -0.00   0.00  -0.09
  41  30    -0.01   0.01   0.02     0.00  -0.00   0.01     0.00  -0.00   0.03
  42   6     0.00  -0.00   0.01    -0.01   0.00  -0.11     0.00  -0.00   0.07
  43   6     0.00  -0.00   0.09     0.01  -0.00   0.07    -0.01   0.00  -0.15
  44   6    -0.01   0.00  -0.11     0.01  -0.00   0.16    -0.00  -0.00  -0.04
  45   6    -0.00  -0.00   0.06     0.00  -0.00   0.02    -0.00   0.00  -0.10
  46   6    -0.00   0.00   0.02    -0.01  -0.00  -0.19    -0.00   0.00  -0.04
  47   6     0.01   0.00   0.11    -0.00  -0.00   0.00    -0.01  -0.00  -0.15
  48   6    -0.00  -0.00  -0.06     0.01   0.00   0.10     0.00   0.00   0.07
  49   6    -0.01   0.00  -0.15    -0.01  -0.00  -0.09     0.01   0.00   0.18
  50   7    -0.01   0.00  -0.15    -0.03  -0.00  -0.35     0.01   0.00   0.17
  51   6    -0.00   0.00  -0.04     0.01   0.00   0.11     0.00   0.00   0.06
  52   6     0.02   0.00   0.15     0.00   0.00   0.05    -0.02   0.00  -0.17
  53   6     0.00  -0.00   0.01     0.01   0.00   0.12    -0.01  -0.00  -0.07
  54   6    -0.01  -0.00  -0.08    -0.01   0.00  -0.10     0.01  -0.00   0.09
  55   6     0.01   0.00   0.07    -0.02   0.00  -0.15    -0.00  -0.00  -0.01
  56   7     0.03   0.00   0.27    -0.01   0.00  -0.12    -0.02  -0.00  -0.23
  57   6    -0.01  -0.00  -0.10    -0.00   0.00  -0.03     0.01  -0.00   0.14
  58   6    -0.00  -0.00  -0.03     0.02   0.00   0.16    -0.00   0.00  -0.01
  59   6    -0.01  -0.00  -0.12     0.01   0.00   0.03     0.01   0.00   0.09
  60   6     0.01  -0.00   0.08    -0.01   0.00  -0.09    -0.01   0.00  -0.07
  61   6     0.01  -0.01   0.15     0.01   0.00   0.04    -0.02   0.00  -0.17
  62   7     0.01  -0.01   0.15     0.02   0.00   0.25    -0.02   0.00  -0.23
  63   6     0.00  -0.00   0.03    -0.01   0.00  -0.11     0.00  -0.00   0.06
  64   6    -0.01   0.00  -0.18     0.00  -0.00  -0.01     0.01  -0.00   0.18
  65   7    -0.03   0.00  -0.34     0.01  -0.00   0.19     0.01  -0.00   0.17
  66   1     0.00  -0.00   0.04    -0.00   0.00  -0.08     0.00  -0.00   0.02
  67   1     0.00  -0.00   0.08     0.00  -0.00   0.02    -0.01   0.00  -0.10
  68   1     0.00   0.00   0.08     0.00  -0.00   0.03    -0.01  -0.00  -0.10
  69   1    -0.00  -0.00  -0.02     0.01   0.00   0.09     0.00   0.00   0.02
  70   1    -0.00  -0.00  -0.03     0.01   0.00   0.10     0.00   0.00   0.03
  71   1    -0.00  -0.00  -0.02     0.01   0.00   0.07    -0.00  -0.00  -0.02
  72   1    -0.01  -0.00  -0.07    -0.00   0.00  -0.04     0.01  -0.00   0.07
  73   1    -0.01   0.00  -0.09    -0.00   0.00  -0.03     0.01  -0.00   0.12
  74   1    -0.01   0.00  -0.08     0.00   0.00  -0.01     0.01  -0.00   0.07
  75   1     0.00  -0.00   0.03    -0.01   0.00  -0.07    -0.00   0.00  -0.01
  76   1     0.00  -0.00   0.04    -0.01   0.00  -0.10     0.00  -0.00   0.03
                     34                     35                     36
                        a                      a                      a 
 Frequencies --   244.6655               262.8387               263.0889
 Red. masses --    13.4257                10.4568                10.4560
 Frc consts  --     0.0000                 0.0000                 0.0000
 IR Inten    --     0.0176                 1.3475                 0.3128
 Raman Activ --     0.0000                 0.0000                 0.0000
 Depolar     --     0.0000                 0.0000                 0.0000
 Atom AN      X      Y      Z        X      Y      Z        X      Y      Z
   1  30     0.12   0.00   0.01     0.00   0.00   0.00    -0.00  -0.00   0.00
   2   6    -0.07  -0.05   0.00     0.01   0.00  -0.20     0.00   0.00  -0.15
   3   6    -0.10  -0.02  -0.01    -0.01  -0.00   0.19    -0.00  -0.00   0.14
   4   6    -0.11  -0.02  -0.01    -0.01  -0.00   0.19    -0.00  -0.00   0.14
   5   6    -0.09  -0.00  -0.00    -0.00  -0.00   0.00    -0.00   0.00   0.00
   6   6    -0.11   0.02  -0.01     0.01   0.00  -0.19     0.00   0.00  -0.15
   7   6    -0.10   0.02  -0.01     0.01   0.00  -0.19     0.00   0.00  -0.15
   8   6    -0.07   0.05   0.00    -0.01  -0.00   0.20    -0.01  -0.00   0.16
[...]
  74   1     0.02   0.00  -0.00     0.01   0.00  -0.00     0.03   0.00  -0.00
  75   1    -0.00  -0.00  -0.00     0.00   0.01   0.00    -0.00  -0.01  -0.00
  76   1    -0.00  -0.01  -0.00    -0.00  -0.00  -0.00    -0.00  -0.02  -0.00
                    214                    215                    216
                        a                      a                      a 
 Frequencies --  3151.4105              3159.8057              3159.9835
 Red. masses --     1.8126                 1.9744                 1.9744
 Frc consts  --     0.0000                 0.0000                 0.0000
 IR Inten    --     7.1818               118.7206               177.2857
 Raman Activ --     0.0000                 0.0000                 0.0000
 Depolar     --     0.0000                 0.0000                 0.0000
 Atom AN      X      Y      Z        X      Y      Z        X      Y      Z
   1  30     0.00  -0.00   0.00    -0.00   0.00   0.00     0.00   0.00   0.00
   2   6    -0.02   0.18   0.00     0.00   0.00   0.00     0.00   0.00   0.00
   3   6     0.11  -0.02   0.00    -0.02   0.00  -0.00    -0.00   0.00  -0.00
   4   6     0.00   0.00   0.00     0.00  -0.00   0.00     0.00  -0.00   0.00
   5   6     0.00   0.00   0.00     0.00   0.00  -0.00     0.00   0.00   0.00
   6   6     0.00  -0.00   0.00     0.00  -0.00  -0.00     0.00  -0.00  -0.00
   7   6     0.05   0.01   0.00     0.02   0.00   0.00     0.00   0.00   0.00
   8   6    -0.01  -0.08  -0.00    -0.00   0.00   0.00    -0.00  -0.00  -0.00
   9   6     0.00  -0.00   0.00    -0.00  -0.00  -0.00    -0.00  -0.00  -0.00
  10   7    -0.00   0.00   0.00    -0.00   0.00   0.00    -0.00   0.00   0.00
  11   6     0.00  -0.00  -0.00     0.00  -0.00   0.00     0.00  -0.00   0.00
  12   6    -0.00  -0.00  -0.00    -0.01  -0.00  -0.00    -0.00  -0.00  -0.00
  13   6     0.00  -0.00   0.00     0.01  -0.15  -0.00     0.00  -0.01  -0.00
  14   6    -0.00   0.00  -0.00     0.15  -0.01   0.01     0.01  -0.00   0.00
  15   6    -0.00  -0.00  -0.00     0.00   0.01   0.00     0.00   0.00   0.00
  16   7     0.00   0.00   0.00    -0.00   0.00  -0.00    -0.00   0.00  -0.00
  17   6    -0.00  -0.00  -0.00     0.00  -0.00   0.00    -0.00  -0.00  -0.00
  18   6    -0.00   0.00  -0.00    -0.00   0.01  -0.00    -0.00   0.00  -0.00
  19   6    -0.01  -0.00  -0.00    -0.14  -0.01  -0.01    -0.02  -0.00  -0.00
  20   6     0.00   0.00   0.00    -0.01  -0.14  -0.00    -0.00  -0.02  -0.00
  21   6    -0.00   0.00  -0.00     0.01  -0.00   0.00     0.00  -0.00   0.00
  22   7     0.00  -0.00   0.00     0.00   0.00   0.00     0.00   0.00   0.00
  23   6     0.00   0.01   0.00    -0.00  -0.00  -0.00    -0.00  -0.00  -0.00
  24   6     0.00   0.00   0.00     0.00  -0.00   0.00     0.00  -0.00   0.00
  25   7    -0.00  -0.00  -0.00     0.00   0.00  -0.00     0.00   0.00  -0.00
  26   1     0.07  -0.62  -0.00     0.00  -0.01  -0.00    -0.00   0.00   0.00
  27   1    -0.42   0.05  -0.01     0.05  -0.01   0.00     0.01  -0.00   0.00
  28   1    -0.18  -0.02  -0.01    -0.06  -0.01  -0.00    -0.01  -0.00  -0.00
  29   1     0.03   0.27   0.00    -0.00  -0.01  -0.00     0.00   0.00   0.00
  30   1    -0.00   0.01   0.00     0.00   0.01   0.00     0.00   0.00   0.00
  31   1    -0.00   0.01   0.00    -0.05   0.49   0.00    -0.00   0.04   0.00
  32   1     0.01  -0.00   0.00    -0.48   0.05  -0.02    -0.04   0.00  -0.00
  33   1     0.00  -0.00   0.00    -0.00  -0.00  -0.00     0.00  -0.00   0.00
  34   1     0.03   0.00   0.00     0.45   0.05   0.02     0.05   0.01   0.00
  35   1    -0.00  -0.01  -0.00     0.05   0.46   0.00     0.01   0.05   0.00
  36   1    -0.00  -0.02  -0.00    -0.00   0.01   0.00    -0.00   0.00   0.00
  37   6    -0.00  -0.00  -0.00     0.00   0.00   0.00    -0.00   0.00  -0.00
  38   6     0.00   0.00   0.00     0.00  -0.00  -0.00     0.00  -0.00   0.00
  39   6    -0.00   0.00  -0.00    -0.00  -0.00   0.00     0.00  -0.00  -0.00
  40   6     0.00  -0.00  -0.00     0.00   0.00  -0.00    -0.00   0.00   0.00
  41  30    -0.00  -0.00   0.00    -0.00  -0.00   0.00     0.00   0.00  -0.00
  42   6     0.01  -0.08  -0.00     0.00  -0.00  -0.00    -0.00   0.00   0.00
  43   6    -0.05   0.01   0.00     0.00  -0.00  -0.00    -0.02   0.00   0.00
  44   6    -0.00  -0.00   0.00    -0.00   0.00   0.00     0.00  -0.00  -0.00
  45   6    -0.00   0.00   0.00    -0.00  -0.00   0.00     0.00   0.00  -0.00
  46   6    -0.00   0.00   0.00    -0.00   0.00  -0.00     0.00  -0.00   0.00
  47   6    -0.06  -0.01   0.00    -0.00  -0.00   0.00     0.02   0.00  -0.00
  48   6     0.01   0.09  -0.00    -0.00  -0.00   0.00    -0.00   0.00  -0.00
  49   6    -0.00   0.00   0.00     0.00  -0.00  -0.00    -0.00  -0.00   0.00
  50   7     0.00  -0.00  -0.00     0.00   0.00   0.00    -0.00   0.00  -0.00
  51   6    -0.00   0.00  -0.00    -0.00   0.00   0.00     0.00  -0.00  -0.00
  52   6     0.00   0.00  -0.00     0.00   0.00  -0.00    -0.00  -0.00   0.00
  53   6    -0.00   0.00   0.00    -0.00   0.01   0.00     0.01  -0.14  -0.00
  54   6     0.01  -0.00  -0.00    -0.01   0.00   0.00     0.14  -0.01  -0.01
  55   6     0.00   0.00  -0.00    -0.00  -0.00   0.00     0.00   0.01  -0.00
  56   7    -0.00  -0.00   0.00     0.00  -0.00  -0.00    -0.00   0.00   0.00
  57   6     0.00   0.00  -0.00     0.00   0.00  -0.00    -0.00  -0.00   0.00
  58   6     0.00  -0.00  -0.00     0.00  -0.00  -0.00    -0.00   0.01   0.00
  59   6     0.00   0.00  -0.00     0.02   0.00  -0.00    -0.15  -0.01   0.01
  60   6    -0.00  -0.00   0.00     0.00   0.02   0.00    -0.01  -0.16  -0.00
  61   6     0.00  -0.00  -0.00    -0.00   0.00   0.00     0.01  -0.00  -0.00
  62   7    -0.00   0.00   0.00    -0.00  -0.00   0.00     0.00   0.00  -0.00
  63   6    -0.00  -0.00  -0.00     0.00   0.00   0.00    -0.00  -0.00   0.00
  64   6    -0.00  -0.00   0.00    -0.00  -0.00   0.00     0.00  -0.00  -0.00
  65   7     0.00   0.00   0.00    -0.00  -0.00  -0.00     0.00   0.00   0.00
  66   1    -0.03   0.28   0.01    -0.00   0.00   0.00     0.00  -0.01  -0.00
  67   1     0.19  -0.02  -0.01    -0.00   0.00   0.00     0.06  -0.01  -0.00
  68   1     0.21   0.03  -0.01     0.00   0.00  -0.00    -0.06  -0.01   0.00
  69   1    -0.03  -0.31   0.01     0.00   0.00  -0.00    -0.00  -0.01   0.00
  70   1     0.00  -0.01   0.00    -0.00  -0.00   0.00     0.00   0.01  -0.00
  71   1     0.00  -0.01  -0.00     0.01  -0.04  -0.00    -0.06   0.45   0.00
  72   1    -0.02   0.00   0.00     0.04  -0.00  -0.00    -0.44   0.04   0.04
  73   1    -0.00  -0.00   0.00    -0.00   0.00   0.00     0.00  -0.00  -0.00
  74   1    -0.01  -0.00   0.00    -0.05  -0.01   0.00     0.49   0.06  -0.04
  75   1     0.00   0.01   0.00    -0.00  -0.05  -0.00     0.05   0.50   0.00
  76   1     0.00   0.01   0.00     0.00  -0.00  -0.00    -0.00   0.01   0.00
                    217                    218                    219
                        a                      a                      a 
 Frequencies --  3160.6138              3161.1266              3165.3221
 Red. masses --     1.9745                 1.9744                 1.9661
 Frc consts  --     0.0000                 0.0000                 0.0000
 IR Inten    --   447.7621                16.8370                 0.4825
 Raman Activ --     0.0000                 0.0000                 0.0000
 Depolar     --     0.0000                 0.0000                 0.0000
 Atom AN      X      Y      Z        X      Y      Z        X      Y      Z
   1  30    -0.00  -0.00  -0.00     0.00   0.00   0.00     0.00   0.00   0.00
   2   6     0.00  -0.00  -0.00     0.00   0.00   0.00     0.00  -0.07  -0.00
   3   6     0.01  -0.00   0.00    -0.00   0.00  -0.00     0.10  -0.01   0.00
   4   6    -0.00   0.00   0.00    -0.00  -0.00  -0.00     0.00   0.00   0.00
   5   6    -0.00  -0.00  -0.00    -0.00   0.00  -0.00    -0.00  -0.00  -0.00
   6   6    -0.00  -0.00   0.00    -0.00   0.00  -0.00    -0.00   0.00  -0.00
   7   6     0.01   0.00   0.00    -0.00  -0.00  -0.00    -0.13  -0.01  -0.00
   8   6     0.00   0.00   0.00     0.00  -0.00   0.00    -0.00  -0.09  -0.00
   9   6    -0.00   0.00  -0.00     0.00  -0.00  -0.00     0.00  -0.00   0.00
  10   7     0.00   0.00  -0.00     0.00  -0.00   0.00     0.00   0.00   0.00
  11   6     0.00  -0.00   0.00    -0.00   0.00  -0.00    -0.00  -0.00  -0.00
  12   6    -0.00  -0.00  -0.00     0.00   0.00   0.00    -0.00  -0.00  -0.00
  13   6     0.01  -0.12  -0.00    -0.01   0.08   0.00     0.00  -0.01  -0.00
  14   6     0.12  -0.01   0.00    -0.08   0.01  -0.00     0.01  -0.00   0.00
  15   6     0.00   0.00   0.00    -0.00  -0.00  -0.00     0.00   0.00   0.00
  16   7    -0.00   0.00  -0.00     0.00  -0.00   0.00    -0.00   0.00  -0.00
  17   6     0.01   0.00   0.00    -0.00  -0.00  -0.00     0.00  -0.00   0.00
  18   6     0.00  -0.00   0.00    -0.00   0.00  -0.00    -0.00   0.00  -0.00
  19   6     0.13   0.01   0.00    -0.09  -0.01  -0.00    -0.01  -0.00  -0.00
  20   6     0.01   0.12   0.00    -0.01  -0.08  -0.00    -0.00  -0.01  -0.00
  21   6    -0.00   0.00  -0.00     0.00  -0.00   0.00     0.00  -0.00   0.00
  22   7    -0.00  -0.00  -0.00     0.00   0.00   0.00     0.00   0.00   0.00
  23   6     0.00   0.00   0.00    -0.00  -0.00  -0.00     0.00  -0.00   0.00
  24   6    -0.00  -0.00  -0.00     0.00   0.00   0.00    -0.00  -0.00  -0.00
  25   7     0.00  -0.00  -0.00     0.00   0.00   0.00    -0.00   0.00  -0.00
  26   1    -0.00   0.01   0.00     0.00  -0.00  -0.00    -0.02   0.22   0.00
  27   1    -0.02   0.00  -0.00     0.02  -0.00   0.00    -0.31   0.04  -0.01
  28   1    -0.02  -0.00  -0.00     0.01   0.00   0.00     0.43   0.05   0.01
  29   1    -0.00  -0.01  -0.00     0.00   0.00   0.00     0.03   0.29   0.00
  30   1     0.00   0.01   0.00    -0.00  -0.01  -0.00    -0.00   0.01   0.00
  31   1    -0.04   0.38   0.00     0.03  -0.26  -0.00    -0.00   0.03   0.00
  32   1    -0.39   0.04  -0.02     0.27  -0.03   0.01    -0.02   0.00  -0.00
  33   1    -0.02   0.00  -0.00     0.02  -0.00   0.00    -0.00  -0.00  -0.00
  34   1    -0.40  -0.05  -0.01     0.28   0.03   0.01     0.02   0.00   0.00
  35   1    -0.04  -0.39  -0.00     0.03   0.27   0.00     0.00   0.02   0.00
  36   1     0.00  -0.01  -0.00    -0.00   0.01   0.00     0.00   0.00   0.00
  37   6     0.00  -0.00   0.00    -0.00   0.00  -0.00     0.00  -0.00  -0.00
  38   6    -0.00   0.00  -0.00    -0.00   0.00  -0.00    -0.00   0.00   0.00
  39   6    -0.00  -0.00   0.00    -0.00  -0.00   0.00     0.00  -0.00   0.00
  40   6     0.00   0.00  -0.00     0.00   0.00  -0.00    -0.00   0.00  -0.00
  41  30    -0.00   0.00   0.00    -0.00   0.00   0.00    -0.00  -0.00   0.00
  42   6     0.00  -0.00  -0.00    -0.00  -0.00  -0.00    -0.01   0.08   0.00
  43   6     0.00  -0.00  -0.00     0.01  -0.00  -0.00    -0.11   0.01   0.01
  44   6    -0.00   0.00  -0.00    -0.00   0.00  -0.00    -0.00  -0.00   0.00
  45   6    -0.00   0.00   0.00     0.00   0.00  -0.00    -0.00   0.00   0.00
  46   6    -0.00  -0.00  -0.00     0.00  -0.00  -0.00     0.00  -0.00  -0.00
  47   6     0.00   0.00  -0.00     0.01   0.00  -0.00     0.14   0.01  -0.01
  48   6     0.00   0.00  -0.00    -0.00   0.00  -0.00     0.00   0.10  -0.00
  49   6    -0.00   0.00   0.00    -0.00   0.00   0.00    -0.00   0.00   0.00
  50   7     0.00   0.00   0.00     0.00   0.00   0.00    -0.00  -0.00   0.00
  51   6     0.00  -0.00  -0.00     0.00  -0.00  -0.00     0.00   0.00  -0.00
  52   6    -0.00  -0.00   0.00    -0.00  -0.00   0.00     0.00   0.00  -0.00
  53   6     0.01  -0.09  -0.00     0.01  -0.12  -0.00    -0.00   0.01   0.00
  54   6     0.09  -0.00  -0.01     0.13  -0.01  -0.01    -0.01   0.00   0.00
  55   6     0.00   0.00  -0.00     0.00   0.00  -0.00    -0.00  -0.00   0.00
  56   7    -0.00   0.00   0.00    -0.00   0.00   0.00     0.00  -0.00  -0.00
  57   6     0.00   0.00  -0.00     0.01   0.00  -0.00    -0.00   0.00   0.00
  58   6     0.00  -0.00  -0.00     0.00  -0.00  -0.00     0.00  -0.00  -0.00
  59   6     0.08   0.01  -0.01     0.12   0.01  -0.01     0.01   0.00  -0.00
  60   6     0.00   0.08   0.00     0.01   0.12   0.00     0.00   0.01   0.00
  61   6    -0.00   0.00   0.00    -0.00   0.00   0.00    -0.00   0.00   0.00
  62   7    -0.00  -0.00   0.00    -0.00  -0.00   0.00    -0.00  -0.00   0.00
  63   6     0.00   0.00  -0.00     0.00   0.00  -0.00    -0.00   0.00   0.00
  64   6    -0.00  -0.00   0.00    -0.00  -0.00   0.00     0.00   0.00  -0.00
  65   7     0.00  -0.00   0.00     0.00  -0.00   0.00     0.00  -0.00  -0.00
  66   1    -0.00   0.01   0.00    -0.00   0.00   0.00     0.03  -0.25  -0.01
  67   1    -0.01   0.00   0.00    -0.02   0.00   0.00     0.37  -0.04  -0.02
  68   1    -0.01  -0.00   0.00    -0.02  -0.00   0.00    -0.44  -0.06   0.03
  69   1    -0.00  -0.01   0.00    -0.00  -0.01   0.00    -0.03  -0.31   0.01
  70   1     0.00   0.01  -0.00     0.00   0.01  -0.00     0.00  -0.01   0.00
  71   1    -0.04   0.28   0.00    -0.05   0.40   0.00     0.00  -0.03  -0.00
  72   1    -0.29   0.03   0.03    -0.41   0.04   0.04     0.03  -0.00  -0.00
  73   1    -0.01  -0.00   0.00    -0.02  -0.00   0.00     0.00   0.00  -0.00
  74   1    -0.25  -0.03   0.02    -0.37  -0.05   0.03    -0.02  -0.00   0.00
  75   1    -0.02  -0.25  -0.00    -0.04  -0.37  -0.00    -0.00  -0.03  -0.00
  76   1     0.00  -0.01  -0.00     0.00  -0.01  -0.00    -0.00  -0.01  -0.00
                    220                    221                    222
                        a                      a                      a 
 Frequencies --  3165.7070              3165.9558              3166.2753
 Red. masses --     1.9662                 1.9653                 1.9653
 Frc consts  --     0.0000                 0.0000                 0.0000
 IR Inten    --    63.6763               137.0870                 0.7407
 Raman Activ --     0.0000                 0.0000                 0.0000
 Depolar     --     0.0000                 0.0000                 0.0000
 Atom AN      X      Y      Z        X      Y      Z        X      Y      Z
   1  30     0.00   0.00   0.00     0.00  -0.00   0.00     0.00  -0.00   0.00
   2   6    -0.00   0.02   0.00    -0.01   0.11   0.00    -0.01   0.10   0.00
   3   6    -0.03   0.00  -0.00    -0.16   0.01  -0.00    -0.14   0.01  -0.00
   4   6    -0.00  -0.00  -0.00    -0.00  -0.01  -0.00    -0.00  -0.01  -0.00
   5   6    -0.00  -0.00  -0.00    -0.00   0.00   0.00    -0.00   0.00  -0.00
   6   6    -0.00   0.01  -0.00     0.00  -0.00   0.00    -0.00   0.00  -0.00
   7   6    -0.16  -0.01  -0.01     0.05   0.00   0.00    -0.11  -0.01  -0.00
   8   6    -0.01  -0.11  -0.00     0.00   0.03   0.00    -0.00  -0.08  -0.00
   9   6     0.00  -0.00   0.00    -0.00   0.00  -0.00     0.00  -0.00   0.00
  10   7     0.00   0.00   0.00    -0.00  -0.00  -0.00     0.00   0.00   0.00
  11   6    -0.00  -0.00  -0.00     0.00   0.00   0.00    -0.00  -0.00  -0.00
  12   6    -0.00  -0.00  -0.00     0.00   0.00   0.00    -0.00  -0.00  -0.00
  13   6     0.00  -0.01  -0.00    -0.00   0.01   0.00     0.00  -0.00  -0.00
  14   6     0.01  -0.00   0.00    -0.00   0.00  -0.00     0.00  -0.00   0.00
  15   6     0.00   0.00   0.00    -0.00  -0.00  -0.00     0.00   0.00  -0.00
  16   7    -0.00   0.00   0.00     0.00  -0.00   0.00    -0.00   0.00   0.00
  17   6     0.00  -0.00   0.00     0.00   0.00   0.00     0.00   0.00   0.00
  18   6    -0.00   0.00  -0.00     0.00  -0.00   0.00     0.00  -0.00  -0.00
  19   6    -0.00  -0.00  -0.00     0.01   0.00   0.00     0.00   0.00   0.00
  20   6    -0.00  -0.00  -0.00     0.00   0.01   0.00     0.00   0.01   0.00
  21   6    -0.00   0.00  -0.00    -0.00   0.00  -0.00    -0.00   0.00  -0.00
  22   7    -0.00  -0.00   0.00    -0.00  -0.00  -0.00    -0.00  -0.00   0.00
  23   6     0.00   0.00   0.00    -0.00   0.00  -0.00    -0.00   0.00  -0.00
  24   6     0.00   0.00   0.00     0.00   0.00   0.00     0.00   0.00   0.00
  25   7     0.00  -0.00   0.00     0.00  -0.00   0.00     0.00  -0.00   0.00
  26   1     0.01  -0.08  -0.00     0.04  -0.36  -0.00     0.03  -0.32  -0.00
  27   1     0.10  -0.01   0.00     0.53  -0.06   0.02     0.47  -0.06   0.01
  28   1     0.53   0.06   0.02    -0.17  -0.02  -0.01     0.36   0.04   0.01
  29   1     0.04   0.36   0.00    -0.01  -0.11  -0.00     0.03   0.24   0.00
  30   1    -0.00   0.01   0.00     0.00  -0.00  -0.00    -0.00   0.01   0.00
  31   1    -0.00   0.03   0.00     0.00  -0.02  -0.00    -0.00   0.01   0.00
  32   1    -0.02   0.00  -0.00     0.02  -0.00   0.00    -0.01   0.00  -0.00
  33   1    -0.00  -0.00  -0.00    -0.00   0.00  -0.00    -0.00   0.00  -0.00
  34   1     0.01   0.00   0.00    -0.03  -0.00  -0.00    -0.01  -0.00  -0.00
  35   1     0.00   0.01   0.00    -0.00  -0.03  -0.00    -0.00  -0.02  -0.00
  36   1    -0.00  -0.00  -0.00    -0.00  -0.01  -0.00    -0.00  -0.01  -0.00
  37   6    -0.00  -0.00  -0.00    -0.00   0.00  -0.00     0.00   0.00  -0.00
  38   6     0.00   0.00   0.00     0.00  -0.00   0.00    -0.00  -0.00   0.00
  39   6     0.00   0.00  -0.00    -0.00  -0.00  -0.00     0.00   0.00   0.00
  40   6    -0.00  -0.00   0.00     0.00   0.00   0.00    -0.00  -0.00  -0.00
  41  30     0.00   0.00  -0.00     0.00  -0.00  -0.00    -0.00   0.00   0.00
  42   6    -0.00   0.03   0.00    -0.01   0.12   0.00     0.01  -0.09  -0.00
  43   6    -0.04   0.00   0.00    -0.17   0.01   0.01     0.12  -0.01  -0.01
  44   6    -0.00  -0.00   0.00    -0.00  -0.01   0.00     0.00   0.00  -0.00
  45   6    -0.00  -0.00   0.00    -0.00   0.00   0.00     0.00  -0.00  -0.00
  46   6    -0.00   0.01   0.00     0.00  -0.00  -0.00     0.00  -0.00  -0.00
  47   6    -0.17  -0.02   0.01     0.03   0.00  -0.00     0.10   0.01  -0.01
  48   6    -0.00  -0.12   0.00     0.00   0.02  -0.00     0.00   0.07  -0.00
  49   6     0.00  -0.00  -0.00    -0.00   0.00   0.00    -0.00   0.00   0.00
  50   7     0.00   0.00  -0.00    -0.00  -0.00   0.00    -0.00  -0.00   0.00
  51   6    -0.00  -0.00   0.00     0.00   0.00  -0.00     0.00   0.00  -0.00
  52   6    -0.00  -0.00   0.00     0.00  -0.00   0.00     0.00   0.00  -0.00
  53   6     0.00  -0.01  -0.00    -0.00   0.00  -0.00    -0.00   0.00   0.00
  54   6     0.01  -0.00  -0.00    -0.00   0.00   0.00    -0.00   0.00   0.00
  55   6     0.00   0.00  -0.00    -0.00  -0.00   0.00    -0.00  -0.00  -0.00
  56   7    -0.00   0.00  -0.00     0.00  -0.00  -0.00     0.00  -0.00   0.00
  57   6     0.00  -0.00  -0.00     0.00   0.00  -0.00    -0.00  -0.00   0.00
  58   6     0.00   0.00   0.00     0.00  -0.00  -0.00    -0.00   0.00  -0.00
  59   6    -0.00  -0.00   0.00     0.01   0.00  -0.00    -0.00  -0.00   0.00
  60   6    -0.00  -0.00  -0.00     0.00   0.01   0.00    -0.00  -0.00  -0.00
  61   6    -0.00   0.00   0.00    -0.00   0.00   0.00     0.00  -0.00  -0.00
  62   7    -0.00  -0.00  -0.00    -0.00  -0.00  -0.00     0.00   0.00   0.00
  63   6    -0.00   0.00   0.00    -0.00   0.00   0.00     0.00  -0.00  -0.00
  64   6     0.00   0.00  -0.00     0.00   0.00  -0.00    -0.00  -0.00   0.00
  65   7     0.00  -0.00  -0.00     0.00  -0.00  -0.00    -0.00   0.00   0.00
  66   1     0.01  -0.10  -0.00     0.04  -0.37  -0.01    -0.03   0.27   0.01
  67   1     0.14  -0.01  -0.01     0.55  -0.06  -0.04    -0.41   0.04   0.03
  68   1     0.55   0.07  -0.04    -0.09  -0.01   0.01    -0.33  -0.04   0.02
  69   1     0.03   0.38  -0.01    -0.00  -0.05   0.00    -0.02  -0.22   0.00
  70   1    -0.00   0.01  -0.00     0.00  -0.00   0.00     0.00  -0.01   0.00
  71   1    -0.00   0.03   0.00     0.00  -0.02  -0.00     0.00  -0.01  -0.00
  72   1    -0.02   0.00   0.00     0.01  -0.00  -0.00     0.01  -0.00  -0.00
  73   1    -0.00  -0.00   0.00    -0.00   0.00   0.00     0.00   0.00  -0.00
  74   1     0.00   0.00  -0.00    -0.02  -0.00   0.00     0.01   0.00  -0.00
  75   1     0.00   0.00   0.00    -0.00  -0.03  -0.00     0.00   0.02   0.00
  76   1    -0.00  -0.00  -0.00    -0.00  -0.01  -0.00     0.00   0.01   0.00
