      -----------------------------------------------------------      
     |                   =====================                   |     
     |                           x T B                           |     
     |                   =====================                   |     
     |                         S. Grimme                         |     
     |          Mulliken Center for Theoretical Chemistry        |     
     |                    University of Bonn                     |     
      -----------------------------------------------------------      

   * xtb version 6.4.1 (bd6e46d) compiled by 'conda@4901f00b25ba' on 2021-06-10

   xtb is free software: you can redistribute it and/or modify it under
   the terms of the GNU Lesser General Public License as published by
   the Free Software Foundation, either version 3 of the License, or
   (at your option) any later version.
   
   xtb is distributed in the hope that it will be useful,
   but WITHOUT ANY WARRANTY; without even the implied warranty of
   MERCHANTABILITY or FITNESS FOR A PARTICULAR PURPOSE.  See the
   GNU Lesser General Public License for more details.
   
   Cite this work as:
   * C. Bannwarth, E. Caldeweyher, S. Ehlert, A. Hansen, P. Pracht,
     J. Seibert, S. Spicher, S. Grimme, WIREs Comput. Mol. Sci., 2020, 11,
     e01493. DOI: 10.1002/wcms.1493
   
   for GFN2-xTB:
   * C. Bannwarth, S. Ehlert and S. Grimme., J. Chem. Theory Comput., 2019,
     15, 1652-1671. DOI: 10.1021/acs.jctc.8b01176
   for GFN1-xTB:
   * S. Grimme, C. Bannwarth, P. Shushkov, J. Chem. Theory Comput., 2017,
     13, 1989-2009. DOI: 10.1021/acs.jctc.7b00118
   for GFN0-xTB:
   * P. Pracht, E. Caldeweyher, S. Ehlert, S. Grimme, ChemRxiv, 2019, preprint.
     DOI: 10.26434/chemrxiv.8326202.v1
   for GFN-FF:
   * S. Spicher and S. Grimme, Angew. Chem. Int. Ed., 2020, 59, 15665-15673.
     DOI: 10.1002/anie.202004239
   
   for DFT-D4:
   * E. Caldeweyher, C. Bannwarth and S. Grimme, J. Chem. Phys., 2017,
     147, 034112. DOI: 10.1063/1.4993215
   * E. Caldeweyher, S. Ehlert, A. Hansen, H. Neugebauer, S. Spicher,
     C. Bannwarth and S. Grimme, J. Chem. Phys., 2019, 150, 154122.
     DOI: 10.1063/1.5090222
   * E. Caldeweyher, J.-M. Mewes, S. Ehlert and S. Grimme, Phys. Chem. Chem. Phys.
     2020, 22, 8499-8512. DOI: 10.1039/D0CP00502A
   
   for sTDA-xTB:
   * S. Grimme and C. Bannwarth, J. Chem. Phys., 2016, 145, 054103.
     DOI: 10.1063/1.4959605
   
   in the mass-spec context:
   * V. Asgeirsson, C. Bauer and S. Grimme, Chem. Sci., 2017, 8, 4879.
     DOI: 10.1039/c7sc00601b
   * J. Koopman and S. Grimme, ACS Omega 2019, 4, 12, 15120-15133.
     DOI: 10.1021/acsomega.9b02011
   
   for metadynamics refer to:
   * S. Grimme, J. Chem. Theory Comput., 2019, 155, 2847-2862
     DOI: 10.1021/acs.jctc.9b00143
   
   for SPH calculations refer to:
   * S. Spicher and S. Grimme, J. Chem. Theory Comput., 2021, 17, 1701-1714
     DOI: 10.1021/acs.jctc.0c01306
   
   with help from (in alphabetical order)
   P. Atkinson, C. Bannwarth, F. Bohle, G. Brandenburg, E. Caldeweyher
   M. Checinski, S. Dohm, S. Ehlert, S. Ehrlich, I. Gerasimov, J. Koopman
   C. Lavigne, S. Lehtola, F. März, M. Müller, F. Musil, H. Neugebauer
   J. Pisarek, C. Plett, P. Pracht, J. Seibert, P. Shushkov, S. Spicher
   M. Stahn, M. Steiner, T. Strunk, J. Stückrath, T. Rose, and J. Unsleber
   
 * started run on 2021/11/18 at 18:34:36.695     

           -------------------------------------------------
          |                Calculation Setup                |
           -------------------------------------------------

          program call               : /home/jeff/miniconda3/bin/xtb input_structure_1.xyz --gfn 2 --ohess normal --parallel 1 --etemp 300 --chrg 0 --uhf 0 -I det_control.in
          hostname                   : jelfscompute1
          coordinate file            : input_structure_1.xyz
          omp threads                :                     1
          number of atoms            :                    76
          number of electrons        :                   242
          charge                     :                     0
          spin                       :                   0.0
          first test random number   :      0.89373037118421

   ID    Z sym.   atoms
    1   30 Zn     1, 41
    2    6 C      2-9, 11-15, 17-21, 23, 24, 37-40, 42-49, 51-55, 57-61, 63,
                  64
    3    7 N      10, 16, 22, 25, 50, 56, 62, 65
    4    1 H      26-36, 66-76

           -------------------------------------------------
          |                 G F N 2 - x T B                 |
           -------------------------------------------------

        Reference                      10.1021/acs.jctc.8b01176
      * Hamiltonian:
        H0-scaling (s, p, d)           1.850000    2.230000    2.230000
        zeta-weighting                 0.500000
      * Dispersion:
        s8                             2.700000
        a1                             0.520000
        a2                             5.000000
        s9                             5.000000
      * Repulsion:
        kExp                           1.500000    1.000000
        rExp                           1.000000
      * Coulomb:
        alpha                          2.000000
        third order                    shell-resolved
        anisotropic                    true
        a3                             3.000000
        a5                             4.000000
        cn-shift                       1.200000
        cn-exp                         4.000000
        max-rad                        5.000000


          ...................................................
          :                      SETUP                      :
          :.................................................:
          :  # basis functions                 238          :
          :  # atomic orbitals                 238          :
          :  # shells                          130          :
          :  # electrons                       242          :
          :  max. iterations                   250          :
          :  Hamiltonian                  GFN2-xTB          :
          :  restarted?                      false          :
          :  GBSA solvation                  false          :
          :  PC potential                    false          :
          :  electronic temp.          300.0000000     K    :
          :  accuracy                    1.0000000          :
          :  -> integral cutoff          0.2500000E+02      :
          :  -> integral neglect         0.1000000E-07      :
          :  -> SCF convergence          0.1000000E-05 Eh   :
          :  -> wf. convergence          0.1000000E-03 e    :
          :  Broyden damping             0.4000000          :
          ...................................................

 iter      E             dE          RMSdq      gap      omega  full diag
   1   -131.6498174 -0.131650E+03  0.631E+00    0.30       0.0  T
   2   -131.5643354  0.854819E-01  0.333E+00    0.23       1.0  T
   3   -130.7649506  0.799385E+00  0.348E+00    0.72       1.0  T
   4   -131.6676156 -0.902665E+00  0.200E+00    0.25       1.0  T
   5   -132.0622180 -0.394602E+00  0.861E-01    0.40       1.0  T
   6   -132.0847275 -0.225095E-01  0.784E-01    0.52       1.0  T
   7   -132.1786255 -0.938980E-01  0.407E-01    0.32       1.0  T
   8   -132.1755139  0.311150E-02  0.361E-01    0.33       1.0  T
   9   -132.1820831 -0.656919E-02  0.200E-01    0.31       1.0  T
  10   -132.1846091 -0.252597E-02  0.950E-02    0.31       1.0  T
  11   -132.1854134 -0.804258E-03  0.455E-02    0.31       1.0  T
  12   -132.1855277 -0.114301E-03  0.304E-02    0.31       1.0  T
  13   -132.1855215  0.619431E-05  0.202E-02    0.31       1.0  T
  14   -132.1855866 -0.650853E-04  0.619E-03    0.31       1.9  T
  15   -132.1855893 -0.273035E-05  0.329E-03    0.31       3.5  T
  16   -132.1855901 -0.854376E-06  0.179E-03    0.31       6.4  T
  17   -132.1855903 -0.181091E-06  0.951E-04    0.31      12.1  T
  18   -132.1855905 -0.127081E-06  0.422E-04    0.31      27.2  T

   *** convergence criteria satisfied after 18 iterations ***

         #    Occupation            Energy/Eh            Energy/eV
      -------------------------------------------------------------
         1        2.0000           -0.7080506             -19.2670
       ...           ...                  ...                  ...
       115        2.0000           -0.3767832             -10.2528
       116        2.0000           -0.3739463             -10.1756
       117        2.0000           -0.3719568             -10.1215
       118        2.0000           -0.3684578             -10.0262
       119        2.0000           -0.3629533              -9.8765
       120        2.0000           -0.3392019              -9.2302
       121        1.9950           -0.3294346              -8.9644 (HOMO)
       122        0.0050           -0.3180506              -8.6546 (LUMO)
       123                         -0.3037133              -8.2645
       124                         -0.3011858              -8.1957
       125                         -0.2840239              -7.7287
       126                         -0.2766063              -7.5268
       ...                                ...                  ...
       238                          7.3458411             199.8905
      -------------------------------------------------------------
                  HL-Gap            0.0113840 Eh            0.3098 eV
             Fermi-level           -0.3237426 Eh           -8.8095 eV

 SCC (total)                   0 d,  0 h,  0 min,  0.300 sec
 SCC setup                      ...        0 min,  0.001 sec (  0.360%)
 Dispersion                     ...        0 min,  0.002 sec (  0.760%)
 classical contributions        ...        0 min,  0.000 sec (  0.139%)
 integral evaluation            ...        0 min,  0.024 sec (  7.882%)
 iterations                     ...        0 min,  0.190 sec ( 63.358%)
 molecular gradient             ...        0 min,  0.081 sec ( 27.158%)
 printout                       ...        0 min,  0.001 sec (  0.339%)

         :::::::::::::::::::::::::::::::::::::::::::::::::::::
         ::                     SUMMARY                     ::
         :::::::::::::::::::::::::::::::::::::::::::::::::::::
         :: total energy            -128.350126290816 Eh    ::
         :: gradient norm              4.339203814948 Eh/a0 ::
         :: HOMO-LUMO gap              0.309775065005 eV    ::
         ::.................................................::
         :: SCC energy              -132.185590457590 Eh    ::
         :: -> isotropic ES            0.138978410362 Eh    ::
         :: -> anisotropic ES          0.017955374850 Eh    ::
         :: -> anisotropic XC          0.073153801797 Eh    ::
         :: -> dispersion             -0.115689350261 Eh    ::
         :: repulsion energy           3.835572936837 Eh    ::
         :: add. restraining           0.000000000000 Eh    ::
         :: total charge              -0.000000000000 e     ::
         :::::::::::::::::::::::::::::::::::::::::::::::::::::

      ----------------------------------------------------------- 
     |                   =====================                   |
     |                        A N C O P T                        |
     |                   =====================                   |
     |               Approximate Normal Coordinate               |
     |                Rational Function Optimizer                |
      ----------------------------------------------------------- 

          ...................................................
          :                      SETUP                      :
          :.................................................:
          :   optimization level            normal          :
          :   max. optcycles                   228          :
          :   ANC micro-cycles                  20          :
          :   degrees of freedom               222          :
          :.................................................:
          :   RF solver                   davidson          :
          :   write xtbopt.log                true          :
          :   linear?                        false          :
          :   energy convergence         0.5000000E-05 Eh   :
          :   grad. convergence          0.1000000E-02 Eh/α :
          :   maximium RF displ.         1.0000000          :
          :   Hlow (freq-cutoff)         0.1000000E-01      :
          :   Hmax (freq-cutoff)         5.0000000          :
          :   S6 in model hess.         20.0000000          :
          ...................................................

generating ANC from model Hessian ...
Using Lindh-Hessian (1995)
 Shifting diagonal of input Hessian by    1.0032269895478218E-002
 Lowest  eigenvalues of input Hessian
    0.010000    0.010008    0.010016    0.000000    0.000000    0.000000
    0.000000    0.000000    0.000000    0.010448    0.011070    0.011257
    0.011511    0.011747    0.011906    0.012037    0.012858    0.013472
 Highest eigenvalues
    2.226897    2.355754    4.358696    4.516066    4.726575    4.872997


........................................................................
.............................. CYCLE    1 ..............................
........................................................................
   1   -132.1855905 -0.132186E+03  0.153E-04    0.31       0.0  T
   2   -132.1855905  0.630314E-08  0.209E-04    0.31      54.9  T
   3   -132.1855905  0.648112E-08  0.255E-04    0.31      45.1  T
     SCC iter.                  ...        0 min,  0.032 sec
     gradient                   ...        0 min,  0.081 sec
 * total energy  :  -128.3501263 Eh     change       -0.1159131E-07 Eh
   gradient norm :     4.3392079 Eh/α   predicted     0.0000000E+00 (-100.00%)
   displ. norm   :     0.6411320 α      lambda       -0.2716793E+01
   maximum displ.:     0.4431491 α      in ANC's #222, #221, #218, ...

........................................................................
.............................. CYCLE    2 ..............................
........................................................................
   1   -132.2879982 -0.132288E+03  0.812E-01    0.75       0.0  T
   2   -132.2968045 -0.880636E-02  0.688E-01    0.67       1.0  T
   3   -132.3152384 -0.184339E-01  0.336E-01    0.72       1.0  T
   4   -132.2914858  0.237526E-01  0.408E-01    0.67       1.0  T
   5   -132.3165549 -0.250690E-01  0.813E-02    0.71       1.0  T
   6   -132.3173338 -0.778910E-03  0.222E-02    0.70       1.0  T
   7   -132.3173795 -0.456990E-04  0.954E-03    0.70       1.2  T
   8   -132.3173830 -0.348469E-05  0.546E-03    0.70       2.1  T
   9   -132.3173847 -0.170312E-05  0.290E-03    0.70       4.0  T
  10   -132.3173853 -0.618287E-06  0.146E-03    0.70       7.8  T
  11   -132.3173856 -0.274600E-06  0.575E-04    0.70      20.0  T
  12   -132.3173856 -0.159072E-07  0.316E-04    0.70      36.3  T
     SCC iter.                  ...        0 min,  0.121 sec
     gradient                   ...        0 min,  0.086 sec
 * total energy  :  -129.5206887 Eh     change       -0.1170562E+01 Eh
   gradient norm :     0.6645165 Eh/α   predicted    -0.1916806E+01 (  63.75%)
   displ. norm   :     0.5410588 α      lambda       -0.2642732E+00
   maximum displ.:     0.1603545 α      in ANC's #76, #112, #82, ...

........................................................................
.............................. CYCLE    3 ..............................
........................................................................
   1   -132.2598799 -0.132260E+03  0.527E-01    0.60       0.0  T
   2   -132.2519996  0.788029E-02  0.426E-01    0.65       1.0  T
   3   -132.2568784 -0.487879E-02  0.336E-01    0.62       1.0  T
   4   -132.2636296 -0.675124E-02  0.185E-01    0.62       1.0  T
   5   -132.2671580 -0.352834E-02  0.880E-02    0.63       1.0  T
   6   -132.2682104 -0.105245E-02  0.206E-02    0.62       1.0  T
   7   -132.2682433 -0.328330E-04  0.987E-03    0.62       1.2  T
   8   -132.2682398  0.343052E-05  0.832E-03    0.62       1.4  T
   9   -132.2682477 -0.789589E-05  0.272E-03    0.62       4.2  T
  10   -132.2682483 -0.536774E-06  0.135E-03    0.62       8.5  T
  11   -132.2682484 -0.114831E-06  0.719E-04    0.62      15.9  T
  12   -132.2682484 -0.138705E-07  0.371E-04    0.62      30.9  T
     SCC iter.                  ...        0 min,  0.115 sec
     gradient                   ...        0 min,  0.077 sec
 * total energy  :  -129.6961832 Eh     change       -0.1754945E+00 Eh
   gradient norm :     0.3759912 Eh/α   predicted    -0.1708214E+00 (  -2.66%)
   displ. norm   :     0.6156177 α      lambda       -0.1273786E+00
   maximum displ.:     0.2142464 α      in ANC's #76, #82, #52, ...

........................................................................
.............................. CYCLE    4 ..............................
........................................................................
   1   -132.2755080 -0.132276E+03  0.442E-01    0.72       0.0  T
   2   -132.2753857  0.122326E-03  0.304E-01    0.73       1.0  T
   3   -132.2739467  0.143898E-02  0.240E-01    0.72       1.0  T
   4   -132.2756055 -0.165879E-02  0.163E-01    0.73       1.0  T
   5   -132.2796841 -0.407858E-02  0.391E-02    0.73       1.0  T
   6   -132.2798120 -0.127947E-03  0.158E-02    0.72       1.0  T
   7   -132.2798309 -0.188374E-04  0.738E-03    0.72       1.6  T
   8   -132.2798319 -0.994635E-06  0.404E-03    0.72       2.8  T
   9   -132.2798330 -0.114683E-05  0.178E-03    0.72       6.4  T
  10   -132.2798333 -0.239462E-06  0.995E-04    0.72      11.5  T
  11   -132.2798333 -0.199773E-07  0.587E-04    0.72      19.5  T
     SCC iter.                  ...        0 min,  0.104 sec
     gradient                   ...        0 min,  0.077 sec
 * total energy  :  -129.7911266 Eh     change       -0.9494344E-01 Eh
   gradient norm :     0.2045161 Eh/α   predicted    -0.8782693E-01 (  -7.50%)
   displ. norm   :     0.6581580 α      lambda       -0.6754255E-01
   maximum displ.:     0.2153289 α      in ANC's #52, #76, #37, ...

........................................................................
.............................. CYCLE    5 ..............................
........................................................................
   1   -132.3005132 -0.132301E+03  0.390E-01    0.81       0.0  T
   2   -132.3009818 -0.468611E-03  0.238E-01    0.82       1.0  T
   3   -132.2998147  0.116707E-02  0.164E-01    0.81       1.0  T
   4   -132.3013475 -0.153283E-02  0.757E-02    0.82       1.0  T
   5   -132.3019993 -0.651796E-03  0.130E-02    0.82       1.0  T
   6   -132.3020116 -0.122560E-04  0.555E-03    0.82       2.1  T
   7   -132.3020122 -0.590261E-06  0.365E-03    0.82       3.1  T
   8   -132.3020128 -0.643892E-06  0.181E-03    0.82       6.4  T
   9   -132.3020132 -0.366949E-06  0.710E-04    0.82      16.2  T
  10   -132.3020132 -0.166749E-07  0.464E-04    0.82      24.7  T
     SCC iter.                  ...        0 min,  0.095 sec
     gradient                   ...        0 min,  0.077 sec
 * total energy  :  -129.8432256 Eh     change       -0.5209900E-01 Eh
   gradient norm :     0.1178897 Eh/α   predicted    -0.4840041E-01 (  -7.10%)
   displ. norm   :     0.7143582 α      lambda       -0.4082934E-01
   maximum displ.:     0.2493704 α      in ANC's #52, #37, #7, ...

........................................................................
.............................. CYCLE    6 ..............................
........................................................................
   1   -132.3073027 -0.132307E+03  0.372E-01    0.92       0.0  T
   2   -132.3073165 -0.137486E-04  0.221E-01    0.92       1.0  T
   3   -132.3037395  0.357695E-02  0.172E-01    0.92       1.0  T
   4   -132.3073544 -0.361485E-02  0.580E-02    0.92       1.0  T
   5   -132.3078092 -0.454830E-03  0.753E-03    0.92       1.5  T
   6   -132.3078127 -0.353281E-05  0.409E-03    0.92       2.8  T
   7   -132.3078131 -0.381863E-06  0.271E-03    0.92       4.2  T
   8   -132.3078137 -0.556558E-06  0.965E-04    0.92      11.9  T
   9   -132.3078137 -0.824847E-07  0.363E-04    0.92      31.6  T
     SCC iter.                  ...        0 min,  0.085 sec
     gradient                   ...        0 min,  0.077 sec
 * total energy  :  -129.8761477 Eh     change       -0.3292205E-01 Eh
   gradient norm :     0.0807778 Eh/α   predicted    -0.3083246E-01 (  -6.35%)
   displ. norm   :     0.7441611 α      lambda       -0.2779225E-01
   maximum displ.:     0.2708046 α      in ANC's #7, #11, #37, ...

........................................................................
.............................. CYCLE    7 ..............................
........................................................................
   1   -132.3151820 -0.132315E+03  0.330E-01    1.01       0.0  T
   2   -132.3151916 -0.955416E-05  0.194E-01    1.01       1.0  T
   3   -132.3128133  0.237835E-02  0.138E-01    1.02       1.0  T
   4   -132.3152615 -0.244825E-02  0.380E-02    1.01       1.0  T
   5   -132.3154499 -0.188349E-03  0.669E-03    1.01       1.7  T
   6   -132.3154528 -0.291445E-05  0.320E-03    1.01       3.6  T
   7   -132.3154530 -0.254518E-06  0.164E-03    1.01       7.0  T
   8   -132.3154531 -0.103598E-06  0.708E-04    1.01      16.2  T
   9   -132.3154532 -0.463860E-07  0.303E-04    1.01      37.9  T
     SCC iter.                  ...        0 min,  0.085 sec
     gradient                   ...        0 min,  0.077 sec
 * total energy  :  -129.8992398 Eh     change       -0.2309212E-01 Eh
   gradient norm :     0.0546478 Eh/α   predicted    -0.2159150E-01 (  -6.50%)
   displ. norm   :     0.7773816 α      lambda       -0.2043545E-01
   maximum displ.:     0.3500572 α      in ANC's #7, #11, #15, ...

........................................................................
.............................. CYCLE    8 ..............................
........................................................................
   1   -132.3212628 -0.132321E+03  0.302E-01    1.10       0.0  T
   2   -132.3212911 -0.283243E-04  0.178E-01    1.10       1.0  T
   3   -132.3199487  0.134242E-02  0.107E-01    1.10       1.0  T
   4   -132.3213202 -0.137144E-02  0.288E-02    1.10       1.0  T
   5   -132.3214225 -0.102345E-03  0.572E-03    1.10       2.0  T
   6   -132.3214245 -0.195302E-05  0.290E-03    1.10       3.9  T
   7   -132.3214246 -0.164464E-06  0.171E-03    1.10       6.7  T
   8   -132.3214248 -0.139991E-06  0.545E-04    1.10      21.0  T
   9   -132.3214248 -0.218181E-07  0.301E-04    1.10      38.1  T
     SCC iter.                  ...        0 min,  0.085 sec
     gradient                   ...        0 min,  0.077 sec
 * total energy  :  -129.9165660 Eh     change       -0.1732624E-01 Eh
   gradient norm :     0.0353550 Eh/α   predicted    -0.1639253E-01 (  -5.39%)
   displ. norm   :     0.8060947 α      lambda       -0.1558406E-01
   maximum displ.:     0.4271606 α      in ANC's #7, #11, #15, ...

........................................................................
.............................. CYCLE    9 ..............................
........................................................................
   1   -132.3275410 -0.132328E+03  0.287E-01    1.17       0.0  T
   2   -132.3275648 -0.238069E-04  0.169E-01    1.17       1.0  T
   3   -132.3267301  0.834662E-03  0.891E-02    1.17       1.0  T
   4   -132.3275881 -0.858008E-03  0.218E-02    1.17       1.0  T
   5   -132.3276413 -0.531621E-04  0.498E-03    1.17       2.3  T
   6   -132.3276426 -0.133427E-05  0.276E-03    1.17       4.2  T
   7   -132.3276427 -0.113373E-06  0.178E-03    1.17       6.4  T
   8   -132.3276429 -0.192857E-06  0.521E-04    1.17      22.0  T
   9   -132.3276430 -0.271096E-07  0.257E-04    1.17      44.7  T
     SCC iter.                  ...        0 min,  0.085 sec
     gradient                   ...        0 min,  0.077 sec
 * total energy  :  -129.9300442 Eh     change       -0.1347817E-01 Eh
   gradient norm :     0.0274449 Eh/α   predicted    -0.1285524E-01 (  -4.62%)
   displ. norm   :     0.8263298 α      lambda       -0.1240140E-01
   maximum displ.:     0.4942850 α      in ANC's #7, #11, #15, ...

........................................................................
.............................. CYCLE   10 ..............................
........................................................................
   1   -132.3319468 -0.132332E+03  0.276E-01    1.21       0.0  T
   2   -132.3319589 -0.120124E-04  0.163E-01    1.21       1.0  T
   3   -132.3314767  0.482192E-03  0.685E-02    1.21       1.0  T
   4   -132.3319705 -0.493842E-03  0.155E-02    1.21       1.0  T
   5   -132.3319948 -0.242654E-04  0.407E-03    1.21       2.8  T
   6   -132.3319954 -0.639313E-06  0.251E-03    1.21       4.6  T
   7   -132.3319956 -0.183170E-06  0.140E-03    1.21       8.2  T
   8   -132.3319957 -0.144391E-06  0.351E-04    1.21      32.6  T
   9   -132.3319958 -0.997753E-08  0.211E-04    1.21      54.3  T
     SCC iter.                  ...        0 min,  0.087 sec
     gradient                   ...        0 min,  0.077 sec
 * total energy  :  -129.9409737 Eh     change       -0.1092948E-01 Eh
   gradient norm :     0.0264201 Eh/α   predicted    -0.1043467E-01 (  -4.53%)
   displ. norm   :     0.8377565 α      lambda       -0.1030547E-01
   maximum displ.:     0.5483781 α      in ANC's #7, #11, #15, ...

........................................................................
.............................. CYCLE   11 ..............................
........................................................................
   1   -132.3371772 -0.132337E+03  0.258E-01    1.24       0.0  T
   2   -132.3371853 -0.808548E-05  0.152E-01    1.24       1.0  T
   3   -132.3369488  0.236533E-03  0.483E-02    1.24       1.0  T
   4   -132.3371923 -0.243553E-03  0.101E-02    1.24       1.1  T
   5   -132.3372020 -0.969139E-05  0.343E-03    1.24       3.3  T
   6   -132.3372024 -0.333302E-06  0.229E-03    1.24       5.0  T
   7   -132.3372027 -0.303677E-06  0.847E-04    1.24      13.5  T
   8   -132.3372027 -0.514284E-07  0.249E-04    1.24      46.0  T
     SCC iter.                  ...        0 min,  0.076 sec
     gradient                   ...        0 min,  0.077 sec
 * total energy  :  -129.9501700 Eh     change       -0.9196297E-02 Eh
   gradient norm :     0.0259505 Eh/α   predicted    -0.8769106E-02 (  -4.65%)
   displ. norm   :     0.8369067 α      lambda       -0.8776275E-02
   maximum displ.:     0.5783951 α      in ANC's #7, #11, #15, ...

........................................................................
.............................. CYCLE   12 ..............................
........................................................................
   1   -132.3363042 -0.132336E+03  0.238E-01    1.25       0.0  T
   2   -132.3363125 -0.836655E-05  0.140E-01    1.25       1.0  T
   3   -132.3361653  0.147246E-03  0.402E-02    1.25       1.0  T
   4   -132.3363142 -0.148939E-03  0.950E-03    1.25       1.2  T
   5   -132.3363230 -0.880667E-05  0.275E-03    1.25       4.2  T
   6   -132.3363230 -0.494200E-08  0.206E-03    1.25       5.6  T
   7   -132.3363234 -0.371896E-06  0.560E-04    1.25      20.5  T
   8   -132.3363234 -0.222330E-07  0.195E-04    1.25      58.7  T
     SCC iter.                  ...        0 min,  0.076 sec
     gradient                   ...        0 min,  0.077 sec
 * total energy  :  -129.9579712 Eh     change       -0.7801226E-02 Eh
   gradient norm :     0.0225351 Eh/α   predicted    -0.7461643E-02 (  -4.35%)
   displ. norm   :     0.8505759 α      lambda       -0.8058567E-02
   maximum displ.:     0.6107138 α      in ANC's #7, #11, #5, ...

........................................................................
.............................. CYCLE   13 ..............................
........................................................................
   1   -132.3479642 -0.132348E+03  0.253E-01    1.26       0.0  T
   2   -132.3479794 -0.152665E-04  0.149E-01    1.26       1.0  T
   3   -132.3478761  0.103359E-03  0.331E-02    1.26       1.0  T
   4   -132.3479823 -0.106233E-03  0.908E-03    1.26       1.3  T
   5   -132.3479896 -0.731405E-05  0.307E-03    1.26       3.7  T
   6   -132.3479899 -0.233934E-06  0.209E-03    1.26       5.5  T
   7   -132.3479901 -0.271534E-06  0.844E-04    1.26      13.6  T
   8   -132.3479902 -0.584919E-07  0.255E-04    1.26      45.0  T
     SCC iter.                  ...        0 min,  0.076 sec
     gradient                   ...        0 min,  0.077 sec
 * total energy  :  -129.9645503 Eh     change       -0.6579078E-02 Eh
   gradient norm :     0.0473271 Eh/α   predicted    -0.6944387E-02 (   5.55%)
   displ. norm   :     0.8052858 α      lambda       -0.7130739E-02
   maximum displ.:     0.6033555 α      in ANC's #7, #11, #5, ...

........................................................................
.............................. CYCLE   14 ..............................
........................................................................
   1   -132.3415736 -0.132342E+03  0.204E-01    1.25       0.0  T
   2   -132.3415837 -0.100476E-04  0.119E-01    1.25       1.0  T
   3   -132.3414989  0.848109E-04  0.308E-02    1.25       1.0  T
   4   -132.3415848 -0.859357E-04  0.881E-03    1.25       1.3  T
   5   -132.3415918 -0.697648E-05  0.233E-03    1.25       4.9  T
   6   -132.3415918 -0.432517E-07  0.167E-03    1.25       6.9  T
   7   -132.3415920 -0.220027E-06  0.740E-04    1.25      15.5  T
   8   -132.3415921 -0.502251E-07  0.200E-04    1.25      57.3  T
     SCC iter.                  ...        0 min,  0.076 sec
     gradient                   ...        0 min,  0.077 sec
 * total energy  :  -129.9707253 Eh     change       -0.6175027E-02 Eh
   gradient norm :     0.0173917 Eh/α   predicted    -0.5877463E-02 (  -4.82%)
   displ. norm   :     0.8213246 α      lambda       -0.5938397E-02
   maximum displ.:     0.6378531 α      in ANC's #7, #5, #11, ...

........................................................................
.............................. CYCLE   15 ..............................
........................................................................
   1   -132.3416500 -0.132342E+03  0.202E-01    1.23       0.0  T
   2   -132.3416596 -0.960718E-05  0.118E-01    1.23       1.0  T
   3   -132.3415089  0.150728E-03  0.334E-02    1.23       1.0  T
   4   -132.3416604 -0.151573E-03  0.932E-03    1.23       1.2  T
   5   -132.3416723 -0.119018E-04  0.218E-03    1.23       5.3  T
   6   -132.3416724 -0.243025E-07  0.156E-03    1.23       7.4  T
   7   -132.3416724 -0.753860E-07  0.828E-04    1.23      13.9  T
   8   -132.3416725 -0.603548E-07  0.239E-04    1.23      48.1  T
     SCC iter.                  ...        0 min,  0.077 sec
     gradient                   ...        0 min,  0.077 sec
 * total energy  :  -129.9760558 Eh     change       -0.5330478E-02 Eh
   gradient norm :     0.0174019 Eh/α   predicted    -0.4972151E-02 (  -6.72%)
   displ. norm   :     0.8421929 α      lambda       -0.5539825E-02
   maximum displ.:     0.6541159 α      in ANC's #7, #5, #11, ...

........................................................................
.............................. CYCLE   16 ..............................
........................................................................
   1   -132.3408110 -0.132341E+03  0.218E-01    1.22       0.0  T
   2   -132.3408228 -0.117229E-04  0.127E-01    1.22       1.0  T
   3   -132.3406718  0.150944E-03  0.386E-02    1.22       1.0  T
   4   -132.3408231 -0.151294E-03  0.100E-02    1.22       1.1  T
   5   -132.3408362 -0.130992E-04  0.243E-03    1.22       4.7  T
   6   -132.3408363 -0.130347E-06  0.162E-03    1.22       7.1  T
   7   -132.3408364 -0.829411E-07  0.944E-04    1.22      12.2  T
   8   -132.3408365 -0.847876E-07  0.240E-04    1.22      47.7  T
     SCC iter.                  ...        0 min,  0.077 sec
     gradient                   ...        0 min,  0.076 sec
 * total energy  :  -129.9808369 Eh     change       -0.4781137E-02 Eh
   gradient norm :     0.0195939 Eh/α   predicted    -0.4734581E-02 (  -0.97%)
   displ. norm   :     0.8329458 α      lambda       -0.4908524E-02
   maximum displ.:     0.6723564 α      in ANC's #7, #5, #11, ...

........................................................................
.............................. CYCLE   17 ..............................
........................................................................
   1   -132.3436194 -0.132344E+03  0.203E-01    1.21       0.0  T
   2   -132.3436254 -0.602647E-05  0.119E-01    1.21       1.0  T
   3   -132.3433400  0.285403E-03  0.446E-02    1.21       1.0  T
   4   -132.3436297 -0.289695E-03  0.110E-02    1.21       1.0  T
   5   -132.3436450 -0.152810E-04  0.225E-03    1.21       5.1  T
   6   -132.3436450 -0.353733E-07  0.159E-03    1.21       7.2  T
   7   -132.3436451 -0.104656E-06  0.923E-04    1.21      12.4  T
   8   -132.3436452 -0.713983E-07  0.254E-04    1.21      45.2  T
     SCC iter.                  ...        0 min,  0.077 sec
     gradient                   ...        0 min,  0.077 sec
 * total energy  :  -129.9850027 Eh     change       -0.4165743E-02 Eh
   gradient norm :     0.0190868 Eh/α   predicted    -0.4157029E-02 (  -0.21%)
   displ. norm   :     0.8409519 α      lambda       -0.4052347E-02
   maximum displ.:     0.6557220 α      in ANC's #7, #5, #11, ...

........................................................................
.............................. CYCLE   18 ..............................
........................................................................
   1   -132.3372534 -0.132337E+03  0.201E-01    1.21       0.0  T
   2   -132.3372623 -0.883210E-05  0.118E-01    1.21       1.0  T
   3   -132.3370788  0.183513E-03  0.367E-02    1.21       1.0  T
   4   -132.3372602 -0.181472E-03  0.105E-02    1.21       1.1  T
   5   -132.3372755 -0.152409E-04  0.233E-03    1.21       4.9  T
   6   -132.3372756 -0.158697E-06  0.157E-03    1.21       7.3  T
   7   -132.3372757 -0.571997E-07  0.958E-04    1.21      12.0  T
   8   -132.3372758 -0.734342E-07  0.246E-04    1.21      46.6  T
     SCC iter.                  ...        0 min,  0.077 sec
     gradient                   ...        0 min,  0.076 sec
 * total energy  :  -129.9883598 Eh     change       -0.3357096E-02 Eh
   gradient norm :     0.0201823 Eh/α   predicted    -0.3459088E-02 (   3.04%)
   displ. norm   :     0.8047228 α      lambda       -0.3607840E-02
   maximum displ.:     0.6535285 α      in ANC's #7, #5, #52, ...

........................................................................
.............................. CYCLE   19 ..............................
........................................................................
   1   -132.3428223 -0.132343E+03  0.175E-01    1.21       0.0  T
   2   -132.3428298 -0.743001E-05  0.102E-01    1.21       1.0  T
   3   -132.3426540  0.175742E-03  0.364E-02    1.21       1.0  T
   4   -132.3428320 -0.177946E-03  0.901E-03    1.21       1.3  T
   5   -132.3428433 -0.113464E-04  0.178E-03    1.21       6.4  T
   6   -132.3428433  0.449727E-07  0.130E-03    1.21       8.8  T
   7   -132.3428433 -0.882448E-07  0.594E-04    1.21      19.3  T
   8   -132.3428434 -0.371579E-07  0.162E-04    1.21      71.0  T
     SCC iter.                  ...        0 min,  0.077 sec
     gradient                   ...        0 min,  0.076 sec
 * total energy  :  -129.9912688 Eh     change       -0.2909035E-02 Eh
   gradient norm :     0.0181606 Eh/α   predicted    -0.2972102E-02 (   2.17%)
   displ. norm   :     0.7803310 α      lambda       -0.2941287E-02
   maximum displ.:     0.6049817 α      in ANC's #7, #5, #52, ...

........................................................................
.............................. CYCLE   20 ..............................
........................................................................
   1   -132.3434510 -0.132343E+03  0.165E-01    1.22       0.0  T
   2   -132.3434561 -0.512760E-05  0.966E-02    1.22       1.0  T
   3   -132.3433667  0.894313E-04  0.270E-02    1.22       1.0  T
   4   -132.3434578 -0.911362E-04  0.648E-03    1.22       1.8  T
   5   -132.3434635 -0.566607E-05  0.160E-03    1.22       7.2  T
   6   -132.3434635  0.291926E-07  0.105E-03    1.22      10.9  T
   7   -132.3434635 -0.624142E-07  0.456E-04    1.22      25.1  T
   8   -132.3434636 -0.201085E-07  0.133E-04    1.22      86.5  T
     SCC iter.                  ...        0 min,  0.077 sec
     gradient                   ...        0 min,  0.076 sec
 * total energy  :  -129.9936053 Eh     change       -0.2336468E-02 Eh
   gradient norm :     0.0180201 Eh/α   predicted    -0.2366149E-02 (   1.27%)
   displ. norm   :     0.7632346 α      lambda       -0.2818149E-02
   maximum displ.:     0.5852152 α      in ANC's #7, #5, #52, ...
 * RMSD in coord.:     1.3892083 α      energy gain  -0.1643479E+01 Eh

generating ANC from model Hessian ...
Using Lindh-Hessian (1995)
 Shifting diagonal of input Hessian by    1.0030043106380240E-002
 Lowest  eigenvalues of input Hessian
    0.010000    0.010010    0.010016    0.000000    0.000000    0.000000
    0.000000    0.000000    0.000000    0.010131    0.010244    0.011180
    0.011374    0.011491    0.011860    0.012507    0.012640    0.013153
 Highest eigenvalues
    2.139825    2.143610    2.146529    2.148980    2.387473    2.920052


........................................................................
.............................. CYCLE   21 ..............................
........................................................................
   1   -132.3469329 -0.132347E+03  0.152E-01    1.23       0.0  T
   2   -132.3469411 -0.814876E-05  0.890E-02    1.23       1.0  T
   3   -132.3468897  0.514409E-04  0.252E-02    1.23       1.0  T
   4   -132.3469421 -0.524845E-04  0.636E-03    1.23       1.8  T
   5   -132.3469471 -0.496480E-05  0.192E-03    1.23       6.0  T
   6   -132.3469473 -0.209487E-06  0.109E-03    1.23      10.5  T
   7   -132.3469474 -0.434767E-07  0.524E-04    1.23      21.9  T
   8   -132.3469474 -0.293366E-07  0.175E-04    1.23      65.5  T
     SCC iter.                  ...        0 min,  0.079 sec
     gradient                   ...        0 min,  0.076 sec
 * total energy  :  -129.9956469 Eh     change       -0.2041634E-02 Eh
   gradient norm :     0.0203417 Eh/α   predicted     0.0000000E+00 (-100.00%)
   displ. norm   :     0.2575085 α      lambda       -0.1501819E-02
   maximum displ.:     0.1919244 α      in ANC's #7, #6, #12, ...

........................................................................
.............................. CYCLE   22 ..............................
........................................................................
   1   -132.3497923 -0.132350E+03  0.713E-02    1.23       0.0  T
   2   -132.3497940 -0.162188E-05  0.425E-02    1.23       1.0  T
   3   -132.3497577  0.363038E-04  0.184E-02    1.23       1.0  T
   4   -132.3497936 -0.359089E-04  0.501E-03    1.23       2.3  T
   5   -132.3497967 -0.311124E-05  0.109E-03    1.23      10.6  T
   6   -132.3497967 -0.695282E-07  0.668E-04    1.23      17.2  T
   7   -132.3497968 -0.150139E-07  0.389E-04    1.23      29.5  T
     SCC iter.                  ...        0 min,  0.068 sec
     gradient                   ...        0 min,  0.076 sec
 * total energy  :  -129.9968636 Eh     change       -0.1216716E-02 Eh
   gradient norm :     0.0087145 Eh/α   predicted    -0.8007818E-03 ( -34.18%)
   displ. norm   :     0.5112315 α      lambda       -0.1866151E-02
   maximum displ.:     0.3692234 α      in ANC's #7, #6, #5, ...

........................................................................
.............................. CYCLE   23 ..............................
........................................................................
   1   -132.3528125 -0.132353E+03  0.119E-01    1.22       0.0  T
   2   -132.3528160 -0.343236E-05  0.709E-02    1.22       1.0  T
   3   -132.3527148  0.101138E-03  0.305E-02    1.22       1.0  T
   4   -132.3528161 -0.101302E-03  0.760E-03    1.22       1.5  T
   5   -132.3528232 -0.704239E-05  0.183E-03    1.22       6.3  T
   6   -132.3528234 -0.183294E-06  0.109E-03    1.22      10.5  T
   7   -132.3528234 -0.316665E-07  0.646E-04    1.22      17.8  T
   8   -132.3528234 -0.317251E-07  0.162E-04    1.22      70.6  T
     SCC iter.                  ...        0 min,  0.077 sec
     gradient                   ...        0 min,  0.076 sec
 * total energy  :  -129.9982858 Eh     change       -0.1422161E-02 Eh
   gradient norm :     0.0099268 Eh/α   predicted    -0.1176944E-02 ( -17.24%)
   displ. norm   :     0.5615168 α      lambda       -0.1575688E-02
   maximum displ.:     0.3963136 α      in ANC's #7, #6, #8, ...

........................................................................
.............................. CYCLE   24 ..............................
........................................................................
   1   -132.3532197 -0.132353E+03  0.135E-01    1.22       0.0  T
   2   -132.3532232 -0.348829E-05  0.799E-02    1.22       1.0  T
   3   -132.3531777  0.455335E-04  0.200E-02    1.22       1.0  T
   4   -132.3532219 -0.442561E-04  0.622E-03    1.22       1.8  T
   5   -132.3532268 -0.490702E-05  0.187E-03    1.22       6.1  T
   6   -132.3532270 -0.145120E-06  0.106E-03    1.22      10.8  T
   7   -132.3532270 -0.746755E-08  0.668E-04    1.22      17.2  T
   8   -132.3532270 -0.473700E-07  0.122E-04    1.22      93.7  T
     SCC iter.                  ...        0 min,  0.077 sec
     gradient                   ...        0 min,  0.076 sec
 * total energy  :  -129.9993035 Eh     change       -0.1017717E-02 Eh
   gradient norm :     0.0163095 Eh/α   predicted    -0.1036252E-02 (   1.82%)
   displ. norm   :     0.4805212 α      lambda       -0.1354082E-02
   maximum displ.:     0.3385548 α      in ANC's #7, #6, #5, ...

........................................................................
.............................. CYCLE   25 ..............................
........................................................................
   1   -132.3552483 -0.132355E+03  0.101E-01    1.22       0.0  T
   2   -132.3552498 -0.151718E-05  0.595E-02    1.22       1.0  T
   3   -132.3552399  0.985537E-05  0.944E-03    1.22       1.2  T
   4   -132.3552502 -0.102590E-04  0.269E-03    1.22       4.3  T
   5   -132.3552510 -0.784536E-06  0.123E-03    1.22       9.3  T
   6   -132.3552510 -0.396918E-07  0.673E-04    1.22      17.0  T
   7   -132.3552510 -0.181957E-07  0.339E-04    1.22      33.9  T
     SCC iter.                  ...        0 min,  0.068 sec
     gradient                   ...        0 min,  0.076 sec
 * total energy  :  -130.0004114 Eh     change       -0.1107910E-02 Eh
   gradient norm :     0.0135630 Eh/α   predicted    -0.8333714E-03 ( -24.78%)
   displ. norm   :     0.5213827 α      lambda       -0.1244348E-02
   maximum displ.:     0.3732662 α      in ANC's #7, #6, #5, ...

........................................................................
.............................. CYCLE   26 ..............................
........................................................................
   1   -132.3598621 -0.132360E+03  0.969E-02    1.22       0.0  T
   2   -132.3598643 -0.217842E-05  0.567E-02    1.22       1.0  T
   3   -132.3598496  0.146393E-04  0.132E-02    1.22       1.0  T
   4   -132.3598654 -0.157241E-04  0.264E-03    1.22       4.4  T
   5   -132.3598661 -0.715461E-06  0.993E-04    1.22      11.5  T
   6   -132.3598661 -0.285370E-07  0.588E-04    1.22      19.5  T
     SCC iter.                  ...        0 min,  0.058 sec
     gradient                   ...        0 min,  0.076 sec
 * total energy  :  -130.0014710 Eh     change       -0.1059587E-02 Eh
   gradient norm :     0.0073693 Eh/α   predicted    -0.7913063E-03 ( -25.32%)
   displ. norm   :     0.5838453 α      lambda       -0.1127364E-02
   maximum displ.:     0.4169377 α      in ANC's #7, #6, #5, ...

........................................................................
.............................. CYCLE   27 ..............................
........................................................................
   1   -132.3626613 -0.132363E+03  0.106E-01    1.22       0.0  T
   2   -132.3626639 -0.262522E-05  0.618E-02    1.22       1.0  T
   3   -132.3626379  0.260063E-04  0.159E-02    1.22       1.0  T
   4   -132.3626643 -0.264149E-04  0.389E-03    1.22       2.9  T
   5   -132.3626665 -0.222162E-05  0.936E-04    1.22      12.3  T
   6   -132.3626666 -0.366109E-07  0.548E-04    1.22      20.9  T
   7   -132.3626666 -0.630925E-08  0.222E-04    1.22      51.8  T
     SCC iter.                  ...        0 min,  0.069 sec
     gradient                   ...        0 min,  0.076 sec
 * total energy  :  -130.0024498 Eh     change       -0.9788066E-03 Eh
   gradient norm :     0.0065545 Eh/α   predicted    -0.7558280E-03 ( -22.78%)
   displ. norm   :     0.6057767 α      lambda       -0.9817950E-03
   maximum displ.:     0.4305076 α      in ANC's #7, #6, #5, ...

........................................................................
.............................. CYCLE   28 ..............................
........................................................................
   1   -132.3629183 -0.132363E+03  0.108E-01    1.22       0.0  T
   2   -132.3629207 -0.237076E-05  0.631E-02    1.22       1.0  T
   3   -132.3629033  0.173381E-04  0.130E-02    1.22       1.0  T
   4   -132.3629213 -0.179440E-04  0.321E-03    1.22       3.6  T
   5   -132.3629227 -0.143902E-05  0.901E-04    1.22      12.7  T
   6   -132.3629227 -0.170296E-07  0.567E-04    1.22      20.2  T
   7   -132.3629227 -0.841004E-08  0.281E-04    1.22      40.8  T
     SCC iter.                  ...        0 min,  0.068 sec
     gradient                   ...        0 min,  0.076 sec
 * total energy  :  -130.0033142 Eh     change       -0.8643945E-03 Eh
   gradient norm :     0.0078291 Eh/α   predicted    -0.6710405E-03 ( -22.37%)
   displ. norm   :     0.6187914 α      lambda       -0.8758032E-03
   maximum displ.:     0.4394589 α      in ANC's #7, #6, #5, ...

........................................................................
.............................. CYCLE   29 ..............................
........................................................................
   1   -132.3623276 -0.132362E+03  0.108E-01    1.22       0.0  T
   2   -132.3623295 -0.191392E-05  0.632E-02    1.22       1.0  T
   3   -132.3623198  0.971683E-05  0.952E-03    1.22       1.2  T
   4   -132.3623302 -0.104373E-04  0.248E-03    1.22       4.6  T
   5   -132.3623309 -0.716135E-06  0.897E-04    1.22      12.8  T
   6   -132.3623309  0.473281E-08  0.606E-04    1.22      18.9  T
     SCC iter.                  ...        0 min,  0.058 sec
     gradient                   ...        0 min,  0.076 sec
 * total energy  :  -130.0040795 Eh     change       -0.7653544E-03 Eh
   gradient norm :     0.0071578 Eh/α   predicted    -0.6055762E-03 ( -20.88%)
   displ. norm   :     0.6410535 α      lambda       -0.7726116E-03
   maximum displ.:     0.4568650 α      in ANC's #7, #6, #5, ...

........................................................................
.............................. CYCLE   30 ..............................
........................................................................
   1   -132.3616970 -0.132362E+03  0.111E-01    1.22       0.0  T
   2   -132.3616986 -0.168057E-05  0.647E-02    1.22       1.0  T
   3   -132.3616932  0.540487E-05  0.729E-03    1.22       1.6  T
   4   -132.3616993 -0.601946E-05  0.227E-03    1.22       5.0  T
   5   -132.3616997 -0.466343E-06  0.958E-04    1.22      12.0  T
   6   -132.3616997  0.509777E-08  0.632E-04    1.22      18.1  T
     SCC iter.                  ...        0 min,  0.058 sec
     gradient                   ...        0 min,  0.076 sec
 * total energy  :  -130.0047387 Eh     change       -0.6592076E-03 Eh
   gradient norm :     0.0057436 Eh/α   predicted    -0.5450614E-03 ( -17.32%)
   displ. norm   :     0.6489153 α      lambda       -0.6282764E-03
   maximum displ.:     0.4657109 α      in ANC's #7, #6, #5, ...

........................................................................
.............................. CYCLE   31 ..............................
........................................................................
   1   -132.3612373 -0.132361E+03  0.111E-01    1.22       0.0  T
   2   -132.3612389 -0.163044E-05  0.653E-02    1.22       1.0  T
   3   -132.3612358  0.311861E-05  0.597E-03    1.22       1.9  T
   4   -132.3612396 -0.377621E-05  0.184E-03    1.22       6.2  T
   5   -132.3612398 -0.258338E-06  0.103E-03    1.22      11.1  T
   6   -132.3612399 -0.359380E-07  0.545E-04    1.22      21.1  T
   7   -132.3612399 -0.170097E-07  0.232E-04    1.22      49.5  T
     SCC iter.                  ...        0 min,  0.067 sec
     gradient                   ...        0 min,  0.076 sec
 * total energy  :  -130.0052549 Eh     change       -0.5161860E-03 Eh
   gradient norm :     0.0047847 Eh/α   predicted    -0.4464211E-03 ( -13.52%)
   displ. norm   :     0.6259450 α      lambda       -0.4507166E-03
   maximum displ.:     0.4529223 α      in ANC's #7, #6, #5, ...

........................................................................
.............................. CYCLE   32 ..............................
........................................................................
   1   -132.3612571 -0.132361E+03  0.107E-01    1.22       0.0  T
   2   -132.3612586 -0.153427E-05  0.626E-02    1.22       1.0  T
   3   -132.3612550  0.363179E-05  0.631E-03    1.22       1.8  T
   4   -132.3612593 -0.433236E-05  0.168E-03    1.22       6.8  T
   5   -132.3612595 -0.225802E-06  0.917E-04    1.22      12.5  T
   6   -132.3612596 -0.325791E-07  0.428E-04    1.22      26.8  T
     SCC iter.                  ...        0 min,  0.057 sec
     gradient                   ...        0 min,  0.076 sec
 * total energy  :  -130.0056047 Eh     change       -0.3497599E-03 Eh
   gradient norm :     0.0040320 Eh/α   predicted    -0.3136560E-03 ( -10.32%)
   displ. norm   :     0.5287151 α      lambda       -0.2590686E-03
   maximum displ.:     0.3854718 α      in ANC's #7, #6, #5, ...

........................................................................
.............................. CYCLE   33 ..............................
........................................................................
   1   -132.3621870 -0.132362E+03  0.890E-02    1.22       0.0  T
   2   -132.3621881 -0.109238E-05  0.522E-02    1.22       1.0  T
   3   -132.3621847  0.338528E-05  0.597E-03    1.22       1.9  T
   4   -132.3621886 -0.388403E-05  0.157E-03    1.22       7.3  T
   5   -132.3621888 -0.214823E-06  0.779E-04    1.22      14.7  T
   6   -132.3621888 -0.189714E-07  0.363E-04    1.22      31.6  T
     SCC iter.                  ...        0 min,  0.057 sec
     gradient                   ...        0 min,  0.076 sec
 * total energy  :  -130.0057938 Eh     change       -0.1891370E-03 Eh
   gradient norm :     0.0030949 Eh/α   predicted    -0.1657458E-03 ( -12.37%)
   displ. norm   :     0.3776490 α      lambda       -0.1215262E-03
   maximum displ.:     0.2770531 α      in ANC's #7, #6, #5, ...

........................................................................
.............................. CYCLE   34 ..............................
........................................................................
   1   -132.3639273 -0.132364E+03  0.626E-02    1.22       0.0  T
   2   -132.3639279 -0.564526E-06  0.367E-02    1.22       1.0  T
   3   -132.3639259  0.193868E-05  0.446E-03    1.22       2.6  T
   4   -132.3639281 -0.215137E-05  0.129E-03    1.22       8.9  T
   5   -132.3639282 -0.157860E-06  0.595E-04    1.22      19.3  T
   6   -132.3639282 -0.972446E-08  0.308E-04    1.22      37.3  T
     SCC iter.                  ...        0 min,  0.058 sec
     gradient                   ...        0 min,  0.076 sec
 * total energy  :  -130.0058797 Eh     change       -0.8591008E-04 Eh
   gradient norm :     0.0023622 Eh/α   predicted    -0.6943194E-04 ( -19.18%)
   displ. norm   :     0.2500222 α      lambda       -0.5973541E-04
   maximum displ.:     0.1833978 α      in ANC's #7, #5, #6, ...

........................................................................
.............................. CYCLE   35 ..............................
........................................................................
   1   -132.3655309 -0.132366E+03  0.415E-02    1.22       0.0  T
   2   -132.3655312 -0.254064E-06  0.244E-02    1.22       1.0  T
   3   -132.3655306  0.577629E-06  0.261E-03    1.22       4.4  T
   4   -132.3655313 -0.679498E-06  0.751E-04    1.22      15.3  T
   5   -132.3655313 -0.434650E-07  0.410E-04    1.22      28.0  T
     SCC iter.                  ...        0 min,  0.048 sec
     gradient                   ...        0 min,  0.076 sec
 * total energy  :  -130.0059225 Eh     change       -0.4276942E-04 Eh
   gradient norm :     0.0020135 Eh/α   predicted    -0.3173565E-04 ( -25.80%)
   displ. norm   :     0.1583188 α      lambda       -0.4018354E-04
   maximum displ.:     0.1098576 α      in ANC's #7, #5, #9, ...

........................................................................
.............................. CYCLE   36 ..............................
........................................................................
   1   -132.3672474 -0.132367E+03  0.282E-02    1.22       0.0  T
   2   -132.3672475 -0.105067E-06  0.166E-02    1.22       1.0  T
   3   -132.3672468  0.772243E-06  0.286E-03    1.22       4.0  T
   4   -132.3672476 -0.824155E-06  0.674E-04    1.22      17.0  T
   5   -132.3672476 -0.383692E-07  0.275E-04    1.22      41.7  T
     SCC iter.                  ...        0 min,  0.048 sec
     gradient                   ...        0 min,  0.076 sec
 * total energy  :  -130.0059521 Eh     change       -0.2963877E-04 Eh
   gradient norm :     0.0017905 Eh/α   predicted    -0.2060013E-04 ( -30.50%)
   displ. norm   :     0.2134398 α      lambda       -0.3552199E-04
   maximum displ.:     0.1297837 α      in ANC's #7, #5, #4, ...

........................................................................
.............................. CYCLE   37 ..............................
........................................................................
   1   -132.3676790 -0.132368E+03  0.412E-02    1.22       0.0  T
   2   -132.3676792 -0.207313E-06  0.243E-02    1.22       1.0  T
   3   -132.3676762  0.295459E-05  0.548E-03    1.22       2.1  T
   4   -132.3676793 -0.307408E-05  0.116E-03    1.22       9.9  T
   5   -132.3676794 -0.133126E-06  0.377E-04    1.22      30.4  T
   6   -132.3676794  0.531827E-09  0.274E-04    1.22      41.9  T
     SCC iter.                  ...        0 min,  0.057 sec
     gradient                   ...        0 min,  0.076 sec
 * total energy  :  -130.0059819 Eh     change       -0.2978411E-04 Eh
   gradient norm :     0.0017837 Eh/α   predicted    -0.1812149E-04 ( -39.16%)
   displ. norm   :     0.0920803 α      lambda       -0.1929769E-04
   maximum displ.:     0.0485094 α      in ANC's #6, #8, #4, ...

........................................................................
.............................. CYCLE   38 ..............................
........................................................................
   1   -132.3683891 -0.132368E+03  0.193E-02    1.22       0.0  T
   2   -132.3683892 -0.636491E-07  0.113E-02    1.22       1.0  T
   3   -132.3683888  0.333820E-06  0.196E-03    1.22       5.8  T
   4   -132.3683892 -0.348933E-06  0.556E-04    1.22      20.6  T
   5   -132.3683892 -0.286495E-07  0.210E-04    1.22      54.7  T
     SCC iter.                  ...        0 min,  0.048 sec
     gradient                   ...        0 min,  0.076 sec
 * total energy  :  -130.0060021 Eh     change       -0.2021386E-04 Eh
   gradient norm :     0.0020628 Eh/α   predicted    -0.9686410E-05 ( -52.08%)
   displ. norm   :     0.1039547 α      lambda       -0.3140106E-04
   maximum displ.:     0.0597966 α      in ANC's #6, #4, #8, ...

........................................................................
.............................. CYCLE   39 ..............................
........................................................................
   1   -132.3677120 -0.132368E+03  0.193E-02    1.22       0.0  T
   2   -132.3677120 -0.417761E-07  0.113E-02    1.22       1.0  T
   3   -132.3677111  0.901135E-06  0.288E-03    1.22       4.0  T
   4   -132.3677120 -0.926678E-06  0.625E-04    1.22      18.3  T
   5   -132.3677121 -0.356773E-07  0.198E-04    1.22      58.0  T
     SCC iter.                  ...        0 min,  0.048 sec
     gradient                   ...        0 min,  0.076 sec
 * total energy  :  -130.0060283 Eh     change       -0.2613865E-04 Eh
   gradient norm :     0.0017175 Eh/α   predicted    -0.1587443E-04 ( -39.27%)
   displ. norm   :     0.2966083 α      lambda       -0.4730752E-04
   maximum displ.:     0.1700596 α      in ANC's #6, #4, #8, ...

........................................................................
.............................. CYCLE   40 ..............................
........................................................................
   1   -132.3666433 -0.132367E+03  0.532E-02    1.22       0.0  T
   2   -132.3666437 -0.429066E-06  0.313E-02    1.22       1.0  T
   3   -132.3666425  0.118940E-05  0.384E-03    1.22       3.0  T
   4   -132.3666438 -0.130803E-05  0.121E-03    1.22       9.5  T
   5   -132.3666440 -0.125783E-06  0.558E-04    1.22      20.6  T
   6   -132.3666440 -0.101191E-07  0.310E-04    1.22      37.0  T
     SCC iter.                  ...        0 min,  0.059 sec
     gradient                   ...        0 min,  0.076 sec
 * total energy  :  -130.0060675 Eh     change       -0.3922770E-04 Eh
   gradient norm :     0.0027241 Eh/α   predicted    -0.2458268E-04 ( -37.33%)
   displ. norm   :     0.0830515 α      lambda       -0.1824225E-04
   maximum displ.:     0.0442686 α      in ANC's #4, #6, #2, ...

........................................................................
.............................. CYCLE   41 ..............................
........................................................................
   1   -132.3668008 -0.132367E+03  0.155E-02    1.22       0.0  T
   2   -132.3668008 -0.538487E-07  0.910E-03    1.22       1.3  T
   3   -132.3668006  0.186618E-06  0.151E-03    1.22       7.6  T
   4   -132.3668008 -0.194399E-06  0.449E-04    1.22      25.6  T
   5   -132.3668008 -0.204777E-07  0.185E-04    1.22      61.9  T
     SCC iter.                  ...        0 min,  0.048 sec
     gradient                   ...        0 min,  0.076 sec
 * total energy  :  -130.0060811 Eh     change       -0.1362649E-04 Eh
   gradient norm :     0.0021557 Eh/α   predicted    -0.9185259E-05 ( -32.59%)
   displ. norm   :     0.1234363 α      lambda       -0.2549877E-04
   maximum displ.:     0.0664686 α      in ANC's #4, #6, #2, ...

........................................................................
.............................. CYCLE   42 ..............................
........................................................................
   1   -132.3672997 -0.132367E+03  0.219E-02    1.22       0.0  T
   2   -132.3672998 -0.860685E-07  0.128E-02    1.22       1.0  T
   3   -132.3672985  0.129171E-05  0.348E-03    1.22       3.3  T
   4   -132.3672998 -0.129013E-05  0.978E-04    1.22      11.7  T
   5   -132.3672999 -0.997907E-07  0.244E-04    1.22      47.0  T
   6   -132.3672999 -0.136683E-08  0.158E-04    1.22      72.7  T
     SCC iter.                  ...        0 min,  0.057 sec
     gradient                   ...        0 min,  0.076 sec
 * total energy  :  -130.0061002 Eh     change       -0.1907265E-04 Eh
   gradient norm :     0.0013909 Eh/α   predicted    -0.1294699E-04 ( -32.12%)
   displ. norm   :     0.2015092 α      lambda       -0.1816564E-04
   maximum displ.:     0.1111196 α      in ANC's #4, #2, #6, ...
 * RMSD in coord.:     0.8299099 α      energy gain  -0.1249495E-01 Eh

generating ANC from model Hessian ...
Using Lindh-Hessian (1995)
 Shifting diagonal of input Hessian by    1.0032349404093184E-002
 Lowest  eigenvalues of input Hessian
    0.010000    0.010010    0.010022    0.000000    0.000000    0.000000
    0.000000    0.000000    0.000000    0.010171    0.010287    0.011056
    0.011060    0.011458    0.012032    0.012119    0.012764    0.012833
 Highest eigenvalues
    2.148797    2.148961    2.152613    2.153845    2.397758    2.926374


........................................................................
.............................. CYCLE   43 ..............................
........................................................................
   1   -132.3666438 -0.132367E+03  0.346E-02    1.22       0.0  T
   2   -132.3666440 -0.150722E-06  0.203E-02    1.22       1.0  T
   3   -132.3666420  0.200582E-05  0.429E-03    1.22       2.7  T
   4   -132.3666440 -0.205767E-05  0.108E-03    1.22      10.6  T
   5   -132.3666442 -0.117580E-06  0.353E-04    1.22      32.5  T
   6   -132.3666442 -0.305846E-09  0.244E-04    1.22      47.1  T
     SCC iter.                  ...        0 min,  0.057 sec
     gradient                   ...        0 min,  0.076 sec
 * total energy  :  -130.0061142 Eh     change       -0.1395242E-04 Eh
   gradient norm :     0.0019057 Eh/α   predicted     0.0000000E+00 (-100.00%)
   displ. norm   :     0.0257743 α      lambda       -0.6152841E-05
   maximum displ.:     0.0136604 α      in ANC's #8, #14, #5, ...

........................................................................
.............................. CYCLE   44 ..............................
........................................................................
   1   -132.3663756 -0.132366E+03  0.139E-02    1.22       0.0  T
   2   -132.3663757 -0.616273E-07  0.824E-03    1.22       1.4  T
   3   -132.3663753  0.372462E-06  0.202E-03    1.22       5.7  T
   4   -132.3663757 -0.371441E-06  0.617E-04    1.22      18.6  T
   5   -132.3663757 -0.411550E-07  0.182E-04    1.22      62.9  T
     SCC iter.                  ...        0 min,  0.048 sec
     gradient                   ...        0 min,  0.076 sec
 * total energy  :  -130.0061223 Eh     change       -0.8145572E-05 Eh
   gradient norm :     0.0007170 Eh/α   predicted    -0.4576046E-05 ( -43.82%)
   displ. norm   :     0.0379219 α      lambda       -0.6476260E-05
   maximum displ.:     0.0228087 α      in ANC's #8, #5, #3, ...

........................................................................
.............................. CYCLE   45 ..............................
........................................................................
   1   -132.3662549 -0.132366E+03  0.141E-02    1.22       0.0  T
   2   -132.3662549 -0.556818E-07  0.835E-03    1.22       1.4  T
   3   -132.3662545  0.400991E-06  0.197E-03    1.22       5.8  T
   4   -132.3662549 -0.405597E-06  0.554E-04    1.22      20.7  T
   5   -132.3662549 -0.374329E-07  0.213E-04    1.22      54.0  T
     SCC iter.                  ...        0 min,  0.049 sec
     gradient                   ...        0 min,  0.076 sec
 * total energy  :  -130.0061225 Eh     change       -0.2088273E-06 Eh
   gradient norm :     0.0012258 Eh/α   predicted    -0.3267512E-05 (1464.70%)
   displ. norm   :     0.0329152 α      lambda       -0.8634451E-05
   maximum displ.:     0.0146202 α      in ANC's #3, #8, #5, ...

........................................................................
.............................. CYCLE   46 ..............................
........................................................................
   1   -132.3663901 -0.132366E+03  0.129E-02    1.22       0.0  T
   2   -132.3663901 -0.149516E-07  0.762E-03    1.22       1.5  T
   3   -132.3663899  0.186387E-06  0.127E-03    1.22       9.1  T
   4   -132.3663901 -0.195145E-06  0.314E-04    1.22      36.5  T
   5   -132.3663901 -0.891004E-08  0.136E-04    1.22      84.2  T
     SCC iter.                  ...        0 min,  0.049 sec
     gradient                   ...        0 min,  0.076 sec
 * total energy  :  -130.0061296 Eh     change       -0.7082405E-05 Eh
   gradient norm :     0.0010549 Eh/α   predicted    -0.4319662E-05 ( -39.01%)
   displ. norm   :     0.0271075 α      lambda       -0.3610164E-05
   maximum displ.:     0.0139276 α      in ANC's #3, #8, #5, ...

........................................................................
.............................. CYCLE   47 ..............................
........................................................................
   1   -132.3665239 -0.132367E+03  0.681E-03    1.22       0.0  T
   2   -132.3665239 -0.151576E-07  0.401E-03    1.22       2.9  T
   3   -132.3665239  0.557754E-07  0.826E-04    1.22      13.9  T
   4   -132.3665239 -0.571970E-07  0.240E-04    1.22      47.8  T
     SCC iter.                  ...        0 min,  0.039 sec
     gradient                   ...        0 min,  0.076 sec
 * total energy  :  -130.0061333 Eh     change       -0.3735043E-05 Eh
   gradient norm :     0.0005893 Eh/α   predicted    -0.1806749E-05 ( -51.63%)
   displ. norm   :     0.0600332 α      lambda       -0.4466908E-05
   maximum displ.:     0.0311214 α      in ANC's #8, #3, #5, ...

   *** GEOMETRY OPTIMIZATION CONVERGED AFTER 47 ITERATIONS ***

------------------------------------------------------------------------
 total energy gain   :        -1.6560070 Eh    -1039.1601 kcal/mol
 total RMSD          :         1.9868346 a0        1.0514 Å
 total power (kW/mol):       -92.5073593 (step) -543.1486 (real)
------------------------------------------------------------------------

 ANCopt (total)                0 d,  0 h,  0 min,  8.005 sec
 optimizer setup                ...        0 min,  0.000 sec (  0.001%)
 model hessian                  ...        0 min,  0.040 sec (  0.500%)
 ANC generation                 ...        0 min,  0.016 sec (  0.203%)
 coordinate transformation      ...        0 min,  0.002 sec (  0.029%)
 single point calculation       ...        0 min,  7.923 sec ( 98.983%)
 optimization log               ...        0 min,  0.008 sec (  0.103%)
 hessian update                 ...        0 min,  0.002 sec (  0.024%)
 rational function              ...        0 min,  0.009 sec (  0.115%)

================
 final structure:
================
76
 xtb: 6.4.1 (bd6e46d)
Zn        7.93021435721452   -0.05760019280321    0.04853106275989
C        10.42586083340412   -3.51951034086265    0.11669203507955
C        11.38872058553587   -2.56673348785169    0.14968941524831
C        10.71316241701611   -1.30066781192924    0.13477926217531
C        11.36438145502250   -0.05678110219960    0.16088133084387
C        10.71168200797445    1.18678824831614    0.14982343842562
C        11.38615806033318    2.45317830308300    0.18106306919038
C        10.42261141053122    3.40548712437845    0.15577000800114
C         9.16309497924232    2.71859404481133    0.10863815513768
N         9.37082973462583    1.37170921864589    0.10722942634735
C         7.92925253627791    3.34611558219741    0.06697680856227
C         6.69663295200684    2.71694563692163    0.01565901004969
C         5.43140475404926    3.39849466545346   -0.03128585738799
C         4.47514723543734    2.44181283489905   -0.07416895144315
C         5.15536836269961    1.17476405686372   -0.05271187864399
N         6.49836988867591    1.37272270027744    0.00106024594898
C         4.52419709811675   -0.05814869263451   -0.08025775157327
C         5.15610267360930   -1.29083875220028   -0.05720907168205
C         4.47661451262108   -2.55814095257770   -0.08300378008544
C         5.43363024131579   -3.51441225646745   -0.04788887240791
C         6.69859925353606   -2.83239822707701   -0.00172888990034
N         6.49933092285166   -1.48814407252961   -0.00755957445647
C         7.93190861416982   -3.46107352531984    0.03924055374102
C         9.16560962471093   -2.83320415203055    0.08096329976584
N         9.37228281681620   -1.48625709311482    0.09324400461574
H        10.54326674304736   -4.58601820120741    0.11540382615287
H        12.45386387513013   -2.69131473756488    0.18109996488318
H        12.45110708778921    2.57841899044824    0.21700594858267
H        10.53930937265552    4.47205291191784    0.16676913970412
H         7.92983645057395    4.42731816957532    0.07329237730545
H         5.31076926595767    4.46489119470754   -0.03082509618676
H         3.40966092259071    2.56303929850167   -0.11628663033457
H         3.44397173453218   -0.05828451468758   -0.12231963053531
H         3.41105851089984   -2.67966260659418   -0.12231312127652
H         5.31339446379592   -4.58084047706320   -0.05260680006875
H         7.93286094775052   -4.54230187986855    0.03679603715136
C        12.76271844926505   -0.05415587787781    0.19322365951159
C        13.98057107303854   -0.04365329622838    0.21404832394223
C        15.32271602962171   -0.03317676981715    0.21814614949107
C        16.54065419005042   -0.01525276161362    0.20963378544919
Zn       21.36660789715779    0.05998389555842   -0.05310236273186
C        18.82628412078191    3.48241454481655    0.17028509102270
C        17.87838137923121    2.51505575742548    0.21045579989254
C        18.57091519072680    1.25972061914203    0.14498625322084
C        17.93848218142726    0.00598531864788    0.16635898149178
C        18.60965753703062   -1.22730759003226    0.13678990172693
C        17.95636551075402   -2.50376432158803    0.19347077170228
C        18.93369228073021   -3.44109598617481    0.14461199092962
C        20.18000155300015   -2.73495723506027    0.05335191474740
N        19.95138202142985   -1.39147230141792    0.05476166129861
C        21.42107087635296   -3.34305947452110   -0.03675015127302
C        22.63958556855694   -2.69467314172332   -0.14855601451242
C        23.91119548039569   -3.35641120921216   -0.26245093405055
C        24.84852394832802   -2.38496433192121   -0.35805620638321
C        24.15078566283309   -1.12866690625264   -0.29940325636132
N        22.81589813649521   -1.34746233697169   -0.17402267648255
C        24.76077202512868    0.11396472170076   -0.35544819802392
C        24.11293268340087    1.33655369255428   -0.28610077487934
C        24.77165589241405    2.61428493449656   -0.33090475451917
C        23.80456878184280    3.55530366019769   -0.22711128459935
C        22.55393884653729    2.85357559053556   -0.12234668825435
N        22.77169840116061    1.51278054591775   -0.16030515196237
C        21.31563645264594    3.46298638983752   -0.00748702485207
C        20.09399924535934    2.81586586499953    0.07520311853851
N        19.90701753798337    1.46600148226523    0.06567675673948
H        18.69410761102466    4.54681476112977    0.19951916264258
H        16.81315956797967    2.62257586319611    0.27962561512960
H        16.89512292889128   -2.64512127085551    0.26337940306349
H        18.83415972303791   -4.50924213569318    0.16526902572340
H        21.43809066284931   -4.42410830797012   -0.02717918788998
H        24.04789506136524   -4.42082842644101   -0.26817312857870
H        25.91189299246458   -2.48943769740884   -0.45809976418169
H        25.83692467701076    0.13087838605229   -0.45683170523680
H        25.83147697233992    2.75238723319668   -0.42794655202409
H        23.90881726349209    4.62339480163179   -0.22206264060693
H        21.29917688334890    4.54388941098471    0.01162657745504

 Bond Distances (Angstroems)
 ---------------------------
Zn1-N10=2.0302       Zn1-N16=2.0244       Zn1-N22=2.0241       Zn1-N25=2.0304       C2-C3=1.3550         C2-C24=1.4355        
C2-H26=1.0730        C3-C2=1.3550         C3-C4=1.4351         C3-H27=1.0729        C4-C3=1.4351         C4-C5=1.4043         
C4-N25=1.3543        C5-C4=1.4043         C5-C6=1.4045         C5-C37=1.3987        C6-C5=1.4045         C6-C7=1.4351         
C6-N10=1.3542        C7-C6=1.4351         C7-C8=1.3550         C7-H28=1.0729        C8-C7=1.3550         C8-C9=1.4354         
C8-H29=1.0730        C9-C8=1.4354         C9-N10=1.3628        C9-C11=1.3849        N10-Zn1=2.0302       N10-C6=1.3542        
N10-C9=1.3628        C11-C9=1.3849        C11-C12=1.3849       C11-H30=1.0812       C12-C11=1.3849       C12-C13=1.4379       
C12-N16=1.3588       C13-C12=1.4379       C13-C14=1.3533       C13-H31=1.0732       C14-C13=1.3533       C14-C15=1.4383       
C14-H32=1.0732       C15-C14=1.4383       C15-N16=1.3586       C15-C17=1.3854       N16-Zn1=2.0244       N16-C12=1.3588       
N16-C15=1.3586       C17-C15=1.3854       C17-C18=1.3854       C17-H33=1.0810       C18-C17=1.3854       C18-C19=1.4382       
C18-N22=1.3585       C19-C18=1.4382       C19-C20=1.3534       C19-H34=1.0732       C20-C19=1.3534       C20-C21=1.4379       
C20-H35=1.0732       C21-C20=1.4379       C21-N22=1.3590       C21-C23=1.3849       N22-Zn1=2.0241       N22-C18=1.3585       
N22-C21=1.3590       C23-C21=1.3849       C23-C24=1.3849       C23-H36=1.0812       C24-C2=1.4355        C24-C23=1.3849       
C24-N25=1.3628       N25-Zn1=2.0304       N25-C4=1.3543        N25-C24=1.3628       H26-C2=1.0730        H27-C3=1.0729        
H28-C7=1.0729        H29-C8=1.0730        H30-C11=1.0812       H31-C13=1.0732       H32-C14=1.0732       H33-C17=1.0810       
H34-C19=1.0732       H35-C20=1.0732       H36-C23=1.0812       C37-C5=1.3987        C37-C38=1.2181       C38-C37=1.2181       
C38-C39=1.3422       C39-C38=1.3422       C39-C40=1.2181       C40-C39=1.2181       C40-C45=1.3987       Zn41-N50=2.0301      
Zn41-N56=2.0238      Zn41-N62=2.0240      Zn41-N65=2.0301      C42-C43=1.3550       C42-C64=1.4354       C42-H66=1.0730       
C43-C42=1.3550       C43-C44=1.4352       C43-H67=1.0729       C44-C43=1.4352       C44-C45=1.4044       C44-N65=1.3543       
C45-C40=1.3987       C45-C44=1.4044       C45-C46=1.4044       C46-C45=1.4044       C46-C47=1.4350       C46-N50=1.3542       
C47-C46=1.4350       C47-C48=1.3550       C47-H68=1.0729       C48-C47=1.3550       C48-C49=1.4354       C48-H69=1.0730       
C49-C48=1.4354       C49-N50=1.3628       C49-C51=1.3850       N50-Zn41=2.0301      N50-C46=1.3542       N50-C49=1.3628       
C51-C49=1.3850       C51-C52=1.3848       C51-H70=1.0812       C52-C51=1.3848       C52-C53=1.4380       C52-N56=1.3589       
C53-C52=1.4380       C53-C54=1.3533       C53-H71=1.0732       C54-C53=1.3533       C54-C55=1.4382       C54-H72=1.0732       
C55-C54=1.4382       C55-N56=1.3585       C55-C57=1.3854       N56-Zn41=2.0238      N56-C52=1.3589       N56-C55=1.3585       
C57-C55=1.3854       C57-C58=1.3854       C57-H73=1.0811       C58-C57=1.3854       C58-C59=1.4382       C58-N62=1.3586       
C59-C58=1.4382       C59-C60=1.3533       C59-H74=1.0732       C60-C59=1.3533       C60-C61=1.4379       C60-H75=1.0732       
C61-C60=1.4379       C61-N62=1.3589       C61-C63=1.3849       N62-Zn41=2.0240      N62-C58=1.3586       N62-C61=1.3589       
C63-C61=1.3849       C63-C64=1.3849       C63-H76=1.0812       C64-C42=1.4354       C64-C63=1.3849       C64-N65=1.3628       
N65-Zn41=2.0301      N65-C44=1.3543       N65-C64=1.3628       H66-C42=1.0730       H67-C43=1.0729       H68-C47=1.0729       
H69-C48=1.0730       H70-C51=1.0812       H71-C53=1.0732       H72-C54=1.0732       H73-C57=1.0811       H74-C59=1.0732       
H75-C60=1.0732       H76-C63=1.0812       
 C  H  Rav=1.0753 sigma=0.0036  Rmin=1.0729  Rmax=1.0812    22
 C  C  Rav=1.3919 sigma=0.0489  Rmin=1.2181  Rmax=1.4383    45
 N  C  Rav=1.3586 sigma=0.0030  Rmin=1.3542  Rmax=1.3628    16
 Zn N  Rav=2.0271 sigma=0.0031  Rmin=2.0238  Rmax=2.0304     8

 selected bond angles (degree)
 --------------------
N16-Zn1-N10= 90.29             N22-Zn1-N10=179.77             N22-Zn1-N16= 89.93             N25-Zn1-N10= 89.47             
N25-Zn1-N16=179.75             N25-Zn1-N22= 90.31             C24-C2-C3=106.76               H26-C2-C3=128.40               
H26-C2-C24=124.84              C4-C3-C2=106.59                H27-C3-C2=128.65               H27-C3-C4=124.76               
C5-C4-C3=124.26                N25-C4-C3=110.21               N25-C4-C5=125.53               C6-C5-C4=124.65                
C37-C5-C4=117.76               C37-C5-C6=117.59               C7-C6-C5=124.24                N10-C6-C5=125.54               
N10-C6-C7=110.21               C8-C7-C6=106.59                H28-C7-C6=124.77               H28-C7-C8=128.64               
C9-C8-C7=106.75                H29-C8-C7=128.40               H29-C8-C9=124.85               N10-C9-C8=109.83               
C11-C9-C8=124.47               C11-C9-N10=125.70              C6-N10-Zn1=127.40              C9-N10-Zn1=125.99              
C9-N10-C6=106.61               

 selected dihedral angles (degree)
 ---------------------------------
C4-C3-C2-C24=  0.03           C4-C3-C2-H26=179.98           H27-C3-C2-C24=180.04          H27-C3-C2-H26=  0.00          
C5-C4-C3-C2=179.94            C5-C4-C3-H27=359.93           N25-C4-C3-C2=  0.00           N25-C4-C3-H27=179.98          
C6-C5-C4-C3=180.16            C6-C5-C4-N25=  0.11           C37-C5-C4-C3=  0.51           C37-C5-C4-N25=180.46          
C7-C6-C5-C4=179.79            C7-C6-C5-C37=359.44           N10-C6-C5-C4=359.71           N10-C6-C5-C37=179.37          
C8-C7-C6-C5=179.91            C8-C7-C6-N10=359.97           H28-C7-C6-C5=359.92           H28-C7-C6-N10=179.99          
C9-C8-C7-C6=  0.00            C9-C8-C7-H28=179.96           H29-C8-C7-C6=180.02           H29-C8-C7-H28=  0.00          
N10-C9-C8-C7=  0.06           N10-C9-C8-H29=180.02          C11-C9-C8-C7=180.25           C11-C9-C8-H29=  0.21          
C6-N10-Zn1-N16=180.33         C6-N10-Zn1-N22= 16.46         C6-N10-Zn1-N25=  0.24         C9-N10-Zn1-N16=  0.21         
C9-N10-Zn1-N22=196.33         C9-N10-Zn1-N25=180.12         Zn1-N10-C6-C5=  0.03          Zn1-N10-C6-C7=179.96          
C9-N10-C6-C5=180.13           C9-N10-C6-C7=  0.07           Zn1-N10-C9-C8=180.03          Zn1-N10-C9-C11=359.84         
C6-N10-C9-C8=359.92           C6-N10-C9-C11=179.73          
           -------------------------------------------------
          |                Final Singlepoint                |
           -------------------------------------------------

          ...................................................
          :                      SETUP                      :
          :.................................................:
          :  # basis functions                 238          :
          :  # atomic orbitals                 238          :
          :  # shells                          130          :
          :  # electrons                       242          :
          :  max. iterations                   250          :
          :  Hamiltonian                  GFN2-xTB          :
          :  restarted?                      false          :
          :  GBSA solvation                  false          :
          :  PC potential                    false          :
          :  electronic temp.          300.0000000     K    :
          :  accuracy                    1.0000000          :
          :  -> integral cutoff          0.2500000E+02      :
          :  -> integral neglect         0.1000000E-07      :
[...]
    41  30 Zn      56   7 N                                       2.0238500
    52   6 C       56   7 N                                       1.3589377
    55   6 C       56   7 N                                       1.3584979
    55   6 C       57   6 C                                       1.3854089
    57   6 C       58   6 C                                       1.3853623
    58   6 C       59   6 C                                       1.4382353
    59   6 C       60   6 C                                       1.3533465
    60   6 C       61   6 C                                       1.4378710
    41  30 Zn      62   7 N                                       2.0239540
    58   6 C       62   7 N                                       1.3585985
    61   6 C       62   7 N                                       1.3588935
    61   6 C       63   6 C                                       1.3849069
    42   6 C       64   6 C                                       1.4354196
    63   6 C       64   6 C                                       1.3849188
    44   6 C       65   7 N                                       1.3542567
    64   6 C       65   7 N                                       1.3627864
    42   6 C       66   1 H                                       1.0729739
    43   6 C       67   1 H                                       1.0728665
    47   6 C       68   1 H                                       1.0728955
    48   6 C       69   1 H                                       1.0729723
    51   6 C       70   1 H                                       1.0812252
    53   6 C       71   1 H                                       1.0731745
    54   6 C       72   1 H                                       1.0731622
    57   6 C       73   1 H                                       1.0810501
    59   6 C       74   1 H                                       1.0731776
    60   6 C       75   1 H                                       1.0731784
    63   6 C       76   1 H                                       1.0811973

 * 4 distinct bonds (by element types)

   Z      Z             #   av. dist./Å        max./Å        min./Å
   1 H    6 C          22     1.0752649     1.0812315     1.0728641
   6 C    6 C          42     1.3927242     1.4382537     1.2180759
   6 C    7 N          16     1.3586252     1.3628112     1.3542137
   7 N   30 Zn          4     2.0240827     2.0244149     2.0238500

           -------------------------------------------------
          |               Frequency Printout                |
           -------------------------------------------------
 projected vibrational frequencies (cm⁻¹)
eigval :       -0.00    -0.00    -0.00    -0.00     0.00     0.00
eigval :        3.93     8.07     8.62    19.65    34.47    41.12
eigval :       41.59    46.24    66.53    72.78    75.97    76.83
eigval :      102.02   127.36   127.58   128.75   149.06   150.71
eigval :      166.33   168.16   178.32   180.89   181.06   195.56
eigval :      197.10   197.19   198.45   198.56   198.61   202.59
eigval :      203.15   203.20   215.02   244.67   262.84   263.09
eigval :      267.11   305.96   312.68   317.80   320.93   337.24
eigval :      338.43   354.40   358.97   361.70   361.94   368.59
eigval :      371.95   376.35   381.69   384.75   385.39   387.53
eigval :      397.55   397.66   426.37   426.84   431.60   431.89
eigval :      455.55   456.04   508.24   511.59   522.80   624.00
eigval :      624.38   628.01   628.12   631.32   631.34   646.09
eigval :      646.22   648.25   648.40   660.81   660.86   663.39
eigval :      663.44   673.89   674.88   720.34   721.71   731.11
eigval :      731.11   759.20   760.47   760.72   764.62   776.04
eigval :      776.16   779.36   780.89   797.60   799.08   799.60
eigval :      799.72   807.41   807.66   812.61   813.06   819.28
eigval :      820.00   820.32   829.45   829.73   836.64   836.98
eigval :      839.96   840.31   843.35   843.78   846.18   846.70
eigval :      847.22   847.46   848.39   848.56   933.81   988.08
eigval :      990.84  1002.06  1003.58  1003.68  1023.34  1025.98
eigval :     1026.03  1035.39  1036.36  1036.43  1037.51  1038.37
eigval :     1046.03  1046.04  1067.65  1067.80  1068.61  1069.70
eigval :     1070.29  1071.32  1072.66  1073.63  1131.91  1150.95
eigval :     1155.49  1155.54  1167.94  1172.04  1176.86  1176.90
eigval :     1225.70  1225.75  1229.34  1240.32  1240.34  1285.83
eigval :     1286.11  1300.57  1301.15  1301.23  1303.48  1318.21
eigval :     1318.24  1333.00  1334.71  1342.87  1342.96  1347.90
eigval :     1349.20  1364.20  1366.19  1367.24  1367.31  1401.43
eigval :     1449.54  1449.59  1450.13  1460.15  1475.75  1476.00
eigval :     1497.17  1499.45  1507.99  1508.08  1514.22  1514.54
eigval :     1521.50  1522.30  1531.37  1531.47  1549.31  1550.21
eigval :     1555.35  1555.41  1564.61  1565.46  1599.05  1599.12
eigval :     2229.81  2235.14  3077.38  3077.57  3077.96  3078.13
eigval :     3079.21  3079.30  3146.14  3146.31  3146.50  3146.68
eigval :     3150.83  3151.01  3151.19  3151.41  3159.81  3159.98
eigval :     3160.61  3161.13  3165.32  3165.71  3165.96  3166.28
 reduced masses (amu)
   1: 14.34   2: 19.82   3: 20.39   4: 19.61   5: 20.52   6: 18.65   7: 11.24   8: 11.45
   9: 11.54  10: 12.47  11: 13.13  12: 10.98  13: 10.98  14: 11.61  15: 18.26  16: 38.86
  17: 30.51  18: 23.79  19: 11.03  20: 10.71  21: 10.71  22: 11.20  23: 15.02  24: 11.71
  25: 27.83  26: 28.01  27: 14.73  28: 12.33  29: 12.55  30: 53.71  31: 51.66  32: 51.00
  33: 36.83  34: 22.68  35: 16.59  36: 11.86  37: 12.18  38: 11.88  39: 11.69  40: 13.43
  41: 10.46  42: 10.46  43: 11.62  44: 11.52  45: 11.71  46: 12.27  47: 12.08  48: 12.02
  49: 12.06  50: 10.23  51: 11.96  52: 10.48  53: 12.01  54: 12.62  55: 12.00  56: 12.61
  57: 12.03  58: 11.81  59: 11.76  60: 11.77  61:  9.84  62:  9.85  63: 10.25  64: 10.28
  65:  9.86  66:  9.87  67: 11.86  68: 11.87  69: 11.56  70: 11.56  71: 11.81  72: 11.05
  73: 11.05  74: 10.89  75: 10.87  76: 10.78  77: 10.79  78: 11.17  79: 11.18  80: 10.89
  81: 10.90  82: 11.21  83: 11.21  84: 11.23  85: 11.23  86: 11.36  87: 11.36  88: 11.17
  89: 11.11  90: 10.84  91: 10.84  92: 11.21  93: 11.18  94: 11.17  95: 11.29  96: 11.37
  97: 11.36  98: 11.13  99: 11.04 100: 11.77 101: 11.78 102:  3.76 103:  3.75 104:  3.97
 105:  3.95 106:  4.12 107:  4.10 108: 11.39 109:  4.40 110:  4.38 111:  3.84 112:  3.86
 113:  3.89 114:  3.90 115:  4.08 116:  4.11 117:  3.40 118:  3.41 119:  3.53 120:  3.50
 121:  3.61 122:  3.59 123:  3.64 124:  3.63 125: 11.39 126: 11.97 127: 11.93 128: 11.67
 129: 11.73 130: 11.72 131: 11.16 132:  7.34 133:  7.34 134:  9.78 135:  9.31 136:  9.33
 137:  8.97 138:  9.63 139: 10.67 140: 10.66 141:  1.93 142:  1.95 143:  2.02 144:  2.07
 145:  1.99 146:  1.99 147:  2.28 148:  2.33 149:  6.09 150:  5.81 151:  5.61 152:  5.61
 153:  6.34 154:  6.47 155:  7.06 156:  7.06 157:  8.73 158:  8.72 159: 10.55 160:  8.73
 161:  9.30 162:  9.66 163:  9.63 164: 10.93 165:  9.86 166:  9.87 167: 10.68 168: 11.36
 169: 11.35 170: 11.53 171: 11.47 172:  9.58 173:  9.59 174: 12.12 175: 12.20 176:  9.55
 177:  9.50 178:  9.05 179:  9.05 180: 11.69 181: 11.47 182: 11.47 183: 11.44 184: 11.55
 185: 11.79 186: 11.78 187: 11.76 188: 11.79 189: 11.49 190: 11.50 191: 11.80 192: 11.81
 193: 11.75 194: 11.77 195: 11.66 196: 11.66 197: 11.61 198: 11.61 199: 11.55 200: 11.55
 201: 11.57 202: 11.59 203: 11.77 204: 11.77 205: 12.01 206: 12.01 207:  1.81 208:  1.81
 209:  1.81 210:  1.81 211:  1.81 212:  1.81 213:  1.81 214:  1.81 215:  1.81 216:  1.81
 217:  1.81 218:  1.81 219:  1.81 220:  1.81 221:  1.97 222:  1.97 223:  1.97 224:  1.97
 225:  1.97 226:  1.97 227:  1.97 228:  1.97
 IR intensities (km·mol⁻¹)
   1:  0.03   2:  0.24   3:  1.90   4:  0.56   5:  0.07   6:  0.13   7:  0.00   8:  0.14
   9:  0.05  10:  0.13  11:  0.02  12:  1.43  13:  0.21  14:  0.14  15:  0.55  16:  0.87
  17:  0.84  18:  0.41  19:  0.27  20:  0.05  21:  0.08  22:  0.02  23:  2.07  24:  0.83
  25:  0.01  26: 52.46  27:  0.69  28:  0.00  29:  0.52  30:  0.00  31:  3.26  32:  1.44
  33:  2.79  34:  2.45  35:  0.42  36:  0.02  37:  0.15  38:  0.04  39:  1.50  40:  0.02
  41:  1.35  42:  0.31  43:  0.23  44: 13.57  45:  0.02  46:  0.01  47:  5.38  48:  0.05
  49:  0.03  50:  0.06  51:  0.01  52:  7.36  53: 30.89  54:  0.26  55:  0.87  56: 24.95
  57:  0.03  58:  0.11  59: 23.55  60:  0.00  61:  0.05  62:  0.43  63:  0.31  64:  0.01
  65:  1.12  66:  1.22  67:  0.01  68:  1.39  69:  5.76  70:  1.34  71: 22.67  72:  5.59
  73:  0.86  74:  5.08  75:  0.47  76:  0.00  77:  0.01  78:  2.05  79:  0.39  80:  1.63
  81:  0.04  82:  0.03  83:  0.13  84:  4.67  85: 37.73  86:  6.48  87:  1.55  88:  0.00
  89:  7.15  90:  4.67  91:  0.09  92:  0.09  93:  3.95  94:  0.00  95:  0.00  96: 23.99
  97:  0.01  98:  0.06  99:  0.30 100: 13.54 101:  0.01 102:  0.64 103: 37.30 104:  0.00
 105:  0.02 106:  0.03 107: 11.71 108:  0.02 109:  0.17 110:  1.47 111:  0.06 112:  3.27
 113:  0.03 114:  0.00 115:  0.56 116:145.45 117:  0.01 118:  0.01 119:  0.07 120:  3.20
 121:  0.02 122:  0.00 123:  0.33 124:  2.32 125:  0.32 126:  0.00 127: 50.81 128:  0.08
 129:  0.14 130: 46.72 131:  2.92 132:  0.00 133:  0.01 134:  0.22 135:  0.04 136: 40.11
 137:  1.57 138:  0.10 139: 11.41 140: 31.38 141:  0.18 142:  7.89 143:  0.72 144:  0.14
 145:  0.01 146: 17.30 147: 17.62 148:  0.02 149:  3.48 150:  0.39 151: 21.11 152: 12.37
 153: 77.92 154:  0.02 155:  2.44 156:  2.59 157:  0.08 158:  0.36 159:106.09 160: 10.59
 161: 74.43 162: 18.54 163:  0.05 164:  0.21 165:  2.31 166:  2.39 167: 22.83 168:  8.06
 169: 14.45 170:  0.01 171: 12.78 172:  3.04 173:  0.06 174:  0.03 175: 37.44 176:  0.03
 177: 33.48 178:  0.02 179:  0.24 180:  0.01 181: 19.23 182:  1.16 183: 36.51 184:  0.11
 185:  0.01 186:  3.69 187:  5.72 188:  0.01 189:  0.41 190:  8.06 191:  0.00 192:  0.01
 193:  0.44 194:  5.77 195:127.06 196: 29.60 197:  0.04 198: 13.78 199: 29.71 200: 11.63
 201:218.44 202:  0.50 203:  3.26 204:  2.34 205:  0.01 206:  2.00 207:  1.27 208:  0.27
 209:  2.40 210:  0.93 211:  2.44 212: 17.83 213: 19.69 214: 20.65 215: 24.06 216: 23.76
 217:  0.17 218: 73.46 219: 46.93 220:  7.18 221:118.72 222:177.29 223:447.76 224: 16.84
 225:  0.48 226: 63.68 227:137.09 228:  0.74
 Raman intensities (amu)
   1:  0.00   2:  0.00   3:  0.00   4:  0.00   5:  0.00   6:  0.00   7:  0.00   8:  0.00
   9:  0.00  10:  0.00  11:  0.00  12:  0.00  13:  0.00  14:  0.00  15:  0.00  16:  0.00
  17:  0.00  18:  0.00  19:  0.00  20:  0.00  21:  0.00  22:  0.00  23:  0.00  24:  0.00
  25:  0.00  26:  0.00  27:  0.00  28:  0.00  29:  0.00  30:  0.00  31:  0.00  32:  0.00
  33:  0.00  34:  0.00  35:  0.00  36:  0.00  37:  0.00  38:  0.00  39:  0.00  40:  0.00
  41:  0.00  42:  0.00  43:  0.00  44:  0.00  45:  0.00  46:  0.00  47:  0.00  48:  0.00
  49:  0.00  50:  0.00  51:  0.00  52:  0.00  53:  0.00  54:  0.00  55:  0.00  56:  0.00
  57:  0.00  58:  0.00  59:  0.00  60:  0.00  61:  0.00  62:  0.00  63:  0.00  64:  0.00
  65:  0.00  66:  0.00  67:  0.00  68:  0.00  69:  0.00  70:  0.00  71:  0.00  72:  0.00
  73:  0.00  74:  0.00  75:  0.00  76:  0.00  77:  0.00  78:  0.00  79:  0.00  80:  0.00
  81:  0.00  82:  0.00  83:  0.00  84:  0.00  85:  0.00  86:  0.00  87:  0.00  88:  0.00
  89:  0.00  90:  0.00  91:  0.00  92:  0.00  93:  0.00  94:  0.00  95:  0.00  96:  0.00
  97:  0.00  98:  0.00  99:  0.00 100:  0.00 101:  0.00 102:  0.00 103:  0.00 104:  0.00
 105:  0.00 106:  0.00 107:  0.00 108:  0.00 109:  0.00 110:  0.00 111:  0.00 112:  0.00
 113:  0.00 114:  0.00 115:  0.00 116:  0.00 117:  0.00 118:  0.00 119:  0.00 120:  0.00
 121:  0.00 122:  0.00 123:  0.00 124:  0.00 125:  0.00 126:  0.00 127:  0.00 128:  0.00
 129:  0.00 130:  0.00 131:  0.00 132:  0.00 133:  0.00 134:  0.00 135:  0.00 136:  0.00
 137:  0.00 138:  0.00 139:  0.00 140:  0.00 141:  0.00 142:  0.00 143:  0.00 144:  0.00
 145:  0.00 146:  0.00 147:  0.00 148:  0.00 149:  0.00 150:  0.00 151:  0.00 152:  0.00
 153:  0.00 154:  0.00 155:  0.00 156:  0.00 157:  0.00 158:  0.00 159:  0.00 160:  0.00
 161:  0.00 162:  0.00 163:  0.00 164:  0.00 165:  0.00 166:  0.00 167:  0.00 168:  0.00
 169:  0.00 170:  0.00 171:  0.00 172:  0.00 173:  0.00 174:  0.00 175:  0.00 176:  0.00
 177:  0.00 178:  0.00 179:  0.00 180:  0.00 181:  0.00 182:  0.00 183:  0.00 184:  0.00
 185:  0.00 186:  0.00 187:  0.00 188:  0.00 189:  0.00 190:  0.00 191:  0.00 192:  0.00
 193:  0.00 194:  0.00 195:  0.00 196:  0.00 197:  0.00 198:  0.00 199:  0.00 200:  0.00
 201:  0.00 202:  0.00 203:  0.00 204:  0.00 205:  0.00 206:  0.00 207:  0.00 208:  0.00
 209:  0.00 210:  0.00 211:  0.00 212:  0.00 213:  0.00 214:  0.00 215:  0.00 216:  0.00
 217:  0.00 218:  0.00 219:  0.00 220:  0.00 221:  0.00 222:  0.00 223:  0.00 224:  0.00
 225:  0.00 226:  0.00 227:  0.00 228:  0.00
 output can be read by thermo (or use thermo option).
 writing <g98.out> molden fake output.
 recommended (thermochemical) frequency scaling factor: 1.0
           -------------------------------------------------
          |             Thermodynamic Functions             |
Refinement of some symmetry elements was terminated before convergence was reached.
Some symmetry elements may remain unidentified.
Molecule has no symmetry elements
It seems to be the C1 point group
           -------------------------------------------------

c1  symmetry found (for desy threshold:  0.10E+00) used in thermo

          ...................................................
          :                      SETUP                      :
          :.................................................:
          :  # frequencies                         222      :
          :  # imaginary freq.                       0      :
          :  linear?                             false      :
          :  only rotor calc.                    false      :
          :  symmetry                               c1      :
          :  rotational number                       1      :
          :  scaling factor                  1.0000000      :
          :  rotor cutoff                   50.0000000 cm⁻¹ :
          :  imag. cutoff                  -20.0000000 cm⁻¹ :
          :.................................................:

    mode    ω/cm⁻¹     T·S(HO)/kcal·mol⁻¹    T·S(FR)/kcal·mol⁻¹   T·S(vib)
   ------------------------------------------------------------------------
       1      3.93    -2.94184 (  0.00%)    -1.80999 (100.00%)    -1.81003
       2      8.07    -2.51543 (  0.07%)    -1.59679 ( 99.93%)    -1.59741
       3      8.62    -2.47678 (  0.09%)    -1.57747 ( 99.91%)    -1.57826
       4     19.65    -1.98850 (  2.33%)    -1.33325 ( 97.67%)    -1.34851
       5     34.47    -1.65583 ( 18.43%)    -1.16669 ( 81.57%)    -1.25686
       6     41.12    -1.55170 ( 31.38%)    -1.11448 ( 68.62%)    -1.25170
       7     41.59    -1.54503 ( 32.37%)    -1.11113 ( 67.63%)    -1.25156
       8     46.24    -1.48246 ( 42.24%)    -1.07973 ( 57.76%)    -1.24983
       9     66.53    -1.26816 ( 75.82%)    -0.97192 ( 24.18%)    -1.19652
      10     72.78    -1.21546 ( 81.78%)    -0.94533 ( 18.22%)    -1.16625
      11     75.97    -1.19030 ( 84.20%)    -0.93261 ( 15.80%)    -1.14960
      12     76.83    -1.18376 ( 84.79%)    -0.92930 ( 15.21%)    -1.14505
      13    102.02    -1.01826 ( 94.55%)    -0.84527 (  5.45%)    -1.00882
      14    127.36    -0.89013 ( 97.68%)    -0.77956 (  2.32%)    -0.88757
      15    127.58    -0.88914 ( 97.70%)    -0.77905 (  2.30%)    -0.88660
      16    128.75    -0.88391 ( 97.78%)    -0.77635 (  2.22%)    -0.88152
      17    149.06    -0.80027 ( 98.75%)    -0.73295 (  1.25%)    -0.79943
      18    150.71    -0.79403 ( 98.80%)    -0.72969 (  1.20%)    -0.79326
      19    166.33    -0.73839 ( 99.19%)    -0.70049 (  0.81%)    -0.73808
      20    168.16    -0.73225 ( 99.22%)    -0.69724 (  0.78%)    -0.73198
      21    178.32    -0.69944 ( 99.39%)    -0.67986 (  0.61%)    -0.69932
      22    180.89    -0.69148 ( 99.42%)    -0.67562 (  0.58%)    -0.69138
      23    181.06    -0.69096 ( 99.42%)    -0.67535 (  0.58%)    -0.69087
      24    195.56    -0.64832 ( 99.57%)    -0.65252 (  0.43%)    -0.64834
      25    197.10    -0.64401 ( 99.59%)    -0.65020 (  0.41%)    -0.64404
      26    197.19    -0.64375 ( 99.59%)    -0.65006 (  0.41%)    -0.64377
      27    198.45    -0.64024 ( 99.60%)    -0.64817 (  0.40%)    -0.64027
      28    198.56    -0.63994 ( 99.60%)    -0.64801 (  0.40%)    -0.63997
      29    198.61    -0.63981 ( 99.60%)    -0.64794 (  0.40%)    -0.63984
      30    202.59    -0.62892 ( 99.63%)    -0.64206 (  0.37%)    -0.62897
      31    203.15    -0.62741 ( 99.63%)    -0.64124 (  0.37%)    -0.62746
      32    203.20    -0.62729 ( 99.63%)    -0.64117 (  0.37%)    -0.62734
      33    215.02    -0.59650 ( 99.71%)    -0.62442 (  0.29%)    -0.59658
      34    244.67    -0.52734 ( 99.83%)    -0.58616 (  0.17%)    -0.52744
      35    262.84    -0.48981 ( 99.87%)    -0.56493 (  0.13%)    -0.48991
      36    263.09    -0.48932 ( 99.87%)    -0.56465 (  0.13%)    -0.48942
      37    267.11    -0.48147 ( 99.88%)    -0.56016 (  0.12%)    -0.48157
   ------------------------------------------------------------------------

   temp. (K)  partition function   enthalpy   heat capacity  entropy
                                   cal/mol     cal/K/mol   cal/K/mol   J/K/mol
 298.15  VIB  0.256E+20            25207.625    165.645    156.482
         ROT  0.184E+09              888.752      2.981     40.798
         INT  0.471E+28            26096.378    168.626    197.280
         TR   0.216E+29             1481.254      4.968     45.871
         TOT                       27577.6315   173.5938   243.1515  1017.3459

       T/K    H(0)-H(T)+PV         H(T)/Eh          T*S/Eh         G(T)/Eh
   ------------------------------------------------------------------------
    298.15    0.439478E-01    0.571993E+00    0.115529E+00    0.456464E+00
   ------------------------------------------------------------------------

         :::::::::::::::::::::::::::::::::::::::::::::::::::::
         ::                  THERMODYNAMIC                  ::
         :::::::::::::::::::::::::::::::::::::::::::::::::::::
         :: total free energy        -129.549669597479 Eh   ::
         ::.................................................::
         :: total energy             -130.006133336953 Eh   ::
         :: zero point energy           0.528045115268 Eh   ::
         :: G(RRHO) w/o ZPVE           -0.071581375794 Eh   ::
         :: G(RRHO) contrib.            0.456463739475 Eh   ::
         :::::::::::::::::::::::::::::::::::::::::::::::::::::

optimized geometry written to: xtbopt.xyz


           -------------------------------------------------
          | TOTAL ENERGY             -130.006133336953 Eh   |
          | TOTAL ENTHALPY           -129.434140468566 Eh   |
          | TOTAL FREE ENERGY        -129.549669597479 Eh   |
          | GRADIENT NORM               0.000589672694 Eh/α |
          | HOMO-LUMO GAP               1.221482847796 eV   |
           -------------------------------------------------

------------------------------------------------------------------------
 * finished run on 2021/11/18 at 18:35:52.306     
------------------------------------------------------------------------
 total:
 * wall-time:     0 d,  0 h,  1 min, 15.611 sec
 *  cpu-time:     0 d,  0 h,  1 min, 15.610 sec
 * ratio c/w:     1.000 speedup
 SCF:
 * wall-time:     0 d,  0 h,  0 min,  0.300 sec
 *  cpu-time:     0 d,  0 h,  0 min,  0.300 sec
 * ratio c/w:     1.000 speedup
 ANC optimizer:
 * wall-time:     0 d,  0 h,  0 min,  8.134 sec
 *  cpu-time:     0 d,  0 h,  0 min,  8.134 sec
 * ratio c/w:     1.000 speedup
 analytical hessian:
 * wall-time:     0 d,  0 h,  1 min,  7.083 sec
 *  cpu-time:     0 d,  0 h,  1 min,  7.081 sec
 * ratio c/w:     1.000 speedup

