76
 energy: -128.350126302407 gnorm: 4.339207916851 xtb: 6.4.1 (bd6e46d)
Zn        8.41034900000000    0.02446900000000   -0.00463200000000
C        10.73934000000000   -3.12232400000000    1.31805700000000
C        11.65544700000000   -2.17811600000000    1.26777500000000
C        11.24426800000000   -1.12421200000000    0.34648300000000
C        11.86313800000000    0.00013400000000    0.00007300000000
C        11.15909600000000    1.22008200000000   -0.36403200000000
C        11.48720700000000    2.18013700000000   -1.21150600000000
C        10.45242700000000    3.19642200000000   -1.22840400000000
C         9.51615900000000    2.81996000000000   -0.38151200000000
N         9.91814900000000    1.58694900000000    0.18230500000000
C         8.25508400000000    3.46496000000000   -0.00236000000000
C         7.15986700000000    2.83017700000000    0.34840000000000
C         6.08624200000000    3.14813300000000    1.31742800000000
C         5.24867900000000    2.15137900000000    1.24026200000000
C         5.68697600000000    1.14769600000000    0.25981000000000
N         6.79191400000000    1.58654900000000   -0.22448200000000
C         5.07614100000000   -0.10557500000000   -0.15373800000000
C         5.74030200000000   -1.21008100000000   -0.40816300000000
C         5.36645300000000   -2.27302300000000   -1.36569000000000
C         6.31520000000000   -3.16677900000000   -1.27667100000000
C         7.30092400000000   -2.72932900000000   -0.29379300000000
N         6.94787800000000   -1.58352400000000    0.20300400000000
C         8.53181200000000   -3.38539900000000    0.15192800000000
C         9.65485400000000   -2.73953800000000    0.41904900000000
N         9.98345400000000   -1.49209700000000   -0.17935500000000
H        10.79960200000000   -4.03210400000000    1.93560300000000
H        12.57177500000000   -2.21806600000000    1.84582300000000
H        12.41457200000000    2.19693300000000   -1.81264900000000
H        10.46932600000000    4.10111100000000   -1.84102500000000
H         8.20736200000000    4.55976200000000   -0.00613800000000
H         6.03342000000000    4.02685800000000    1.94242000000000
H         4.33704800000000    2.11571000000000    1.85758600000000
H         3.97789100000000   -0.10266400000000   -0.25300900000000
H         4.49759800000000   -2.32548800000000   -2.01464000000000
H         6.31235400000000   -4.08308700000000   -1.87543000000000
H         8.49633000000000   -4.48120100000000    0.26385300000000
C        12.73429200000000   -0.00240700000000   -0.00131500000000
C        13.94226900000000    0.00504700000000    0.00038000000000
C        15.36103700000000    0.00574400000000    0.00551700000000
C        16.57655400000000   -0.00240700000000   -0.00131500000000
Zn       20.93163600000000   -0.00913300000000   -0.16358000000000
C        18.38576700000000    3.22821100000000    1.12827000000000
C        17.45940800000000    2.30103600000000    0.98372300000000
C        18.06142100000000    1.13225600000000    0.32697900000000
C        17.46846800000000    0.00013400000000    0.00007300000000
C        18.10078300000000   -1.31305300000000   -0.02181800000000
C        17.58011900000000   -2.53261500000000    0.09969400000000
C        18.61566600000000   -3.53389700000000    0.01112700000000
C        19.76904200000000   -2.87842800000000   -0.16658500000000
N        19.48258800000000   -1.50770300000000   -0.19091100000000
C        21.11066600000000   -3.45005000000000   -0.31492400000000
C        22.25286000000000   -2.84482000000000   -0.14557800000000
C        23.53157100000000   -3.26367200000000    0.49097900000000
C        24.33144700000000   -2.25802400000000    0.35276900000000
C        23.68308500000000   -1.13245400000000   -0.35657500000000
N        22.49295700000000   -1.52999800000000   -0.61488800000000
C        24.19241100000000    0.18189900000000   -0.74339700000000
C        23.53302800000000    1.31106000000000   -0.64646700000000
C        23.93083500000000    2.59576500000000   -1.26687700000000
C        23.02363800000000    3.45889100000000   -0.92573600000000
C        22.01708000000000    2.79067800000000   -0.08734200000000
N        22.34700500000000    1.55198000000000    0.05009500000000
C        20.82163200000000    3.36193800000000    0.52621800000000
C        19.65501000000000    2.75155200000000    0.58571200000000
N        19.40399400000000    1.44918800000000    0.10138200000000
H        18.19414300000000    4.21041200000000    1.59604600000000
H        16.41709300000000    2.42588800000000    1.31565900000000
H        16.49410300000000   -2.69963900000000    0.24787100000000
H        18.44359000000000   -4.59540700000000    0.08067200000000
H        21.17159300000000   -4.51816600000000   -0.60100300000000
H        23.68472000000000   -4.22699200000000    0.95208100000000
H        25.35375300000000   -2.26078100000000    0.71973700000000
H        25.22647700000000    0.14857000000000   -1.14034300000000
H        24.80690000000000    2.79844500000000   -1.88984500000000
H        23.06329100000000    4.51013100000000   -1.24736400000000
H        20.90823000000000    4.35161300000000    0.95677700000000
76
 energy: -129.520688690350 gnorm: 0.664516545007 xtb: 6.4.1 (bd6e46d)
Zn        8.41190954721924    0.02528877432104   -0.00435863439279
C        10.73582837433407   -3.12723351204303    1.31637980604660
C        11.65961119165794   -2.17405109837951    1.26622138664392
C        11.20886906680076   -1.14338740564280    0.35094402090732
C        11.69563886586295    0.00595526259466   -0.00006828469512
C        11.13155781332660    1.22664835506844   -0.36238740245116
C        11.49058703567954    2.18853628529601   -1.21804854018931
C        10.46189540282361    3.19853929766543   -1.23401201588141
C         9.51087179884490    2.81531924601793   -0.37714989170737
N         9.91054774153315    1.58518199194368    0.18245888424097
C         8.26222460225187    3.46736770303545   -0.00379677274593
C         7.15311330032629    2.82457555416848    0.34985755524382
C         6.09036600379096    3.15192321839596    1.31330813914098
C         5.23983059805172    2.14676409348704    1.24169163809150
C         5.68254134821241    1.14760092336314    0.26447518068918
N         6.80193129075668    1.58440533524840   -0.22344912984310
C         5.07147155088054   -0.09661789425538   -0.15117936678682
C         5.74330887853851   -1.21535634623286   -0.41044211000491
C         5.36289835864880   -2.26937719154383   -1.36269473376879
C         6.31945122373369   -3.17418136617737   -1.27630097686348
C         7.30486194594987   -2.73508971562884   -0.29587849394891
N         6.94765722530936   -1.57609189902487    0.19937803694073
C         8.52312112332505   -3.38905503302846    0.14903316122222
C         9.65993871414918   -2.73493573064747    0.42029391032309
N         9.98107575100202   -1.49581478525001   -0.17201228996667
H        10.79827476292852   -4.03040420876796    1.93378484498494
H        12.57196449554978   -2.21586127412584    1.84487398392475
H        12.41290733031899    2.19735926416624   -1.81181191060535
H        10.47000295352023    4.09996856311417   -1.84055603649576
H         8.20948097517614    4.55911797358764   -0.00504104803280
H         6.03436875796544    4.02640063982559    1.94167772512932
H         4.33761833387819    2.11415127664516    1.85652809680847
H         3.97912353845722   -0.10181477746292   -0.25367993393284
H         4.49826681754612   -2.32389394975528   -2.01334220986309
H         6.31418600211377   -4.08274206402561   -1.87423126979474
H         8.49575489216098   -4.47984633690842    0.26387085507006
C        12.89953641342720    0.00237704974523   -0.00272803905482
C        13.99982539323189    0.00617791760387    0.00018332339974
C        15.31056395231435    0.00478974950192    0.00431212813325
C        16.42413253070481   -0.00745052030157   -0.00485202351532
Zn       20.92993845869820   -0.00988142603708   -0.16400765129453
C        18.38855099656199    3.23331006897967    1.12962671960061
C        17.45616335909172    2.29744904926597    0.98205074236664
C        18.09455323169649    1.15230211725167    0.33148134530285
C        17.61913581601677   -0.00680334583388    0.00116089100299
C        18.12771672965155   -1.31861577986572   -0.02308403566538
C        17.57551830631089   -2.54102186715141    0.10035749585563
C        18.60631376389982   -3.53466804286023    0.01156518156150
C        19.77412822827433   -2.87357197893904   -0.17013504151956
N        19.48884599448100   -1.50720730459391   -0.19037287203608
C        21.10096578722330   -3.45391188527943   -0.31569427863554
C        22.26184001623065   -2.83779800910155   -0.14616037536555
C        23.52470357195272   -3.26816376037148    0.48711721011463
C        24.34032182680478   -2.25122822030119    0.35179622951058
C        23.68808382105152   -1.13343184474847   -0.35382605248365
N        22.48315797715870   -1.52806732613252   -0.61128488284577
C        24.19712338542394    0.17245028127923   -0.74309276238992
C        23.53120963597532    1.31650575422526   -0.64791702265765
C        23.93524720404240    2.59088243935422   -1.26708572324036
C        23.01899052971461    3.46665860643494   -0.92307095391424
C        22.01536009268881    2.79654474714721   -0.08706848216822
N        22.34699273526329    1.54492626266511    0.04714789647601
C        20.82897023449188    3.36420341651271    0.52442546768498
C        19.64862661588639    2.74604000043405    0.58662069758472
N        19.40614922571325    1.45288792977625    0.10381473958329
H        18.19590546786315    4.20866266524902    1.59489467106534
H        16.41894740669900    2.42367535481664    1.31424876431817
H        16.49650829658080   -2.70031127928154    0.24772753427380
H        18.44330793982965   -4.59517975859059    0.08072056105522
H        21.16950546003565   -4.51765439860762   -0.59730871146288
H        23.68404489154006   -4.22649922380390    0.95185914683653
H        25.35431769378100   -2.25931728800519    0.71978865398053
H        25.22482573883871    0.14905411657676   -1.13965630005146
H        24.80577656264408    2.79658101135911   -1.88875876421421
H        23.06138907185009    4.50911816846750   -1.24596556237992
H        20.90854802373018    4.35244338411597    0.95536196175054
76
 energy: -129.696183171424 gnorm: 0.375991267807 xtb: 6.4.1 (bd6e46d)
Zn        8.41796189219209    0.02647500596641   -0.00243981174016
C        10.73066547420869   -3.14479682366177    1.30574770380149
C        11.66101566052502   -2.18057599039426    1.25792430257768
C        11.14212283476869   -1.17156874779580    0.36739246432896
C        11.62034868195190    0.02682650307826    0.00315068097609
C        11.06358650859261    1.24471023210283   -0.36790897931267
C        11.48725025252225    2.21912410207306   -1.23239180354728
C        10.48465715021094    3.20989271792814   -1.24140815180760
C         9.49711394237874    2.80916394628455   -0.37645227630559
N         9.85345947087959    1.58029670609550    0.17174755811978
C         8.27721136218481    3.46794411294788   -0.00416136338481
C         7.14644513729436    2.80808718359619    0.35177522745502
C         6.08886000240162    3.15641597998376    1.29176301219383
C         5.21377284064728    2.14156249475961    1.24023965224813
C         5.67709336255970    1.14780403488153    0.28334600170807
N         6.83694001244312    1.56018660907699   -0.19543945154049
C         5.06202988701962   -0.07490669669376   -0.14334799443127
C         5.74639418667584   -1.21413091628784   -0.41805804670733
C         5.35697882558730   -2.27061502963550   -1.34507769001085
C         6.32399017646780   -3.19595660001378   -1.26877380691209
C         7.31223206684033   -2.74532325777848   -0.30683493831486
N         6.96000382221853   -1.55106667791787    0.16383217147347
C         8.49857419350373   -3.40367830892024    0.14275172915381
C         9.64914887668057   -2.74074052893580    0.42910956966499
N         9.93435426157941   -1.51376189916405   -0.12954800046569
H        10.78775632712984   -4.02952719128707    1.92535328732795
H        12.57279119462699   -2.19991826681444    1.83561930479141
H        12.40596689101977    2.20366864105835   -1.80984073543574
H        10.47892938293632    4.10106892042798   -1.84293142171934
H         8.22666532343315    4.55595327525675    0.00153467379659
H         6.04325115519444    4.02323521710307    1.93136860779389
H         4.32967400265325    2.10267071613000    1.85502614185419
H         3.98030693367539   -0.09096581189505   -0.25792222108318
H         4.50103052679890   -2.31206374769516   -2.00219780578871
H         6.32770050036367   -4.08979873933859   -1.86915804956703
H         8.48551474909455   -4.48212987213387    0.26241137616570
C        12.84986108971156    0.02215988782448   -0.00476427010133
C        14.05094115691473    0.01543822766910   -0.00150084850726
C        15.27085477809920   -0.00119751291863   -0.00052993130648
C        16.46119026746245   -0.02903000676126   -0.00256376901561
Zn       20.92312185372368   -0.00882105367853   -0.16675222427684
C        18.39729189117958    3.24676824045465    1.13248083606616
C        17.46234854291617    2.30149364502868    0.97112727360126
C        18.15683296151006    1.18419859246391    0.33874139270394
C        17.69343359976983   -0.03079776843979    0.00880619220429
C        18.19469563346327   -1.33552423164041   -0.03098269243635
C        17.57839818926194   -2.56462752527503    0.09637477894115
C        18.58541281108341   -3.53746403365813    0.00586858513545
C        19.78511443595912   -2.87015523388632   -0.18756177855095
N        19.53631648003503   -1.51283399966099   -0.18742423116439
C        21.08161664176530   -3.45786036022319   -0.31658977295956
C        22.27051017070013   -2.81952545067173   -0.15377415768793
C        23.51607454292448   -3.26941311121768    0.46210395971472
C        24.36333526075729   -2.24009891421087    0.34189832266299
C        23.69626629932408   -1.13673740653864   -0.34184238988105
N        22.45375222612718   -1.50689764216458   -0.57636033761783
C        24.20811883667724    0.14954242228556   -0.73911209197099
C        23.53079742690403    1.31660968992427   -0.65743327768151
C        23.94036976510346    2.58478301507466   -1.25954943198489
C        23.01453061161985    3.48380778824180   -0.90938816147972
C        22.01644182223665    2.80632079608333   -0.08643632758372
N        22.33975567969923    1.52824742794077    0.02082961450816
C        20.84825000357410    3.37463924563576    0.52124672879173
C        19.65360948785549    2.74554428454374    0.59626149231144
N        19.44392919913101    1.47383086834533    0.11891547926223
H        18.20841513160018    4.20785725755928    1.59248126311736
H        16.43046387496472    2.40614295391327    1.30257045823601
H        16.50943330807919   -2.70616378712570    0.24771094787361
H        18.43638018307571   -4.59645361886338    0.08152835530050
H        21.15185777730004   -4.52004313711172   -0.56818193112430
H        23.67456168729117   -4.22056293210929    0.94488441568125
H        25.36580927816984   -2.24819979335654    0.72121988710424
H        25.22304709716964    0.14727688604972   -1.13583120239711
H        24.80192084239809    2.78293434938155   -1.88245743769475
H        23.04709989344374    4.51225373093507   -1.23625713622637
H        20.91484139175745    4.36460291776991    0.94257050107613
76
 energy: -129.791126612038 gnorm: 0.204516083058 xtb: 6.4.1 (bd6e46d)
Zn        8.41318625586887    0.02789310209395    0.00055336953894
C        10.72047783630144   -3.16741451243593    1.29116911067462
C        11.65206244353956   -2.18298635250436    1.24877663213381
C        11.07927366253144   -1.18811650897387    0.38859496568717
C        11.56122143536740    0.04940654966068    0.00727874528256
C        10.98758694420713    1.26141934603646   -0.37490574823165
C        11.47467778841651    2.25038616703803   -1.23981391920796
C        10.50422605555917    3.22832275121054   -1.24137403759769
C         9.47347421835233    2.81045024364152   -0.38081541297021
N         9.77896947090374    1.57371236773229    0.13475788021406
C         8.28804094383450    3.46926036237467   -0.00451566375818
C         7.14560464063359    2.78456522273524    0.36127378348940
C         6.08713553107995    3.15660842818415    1.26447027344516
C         5.18590889419806    2.13974175495006    1.23015102364024
C         5.67433277554458    1.14419300522282    0.30840442466766
N         6.88114218498837    1.52629084944352   -0.14816036487859
C         5.05729717678377   -0.05351809166509   -0.13440612245173
C         5.75493735998319   -1.20668259003696   -0.43519038245854
C         5.35226199451652   -2.27176832919984   -1.32360485105215
C         6.32212983778725   -3.21846132718740   -1.25455457037899
C         7.31677704064231   -2.75451266429975   -0.32235396241674
N         6.98003697268001   -1.51668150103334    0.11051326338370
C         8.46603700503110   -3.42445955630330    0.13734462401371
C         9.62624624011148   -2.75466919982739    0.44735518296294
N         9.87687701139979   -1.52562677638313   -0.06483038009315
H        10.77405230368289   -4.03910715661159    1.91027595844221
H        12.56886982069819   -2.17697117983486    1.81558456965161
H        12.39289611531782    2.21000874047695   -1.80115168182913
H        10.48800424971285    4.11136295727008   -1.84181122439901
H         8.24303322444752    4.55268051581329    0.00604808103666
H         6.05299885453968    4.01894949172753    1.91031718843831
H         4.31493707414022    2.08868484118845    1.84743945374572
H         3.98292926158026   -0.07854761815588   -0.25725479359850
H         4.50182249147298   -2.29760080654837   -1.98295085812172
H         6.34219417474638   -4.10280218539185   -1.85721266872838
H         8.46660816881713   -4.49381647196521    0.25543734500998
C        12.82258692364953    0.04422881290039   -0.00850391405636
C        14.02235675224901    0.02668418004859   -0.00614059922225
C        15.28608279655074   -0.00842654601179   -0.00863213891407
C        16.48325917410937   -0.05365982254519    0.00413023980924
Zn       20.92248795093423   -0.00934175434347   -0.17090875491576
C        18.41627936909847    3.26144569743261    1.13353693726805
C        17.48190704770443    2.30046728883457    0.95767793812782
C        18.21407047585631    1.20700161393656    0.34406645628284
C        17.75389129137031   -0.05753534070756    0.02486341698732
C        18.27124912132124   -1.35231852426906   -0.03522351268364
C        17.59353368903913   -2.58569608681793    0.08851240944672
C        18.57046709876513   -3.54227077472084   -0.00795139226941
C        19.80560788859050   -2.87547233358122   -0.20488416627029
N        19.59283103533697   -1.52642210090166   -0.18152033831415
C        21.06704914431776   -3.46324847938321   -0.31237534538715
C        22.27496051525884   -2.79536632503150   -0.15751881745111
C        23.50532946234294   -3.26388743956104    0.42835890201143
C        24.38456277235893   -2.23069895874233    0.32110763578643
C        23.70364624615527   -1.13632072928845   -0.32414785734426
N        22.42096343023231   -1.47902192164340   -0.52690844542670
C        24.21640982507923    0.12708672224263   -0.73123295454742
C        23.52571125113567    1.31424025944248   -0.67543048420787
C        23.94287598019837    2.57662045689303   -1.24900184925306
C        23.01595167278064    3.49745096474115   -0.88778414040325
C        22.02132613543480    2.81532714984936   -0.08841213568957
N        22.32695940666839    1.50772260674272   -0.02026320283150
C        20.87614386776239    3.39125131922257    0.51777985976465
C        19.67081891355626    2.75273178892274    0.61216346187634
N        19.48674077811954    1.49359838397966    0.14319231990283
H        18.23014102125039    4.21262516662892    1.58841629808654
H        16.45233018678681    2.37814903934196    1.28047512569837
H        16.53305043502828   -2.70890983649674    0.24604588829781
H        18.43262160646288   -4.60056472610225    0.07836542825344
H        21.13428996306446   -4.52618113070329   -0.52322774293811
H        23.66193944183382   -4.20861576055601    0.92677454275019
H        25.37878569698017   -2.23437790325208    0.71592555155153
H        25.22433988040831    0.14631080040064   -1.12260817190596
H        24.79841808214428    2.76428594843962   -1.87246674197918
H        23.03043878743746    4.51739981448971   -1.21667961805449
H        20.92811742320838    4.38912061172670    0.91811867887820
76
 energy: -129.843225614477 gnorm: 0.117889777473 xtb: 6.4.1 (bd6e46d)
Zn        8.38305223400779    0.02832487310799    0.00534097339926
C        10.70726940094604   -3.18737401267083    1.27928909042848
C        11.62966813940257   -2.18047274365186    1.23971432197700
C        11.02498029513284   -1.17727902088922    0.41796944244652
C        11.52180342701437    0.06775727698671    0.01096343408293
C        10.92004420795602    1.25827596467379   -0.38746972429488
C        11.45526071935474    2.26970781469653   -1.23716935616550
C        10.51261890410824    3.25304483044373   -1.23567017675403
C         9.43955478838845    2.81984474955326   -0.39357557367887
N         9.70124497744483    1.56211935285163    0.07146935457211
C         8.28432270104071    3.47573746656983   -0.00477276550408
C         7.15009433751906    2.75868149684540    0.38341823492681
C         6.08247872910952    3.15305852429104    1.24421744922864
C         5.16250592984404    2.14226965378913    1.21504288922136
C         5.67560894613499    1.13341977586352    0.33689594782088
N         6.91831099912033    1.49356182495424   -0.09107167131704
C         5.06061337892617   -0.04080730915839   -0.12766692666597
C         5.76929321996011   -1.19451640156958   -0.46376496453410
C         5.34592310412173   -2.27241108265228   -1.30972916388669
C         6.30785706318245   -3.23604602988473   -1.23825437760069
C         7.31530904016356   -2.75904699231293   -0.34154755580768
N         7.00124471038364   -1.48478336922806    0.05205876927106
C         8.43247118020056   -3.44642958725271    0.13678389358388
C         9.59080064397751   -2.76980503227933    0.47819303091769
N         9.80552423814454   -1.51641558088168    0.01325529345053
H        10.76624702450917   -4.06432051930867    1.88704281447568
H        12.55936490971240   -2.15368263091848    1.78161836713709
H        12.37914678238023    2.21315302692424   -1.78216408301203
H        10.49576758496980    4.13970262272567   -1.83107504609761
H         8.24317534766282    4.55508363966554    0.00316372861331
H         6.05394221151453    4.02126831803658    1.87892974962725
H         4.28898537854943    2.07923447200946    1.82723098675895
H         3.98713786175136   -0.07097916981810   -0.24473406602184
H         4.49093472904573   -2.28672641320711   -1.95872527798523
H         6.34528818079987   -4.12476380161618   -1.83334195968765
H         8.44069526150062   -4.51612964813250    0.23647031723625
C        12.81573159489222    0.06163836031446   -0.01486979968697
C        14.01524107193351    0.03440716806311   -0.01610914590471
C        15.28585937059870   -0.01039792276438   -0.01753585120496
C        16.48144050363966   -0.07478032781549    0.01832563919760
Zn       20.93922434744994   -0.01298768805728   -0.17156505415484
C        18.44410778039065    3.26985784068833    1.13236308455408
C        17.51645426128634    2.29293855575853    0.94513256026367
C        18.25584347559554    1.20576695985676    0.35265281262376
C        17.78698362213423   -0.08087857593028    0.05061205098156
C        18.33459771509228   -1.35437433720039   -0.03416331179309
C        17.61760272658854   -2.59344375566726    0.07528150297686
C        18.56880712875600   -3.55144908548649   -0.02955391055821
C        19.83377251911739   -2.88949341562949   -0.21560390677569
N        19.64476388789095   -1.54178374691827   -0.17349061757781
C        21.06919354212657   -3.47519704585515   -0.30073678201574
C        22.27716129004271   -2.77108878641917   -0.15084741805271
C        23.50050422969659   -3.25436000719371    0.39789846009651
C        24.40042119112794   -2.22562113724020    0.29473803353572
C        23.70881385117597   -1.12721002567826   -0.30270652039709
N        22.39893723407875   -1.45386236001031   -0.47886967345842
C        24.21876680248259    0.11475056105082   -0.72141361141820
C        23.51420464711961    1.31166923836524   -0.70223734894547
C        23.94616184660382    2.56951188097704   -1.24219561049707
C        23.02841039731504    3.50443937526470   -0.86462560600572
C        22.02977613689119    2.82153269832360   -0.09600820133772
N        22.31203443169499    1.49138091212793   -0.06661016851700
C        20.90790794706600    3.41182331245050    0.51313806381224
C        19.70142409304004    2.76366287770392    0.63284571575221
N        19.53438199453889    1.49741663722305    0.17795883265424
H        18.25878768102407    4.22266762418361    1.58170075461599
H        16.48343871283626    2.34532681299991    1.24757061980737
H        16.56132173981968   -2.70226194716407    0.24133557613996
H        18.43766214926368   -4.61068329263988    0.06532417838403
H        21.13290092292779   -4.54256668352563   -0.46484365113697
H        23.65536886443315   -4.19862692037500    0.89347158020708
H        25.39368572044642   -2.22263781578365    0.69464006123069
H        25.23300210284923    0.14956996068343   -1.09178409540629
H        24.80348531649936    2.74559379421603   -1.86196388923380
H        23.02289749350888    4.52687076323363   -1.18339454877216
H        20.94917906804402    4.42622920531359    0.87633179585588
76
 energy: -129.876147662113 gnorm: 0.080777930260 xtb: 6.4.1 (bd6e46d)
Zn        8.34114392038696    0.02324402377890    0.01476730859229
C        10.69047129642174   -3.20059028077652    1.27354393665381
C        11.59618820480911   -2.17713249660152    1.23240651301464
C        10.96553138317818   -1.15193118720212    0.45479383396317
C        11.48046622653003    0.07831571708594    0.01359551345328
C        10.85967236881688    1.24434940730262   -0.41093890567444
C        11.42894010387714    2.27929947180197   -1.23209042025024
C        10.50683754969565    3.27700288199762   -1.23190391288677
C         9.40066840346966    2.82918642566323   -0.41996009147631
N         9.63082973184741    1.55150676435358    0.00286418692795
C         8.26317892550951    3.48501092138660   -0.00551732432980
C         7.14888198550562    2.74019402524087    0.40913320359588
C         6.06405054643225    3.15316264835418    1.23324908589134
C         5.14069670802181    2.14655781189163    1.20574638987873
C         5.67522439912421    1.11715662934731    0.36717389517672
N         6.93593848406172    1.46646849404252   -0.03283908076868
C         5.06352152133290   -0.03922316760068   -0.12324711485485
C         5.77619709260483   -1.18491684522926   -0.49401189034211
C         5.33051978069297   -2.27655960936851   -1.30606858453268
C         6.28284498029271   -3.24832063837010   -1.22849537309490
C         7.30701727022198   -2.75916231216179   -0.36361396884022
N         7.01284103943771   -1.46648235038839   -0.00038525118437
C         8.40287583321871   -3.45993547920587    0.13992509724869
C         9.54700919100237   -2.77579607083508    0.51860154902742
N         9.72963156372027   -1.49598363225960    0.08996668291986
H        10.76749770188143   -4.09980592252326    1.85166498421143
H        12.54674530188189   -2.13600227845141    1.73743246192432
H        12.36593502238985    2.21915568646449   -1.75525549456899
H        10.50795212135765    4.18037529397991   -1.80688558952353
H         8.22621507614571    4.56247245360440    0.00115269300636
H         6.03705435734862    4.03701404446195    1.84254658062855
H         4.24964047095593    2.07933242005670    1.79615078432313
H         3.98810137327549   -0.06730731523701   -0.22561901792007
H         4.46190479329001   -2.28429330101947   -1.93419307210895
H         6.32928984728709   -4.15557772256488   -1.79822742503552
H         8.40965696380064   -4.53527860975606    0.20917260602683
C        12.79970275157516    0.07163007511720   -0.02240010920948
C        13.99922407017384    0.03967921987546   -0.03252730079061
C        15.29154621093146   -0.00421199920733   -0.02807854317915
C        16.48695813634774   -0.08855025605663    0.04008263330889
Zn       20.96857831448340   -0.01509986838117   -0.16428844536270
C        18.47663393855409    3.27249888047641    1.13097754467357
C        17.56081600178141    2.28456589243754    0.93704172199289
C        18.30077741271040    1.18972979656138    0.37223109410084
C        17.81666479653402   -0.09640632006883    0.08449782656150
C        18.38487685973175   -1.35124307030122   -0.02664530563791
C        17.64842384213306   -2.59262513259279    0.06073642334104
C        18.58115286712894   -3.56357992164444   -0.05277143382757
C        19.86099333076649   -2.90634681944346   -0.22149020557641
N        19.69003061178756   -1.55505984138795   -0.16655521211154
C        21.09150668056438   -3.49317933797292   -0.28271615848834
C        22.28456836598063   -2.75624656176714   -0.13771665964471
C        23.51555739781609   -3.24994697215384    0.37272242897743
C        24.41774925882107   -2.22480945216063    0.27329385941675
C        23.71455007143108   -1.11277366205645   -0.28153347504793
N        22.39362622220401   -1.43571768313635   -0.43634369262032
C        24.22124797582330    0.11490845237681   -0.71294305725489
C        23.50703059439646    1.31174671451168   -0.72937670788107
C        23.95837407109326    2.56904312870155   -1.24151722066884
C        23.05221890316135    3.50919201561605   -0.84987882647016
C        22.04127721004619    2.82565922671677   -0.11038391789267