      -----------------------------------------------------------      
     |                   =====================                   |     
     |                           x T B                           |     
     |                   =====================                   |     
     |                         S. Grimme                         |     
     |          Mulliken Center for Theoretical Chemistry        |     
     |                    University of Bonn                     |     
      -----------------------------------------------------------      

   * xtb version 6.4.1 (bd6e46d) compiled by 'conda@4901f00b25ba' on 2021-06-10

   xtb is free software: you can redistribute it and/or modify it under
   the terms of the GNU Lesser General Public License as published by
   the Free Software Foundation, either version 3 of the License, or
   (at your option) any later version.
   
   xtb is distributed in the hope that it will be useful,
   but WITHOUT ANY WARRANTY; without even the implied warranty of
   MERCHANTABILITY or FITNESS FOR A PARTICULAR PURPOSE.  See the
   GNU Lesser General Public License for more details.
   
   Cite this work as:
   * C. Bannwarth, E. Caldeweyher, S. Ehlert, A. Hansen, P. Pracht,
     J. Seibert, S. Spicher, S. Grimme, WIREs Comput. Mol. Sci., 2020, 11,
     e01493. DOI: 10.1002/wcms.1493
   
   for GFN2-xTB:
   * C. Bannwarth, S. Ehlert and S. Grimme., J. Chem. Theory Comput., 2019,
     15, 1652-1671. DOI: 10.1021/acs.jctc.8b01176
   for GFN1-xTB:
   * S. Grimme, C. Bannwarth, P. Shushkov, J. Chem. Theory Comput., 2017,
     13, 1989-2009. DOI: 10.1021/acs.jctc.7b00118
   for GFN0-xTB:
   * P. Pracht, E. Caldeweyher, S. Ehlert, S. Grimme, ChemRxiv, 2019, preprint.
     DOI: 10.26434/chemrxiv.8326202.v1
   for GFN-FF:
   * S. Spicher and S. Grimme, Angew. Chem. Int. Ed., 2020, 59, 15665-15673.
     DOI: 10.1002/anie.202004239
   
   for DFT-D4:
   * E. Caldeweyher, C. Bannwarth and S. Grimme, J. Chem. Phys., 2017,
     147, 034112. DOI: 10.1063/1.4993215
   * E. Caldeweyher, S. Ehlert, A. Hansen, H. Neugebauer, S. Spicher,
     C. Bannwarth and S. Grimme, J. Chem. Phys., 2019, 150, 154122.
     DOI: 10.1063/1.5090222
   * E. Caldeweyher, J.-M. Mewes, S. Ehlert and S. Grimme, Phys. Chem. Chem. Phys.
     2020, 22, 8499-8512. DOI: 10.1039/D0CP00502A
   
   for sTDA-xTB:
   * S. Grimme and C. Bannwarth, J. Chem. Phys., 2016, 145, 054103.
     DOI: 10.1063/1.4959605
   
   in the mass-spec context:
   * V. Asgeirsson, C. Bauer and S. Grimme, Chem. Sci., 2017, 8, 4879.
     DOI: 10.1039/c7sc00601b
   * J. Koopman and S. Grimme, ACS Omega 2019, 4, 12, 15120-15133.
     DOI: 10.1021/acsomega.9b02011
   
   for metadynamics refer to:
   * S. Grimme, J. Chem. Theory Comput., 2019, 155, 2847-2862
     DOI: 10.1021/acs.jctc.9b00143
   
   for SPH calculations refer to:
   * S. Spicher and S. Grimme, J. Chem. Theory Comput., 2021, 17, 1701-1714
     DOI: 10.1021/acs.jctc.0c01306
   
   with help from (in alphabetical order)
   P. Atkinson, C. Bannwarth, F. Bohle, G. Brandenburg, E. Caldeweyher
   M. Checinski, S. Dohm, S. Ehlert, S. Ehrlich, I. Gerasimov, J. Koopman
   C. Lavigne, S. Lehtola, F. März, M. Müller, F. Musil, H. Neugebauer
   J. Pisarek, C. Plett, P. Pracht, J. Seibert, P. Shushkov, S. Spicher
   M. Stahn, M. Steiner, T. Strunk, J. Stückrath, T. Rose, and J. Unsleber
   
 * started run on 2021/11/21 at 10:55:49.297     

           -------------------------------------------------
          |                Calculation Setup                |
           -------------------------------------------------

          program call               : /home/jeff/miniconda3/bin/xtb input_structure_1.xyz --gfn 2 --ohess normal --parallel 1 --etemp 300 --chrg 0 --uhf 0 -I det_control.in
          hostname                   : jelfscompute1
          coordinate file            : input_structure_1.xyz
          omp threads                :                     1
          number of atoms            :                   358
          number of electrons        :                  1138
          charge                     :                     0
          spin                       :                   0.0
          first test random number   :      0.74408748033404

   ID    Z sym.   atoms
    1    6 C      1-8, 10-14, 16-20, 22, 23, 38-45, 47-51, 53-57, 59, 60,
                  75-114, 116-120, 122-126, 128, 129, 143-150, 152-156,
                  158-162, 164, 165, 179-186, 188-192, 194-198, 200, 201,
                  215-222, 224-228, 230-234, 236, 237, 251-258, 260-264,
                  266-270, 272, 273, 287-294, 296-300, 302-306, 308, 309,
                  323-330, 332-336, 338-342, 344, 345
    2    7 N      9, 15, 21, 24, 46, 52, 58, 61, 115, 121, 127, 130, 151,
                  157, 163, 166, 187, 193, 199, 202, 223, 229, 235, 238, 259,
                  265, 271, 274, 295, 301, 307, 310, 331, 337, 343, 346
    3    1 H      25-37, 62-74, 131-142, 167-178, 203-214, 239-250, 275-286,
                  311-322, 347-358

molecular fragmentation (1/2 indicates fragments):
111111111111111111111111111111111111122222222222222222222222222222222222
222222222222222222222222222222222222222222222222222222222222222222222222
222222222222222222222222222222222222222222222222222222222222222222222222
222222222222222222222222222222222222222222222222222222222222222222222222
2222222222222222222222222222222222222222222222222222222222222222222222
# atoms in fragment 1/2:    37   321
 fragment masses (1/2) :      309.34     2852.05
CMA distance (Bohr)    : 108.752
constraining FC (au)   :  0.0500

           -------------------------------------------------
          |                 G F N 2 - x T B                 |
           -------------------------------------------------

        Reference                      10.1021/acs.jctc.8b01176
      * Hamiltonian:
        H0-scaling (s, p, d)           1.850000    2.230000    2.230000
        zeta-weighting                 0.500000
      * Dispersion:
        s8                             2.700000
        a1                             0.520000
        a2                             5.000000
        s9                             5.000000
      * Repulsion:
        kExp                           1.500000    1.000000
        rExp                           1.000000
      * Coulomb:
        alpha                          2.000000
        third order                    shell-resolved
        anisotropic                    true
        a3                             3.000000
        a5                             4.000000
        cn-shift                       1.200000
        cn-exp                         4.000000
        max-rad                        5.000000


          ...................................................
          :                      SETUP                      :
          :.................................................:
          :  # basis functions                1102          :
          :  # atomic orbitals                1102          :
          :  # shells                          606          :
          :  # electrons                      1138          :
          :  max. iterations                   250          :
          :  Hamiltonian                  GFN2-xTB          :
          :  restarted?                      false          :
          :  GBSA solvation                  false          :
          :  PC potential                    false          :
          :  electronic temp.          300.0000000     K    :
          :  accuracy                    1.0000000          :
          :  -> integral cutoff          0.2500000E+02      :
          :  -> integral neglect         0.1000000E-07      :
          :  -> SCF convergence          0.1000000E-05 Eh   :
          :  -> wf. convergence          0.1000000E-03 e    :
          :  Broyden damping             0.4000000          :
          ...................................................

 iter      E             dE          RMSdq      gap      omega  full diag
   1   -623.8043238 -0.623804E+03  0.521E+00    0.02       0.0  T
   2   -624.0497962 -0.245472E+00  0.355E+00    0.06       1.0  T
   3   -603.7842304  0.202656E+02  0.356E+00    0.01       1.0  T
   4   -394.3407205  0.209444E+03  0.763E+00    0.03       1.0  T
   5   -539.3947974 -0.145054E+03  0.507E+00    0.07       1.0  T
   6   -611.2014352 -0.718066E+02  0.304E+00    0.09       1.0  T
   7   -621.7121553 -0.105107E+02  0.188E+00    0.06       1.0  T
   8   -623.2671364 -0.155498E+01  0.144E+00    0.19       1.0  T
   9   -624.7725617 -0.150543E+01  0.904E-01    0.06       1.0  T
  10   -624.8953921 -0.122830E+00  0.765E-01    0.09       1.0  T
  11   -624.9690596 -0.736675E-01  0.626E-01    0.13       1.0  T
  12   -624.9499393  0.191203E-01  0.653E-01    0.18       1.0  T
  13   -624.9935913 -0.436520E-01  0.493E-01    0.08       1.0  T
  14   -624.9392858  0.543055E-01  0.459E-01    0.04       1.0  T
  15   -625.0619930 -0.122707E+00  0.342E-01    0.12       1.0  T
  16   -625.0987389 -0.367459E-01  0.247E-01    0.08       1.0  T
  17   -625.1225423 -0.238034E-01  0.181E-01    0.06       1.0  T
  18   -625.1510248 -0.284825E-01  0.140E-01    0.01       1.0  T
  19   -625.1387901  0.122347E-01  0.201E-01    0.02       1.0  T
  20   -625.1328206  0.596951E-02  0.212E-01    0.03       1.0  T
  21   -625.1429265 -0.101059E-01  0.172E-01    0.02       1.0  T
  22   -625.1510657 -0.813923E-02  0.121E-01    0.02       1.0  T
  23   -625.1548731 -0.380746E-02  0.833E-02    0.01       1.0  T
  24   -625.1580811 -0.320797E-02  0.463E-02    0.01       1.0  T
  25   -625.1592085 -0.112737E-02  0.189E-02    0.01       1.0  T
  26   -625.1592227 -0.141858E-04  0.123E-02    0.01       1.0  T
  27   -625.1593165 -0.938454E-04  0.168E-02    0.01       1.0  T
  28   -625.1594322 -0.115680E-03  0.979E-03    0.01       1.0  T
  29   -625.1594354 -0.325366E-05  0.947E-03    0.01       1.0  T
  30   -625.1594462 -0.107290E-04  0.747E-03    0.01       1.0  T
  31   -625.1594688 -0.226167E-04  0.353E-03    0.01       1.5  T
  32   -625.1594639  0.493416E-05  0.330E-03    0.01       1.6  T
  33   -625.1594746 -0.107919E-04  0.896E-04    0.01       5.9  T
  34   -625.1594750 -0.353584E-06  0.480E-04    0.01      11.0  T
  35   -625.1594751 -0.507290E-07  0.381E-04    0.01      13.9  T

   *** convergence criteria satisfied after 35 iterations ***

         #    Occupation            Energy/Eh            Energy/eV
      -------------------------------------------------------------
         1        2.0000           -0.6967708             -18.9601
       ...           ...                  ...                  ...
       563        2.0000           -0.3477861              -9.4637
       564        2.0000           -0.3476576              -9.4602
       565        2.0000           -0.3468631              -9.4386
       566        2.0000           -0.3434480              -9.3457
       567        2.0000           -0.3386333              -9.2147
       568        2.0000           -0.3343580              -9.0983
       569        1.0247           -0.3206224              -8.7246 (HOMO)
       570        0.9212           -0.3204254              -8.7192 (LUMO)
       571        0.0294           -0.3165804              -8.6146
       572        0.0246           -0.3164092              -8.6099
       573        0.0000           -0.3103887              -8.4461
       574        0.0000           -0.3079783              -8.3805
       ...           ...                  ...                  ...
      1102                          3.8747419             105.4371
      -------------------------------------------------------------
                  HL-Gap            0.0001971 Eh            0.0054 eV
             Fermi-level           -0.3205754 Eh           -8.7233 eV

 SCC (total)                   0 d,  0 h,  0 min, 16.108 sec
 SCC setup                      ...        0 min,  0.022 sec (  0.134%)
 Dispersion                     ...        0 min,  0.045 sec (  0.278%)
 classical contributions        ...        0 min,  0.004 sec (  0.022%)
 integral evaluation            ...        0 min,  0.309 sec (  1.917%)
 iterations                     ...        0 min, 14.929 sec ( 92.680%)
 molecular gradient             ...        0 min,  0.741 sec (  4.599%)
 printout                       ...        0 min,  0.060 sec (  0.370%)

         :::::::::::::::::::::::::::::::::::::::::::::::::::::
         ::                     SUMMARY                     ::
         :::::::::::::::::::::::::::::::::::::::::::::::::::::
         :: total energy            -608.715980334246 Eh    ::
         :: gradient norm              5.842959831825 Eh/a0 ::
         :: HOMO-LUMO gap              0.005362256227 eV    ::
         ::.................................................::
         :: SCC energy              -625.159475051579 Eh    ::
         :: -> isotropic ES            0.360860988165 Eh    ::
         :: -> anisotropic ES         -0.023612451146 Eh    ::
         :: -> anisotropic XC          0.436890263836 Eh    ::
         :: -> dispersion             -0.507129531478 Eh    ::
         :: repulsion energy          16.448676896714 Eh    ::
         :: add. restraining           0.000000000000 Eh    ::
         :: total charge              -0.000000000325 e     ::
         :::::::::::::::::::::::::::::::::::::::::::::::::::::

      ----------------------------------------------------------- 
     |                   =====================                   |
     |                        A N C O P T                        |
     |                   =====================                   |
     |               Approximate Normal Coordinate               |
     |                Rational Function Optimizer                |
      ----------------------------------------------------------- 

          ...................................................
          :                      SETUP                      :
          :.................................................:
          :   optimization level            normal          :
          :   max. optcycles                  1074          :
          :   ANC micro-cycles                  20          :
          :   degrees of freedom              1068          :
          :.................................................:
          :   RF solver                   davidson          :
          :   write xtbopt.log                true          :
          :   linear?                        false          :
          :   energy convergence         0.5000000E-05 Eh   :
          :   grad. convergence          0.1000000E-02 Eh/α :
          :   maximium RF displ.         1.0000000          :
          :   Hlow (freq-cutoff)         0.1000000E-01      :
          :   Hmax (freq-cutoff)         5.0000000          :
          :   S6 in model hess.         20.0000000          :
          ...................................................

generating ANC from model Hessian ...
Using Lindh-Hessian (1995)
 Shifting diagonal of input Hessian by    1.0028591354381351E-002
 Lowest  eigenvalues of input Hessian
    0.010000    0.010013    0.010016    0.010017    0.010018    0.010019
    0.010019    0.010020    0.010021    0.010022    0.010024    0.010026
    0.010027    0.010028    0.010028    0.010028    0.000000    0.000000
 Highest eigenvalues
    4.161500    4.161500    4.161500    4.161501    4.161505    4.161505


........................................................................
.............................. CYCLE    1 ..............................
........................................................................
   1   -625.1594751 -0.625159E+03  0.317E-04    0.01       0.0  T
   2   -625.1594546  0.205191E-04  0.437E-03    0.01       1.2  T
   3   -625.1594665 -0.119121E-04  0.271E-03    0.01       1.9  T
   4   -625.1594720 -0.556271E-05  0.166E-03    0.01       3.2  T
   5   -625.1594738 -0.178074E-05  0.108E-03    0.01       4.9  T
   6   -625.1594749 -0.103899E-05  0.498E-04    0.01      10.6  T
   7   -625.1594751 -0.198411E-06  0.266E-04    0.01      19.9  T
   8   -625.1594751 -0.550955E-07  0.140E-04    0.01      37.8  T
     SCC iter.                  ...        0 min,  3.421 sec
     gradient                   ...        0 min,  0.744 sec
 * total energy  :  -608.7159804 Eh     change       -0.5662559E-07 Eh
   gradient norm :     5.8429591 Eh/α   predicted     0.0000000E+00 (-100.00%)
   displ. norm   :     0.7568844 α      lambda       -0.4366444E+01
   maximum displ.:     0.3154666 α      in ANC's #1068, #1064, #1066, ...

........................................................................
.............................. CYCLE    2 ..............................
........................................................................
   1   -625.4746127 -0.625475E+03  0.506E-01    0.10       0.0  T
   2   -625.4602661  0.143466E-01  0.439E-01    0.07       1.0  T
   3   -625.4399174  0.203487E-01  0.326E-01    0.17       1.0  T
   4   -625.2840446  0.155873E+00  0.441E-01    0.08       1.0  T
   5   -625.4659872 -0.181943E+00  0.267E-01    0.10       1.0  T
   6   -625.5186843 -0.526970E-01  0.141E-01    0.09       1.0  T
   7   -625.5276982 -0.901395E-02  0.696E-02    0.08       1.0  T
   8   -625.5201771  0.752115E-02  0.102E-01    0.09       1.0  T
   9   -625.5282349 -0.805780E-02  0.553E-02    0.08       1.0  T
  10   -625.5257423  0.249251E-02  0.651E-02    0.08       1.0  T
  11   -625.5291716 -0.342926E-02  0.310E-02    0.08       1.0  T
  12   -625.5299783 -0.806718E-03  0.981E-03    0.08       1.0  T
  13   -625.5299959 -0.175469E-04  0.813E-03    0.08       1.0  T
  14   -625.5300133 -0.174137E-04  0.507E-03    0.08       1.0  T
  15   -625.5300375 -0.242199E-04  0.279E-03    0.08       1.9  T
  16   -625.5300370  0.481586E-06  0.231E-03    0.08       2.3  T
  17   -625.5300395 -0.246200E-05  0.162E-03    0.08       3.3  T
  18   -625.5300423 -0.277628E-05  0.682E-04    0.08       7.7  T
  19   -625.5300427 -0.419649E-06  0.230E-04    0.08      23.0  T
  20   -625.5300427 -0.152742E-07  0.123E-04    0.08      42.9  T
     SCC iter.                  ...        0 min,  8.499 sec
     gradient                   ...        0 min,  0.745 sec
 * total energy  :  -611.5167854 Eh     change       -0.2800805E+01 Eh
   gradient norm :     2.1134022 Eh/α   predicted    -0.3434816E+01 (  22.64%)
   displ. norm   :     0.5779082 α      lambda       -0.1052474E+01
   maximum displ.:     0.2023529 α      in ANC's #941, #1033, #718, ...

........................................................................
.............................. CYCLE    3 ..............................
........................................................................
   1   -625.6442167 -0.625644E+03  0.238E-01    0.07       0.0  T
   2   -625.6400387  0.417795E-02  0.241E-01    0.07       1.0  T
   3   -625.6495020 -0.946325E-02  0.152E-01    0.08       1.0  T
   4   -625.6106187  0.388833E-01  0.225E-01    0.12       1.0  T
   5   -625.5430387  0.675800E-01  0.292E-01    0.12       1.0  T
   6   -625.6532001 -0.110161E+00  0.640E-02    0.08       1.0  T
   7   -625.6558185 -0.261848E-02  0.357E-02    0.08       1.0  T
   8   -625.6568048 -0.986291E-03  0.135E-02    0.07       1.0  T
   9   -625.6567917  0.131065E-04  0.134E-02    0.07       1.0  T
  10   -625.6569365 -0.144788E-03  0.608E-03    0.07       1.0  T
  11   -625.6569024  0.341574E-04  0.617E-03    0.07       1.0  T
  12   -625.6569192 -0.167954E-04  0.477E-03    0.07       1.1  T
  13   -625.6569448 -0.256709E-04  0.165E-03    0.07       3.2  T
  14   -625.6569470 -0.215537E-05  0.662E-04    0.07       8.0  T
  15   -625.6569473 -0.359598E-06  0.251E-04    0.07      21.0  T
  16   -625.6569473  0.336217E-08  0.242E-04    0.07      21.8  T
     SCC iter.                  ...        0 min,  6.831 sec
     gradient                   ...        0 min,  0.744 sec
 * total energy  :  -612.3317082 Eh     change       -0.8149228E+00 Eh
   gradient norm :     1.1540068 Eh/α   predicted    -0.7019891E+00 ( -13.86%)
   displ. norm   :     0.6315731 α      lambda       -0.5955276E+00
   maximum displ.:     0.1486656 α      in ANC's #941, #718, #227, ...

........................................................................
.............................. CYCLE    4 ..............................
........................................................................
   1   -625.8232483 -0.625823E+03  0.238E-01    0.10       0.0  T
   2   -625.8150158  0.823249E-02  0.239E-01    0.10       1.0  T
   3   -625.8077448  0.727102E-02  0.190E-01    0.12       1.0  T
   4   -625.7525452  0.551996E-01  0.257E-01    0.21       1.0  T
   5   -625.8062408 -0.536957E-01  0.170E-01    0.12       1.0  T
   6   -625.8254430 -0.192022E-01  0.939E-02    0.11       1.0  T
   7   -625.8326520 -0.720894E-02  0.357E-02    0.10       1.0  T
   8   -625.8330964 -0.444439E-03  0.263E-02    0.10       1.0  T
   9   -625.8336404 -0.544024E-03  0.136E-02    0.10       1.0  T
  10   -625.8334628  0.177637E-03  0.152E-02    0.10       1.0  T
  11   -625.8336555 -0.192716E-03  0.718E-03    0.10       1.0  T
  12   -625.8336997 -0.442188E-04  0.280E-03    0.10       1.9  T
  13   -625.8337015 -0.177930E-05  0.181E-03    0.10       2.9  T
  14   -625.8337058 -0.426106E-05  0.412E-04    0.10      12.8  T
  15   -625.8337058 -0.673895E-07  0.290E-04    0.10      18.3  T
  16   -625.8337058 -0.210935E-07  0.207E-04    0.10      25.5  T
     SCC iter.                  ...        0 min,  6.855 sec
     gradient                   ...        0 min,  0.739 sec
 * total energy  :  -612.7768884 Eh     change       -0.4451803E+00 Eh
   gradient norm :     0.5278022 Eh/α   predicted    -0.4165374E+00 (  -6.43%)
   displ. norm   :     0.7627809 α      lambda       -0.3164878E+00
   maximum displ.:     0.1940863 α      in ANC's #227, #268, #189, ...

........................................................................
.............................. CYCLE    5 ..............................
........................................................................
   1   -625.9331695 -0.625933E+03  0.237E-01    0.15       0.0  T
   2   -625.9254989  0.767062E-02  0.207E-01    0.15       1.0  T
   3   -625.9274431 -0.194421E-02  0.167E-01    0.14       1.0  T
   4   -625.9306823 -0.323927E-02  0.106E-01    0.15       1.0  T
   5   -625.9313168 -0.634439E-03  0.832E-02    0.15       1.0  T
   6   -625.9366819 -0.536510E-02  0.384E-02    0.15       1.0  T
   7   -625.9380068 -0.132490E-02  0.137E-02    0.15       1.0  T
   8   -625.9381399 -0.133141E-03  0.495E-03    0.15       1.1  T
   9   -625.9381424 -0.247025E-05  0.456E-03    0.15       1.2  T
  10   -625.9381554 -0.130546E-04  0.197E-03    0.15       2.7  T
  11   -625.9381564 -0.940521E-06  0.995E-04    0.15       5.3  T
  12   -625.9381568 -0.395843E-06  0.491E-04    0.15      10.8  T
     SCC iter.                  ...        0 min,  5.158 sec
     gradient                   ...        0 min,  0.744 sec
 * total energy  :  -613.0381328 Eh     change       -0.2612444E+00 Eh
   gradient norm :     0.2992196 Eh/α   predicted    -0.2503160E+00 (  -4.18%)
   displ. norm   :     0.8453714 α      lambda       -0.2244038E+00
   maximum displ.:     0.2404461 α      in ANC's #227, #268, #189, ...

........................................................................
.............................. CYCLE    6 ..............................
........................................................................
   1   -625.9697962 -0.625970E+03  0.223E-01    0.20       0.0  T
   2   -625.9645299  0.526627E-02  0.185E-01    0.20       1.0  T
   3   -625.9657101 -0.118013E-02  0.147E-01    0.20       1.0  T
   4   -625.9710575 -0.534742E-02  0.630E-02    0.20       1.0  T
   5   -625.9723828 -0.132528E-02  0.378E-02    0.20       1.0  T
   6   -625.9733321 -0.949307E-03  0.104E-02    0.20       1.0  T
   7   -625.9733990 -0.669068E-04  0.362E-03    0.20       1.5  T
   8   -625.9733994 -0.442387E-06  0.264E-03    0.20       2.0  T
   9   -625.9734009 -0.150615E-05  0.197E-03    0.20       2.7  T
  10   -625.9734038 -0.288186E-05  0.692E-04    0.20       7.6  T
  11   -625.9734039 -0.113161E-06  0.376E-04    0.20      14.0  T
  12   -625.9734039 -0.187766E-07  0.295E-04    0.20      17.9  T
     SCC iter.                  ...        0 min,  5.161 sec
     gradient                   ...        0 min,  0.746 sec
 * total energy  :  -613.2377968 Eh     change       -0.1996639E+00 Eh
   gradient norm :     0.2289780 Eh/α   predicted    -0.1923873E+00 (  -3.64%)
   displ. norm   :     0.8952297 α      lambda       -0.1877268E+00
   maximum displ.:     0.2523625 α      in ANC's #227, #268, #189, ...

........................................................................
.............................. CYCLE    7 ..............................
........................................................................
   1   -625.9700806 -0.625970E+03  0.210E-01    0.26       0.0  T
   2   -625.9669862  0.309444E-02  0.169E-01    0.25       1.0  T
   3   -625.9666003  0.385905E-03  0.132E-01    0.26       1.0  T
   4   -625.9715084 -0.490813E-02  0.487E-02    0.26       1.0  T
   5   -625.9724960 -0.987634E-03  0.242E-02    0.26       1.0  T
   6   -625.9727900 -0.293935E-03  0.727E-03    0.26       1.0  T
   7   -625.9728092 -0.192119E-04  0.342E-03    0.26       1.5  T
   8   -625.9728106 -0.140891E-05  0.211E-03    0.26       2.5  T
   9   -625.9728110 -0.455100E-06  0.145E-03    0.26       3.6  T
  10   -625.9728125 -0.143626E-05  0.497E-04    0.26      10.6  T
  11   -625.9728126 -0.982469E-07  0.230E-04    0.26      23.0  T
  12   -625.9728126 -0.129979E-07  0.123E-04    0.26      42.8  T
     SCC iter.                  ...        0 min,  5.170 sec
     gradient                   ...        0 min,  0.744 sec
 * total energy  :  -613.4108894 Eh     change       -0.1730926E+00 Eh
   gradient norm :     0.1941882 Eh/α   predicted    -0.1690891E+00 (  -2.31%)
   displ. norm   :     0.9208463 α      lambda       -0.1639692E+00
   maximum displ.:     0.2461044 α      in ANC's #227, #268, #189, ...

........................................................................
.............................. CYCLE    8 ..............................
........................................................................
   1   -625.9509405 -0.625951E+03  0.188E-01    0.31       0.0  T
   2   -625.9484473  0.249326E-02  0.158E-01    0.30       1.0  T
   3   -625.9485704 -0.123111E-03  0.109E-01    0.30       1.0  T
   4   -625.9515517 -0.298137E-02  0.506E-02    0.31       1.0  T
   5   -625.9528418 -0.129007E-02  0.202E-02    0.31       1.0  T
   6   -625.9530155 -0.173689E-03  0.643E-03    0.30       1.0  T
   7   -625.9530255 -0.100138E-04  0.363E-03    0.30       1.5  T
   8   -625.9530276 -0.208340E-05  0.241E-03    0.30       2.2  T
   9   -625.9530294 -0.176154E-05  0.115E-03    0.30       4.6  T
  10   -625.9530301 -0.683475E-06  0.323E-04    0.30      16.4  T
  11   -625.9530301 -0.379041E-07  0.158E-04    0.30      33.4  T
     SCC iter.                  ...        0 min,  4.723 sec
     gradient                   ...        0 min,  0.820 sec
 * total energy  :  -613.5583071 Eh     change       -0.1474177E+00 Eh
   gradient norm :     0.1519795 Eh/α   predicted    -0.1515042E+00 (   2.77%)
   displ. norm   :     0.8920220 α      lambda       -0.1246262E+00
   maximum displ.:     0.2401652 α      in ANC's #227, #189, #268, ...

........................................................................
.............................. CYCLE    9 ..............................
........................................................................
   1   -625.9272562 -0.625927E+03  0.158E-01    0.33       0.0  T
   2   -625.9252301  0.202612E-02  0.136E-01    0.33       1.0  T
   3   -625.9256459 -0.415800E-03  0.880E-02    0.33       1.0  T
   4   -625.9275574 -0.191158E-02  0.440E-02    0.33       1.0  T
   5   -625.9285638 -0.100639E-02  0.148E-02    0.33       1.0  T
   6   -625.9286542 -0.903583E-04  0.420E-03    0.33       1.3  T
   7   -625.9286569 -0.270101E-05  0.275E-03    0.33       1.9  T
   8   -625.9286582 -0.129649E-05  0.174E-03    0.33       3.0  T
   9   -625.9286595 -0.129165E-05  0.686E-04    0.33       7.7  T
  10   -625.9286597 -0.242362E-06  0.209E-04    0.33      25.2  T
  11   -625.9286597 -0.113293E-07  0.120E-04    0.33      43.9  T
     SCC iter.                  ...        0 min,  4.778 sec
     gradient                   ...        0 min,  0.741 sec
 * total energy  :  -613.6645133 Eh     change       -0.1062062E+00 Eh
   gradient norm :     0.1166803 Eh/α   predicted    -0.1118961E+00 (   5.36%)
   displ. norm   :     0.8685743 α      lambda       -0.9109348E-01
   maximum displ.:     0.2666343 α      in ANC's #189, #227, #268, ...

........................................................................
.............................. CYCLE   10 ..............................
........................................................................
   1   -625.9103667 -0.625910E+03  0.139E-01    0.35       0.0  T
   2   -625.9101183  0.248426E-03  0.939E-02    0.34       1.0  T
   3   -625.9050436  0.507472E-02  0.976E-02    0.35       1.0  T
   4   -625.9103749 -0.533139E-02  0.300E-02    0.35       1.0  T
   5   -625.9107878 -0.412894E-03  0.854E-03    0.35       1.0  T
   6   -625.9108158 -0.279526E-04  0.313E-03    0.35       1.7  T
   7   -625.9108184 -0.262416E-05  0.179E-03    0.35       3.0  T
   8   -625.9108189 -0.443386E-06  0.111E-03    0.35       4.8  T
   9   -625.9108194 -0.498188E-06  0.505E-04    0.35      10.5  T
  10   -625.9108195 -0.127161E-06  0.202E-04    0.35      26.1  T
     SCC iter.                  ...        0 min,  4.296 sec
     gradient                   ...        0 min,  0.741 sec
 * total energy  :  -613.7458354 Eh     change       -0.8132216E-01 Eh
   gradient norm :     0.0941365 Eh/α   predicted    -0.7990817E-01 (  -1.74%)
   displ. norm   :     0.8887870 α      lambda       -0.7483160E-01
   maximum displ.:     0.2488600 α      in ANC's #81, #189, #126, ...

........................................................................
.............................. CYCLE   11 ..............................
........................................................................
   1   -625.9216353 -0.625922E+03  0.126E-01    0.36       0.0  T
   2   -625.9214586  0.176671E-03  0.832E-02    0.36       1.0  T
   3   -625.9172202  0.423835E-02  0.865E-02    0.36       1.0  T
   4   -625.9216662 -0.444594E-02  0.237E-02    0.36       1.0  T
   5   -625.9219379 -0.271694E-03  0.600E-03    0.36       1.0  T
   6   -625.9219507 -0.128620E-04  0.259E-03    0.36       2.0  T
   7   -625.9219523 -0.158226E-05  0.148E-03    0.36       3.6  T
   8   -625.9219527 -0.387888E-06  0.780E-04    0.36       6.8  T
   9   -625.9219529 -0.167486E-06  0.411E-04    0.36      12.8  T
     SCC iter.                  ...        0 min,  3.866 sec
     gradient                   ...        0 min,  0.784 sec
 * total energy  :  -613.8136581 Eh     change       -0.6782270E-01 Eh
   gradient norm :     0.0768120 Eh/α   predicted    -0.6697216E-01 (  -1.25%)
   displ. norm   :     0.9059725 α      lambda       -0.6253385E-01
   maximum displ.:     0.2915578 α      in ANC's #81, #126, #189, ...

........................................................................
.............................. CYCLE   12 ..............................
........................................................................
   1   -625.9294452 -0.625929E+03  0.116E-01    0.38       0.0  T
   2   -625.9293839  0.612876E-04  0.722E-02    0.38       1.0  T
   3   -625.9263713  0.301261E-02  0.700E-02    0.38       1.0  T
   4   -625.9294644 -0.309309E-02  0.164E-02    0.38       1.0  T
   5   -625.9296067 -0.142288E-03  0.384E-03    0.38       1.4  T
   6   -625.9296112 -0.448715E-05  0.190E-03    0.38       2.8  T
   7   -625.9296117 -0.476654E-06  0.118E-03    0.38       4.5  T
   8   -625.9296120 -0.340856E-06  0.536E-04    0.38       9.9  T
   9   -625.9296121 -0.908198E-07  0.230E-04    0.38      23.0  T
     SCC iter.                  ...        0 min,  3.866 sec
     gradient                   ...        0 min,  0.739 sec
 * total energy  :  -613.8711010 Eh     change       -0.5744284E-01 Eh
   gradient norm :     0.0660784 Eh/α   predicted    -0.5693040E-01 (  -0.89%)
   displ. norm   :     0.9188786 α      lambda       -0.5393885E-01
   maximum displ.:     0.3315853 α      in ANC's #81, #126, #80, ...

........................................................................
.............................. CYCLE   13 ..............................
........................................................................
   1   -625.9453608 -0.625945E+03  0.109E-01    0.40       0.0  T
   2   -625.9453268  0.339983E-04  0.666E-02    0.40       1.0  T
   3   -625.9431178  0.220897E-02  0.605E-02    0.40       1.0  T
   4   -625.9453817 -0.226391E-02  0.141E-02    0.40       1.0  T
   5   -625.9455002 -0.118484E-03  0.344E-03    0.40       1.5  T
   6   -625.9455039 -0.369321E-05  0.178E-03    0.40       3.0  T
   7   -625.9455044 -0.471517E-06  0.101E-03    0.40       5.3  T
   8   -625.9455046 -0.239598E-06  0.483E-04    0.40      11.0  T
   9   -625.9455047 -0.873778E-07  0.200E-04    0.40      26.4  T
     SCC iter.                  ...        0 min,  3.867 sec
     gradient                   ...        0 min,  0.741 sec
 * total energy  :  -613.9210049 Eh     change       -0.4990393E-01 Eh
   gradient norm :     0.0578307 Eh/α   predicted    -0.4974075E-01 (  -0.33%)
   displ. norm   :     0.9368779 α      lambda       -0.4809165E-01
   maximum displ.:     0.3708944 α      in ANC's #81, #126, #80, ...

........................................................................
.............................. CYCLE   14 ..............................
........................................................................
   1   -625.9641460 -0.625964E+03  0.117E-01    0.42       0.0  T
   2   -625.9641096  0.363935E-04  0.699E-02    0.42       1.0  T
   3   -625.9618685  0.224105E-02  0.631E-02    0.42       1.0  T
   4   -625.9641750 -0.230648E-02  0.122E-02    0.42       1.0  T
   5   -625.9642632 -0.881876E-04  0.322E-03    0.42       1.6  T
   6   -625.9642666 -0.343873E-05  0.175E-03    0.42       3.0  T
   7   -625.9642672 -0.584546E-06  0.987E-04    0.42       5.4  T
   8   -625.9642675 -0.311780E-06  0.373E-04    0.42      14.2  T
     SCC iter.                  ...        0 min,  3.444 sec
     gradient                   ...        0 min,  0.741 sec
 * total energy  :  -613.9651496 Eh     change       -0.4414474E-01 Eh
   gradient norm :     0.0521507 Eh/α   predicted    -0.4515181E-01 (   2.28%)
   displ. norm   :     0.9549370 α      lambda       -0.4413807E-01
   maximum displ.:     0.4004749 α      in ANC's #81, #80, #126, ...

........................................................................
.............................. CYCLE   15 ..............................
........................................................................
   1   -625.9934560 -0.625993E+03  0.122E-01    0.45       0.0  T
   2   -625.9934036  0.523660E-04  0.738E-02    0.45       1.0  T
   3   -625.9910954  0.230820E-02  0.667E-02    0.45       1.0  T
   4   -625.9935056 -0.241015E-02  0.136E-02    0.45       1.0  T
   5   -625.9936187 -0.113168E-03  0.376E-03    0.45       1.4  T
   6   -625.9936242 -0.549879E-05  0.182E-03    0.45       2.9  T
   7   -625.9936248 -0.539585E-06  0.976E-04    0.45       5.4  T
   8   -625.9936250 -0.207967E-06  0.506E-04    0.45      10.4  T
     SCC iter.                  ...        0 min,  3.452 sec
     gradient                   ...        0 min,  0.739 sec
 * total energy  :  -614.0050034 Eh     change       -0.3985372E-01 Eh
   gradient norm :     0.0474414 Eh/α   predicted    -0.4219390E-01 (   5.87%)
   displ. norm   :     0.9386499 α      lambda       -0.3882213E-01
   maximum displ.:     0.4415407 α      in ANC's #81, #80, #75, ...

........................................................................
.............................. CYCLE   16 ..............................
........................................................................
   1   -626.0188153 -0.626019E+03  0.107E-01    0.48       0.0  T
   2   -626.0187307  0.845751E-04  0.663E-02    0.47       1.0  T
   3   -626.0165142  0.221652E-02  0.665E-02    0.48       1.0  T
   4   -626.0188854 -0.237124E-02  0.124E-02    0.47       1.0  T
   5   -626.0189713 -0.858659E-04  0.352E-03    0.47       1.5  T
   6   -626.0189765 -0.526433E-05  0.159E-03    0.47       3.3  T
   7   -626.0189770 -0.501075E-06  0.893E-04    0.47       5.9  T
   8   -626.0189772 -0.182476E-06  0.462E-04    0.47      11.4  T
     SCC iter.                  ...        0 min,  3.472 sec
     gradient                   ...        0 min,  0.738 sec
 * total energy  :  -614.0409440 Eh     change       -0.3594063E-01 Eh
   gradient norm :     0.0441613 Eh/α   predicted    -0.3651345E-01 (   1.59%)
   displ. norm   :     0.9478973 α      lambda       -0.3556938E-01
   maximum displ.:     0.4725783 α      in ANC's #81, #80, #75, ...

........................................................................
.............................. CYCLE   17 ..............................
........................................................................
   1   -626.0444455 -0.626044E+03  0.107E-01    0.50       0.0  T
   2   -626.0442884  0.157179E-03  0.695E-02    0.50       1.0  T
   3   -626.0422072  0.208113E-02  0.693E-02    0.50       1.0  T
   4   -626.0445610 -0.235378E-02  0.138E-02    0.50       1.0  T
   5   -626.0446653 -0.104332E-03  0.387E-03    0.50       1.4  T
   6   -626.0446720 -0.663646E-05  0.160E-03    0.50       3.3  T
   7   -626.0446724 -0.476158E-06  0.897E-04    0.50       5.9  T
   8   -626.0446726 -0.121254E-06  0.526E-04    0.50      10.0  T
     SCC iter.                  ...        0 min,  3.463 sec
     gradient                   ...        0 min,  0.739 sec
 * total energy  :  -614.0728398 Eh     change       -0.3189584E-01 Eh
   gradient norm :     0.0506641 Eh/α   predicted    -0.3376442E-01 (   5.86%)
   displ. norm   :     0.9366155 α      lambda       -0.3343699E-01
   maximum displ.:     0.4923631 α      in ANC's #81, #80, #75, ...

........................................................................
.............................. CYCLE   18 ..............................
........................................................................
   1   -626.0693788 -0.626069E+03  0.104E-01    0.52       0.0  T
   2   -626.0692618  0.116991E-03  0.668E-02    0.52       1.0  T
   3   -626.0673607  0.190104E-02  0.651E-02    0.52       1.0  T
   4   -626.0694873 -0.212660E-02  0.132E-02    0.52       1.0  T
   5   -626.0695780 -0.906425E-04  0.372E-03    0.52       1.4  T
   6   -626.0695841 -0.615803E-05  0.153E-03    0.52       3.4  T
   7   -626.0695846 -0.517705E-06  0.835E-04    0.52       6.3  T
   8   -626.0695847 -0.663346E-07  0.534E-04    0.52       9.9  T
     SCC iter.                  ...        0 min,  3.463 sec
     gradient                   ...        0 min,  0.740 sec
 * total energy  :  -614.1030300 Eh     change       -0.3019020E-01 Eh
   gradient norm :     0.0400345 Eh/α   predicted    -0.3138480E-01 (   3.96%)
   displ. norm   :     0.9424136 α      lambda       -0.2948402E-01
   maximum displ.:     0.5273758 α      in ANC's #81, #80, #75, ...

........................................................................
.............................. CYCLE   19 ..............................
........................................................................
   1   -626.0880101 -0.626088E+03  0.106E-01    0.54       0.0  T
   2   -626.0880070  0.312392E-05  0.633E-02    0.54       1.0  T
   3   -626.0865660  0.144096E-02  0.490E-02    0.54       1.0  T
   4   -626.0880445 -0.147851E-02  0.109E-02    0.54       1.0  T
   5   -626.0881106 -0.660584E-04  0.302E-03    0.54       1.7  T
   6   -626.0881146 -0.402561E-05  0.138E-03    0.54       3.8  T
   7   -626.0881151 -0.491511E-06  0.719E-04    0.54       7.4  T
   8   -626.0881152 -0.434952E-07  0.429E-04    0.54      12.3  T
     SCC iter.                  ...        0 min,  3.444 sec
     gradient                   ...        0 min,  0.813 sec
 * total energy  :  -614.1304004 Eh     change       -0.2737035E-01 Eh
   gradient norm :     0.0367361 Eh/α   predicted    -0.2783503E-01 (   1.70%)
   displ. norm   :     0.9551221 α      lambda       -0.2786656E-01
   maximum displ.:     0.5449547 α      in ANC's #81, #80, #75, ...

........................................................................
.............................. CYCLE   20 ..............................
........................................................................
   1   -626.1164140 -0.626116E+03  0.109E-01    0.55       0.0  T
   2   -626.1164136  0.408183E-06  0.647E-02    0.55       1.0  T
   3   -626.1151115  0.130208E-02  0.461E-02    0.55       1.0  T
   4   -626.1164547 -0.134318E-02  0.924E-03    0.55       1.0  T
   5   -626.1165025 -0.477396E-04  0.287E-03    0.55       1.8  T
   6   -626.1165063 -0.380553E-05  0.127E-03    0.55       4.1  T
   7   -626.1165066 -0.371320E-06  0.680E-04    0.55       7.8  T
   8   -626.1165067 -0.342712E-07  0.443E-04    0.55      11.9  T
     SCC iter.                  ...        0 min,  3.438 sec
     gradient                   ...        0 min,  0.741 sec
 * total energy  :  -614.1562845 Eh     change       -0.2588407E-01 Eh
   gradient norm :     0.0332291 Eh/α   predicted    -0.2664403E-01 (   2.94%)
   displ. norm   :     0.9472372 α      lambda       -0.2517766E-01
   maximum displ.:     0.5673262 α      in ANC's #81, #80, #75, ...
 * RMSD in coord.:     0.7214494 α      energy gain  -0.5440304E+01 Eh

generating ANC from model Hessian ...
Using Lindh-Hessian (1995)
 Shifting diagonal of input Hessian by    1.0004084443246132E-002
 Lowest  eigenvalues of input Hessian
    0.010000    0.010002    0.000000    0.000000    0.000000    0.000000
    0.000000    0.000000    0.010004    0.010005    0.010005    0.010006
    0.010006    0.010008    0.010008    0.010010    0.010010    0.010010
 Highest eigenvalues
    2.997765    2.998031    3.011502    3.011526    3.011598    3.011610


........................................................................
.............................. CYCLE   21 ..............................
........................................................................
   1   -626.1387929 -0.626139E+03  0.106E-01    0.56       0.0  T
   2   -626.1387957 -0.280033E-05  0.622E-02    0.56       1.0  T
   3   -626.1376458  0.114992E-02  0.429E-02    0.57       1.0  T
   4   -626.1388335 -0.118767E-02  0.848E-03    0.56       1.0  T
   5   -626.1388725 -0.390810E-04  0.262E-03    0.56       2.0  T
   6   -626.1388756 -0.303165E-05  0.117E-03    0.56       4.5  T
   7   -626.1388759 -0.323125E-06  0.619E-04    0.56       8.5  T
   8   -626.1388759 -0.259963E-07  0.393E-04    0.56      13.5  T
     SCC iter.                  ...        0 min,  3.442 sec
     gradient                   ...        0 min,  0.740 sec
 * total energy  :  -614.1801145 Eh     change       -0.2382999E-01 Eh
   gradient norm :     0.0306550 Eh/α   predicted     0.0000000E+00 (-100.00%)
   displ. norm   :     0.7377597 α      lambda       -0.1826284E-01
   maximum displ.:     0.3937915 α      in ANC's #85, #78, #80, ...

........................................................................
.............................. CYCLE   22 ..............................
........................................................................
   1   -626.1585014 -0.626159E+03  0.941E-02    0.57       0.0  T
   2   -626.1585014 -0.146936E-07  0.554E-02    0.57       1.0  T
   3   -626.1580241  0.477258E-03  0.270E-02    0.57       1.0  T
   4   -626.1585140 -0.489883E-03  0.459E-03    0.57       1.2  T
   5   -626.1585258 -0.117821E-04  0.155E-03    0.57       3.4  T
   6   -626.1585264 -0.653698E-06  0.914E-04    0.57       5.8  T
   7   -626.1585266 -0.190345E-06  0.409E-04    0.57      12.9  T
     SCC iter.                  ...        0 min,  3.037 sec
     gradient                   ...        0 min,  0.737 sec
 * total energy  :  -614.1975412 Eh     change       -0.1742671E-01 Eh
   gradient norm :     0.0257242 Eh/α   predicted    -0.1410158E-01 ( -19.08%)
   displ. norm   :     0.9485130 α      lambda       -0.2161139E-01
   maximum displ.:     0.5204970 α      in ANC's #85, #78, #80, ...

........................................................................
.............................. CYCLE   23 ..............................
........................................................................
   1   -626.1736488 -0.626174E+03  0.109E-01    0.58       0.0  T
   2   -626.1736562 -0.745221E-05  0.640E-02    0.58       1.0  T
   3   -626.1730126  0.643603E-03  0.311E-02    0.59       1.0  T
   4   -626.1736662 -0.653583E-03  0.662E-03    0.58       1.0  T
   5   -626.1736932 -0.270222E-04  0.178E-03    0.58       3.0  T
   6   -626.1736942 -0.983131E-06  0.106E-03    0.58       5.0  T
   7   -626.1736945 -0.308062E-06  0.522E-04    0.58      10.1  T
   8   -626.1736946 -0.547058E-07  0.279E-04    0.58      18.9  T
     SCC iter.                  ...        0 min,  3.470 sec
     gradient                   ...        0 min,  0.741 sec
 * total energy  :  -614.2181189 Eh     change       -0.2057775E-01 Eh
   gradient norm :     0.0232045 Eh/α   predicted    -0.2052804E-01 (  -0.24%)
   displ. norm   :     0.9495357 α      lambda       -0.1982027E-01
   maximum displ.:     0.5214156 α      in ANC's #85, #78, #80, ...

........................................................................
.............................. CYCLE   24 ..............................
........................................................................
   1   -626.1835419 -0.626184E+03  0.111E-01    0.60       0.0  T
   2   -626.1835556 -0.136118E-04  0.647E-02    0.60       1.0  T
   3   -626.1830436  0.511979E-03  0.282E-02    0.60       1.0  T
   4   -626.1835573 -0.513734E-03  0.685E-03    0.60       1.0  T
   5   -626.1835871 -0.298135E-04  0.188E-03    0.60       2.8  T
   6   -626.1835884 -0.123051E-05  0.108E-03    0.60       4.9  T
   7   -626.1835887 -0.302327E-06  0.546E-04    0.60       9.7  T
   8   -626.1835887 -0.646528E-07  0.283E-04    0.60      18.6  T
     SCC iter.                  ...        0 min,  3.459 sec
     gradient                   ...        0 min,  0.740 sec
 * total energy  :  -614.2369161 Eh     change       -0.1879721E-01 Eh
   gradient norm :     0.0218444 Eh/α   predicted    -0.1884533E-01 (   0.26%)
   displ. norm   :     0.9482670 α      lambda       -0.1805486E-01
   maximum displ.:     0.5190662 α      in ANC's #85, #78, #80, ...

........................................................................
.............................. CYCLE   25 ..............................
........................................................................
   1   -626.1959601 -0.626196E+03  0.110E-01    0.62       0.0  T
   2   -626.1959760 -0.159006E-04  0.642E-02    0.62       1.0  T
   3   -626.1955603  0.415704E-03  0.259E-02    0.62       1.0  T
   4   -626.1959770 -0.416763E-03  0.657E-03    0.62       1.0  T
   5   -626.1960042 -0.271488E-04  0.185E-03    0.62       2.9  T
   6   -626.1960054 -0.121701E-05  0.105E-03    0.62       5.0  T
   7   -626.1960056 -0.259435E-06  0.529E-04    0.62      10.0  T
   8   -626.1960057 -0.711224E-07  0.267E-04    0.62      19.8  T
     SCC iter.                  ...        0 min,  3.436 sec
     gradient                   ...        0 min,  0.741 sec
 * total energy  :  -614.2538665 Eh     change       -0.1695034E-01 Eh
   gradient norm :     0.0202844 Eh/α   predicted    -0.1714500E-01 (   1.15%)
   displ. norm   :     0.9464086 α      lambda       -0.1636931E-01
   maximum displ.:     0.5388629 α      in ANC's #85, #78, #80, ...

........................................................................
.............................. CYCLE   26 ..............................
........................................................................
   1   -626.2038615 -0.626204E+03  0.116E-01    0.64       0.0  T
   2   -626.2038761 -0.145987E-04  0.677E-02    0.63       1.0  T
   3   -626.2035407  0.335451E-03  0.235E-02    0.64       1.0  T
   4   -626.2038788 -0.338149E-03  0.581E-03    0.64       1.0  T
   5   -626.2038991 -0.202674E-04  0.191E-03    0.64       2.8  T
   6   -626.2039001 -0.106903E-05  0.113E-03    0.64       4.7  T
   7   -626.2039004 -0.286826E-06  0.546E-04    0.64       9.7  T
   8   -626.2039005 -0.975897E-07  0.238E-04    0.64      22.2  T
     SCC iter.                  ...        0 min,  3.437 sec
     gradient                   ...        0 min,  0.742 sec
 * total energy  :  -614.2688677 Eh     change       -0.1500122E-01 Eh
   gradient norm :     0.0186241 Eh/α   predicted    -0.1551558E-01 (   3.43%)
   displ. norm   :     0.9394158 α      lambda       -0.1471490E-01
   maximum displ.:     0.4873912 α      in ANC's #85, #78, #80, ...

........................................................................
.............................. CYCLE   27 ..............................
........................................................................
   1   -626.2117558 -0.626212E+03  0.116E-01    0.65       0.0  T
   2   -626.2117658 -0.100751E-04  0.677E-02    0.65       1.0  T
   3   -626.2113868  0.379001E-03  0.243E-02    0.65       1.0  T
   4   -626.2117738 -0.386973E-03  0.528E-03    0.65       1.0  T
   5   -626.2117900 -0.161623E-04  0.182E-03    0.65       2.9  T
   6   -626.2117906 -0.653069E-06  0.116E-03    0.65       4.5  T
   7   -626.2117910 -0.317695E-06  0.532E-04    0.65       9.9  T
   8   -626.2117911 -0.111724E-06  0.212E-04    0.65      24.9  T
     SCC iter.                  ...        0 min,  3.443 sec
     gradient                   ...        0 min,  0.740 sec
 * total energy  :  -614.2820215 Eh     change       -0.1315383E-01 Eh
   gradient norm :     0.0181686 Eh/α   predicted    -0.1385042E-01 (   5.30%)
   displ. norm   :     0.9222979 α      lambda       -0.1270571E-01
   maximum displ.:     0.5219895 α      in ANC's #85, #78, #80, ...

........................................................................
.............................. CYCLE   28 ..............................
........................................................................
   1   -626.2195085 -0.626220E+03  0.112E-01    0.66       0.0  T
   2   -626.2195201 -0.115715E-04  0.655E-02    0.66       1.0  T
   3   -626.2193122  0.207892E-03  0.184E-02    0.66       1.0  T
   4   -626.2195251 -0.212961E-03  0.445E-03    0.66       1.2  T
   5   -626.2195361 -0.109404E-04  0.162E-03    0.66       3.3  T
   6   -626.2195364 -0.326387E-06  0.110E-03    0.66       4.8  T
   7   -626.2195368 -0.364573E-06  0.431E-04    0.66      12.3  T
   8   -626.2195369 -0.769031E-07  0.163E-04    0.66      32.3  T
     SCC iter.                  ...        0 min,  3.464 sec
     gradient                   ...        0 min,  0.740 sec
 * total energy  :  -614.2933643 Eh     change       -0.1134278E-01 Eh
   gradient norm :     0.0185844 Eh/α   predicted    -0.1175681E-01 (   3.65%)
   displ. norm   :     0.9111525 α      lambda       -0.1088857E-01
   maximum displ.:     0.4801123 α      in ANC's #85, #78, #80, ...

........................................................................
.............................. CYCLE   29 ..............................
........................................................................
   1   -626.2223805 -0.626222E+03  0.109E-01    0.67       0.0  T
   2   -626.2223884 -0.790091E-05  0.642E-02    0.67       1.0  T
   3   -626.2221606  0.227769E-03  0.187E-02    0.67       1.0  T
   4   -626.2223967 -0.236086E-03  0.368E-03    0.67       1.4  T
   5   -626.2224036 -0.693509E-05  0.153E-03    0.67       3.4  T
   6   -626.2224038 -0.133268E-06  0.107E-03    0.67       4.9  T
   7   -626.2224042 -0.406051E-06  0.394E-04    0.67      13.4  T
   8   -626.2224042 -0.661328E-07  0.137E-04    0.67      38.5  T
     SCC iter.                  ...        0 min,  3.463 sec
     gradient                   ...        0 min,  0.742 sec
 * total energy  :  -614.3030730 Eh     change       -0.9708695E-02 Eh
   gradient norm :     0.0167230 Eh/α   predicted    -0.9964127E-02 (   2.63%)
   displ. norm   :     0.8978968 α      lambda       -0.9207291E-02
   maximum displ.:     0.4546532 α      in ANC's #85, #78, #80, ...

........................................................................
.............................. CYCLE   30 ..............................
........................................................................
   1   -626.2309602 -0.626231E+03  0.104E-01    0.67       0.0  T
   2   -626.2309697 -0.952501E-05  0.608E-02    0.67       1.0  T
   3   -626.2308740  0.957242E-04  0.129E-02    0.68       1.0  T
   4   -626.2309749 -0.100951E-03  0.293E-03    0.67       1.8  T
   5   -626.2309786 -0.373230E-05  0.136E-03    0.67       3.9  T
   6   -626.2309787 -0.610248E-07  0.919E-04    0.67       5.7  T
   7   -626.2309791 -0.361181E-06  0.301E-04    0.67      17.6  T
     SCC iter.                  ...        0 min,  3.008 sec
     gradient                   ...        0 min,  0.743 sec
 * total energy  :  -614.3113163 Eh     change       -0.8243333E-02 Eh
   gradient norm :     0.0150638 Eh/α   predicted    -0.8315195E-02 (   0.87%)
   displ. norm   :     0.8924338 α      lambda       -0.7868323E-02
   maximum displ.:     0.4497530 α      in ANC's #85, #78, #80, ...

........................................................................
.............................. CYCLE   31 ..............................
........................................................................
   1   -626.2478859 -0.626248E+03  0.102E-01    0.68       0.0  T
   2   -626.2478967 -0.107031E-04  0.598E-02    0.68       1.0  T
   3   -626.2478180  0.786223E-04  0.122E-02    0.68       1.0  T
   4   -626.2479003 -0.822962E-04  0.311E-03    0.68       1.7  T
   5   -626.2479049 -0.454025E-05  0.133E-03    0.68       4.0  T
   6   -626.2479049 -0.740880E-07  0.867E-04    0.68       6.1  T
   7   -626.2479053 -0.336366E-06  0.307E-04    0.68      17.2  T
     SCC iter.                  ...        0 min,  3.036 sec
     gradient                   ...        0 min,  0.758 sec
 * total energy  :  -614.3181271 Eh     change       -0.6810783E-02 Eh
   gradient norm :     0.0213620 Eh/α   predicted    -0.7067481E-02 (   3.77%)
   displ. norm   :     0.8807450 α      lambda       -0.6866144E-02
   maximum displ.:     0.3809042 α      in ANC's #85, #91, #78, ...

........................................................................
.............................. CYCLE   32 ..............................
........................................................................
   1   -626.2440757 -0.626244E+03  0.105E-01    0.68       0.0  T
   2   -626.2440871 -0.113840E-04  0.618E-02    0.68       1.0  T
   3   -626.2440007  0.863518E-04  0.137E-02    0.68       1.0  T
   4   -626.2440920 -0.913244E-04  0.317E-03    0.68       1.7  T
   5   -626.2440951 -0.303837E-05  0.163E-03    0.68       3.3  T
   6   -626.2440955 -0.408342E-06  0.105E-03    0.68       5.0  T
   7   -626.2440959 -0.427481E-06  0.388E-04    0.68      13.6  T
   8   -626.2440960 -0.540088E-07  0.138E-04    0.68      38.3  T
     SCC iter.                  ...        0 min,  3.456 sec
     gradient                   ...        0 min,  0.739 sec
 * total energy  :  -614.3237812 Eh     change       -0.5654086E-02 Eh
   gradient norm :     0.0195795 Eh/α   predicted    -0.6096145E-02 (   7.82%)
   displ. norm   :     0.8462906 α      lambda       -0.5344532E-02
   maximum displ.:     0.3715479 α      in ANC's #85, #78, #91, ...

........................................................................
.............................. CYCLE   33 ..............................
........................................................................
   1   -626.2550463 -0.626255E+03  0.918E-02    0.68       0.0  T
   2   -626.2550571 -0.108531E-04  0.538E-02    0.68       1.0  T
   3   -626.2549859  0.712009E-04  0.124E-02    0.68       1.0  T
   4   -626.2550595 -0.735594E-04  0.347E-03    0.68       1.5  T
   5   -626.2550642 -0.470462E-05  0.135E-03    0.68       3.9  T
   6   -626.2550643 -0.165411E-06  0.881E-04    0.68       6.0  T
   7   -626.2550646 -0.282943E-06  0.363E-04    0.68      14.6  T
     SCC iter.                  ...        0 min,  3.030 sec
     gradient                   ...        0 min,  0.741 sec
 * total energy  :  -614.3283161 Eh     change       -0.4534932E-02 Eh
   gradient norm :     0.0117313 Eh/α   predicted    -0.4586165E-02 (   1.13%)
   displ. norm   :     0.8427146 α      lambda       -0.4254895E-02
   maximum displ.:     0.3100477 α      in ANC's #85, #91, #34, ...

........................................................................
.............................. CYCLE   34 ..............................
........................................................................
   1   -626.2664211 -0.626266E+03  0.904E-02    0.68       0.0  T
   2   -626.2664310 -0.990932E-05  0.530E-02    0.68       1.0  T
   3   -626.2663512  0.798104E-04  0.131E-02    0.68       1.0  T
   4   -626.2664342 -0.830204E-04  0.324E-03    0.68       1.6  T
   5   -626.2664381 -0.386438E-05  0.144E-03    0.68       3.7  T
   6   -626.2664385 -0.423850E-06  0.872E-04    0.68       6.1  T
   7   -626.2664388 -0.252365E-06  0.339E-04    0.68      15.6  T
     SCC iter.                  ...        0 min,  2.999 sec
     gradient                   ...        0 min,  0.741 sec
 * total energy  :  -614.3318273 Eh     change       -0.3511210E-02 Eh
   gradient norm :     0.0154556 Eh/α   predicted    -0.3638295E-02 (   3.62%)
   displ. norm   :     0.8251190 α      lambda       -0.3485527E-02
   maximum displ.:     0.2786919 α      in ANC's #85, #34, #91, ...

........................................................................
.............................. CYCLE   35 ..............................
........................................................................
   1   -626.2679665 -0.626268E+03  0.851E-02    0.68       0.0  T
   2   -626.2679742 -0.770109E-05  0.501E-02    0.68       1.0  T
   3   -626.2678125  0.161667E-03  0.186E-02    0.68       1.0  T
   4   -626.2679816 -0.169069E-03  0.303E-03    0.68       1.7  T
   5   -626.2679844 -0.288226E-05  0.159E-03    0.68       3.3  T
   6   -626.2679853 -0.808285E-06  0.869E-04    0.68       6.1  T
   7   -626.2679855 -0.211487E-06  0.379E-04    0.68      13.9  T
     SCC iter.                  ...        0 min,  2.999 sec
     gradient                   ...        0 min,  0.740 sec
 * total energy  :  -614.3344992 Eh     change       -0.2671826E-02 Eh
   gradient norm :     0.0188100 Eh/α   predicted    -0.2929272E-02 (   9.64%)
   displ. norm   :     0.7771005 α      lambda       -0.2821489E-02
   maximum displ.:     0.2906553 α      in ANC's #27, #34, #91, ...

........................................................................
.............................. CYCLE   36 ..............................
........................................................................
   1   -626.2748881 -0.626275E+03  0.781E-02    0.68       0.0  T
   2   -626.2748943 -0.620137E-05  0.460E-02    0.68       1.0  T
   3   -626.2747644  0.129945E-03  0.164E-02    0.68       1.0  T
   4   -626.2748995 -0.135080E-03  0.298E-03    0.68       1.8  T
   5   -626.2749026 -0.310207E-05  0.153E-03    0.68       3.4  T
   6   -626.2749033 -0.730506E-06  0.792E-04    0.68       6.7  T
   7   -626.2749034 -0.152288E-06  0.332E-04    0.68      15.9  T
     SCC iter.                  ...        0 min,  3.028 sec
     gradient                   ...        0 min,  0.740 sec
 * total energy  :  -614.3364926 Eh     change       -0.1993428E-02 Eh
   gradient norm :     0.0207521 Eh/α   predicted    -0.2262676E-02 (  13.51%)
   displ. norm   :     0.7152358 α      lambda       -0.2307647E-02
   maximum displ.:     0.3058816 α      in ANC's #27, #34, #91, ...

........................................................................
.............................. CYCLE   37 ..............................
........................................................................
   1   -626.2851538 -0.626285E+03  0.663E-02    0.69       0.0  T
   2   -626.2851582 -0.444095E-05  0.392E-02    0.69       1.0  T
   3   -626.2850441  0.114137E-03  0.154E-02    0.69       1.0  T
   4   -626.2851630 -0.118911E-03  0.260E-03    0.69       2.0  T
   5   -626.2851654 -0.240301E-05  0.129E-03    0.69       4.1  T
   6   -626.2851659 -0.490219E-06  0.718E-04    0.69       7.4  T
   7   -626.2851660 -0.135634E-06  0.311E-04    0.69      17.0  T
     SCC iter.                  ...        0 min,  3.008 sec
     gradient                   ...        0 min,  0.737 sec
 * total energy  :  -614.3380760 Eh     change       -0.1583421E-02 Eh
   gradient norm :     0.0189682 Eh/α   predicted    -0.1744079E-02 (  10.15%)
   displ. norm   :     0.6779109 α      lambda       -0.1873780E-02
   maximum displ.:     0.3123798 α      in ANC's #27, #34, #26, ...

........................................................................
.............................. CYCLE   38 ..............................
........................................................................
   1   -626.2834260 -0.626283E+03  0.653E-02    0.68       0.0  T
   2   -626.2834285 -0.245885E-05  0.387E-02    0.68       1.0  T
   3   -626.2833087  0.119755E-03  0.158E-02    0.68       1.0  T
   4   -626.2834336 -0.124887E-03  0.218E-03    0.68       2.4  T
   5   -626.2834353 -0.164796E-05  0.124E-03    0.68       4.3  T
   6   -626.2834359 -0.613805E-06  0.583E-04    0.68       9.1  T
   7   -626.2834359 -0.611047E-07  0.298E-04    0.68      17.8  T
     SCC iter.                  ...        0 min,  3.009 sec
     gradient                   ...        0 min,  0.738 sec
 * total energy  :  -614.3394955 Eh     change       -0.1419477E-02 Eh
   gradient norm :     0.0130831 Eh/α   predicted    -0.1367457E-02 (  -3.66%)
   displ. norm   :     0.6879832 α      lambda       -0.1643394E-02
   maximum displ.:     0.3639500 α      in ANC's #27, #34, #26, ...

........................................................................
.............................. CYCLE   39 ..............................
........................................................................
   1   -626.2892763 -0.626289E+03  0.452E-02    0.68       0.0  T
   2   -626.2892780 -0.168044E-05  0.267E-02    0.68       1.0  T
   3   -626.2892057  0.722922E-04  0.125E-02    0.68       1.0  T
   4   -626.2892810 -0.753387E-04  0.185E-03    0.68       2.9  T
   5   -626.2892823 -0.123360E-05  0.923E-04    0.68       5.7  T
   6   -626.2892826 -0.308593E-06  0.473E-04    0.68      11.2  T
   7   -626.2892826 -0.498361E-07  0.233E-04    0.68      22.7  T
     SCC iter.                  ...        0 min,  3.019 sec
     gradient                   ...        0 min,  0.739 sec
 * total energy  :  -614.3408280 Eh     change       -0.1332556E-02 Eh
   gradient norm :     0.0132269 Eh/α   predicted    -0.1210633E-02 (  -9.15%)
   displ. norm   :     0.7176431 α      lambda       -0.1776549E-02
   maximum displ.:     0.4025146 α      in ANC's #27, #34, #26, ...

........................................................................
.............................. CYCLE   40 ..............................
........................................................................
   1   -626.2872399 -0.626287E+03  0.500E-02    0.68       0.0  T
   2   -626.2872416 -0.175613E-05  0.296E-02    0.68       1.0  T
   3   -626.2871762  0.654306E-04  0.119E-02    0.68       1.0  T
   4   -626.2872445 -0.683323E-04  0.194E-03    0.68       2.7  T
   5   -626.2872460 -0.142925E-05  0.904E-04    0.68       5.8  T
   6   -626.2872462 -0.213871E-06  0.532E-04    0.68       9.9  T
   7   -626.2872463 -0.827846E-07  0.205E-04    0.68      25.8  T
     SCC iter.                  ...        0 min,  3.037 sec
     gradient                   ...        0 min,  0.740 sec
 * total energy  :  -614.3422120 Eh     change       -0.1383985E-02 Eh
   gradient norm :     0.0156571 Eh/α   predicted    -0.1345750E-02 (  -2.76%)
   displ. norm   :     0.7232740 α      lambda       -0.1689294E-02
   maximum displ.:     0.4197878 α      in ANC's #27, #26, #34, ...

........................................................................
.............................. CYCLE   41 ..............................
........................................................................
   1   -626.2779357 -0.626278E+03  0.446E-02    0.68       0.0  T
   2   -626.2779368 -0.116257E-05  0.264E-02    0.68       1.0  T
   3   -626.2778426  0.942913E-04  0.129E-02    0.68       1.0  T
   4   -626.2779404 -0.978343E-04  0.225E-03    0.68       2.4  T
   5   -626.2779430 -0.257000E-05  0.843E-04    0.68       6.3  T
   6   -626.2779431 -0.158404E-06  0.521E-04    0.68      10.1  T
   7   -626.2779432 -0.652561E-07  0.222E-04    0.68      23.8  T
     SCC iter.                  ...        0 min,  3.014 sec
     gradient                   ...        0 min,  0.739 sec
 * total energy  :  -614.3435571 Eh     change       -0.1345063E-02 Eh
   gradient norm :     0.0153681 Eh/α   predicted    -0.1286509E-02 (  -4.35%)
   displ. norm   :     0.7393671 α      lambda       -0.1672145E-02
   maximum displ.:     0.4360256 α      in ANC's #27, #26, #34, ...

........................................................................
.............................. CYCLE   42 ..............................
........................................................................
   1   -626.2737408 -0.626274E+03  0.550E-02    0.68       0.0  T
   2   -626.2737416 -0.808828E-06  0.326E-02    0.68       1.0  T
   3   -626.2735914  0.150261E-03  0.168E-02    0.68       1.0  T
   4   -626.2737470 -0.155657E-03  0.251E-03    0.68       2.1  T
   5   -626.2737500 -0.297931E-05  0.996E-04    0.68       5.3  T
   6   -626.2737503 -0.325861E-06  0.564E-04    0.68       9.4  T
   7   -626.2737504 -0.527932E-07  0.287E-04    0.68      18.4  T
     SCC iter.                  ...        0 min,  3.011 sec
     gradient                   ...        0 min,  0.737 sec
 * total energy  :  -614.3446978 Eh     change       -0.1140690E-02 Eh
   gradient norm :     0.0206700 Eh/α   predicted    -0.1293131E-02 (  13.36%)
   displ. norm   :     0.6714098 α      lambda       -0.1331212E-02
   maximum displ.:     0.4017350 α      in ANC's #27, #26, #34, ...
 * RMSD in coord.:     0.7992333 α      energy gain  -0.1884133E+00 Eh

generating ANC from model Hessian ...
Using Lindh-Hessian (1995)
 Shifting diagonal of input Hessian by    1.0007045333179830E-002
 Lowest  eigenvalues of input Hessian
    0.010000    0.010001    0.010004    0.010005    0.010006    0.010006
    0.000000    0.000000    0.000000    0.000000    0.000000    0.000000
    0.010008    0.010008    0.010008    0.010009    0.010010    0.010011
 Highest eigenvalues
    2.961605    2.962505    2.969020    2.969189    2.969195    2.971094


........................................................................
.............................. CYCLE   43 ..............................
........................................................................
   1   -626.2716065 -0.626272E+03  0.413E-02    0.68       0.0  T
   2   -626.2716076 -0.105762E-05  0.244E-02    0.68       1.0  T
   3   -626.2715554  0.522012E-04  0.101E-02    0.68       1.0  T
   4   -626.2716093 -0.539127E-04  0.178E-03    0.68       3.0  T
   5   -626.2716107 -0.142854E-05  0.705E-04    0.68       7.5  T
   6   -626.2716108 -0.128028E-06  0.415E-04    0.68      12.7  T
   7   -626.2716109 -0.427051E-07  0.165E-04    0.68      32.1  T
     SCC iter.                  ...        0 min,  3.033 sec
     gradient                   ...        0 min,  0.734 sec
 * total energy  :  -614.3457089 Eh     change       -0.1011092E-02 Eh
   gradient norm :     0.0155942 Eh/α   predicted     0.0000000E+00 (-100.00%)
   displ. norm   :     0.2167130 α      lambda       -0.8617297E-03
   maximum displ.:     0.1520348 α      in ANC's #24, #103, #102, ...

........................................................................
.............................. CYCLE   44 ..............................
........................................................................
   1   -626.2684282 -0.626268E+03  0.415E-02    0.68       0.0  T
   2   -626.2684291 -0.949112E-06  0.250E-02    0.68       1.0  T
   3   -626.2683952  0.339158E-04  0.824E-03    0.68       1.0  T
   4   -626.2684305 -0.352684E-04  0.140E-03    0.68       3.8  T
   5   -626.2684312 -0.704625E-06  0.721E-04    0.68       7.3  T
   6   -626.2684314 -0.172234E-06  0.371E-04    0.68      14.3  T
     SCC iter.                  ...        0 min,  2.610 sec
     gradient                   ...        0 min,  0.738 sec
 * total energy  :  -614.3460695 Eh     change       -0.3606006E-03 Eh
   gradient norm :     0.0077102 Eh/α   predicted    -0.4512921E-03 (  25.15%)
   displ. norm   :     0.2534637 α      lambda       -0.8556668E-03
   maximum displ.:     0.1825297 α      in ANC's #24, #95, #34, ...

........................................................................
.............................. CYCLE   45 ..............................
........................................................................
   1   -626.2665428 -0.626267E+03  0.270E-02    0.68       0.0  T
   2   -626.2665429 -0.106049E-06  0.163E-02    0.68       1.0  T
   3   -626.2664967  0.461951E-04  0.973E-03    0.68       1.0  T
   4   -626.2665451 -0.484126E-04  0.164E-03    0.68       3.2  T
   5   -626.2665462 -0.112196E-05  0.616E-04    0.68       8.6  T
   6   -626.2665463 -0.139445E-06  0.297E-04    0.68      17.8  T
   7   -626.2665464 -0.171908E-07  0.125E-04    0.68      42.3  T
     SCC iter.                  ...        0 min,  3.010 sec
     gradient                   ...        0 min,  0.738 sec
 * total energy  :  -614.3466810 Eh     change       -0.6115523E-03 Eh
   gradient norm :     0.0129541 Eh/α   predicted    -0.4553193E-03 ( -25.55%)
   displ. norm   :     0.3859496 α      lambda       -0.8220372E-03
   maximum displ.:     0.2918069 α      in ANC's #24, #34, #52, ...

........................................................................
.............................. CYCLE   46 ..............................
........................................................................
   1   -626.2662218 -0.626266E+03  0.302E-02    0.68       0.0  T
   2   -626.2662228 -0.104577E-05  0.179E-02    0.68       1.0  T
   3   -626.2661883  0.345737E-04  0.806E-03    0.68       1.0  T
   4   -626.2662245 -0.361810E-04  0.148E-03    0.68       3.6  T
   5   -626.2662253 -0.857787E-06  0.645E-04    0.68       8.2  T
   6   -626.2662254 -0.121676E-06  0.371E-04    0.68      14.2  T
     SCC iter.                  ...        0 min,  2.584 sec
     gradient                   ...        0 min,  0.736 sec
 * total energy  :  -614.3473433 Eh     change       -0.6622333E-03 Eh
   gradient norm :     0.0113927 Eh/α   predicted    -0.4722429E-03 ( -28.69%)
   displ. norm   :     0.5039707 α      lambda       -0.9852994E-03
   maximum displ.:     0.3743173 α      in ANC's #24, #34, #52, ...

........................................................................
.............................. CYCLE   47 ..............................
........................................................................
   1   -626.2679837 -0.626268E+03  0.367E-02    0.68       0.0  T
   2   -626.2679859 -0.213498E-05  0.217E-02    0.68       1.0  T
   3   -626.2679521  0.338056E-04  0.797E-03    0.68       1.0  T
   4   -626.2679871 -0.350066E-04  0.186E-03    0.68       2.8  T
   5   -626.2679884 -0.133471E-05  0.776E-04    0.68       6.8  T
   6   -626.2679886 -0.156443E-06  0.447E-04    0.68      11.8  T
   7   -626.2679886 -0.498782E-07  0.183E-04    0.68      28.8  T
     SCC iter.                  ...        0 min,  3.040 sec
     gradient                   ...        0 min,  0.734 sec
 * total energy  :  -614.3480964 Eh     change       -0.7531401E-03 Eh
   gradient norm :     0.0098361 Eh/α   predicted    -0.6177770E-03 ( -17.97%)
   displ. norm   :     0.4999247 α      lambda       -0.9342109E-03
   maximum displ.:     0.3754927 α      in ANC's #24, #34, #52, ...

........................................................................
.............................. CYCLE   48 ..............................
........................................................................
   1   -626.2720399 -0.626272E+03  0.315E-02    0.68       0.0  T
   2   -626.2720416 -0.173732E-05  0.186E-02    0.68       1.0  T
   3   -626.2720179  0.236841E-04  0.681E-03    0.68       1.0  T
   4   -626.2720428 -0.248439E-04  0.139E-03    0.68       3.8  T
   5   -626.2720434 -0.650489E-06  0.721E-04    0.68       7.3  T
   6   -626.2720436 -0.192057E-06  0.345E-04    0.68      15.3  T
     SCC iter.                  ...        0 min,  2.609 sec
     gradient                   ...        0 min,  0.743 sec
 * total energy  :  -614.3489014 Eh     change       -0.8050173E-03 Eh
   gradient norm :     0.0080872 Eh/α   predicted    -0.5838530E-03 ( -27.47%)
   displ. norm   :     0.5008972 α      lambda       -0.8546312E-03
   maximum displ.:     0.3733559 α      in ANC's #24, #34, #52, ...

........................................................................
.............................. CYCLE   49 ..............................
........................................................................
   1   -626.2760426 -0.626276E+03  0.312E-02    0.68       0.0  T
   2   -626.2760440 -0.134829E-05  0.186E-02    0.68       1.0  T
   3   -626.2760173  0.267018E-04  0.728E-03    0.68       1.0  T
   4   -626.2760448 -0.275147E-04  0.146E-03    0.68       3.6  T
   5   -626.2760456 -0.847407E-06  0.776E-04    0.68       6.8  T
   6   -626.2760459 -0.271171E-06  0.294E-04    0.68      18.0  T
     SCC iter.                  ...        0 min,  2.572 sec
     gradient                   ...        0 min,  0.736 sec
 * total energy  :  -614.3496187 Eh     change       -0.7173031E-03 Eh
   gradient norm :     0.0065285 Eh/α   predicted    -0.5345290E-03 ( -25.48%)
   displ. norm   :     0.5095224 α      lambda       -0.8602368E-03
   maximum displ.:     0.3738467 α      in ANC's #24, #34, #40, ...

........................................................................
.............................. CYCLE   50 ..............................
........................................................................
   1   -626.2794814 -0.626279E+03  0.311E-02    0.68       0.0  T
   2   -626.2794827 -0.125436E-05  0.185E-02    0.68       1.0  T
   3   -626.2794634  0.192921E-04  0.619E-03    0.68       1.0  T
   4   -626.2794831 -0.197288E-04  0.137E-03    0.68       3.9  T
   5   -626.2794839 -0.782699E-06  0.696E-04    0.68       7.6  T
   6   -626.2794841 -0.198444E-06  0.294E-04    0.68      18.0  T
     SCC iter.                  ...        0 min,  2.612 sec
     gradient                   ...        0 min,  0.736 sec
 * total energy  :  -614.3503396 Eh     change       -0.7209140E-03 Eh
   gradient norm :     0.0071602 Eh/α   predicted    -0.5417837E-03 ( -24.85%)
   displ. norm   :     0.5381827 α      lambda       -0.8617320E-03
   maximum displ.:     0.3886893 α      in ANC's #24, #34, #52, ...

........................................................................
.............................. CYCLE   51 ..............................
........................................................................
   1   -626.2813585 -0.626281E+03  0.297E-02    0.68       0.0  T
   2   -626.2813594 -0.898465E-06  0.175E-02    0.68       1.0  T
   3   -626.2813453  0.141143E-04  0.509E-03    0.68       1.0  T
   4   -626.2813597 -0.144186E-04  0.119E-03    0.68       4.5  T
   5   -626.2813603 -0.665284E-06  0.542E-04    0.68       9.8  T
   6   -626.2813604 -0.101148E-06  0.247E-04    0.68      21.4  T
     SCC iter.                  ...        0 min,  2.606 sec
     gradient                   ...        0 min,  0.736 sec
 * total energy  :  -614.3511292 Eh     change       -0.7895391E-03 Eh
   gradient norm :     0.0073140 Eh/α   predicted    -0.5556677E-03 ( -29.62%)
   displ. norm   :     0.6165868 α      lambda       -0.1021396E-02
   maximum displ.:     0.4421292 α      in ANC's #24, #34, #40, ...

........................................................................
.............................. CYCLE   52 ..............................
........................................................................
   1   -626.2810334 -0.626281E+03  0.334E-02    0.68       0.0  T
   2   -626.2810341 -0.715231E-06  0.196E-02    0.68       1.0  T
   3   -626.2810136  0.204663E-04  0.594E-03    0.68       1.0  T
   4   -626.2810349 -0.212795E-04  0.115E-03    0.68       4.6  T
   5   -626.2810355 -0.603417E-06  0.522E-04    0.68      10.1  T
   6   -626.2810356 -0.689422E-07  0.288E-04    0.68      18.4  T
     SCC iter.                  ...        0 min,  2.577 sec
     gradient                   ...        0 min,  0.738 sec
 * total energy  :  -614.3520952 Eh     change       -0.9660520E-03 Eh
   gradient norm :     0.0062397 Eh/α   predicted    -0.7048556E-03 ( -27.04%)
   displ. norm   :     0.7003849 α      lambda       -0.1152069E-02
   maximum displ.:     0.5048712 α      in ANC's #24, #34, #40, ...

........................................................................
.............................. CYCLE   53 ..............................
........................................................................
   1   -626.2771914 -0.626277E+03  0.394E-02    0.68       0.0  T
   2   -626.2771921 -0.756697E-06  0.232E-02    0.68       1.0  T
   3   -626.2771687  0.234338E-04  0.631E-03    0.68       1.0  T
   4   -626.2771932 -0.245060E-04  0.114E-03    0.68       4.6  T
   5   -626.2771937 -0.527881E-06  0.560E-04    0.68       9.4  T
   6   -626.2771938 -0.615637E-07  0.324E-04    0.68      16.3  T
     SCC iter.                  ...        0 min,  2.607 sec
     gradient                   ...        0 min,  0.732 sec
 * total energy  :  -614.3531710 Eh     change       -0.1075731E-02 Eh
   gradient norm :     0.0053603 Eh/α   predicted    -0.8586060E-03 ( -20.18%)
   displ. norm   :     0.7291229 α      lambda       -0.1178639E-02
   maximum displ.:     0.5302255 α      in ANC's #24, #34, #40, ...

........................................................................
.............................. CYCLE   54 ..............................
........................................................................
   1   -626.2716937 -0.626272E+03  0.436E-02    0.68       0.0  T
   2   -626.2716947 -0.100038E-05  0.257E-02    0.68       1.0  T
   3   -626.2716667  0.279823E-04  0.704E-03    0.68       1.0  T
   4   -626.2716960 -0.292635E-04  0.123E-03    0.68       4.3  T
   5   -626.2716966 -0.547044E-06  0.687E-04    0.68       7.7  T
   6   -626.2716967 -0.133874E-06  0.345E-04    0.68      15.3  T
     SCC iter.                  ...        0 min,  2.607 sec
     gradient                   ...        0 min,  0.738 sec
[...]
 953:  0.00 954:  0.00 955:  0.00 956:  0.00 957:  0.00 958:  0.00 959:  0.00 960:  0.00
 961:  0.00 962:  0.00 963:  0.00 964:  0.00 965:  0.00 966:  0.00 967:  0.00 968:  0.00
 969:  0.00 970:  0.00 971:  0.00 972:  0.00 973:  0.00 974:  0.00 975:  0.00 976:  0.00
 977:  0.00 978:  0.00 979:  0.00 980:  0.00 981:  0.00 982:  0.00 983:  0.00 984:  0.00
 985:  0.00 986:  0.00 987:  0.00 988:  0.00 989:  0.00 990:  0.00 991:  0.00 992:  0.00
 993:  0.00 994:  0.00 995:  0.00 996:  0.00 997:  0.00 998:  0.00 999:  0.001000:  0.00
1001:  0.001002:  0.001003:  0.001004:  0.001005:  0.001006:  0.001007:  0.001008:  0.00
1009:  0.001010:  0.001011:  0.001012:  0.001013:  0.001014:  0.001015:  0.001016:  0.00
1017:  0.001018:  0.001019:  0.001020:  0.001021:  0.001022:  0.001023:  0.001024:  0.00
1025:  0.001026:  0.001027:  0.001028:  0.001029:  0.001030:  0.001031:  0.001032:  0.00
1033:  0.001034:  0.001035:  0.001036:  0.001037:  0.001038:  0.001039:  0.001040:  0.00
1041:  0.001042:  0.001043:  0.001044:  0.001045:  0.001046:  0.001047:  0.001048:  0.00
1049:  0.001050:  0.001051:  0.001052:  0.001053:  0.001054:  0.001055:  0.001056:  0.00
1057:  0.001058:  0.001059:  0.001060:  0.001061:  0.001062:  0.001063:  0.001064:  0.00
1065:  0.001066:  0.001067:  0.001068:  0.001069:  0.001070:  0.001071:  0.001072:  0.00
1073:  0.001074:  0.00
 output can be read by thermo (or use thermo option).
 writing <g98.out> molden fake output.
 recommended (thermochemical) frequency scaling factor: 1.0
           -------------------------------------------------
          |             Thermodynamic Functions             |
           -------------------------------------------------
 symmetry recognition skipped because # atoms >         200
 inverting freq            1   4.1717072273325018     
 inverting freq            2   4.0102874918861939     
 inverting freq            3   3.6002118892140094     
 inverting freq            4   2.6287435949881650     
 inverting freq            5   1.0635754684161569     

          ...................................................
          :                      SETUP                      :
          :.................................................:
          :  # frequencies                        1067      :
          :  # imaginary freq.                       0      :
          :  linear?                             false      :
          :  only rotor calc.                    false      :
          :  symmetry                               C1      :
          :  rotational number                       1      :
          :  scaling factor                  1.0000000      :
          :  rotor cutoff                   50.0000000 cm⁻¹ :
          :  imag. cutoff                  -20.0000000 cm⁻¹ :
          :.................................................:

    mode    ω/cm⁻¹     T·S(HO)/kcal·mol⁻¹    T·S(FR)/kcal·mol⁻¹   T·S(vib)
   ------------------------------------------------------------------------
       1      4.17    -2.90643 (  0.00%)    -1.79233 (100.00%)    -1.79238
       2      4.01    -2.92981 (  0.00%)    -1.80402 (100.00%)    -1.80406
       3      3.60    -2.99372 (  0.00%)    -1.83597 (100.00%)    -1.83600
       4      2.63    -3.18004 (  0.00%)    -1.92914 (100.00%)    -1.92915
       5      1.06    -3.71616 (  0.00%)    -2.19720 (100.00%)    -2.19720
       6      1.36    -3.57159 (  0.00%)    -2.12491 (100.00%)    -2.12491
       7      2.14    -3.30301 (  0.00%)    -1.99062 (100.00%)    -1.99063
       8      2.40    -3.23475 (  0.00%)    -1.95649 (100.00%)    -1.95650
       9      2.66    -3.17308 (  0.00%)    -1.92566 (100.00%)    -1.92567
      10      4.18    -2.90555 (  0.00%)    -1.79189 (100.00%)    -1.79194
      11      4.59    -2.84966 (  0.01%)    -1.76394 ( 99.99%)    -1.76402
      12      4.95    -2.80511 (  0.01%)    -1.74166 ( 99.99%)    -1.74177
      13      5.61    -2.73145 (  0.02%)    -1.70483 ( 99.98%)    -1.70499
      14      6.59    -2.63575 (  0.03%)    -1.65698 ( 99.97%)    -1.65727
      15      6.93    -2.60587 (  0.04%)    -1.64204 ( 99.96%)    -1.64239
      16      7.15    -2.58713 (  0.04%)    -1.63267 ( 99.96%)    -1.63307
      17      7.36    -2.57013 (  0.05%)    -1.62417 ( 99.95%)    -1.62461
      18      7.75    -2.53976 (  0.06%)    -1.60898 ( 99.94%)    -1.60951
      19      8.27    -2.50082 (  0.07%)    -1.58950 ( 99.93%)    -1.59019
      20      8.36    -2.49449 (  0.08%)    -1.58634 ( 99.92%)    -1.58705
      21      8.91    -2.45662 (  0.10%)    -1.56740 ( 99.90%)    -1.56830
      22      9.35    -2.42850 (  0.12%)    -1.55334 ( 99.88%)    -1.55441
      23      9.60    -2.41285 (  0.14%)    -1.54551 ( 99.86%)    -1.54669
      24     11.03    -2.33030 (  0.24%)    -1.50423 ( 99.76%)    -1.50618
      25     11.83    -2.28877 (  0.31%)    -1.48346 ( 99.69%)    -1.48598
      26     14.36    -2.17435 (  0.67%)    -1.42623 ( 99.33%)    -1.43128
      27     16.98    -2.07489 (  1.31%)    -1.37648 ( 98.69%)    -1.38565
      28     17.42    -2.05989 (  1.45%)    -1.36897 ( 98.55%)    -1.37900
      29     19.84    -1.98278 (  2.42%)    -1.33039 ( 97.58%)    -1.34617
      30     22.44    -1.90982 (  3.90%)    -1.29388 ( 96.10%)    -1.31790
      31     22.79    -1.90062 (  4.14%)    -1.28928 ( 95.86%)    -1.31458
      32     24.96    -1.84682 (  5.85%)    -1.26235 ( 94.15%)    -1.29653
      33     25.94    -1.82396 (  6.76%)    -1.25090 ( 93.24%)    -1.28964
      34     28.01    -1.77859 (  8.97%)    -1.22819 ( 91.03%)    -1.27755
      35     28.21    -1.77433 (  9.21%)    -1.22606 ( 90.79%)    -1.27653
      36     29.10    -1.75609 ( 10.29%)    -1.21692 ( 89.71%)    -1.27240
      37     31.61    -1.70713 ( 13.77%)    -1.19239 ( 86.23%)    -1.26329
      38     31.96    -1.70060 ( 14.31%)    -1.18912 ( 85.69%)    -1.26230
      39     34.84    -1.64965 ( 19.07%)    -1.16359 ( 80.93%)    -1.25629
      40     37.66    -1.60360 ( 24.35%)    -1.14051 ( 75.65%)    -1.25327
      41     37.99    -1.59844 ( 25.00%)    -1.13792 ( 75.00%)    -1.25304
      42     39.75    -1.57169 ( 28.55%)    -1.12451 ( 71.45%)    -1.25216
      43     41.02    -1.55306 ( 31.19%)    -1.11516 ( 68.81%)    -1.25173
      44     41.22    -1.55023 ( 31.60%)    -1.11374 ( 68.40%)    -1.25167
      45     41.43    -1.54725 ( 32.04%)    -1.11225 ( 67.96%)    -1.25161
      46     41.53    -1.54576 ( 32.26%)    -1.11150 ( 67.74%)    -1.25158
      47     41.71    -1.54324 ( 32.63%)    -1.11024 ( 67.37%)    -1.25153
      48     41.82    -1.54165 ( 32.87%)    -1.10944 ( 67.13%)    -1.25150
      49     42.05    -1.53855 ( 33.33%)    -1.10788 ( 66.67%)    -1.25144
      50     42.12    -1.53746 ( 33.50%)    -1.10734 ( 66.50%)    -1.25142
      51     42.73    -1.52908 ( 34.77%)    -1.10313 ( 65.23%)    -1.25125
      52     42.75    -1.52867 ( 34.84%)    -1.10293 ( 65.16%)    -1.25124
      53     43.59    -1.51719 ( 36.62%)    -1.09717 ( 63.38%)    -1.25099
      54     44.97    -1.49879 ( 39.56%)    -1.08793 ( 60.44%)    -1.25048
      55     47.38    -1.46805 ( 44.64%)    -1.07250 ( 55.36%)    -1.24906
      56     48.34    -1.45625 ( 46.62%)    -1.06657 ( 53.38%)    -1.24825
      57     52.38    -1.40887 ( 54.64%)    -1.04277 ( 45.36%)    -1.24281
      58     55.97    -1.36986 ( 61.09%)    -1.02315 ( 38.91%)    -1.23495
      59     56.78    -1.36140 ( 62.44%)    -1.01889 ( 37.56%)    -1.23277
      60     61.28    -1.31650 ( 69.29%)    -0.99629 ( 30.71%)    -1.21816
      61     63.41    -1.29641 ( 72.12%)    -0.98617 ( 27.88%)    -1.20991
      62     65.79    -1.27470 ( 74.99%)    -0.97523 ( 25.01%)    -1.19980
      63     68.69    -1.24938 ( 78.08%)    -0.96245 ( 21.92%)    -1.18649
      64     70.00    -1.23835 ( 79.34%)    -0.95689 ( 20.66%)    -1.18021
      65     71.59    -1.22516 ( 80.78%)    -0.95023 ( 19.22%)    -1.17231
      66     73.04    -1.21336 ( 82.00%)    -0.94427 ( 18.00%)    -1.16491
      67     82.90    -1.13926 ( 88.31%)    -0.90678 ( 11.69%)    -1.11209
      68     86.01    -1.11773 ( 89.75%)    -0.89586 ( 10.25%)    -1.09498
      69     88.71    -1.09964 ( 90.83%)    -0.88668 (  9.17%)    -1.08012
      70     90.51    -1.08793 ( 91.48%)    -0.88074 (  8.52%)    -1.07028
      71     91.57    -1.08118 ( 91.84%)    -0.87731 (  8.16%)    -1.06453
      72     92.17    -1.07734 ( 92.03%)    -0.87536 (  7.97%)    -1.06125
      73     92.44    -1.07562 ( 92.12%)    -0.87448 (  7.88%)    -1.05977
      74     92.85    -1.07310 ( 92.24%)    -0.87320 (  7.76%)    -1.05759
      75     94.60    -1.06221 ( 92.76%)    -0.86767 (  7.24%)    -1.04813
      76     95.11    -1.05908 ( 92.90%)    -0.86607 (  7.10%)    -1.04539
      77     98.67    -1.03768 ( 93.81%)    -0.85517 (  6.19%)    -1.02639
      78    100.28    -1.02826 ( 94.18%)    -0.85037 (  5.82%)    -1.01790
      79    102.81    -1.01383 ( 94.70%)    -0.84301 (  5.30%)    -1.00478
      80    105.63    -0.99811 ( 95.22%)    -0.83499 (  4.78%)    -0.99032
      81    108.03    -0.98509 ( 95.61%)    -0.82833 (  4.39%)    -0.97821
      82    109.63    -0.97660 ( 95.85%)    -0.82399 (  4.15%)    -0.97027
      83    111.06    -0.96908 ( 96.05%)    -0.82014 (  3.95%)    -0.96320
      84    111.40    -0.96729 ( 96.10%)    -0.81922 (  3.90%)    -0.96152
      85    113.19    -0.95810 ( 96.33%)    -0.81451 (  3.67%)    -0.95283
      86    113.30    -0.95754 ( 96.35%)    -0.81423 (  3.65%)    -0.95231
      87    113.57    -0.95617 ( 96.38%)    -0.81352 (  3.62%)    -0.95100
      88    113.91    -0.95445 ( 96.42%)    -0.81264 (  3.58%)    -0.94937
      89    114.33    -0.95231 ( 96.47%)    -0.81154 (  3.53%)    -0.94734
      90    114.78    -0.95005 ( 96.52%)    -0.81038 (  3.48%)    -0.94519
      91    115.36    -0.94711 ( 96.59%)    -0.80888 (  3.41%)    -0.94240
      92    116.39    -0.94199 ( 96.71%)    -0.80625 (  3.29%)    -0.93752
      93    116.50    -0.94145 ( 96.72%)    -0.80597 (  3.28%)    -0.93700
      94    130.30    -0.87706 ( 97.88%)    -0.77281 (  2.12%)    -0.87485
      95    130.47    -0.87627 ( 97.89%)    -0.77241 (  2.11%)    -0.87408
      96    130.83    -0.87473 ( 97.91%)    -0.77161 (  2.09%)    -0.87258
      97    131.29    -0.87270 ( 97.94%)    -0.77056 (  2.06%)    -0.87060
      98    131.91    -0.87001 ( 97.98%)    -0.76917 (  2.02%)    -0.86797
      99    132.69    -0.86663 ( 98.02%)    -0.76742 (  1.98%)    -0.86466
     100    133.53    -0.86300 ( 98.07%)    -0.76554 (  1.93%)    -0.86112
     101    134.35    -0.85951 ( 98.12%)    -0.76374 (  1.88%)    -0.85770
     102    139.05    -0.83985 ( 98.36%)    -0.75354 (  1.64%)    -0.83843
     103    139.10    -0.83965 ( 98.36%)    -0.75344 (  1.64%)    -0.83824
     104    139.21    -0.83920 ( 98.36%)    -0.75321 (  1.64%)    -0.83780
     105    139.37    -0.83854 ( 98.37%)    -0.75287 (  1.63%)    -0.83714
     106    139.59    -0.83765 ( 98.38%)    -0.75240 (  1.62%)    -0.83627
     107    139.87    -0.83652 ( 98.39%)    -0.75182 (  1.61%)    -0.83515
     108    140.29    -0.83481 ( 98.41%)    -0.75093 (  1.59%)    -0.83348
     109    140.93    -0.83219 ( 98.44%)    -0.74957 (  1.56%)    -0.83090
     110    142.49    -0.82593 ( 98.51%)    -0.74631 (  1.49%)    -0.82474
     111    143.32    -0.82260 ( 98.54%)    -0.74458 (  1.46%)    -0.82146
     112    145.02    -0.81592 ( 98.61%)    -0.74110 (  1.39%)    -0.81487
     113    146.98    -0.80828 ( 98.68%)    -0.73713 (  1.32%)    -0.80734
     114    147.44    -0.80650 ( 98.69%)    -0.73620 (  1.31%)    -0.80559
     115    149.08    -0.80020 ( 98.75%)    -0.73291 (  1.25%)    -0.79935
     116    151.11    -0.79253 ( 98.82%)    -0.72890 (  1.18%)    -0.79177
     117    152.44    -0.78757 ( 98.86%)    -0.72631 (  1.14%)    -0.78687
     118    153.54    -0.78349 ( 98.89%)    -0.72418 (  1.11%)    -0.78283
     119    154.27    -0.78080 ( 98.91%)    -0.72277 (  1.09%)    -0.78017
     120    155.30    -0.77705 ( 98.94%)    -0.72080 (  1.06%)    -0.77645
     121    161.48    -0.75503 ( 99.09%)    -0.70925 (  0.91%)    -0.75461
     122    171.18    -0.72228 ( 99.28%)    -0.69197 (  0.72%)    -0.72206
     123    178.69    -0.69827 ( 99.39%)    -0.67924 (  0.61%)    -0.69816
     124    179.01    -0.69727 ( 99.40%)    -0.67871 (  0.60%)    -0.69716
     125    180.66    -0.69219 ( 99.42%)    -0.67601 (  0.58%)    -0.69209
     126    181.68    -0.68906 ( 99.43%)    -0.67434 (  0.57%)    -0.68898
     127    182.30    -0.68714 ( 99.44%)    -0.67332 (  0.56%)    -0.68707
     128    183.71    -0.68286 ( 99.45%)    -0.67103 (  0.55%)    -0.68280
     129    184.79    -0.67962 ( 99.47%)    -0.66930 (  0.53%)    -0.67956
     130    185.60    -0.67720 ( 99.48%)    -0.66801 (  0.52%)    -0.67716
     131    186.17    -0.67550 ( 99.48%)    -0.66710 (  0.52%)    -0.67546
     132    186.53    -0.67444 ( 99.49%)    -0.66653 (  0.51%)    -0.67440
     133    190.66    -0.66231 ( 99.53%)    -0.66004 (  0.47%)    -0.66230
     134    191.01    -0.66129 ( 99.53%)    -0.65949 (  0.47%)    -0.66128
     135    192.30    -0.65759 ( 99.55%)    -0.65751 (  0.45%)    -0.65759
     136    192.58    -0.65677 ( 99.55%)    -0.65707 (  0.45%)    -0.65677
     137    195.29    -0.64907 ( 99.57%)    -0.65293 (  0.43%)    -0.64909
     138    198.95    -0.63887 ( 99.60%)    -0.64743 (  0.40%)    -0.63890
     139    200.67    -0.63414 ( 99.62%)    -0.64488 (  0.38%)    -0.63419
     140    200.75    -0.63394 ( 99.62%)    -0.64477 (  0.38%)    -0.63398
     141    200.77    -0.63389 ( 99.62%)    -0.64474 (  0.38%)    -0.63393
     142    201.40    -0.63216 ( 99.62%)    -0.64381 (  0.38%)    -0.63221
     143    201.45    -0.63203 ( 99.62%)    -0.64373 (  0.38%)    -0.63207
     144    201.54    -0.63176 ( 99.62%)    -0.64359 (  0.38%)    -0.63181
     145    201.73    -0.63126 ( 99.62%)    -0.64332 (  0.38%)    -0.63131
     146    202.26    -0.62983 ( 99.63%)    -0.64255 (  0.37%)    -0.62988
     147    202.45    -0.62932 ( 99.63%)    -0.64227 (  0.37%)    -0.62937
     148    202.80    -0.62837 ( 99.63%)    -0.64176 (  0.37%)    -0.62842
     149    205.43    -0.62132 ( 99.65%)    -0.63794 (  0.35%)    -0.62138
     150    209.96    -0.60942 ( 99.68%)    -0.63147 (  0.32%)    -0.60949
     151    210.78    -0.60730 ( 99.68%)    -0.63032 (  0.32%)    -0.60737
     152    216.25    -0.59339 ( 99.72%)    -0.62273 (  0.28%)    -0.59348
     153    220.75    -0.58225 ( 99.74%)    -0.61662 (  0.26%)    -0.58234
     154    245.24    -0.52609 ( 99.83%)    -0.58546 (  0.17%)    -0.52620
     155    249.86    -0.51626 ( 99.84%)    -0.57993 (  0.16%)    -0.51636
     156    255.64    -0.50428 ( 99.85%)    -0.57316 (  0.15%)    -0.50438
     157    256.18    -0.50318 ( 99.86%)    -0.57254 (  0.14%)    -0.50329
     158    258.68    -0.49810 ( 99.86%)    -0.56965 (  0.14%)    -0.49820
     159    262.79    -0.48991 ( 99.87%)    -0.56499 (  0.13%)    -0.49001
     160    263.23    -0.48903 ( 99.87%)    -0.56449 (  0.13%)    -0.48913
     161    264.84    -0.48587 ( 99.87%)    -0.56268 (  0.13%)    -0.48597
     162    265.01    -0.48554 ( 99.87%)    -0.56249 (  0.13%)    -0.48564
     163    265.12    -0.48532 ( 99.87%)    -0.56237 (  0.13%)    -0.48542
     164    265.21    -0.48516 ( 99.87%)    -0.56227 (  0.13%)    -0.48526
     165    265.34    -0.48491 ( 99.87%)    -0.56213 (  0.13%)    -0.48501
     166    265.37    -0.48485 ( 99.87%)    -0.56209 (  0.13%)    -0.48494
     167    265.52    -0.48456 ( 99.87%)    -0.56193 (  0.13%)    -0.48466
     168    265.61    -0.48437 ( 99.87%)    -0.56182 (  0.13%)    -0.48447
     169    265.70    -0.48420 ( 99.87%)    -0.56172 (  0.13%)    -0.48430
     170    265.80    -0.48400 ( 99.87%)    -0.56161 (  0.13%)    -0.48410
     171    265.86    -0.48388 ( 99.88%)    -0.56154 (  0.12%)    -0.48398
     172    265.93    -0.48375 ( 99.88%)    -0.56147 (  0.12%)    -0.48385
     173    265.96    -0.48369 ( 99.88%)    -0.56143 (  0.12%)    -0.48379
     174    266.86    -0.48195 ( 99.88%)    -0.56044 (  0.12%)    -0.48205
     175    266.94    -0.48178 ( 99.88%)    -0.56034 (  0.12%)    -0.48188
     176    270.68    -0.47461 ( 99.88%)    -0.55622 (  0.12%)    -0.47471
     177    277.25    -0.46231 ( 99.89%)    -0.54912 (  0.11%)    -0.46240
     178    278.18    -0.46060 ( 99.90%)    -0.54813 (  0.10%)    -0.46069
     179    278.47    -0.46007 ( 99.90%)    -0.54782 (  0.10%)    -0.46016
     180    280.44    -0.45646 ( 99.90%)    -0.54573 (  0.10%)    -0.45655
     181    283.76    -0.45048 ( 99.90%)    -0.54224 (  0.10%)    -0.45057
     182    285.71    -0.44700 ( 99.91%)    -0.54022 (  0.09%)    -0.44709
     183    287.90    -0.44312 ( 99.91%)    -0.53795 (  0.09%)    -0.44321
     184    291.73    -0.43645 ( 99.91%)    -0.53403 (  0.09%)    -0.43654
     185    293.08    -0.43414 ( 99.92%)    -0.53267 (  0.08%)    -0.43423
     186    294.61    -0.43152 ( 99.92%)    -0.53112 (  0.08%)    -0.43160
     187    296.40    -0.42849 ( 99.92%)    -0.52934 (  0.08%)    -0.42857
     188    299.60    -0.42312 ( 99.92%)    -0.52615 (  0.08%)    -0.42320
     189    299.61    -0.42310 ( 99.92%)    -0.52614 (  0.08%)    -0.42318
     190    299.89    -0.42263 ( 99.92%)    -0.52586 (  0.08%)    -0.42271
   ------------------------------------------------------------------------

   temp. (K)  partition function   enthalpy   heat capacity  entropy
                                   cal/mol     cal/K/mol   cal/K/mol   J/K/mol
 298.15  VIB  0.448+117           126579.911    804.756    822.689
         ROT  0.377E+11              888.752      2.981     51.374
         INT  0.169+128           127468.663    807.737    874.063
         TR   0.172E+30             1481.254      4.968     49.990
         TOT                      128949.9168   812.7055   924.0530  3866.2379

       T/K    H(0)-H(T)+PV         H(T)/Eh          T*S/Eh         G(T)/Eh
   ------------------------------------------------------------------------
    298.15    0.205495E+00    0.276223E+01    0.439047E+00    0.232319E+01
   ------------------------------------------------------------------------

         :::::::::::::::::::::::::::::::::::::::::::::::::::::
         ::                  THERMODYNAMIC                  ::
         :::::::::::::::::::::::::::::::::::::::::::::::::::::
         :: total free energy        -612.085299373721 Eh   ::
         ::.................................................::
         :: total energy             -614.408485183145 Eh   ::
         :: zero point energy           2.556738449813 Eh   ::
         :: G(RRHO) w/o ZPVE           -0.233552640390 Eh   ::
         :: G(RRHO) contrib.            2.323185809424 Eh   ::
         :::::::::::::::::::::::::::::::::::::::::::::::::::::

optimized geometry written to: xtbopt.xyz


           -------------------------------------------------
          | TOTAL ENERGY             -614.408485183145 Eh   |
          | TOTAL ENTHALPY           -611.646251960537 Eh   |
          | TOTAL FREE ENERGY        -612.085299373721 Eh   |
          | GRADIENT NORM               0.000510572948 Eh/α |
          | HOMO-LUMO GAP               0.693184120162 eV   |
           -------------------------------------------------

------------------------------------------------------------------------
 * finished run on 2021/11/21 at 12:48:33.160     
------------------------------------------------------------------------
 total:
 * wall-time:     0 d,  1 h, 52 min, 43.863 sec
 *  cpu-time:     0 d,  1 h, 52 min, 43.921 sec
 * ratio c/w:     1.000 speedup
 SCF:
 * wall-time:     0 d,  0 h,  0 min, 16.115 sec
 *  cpu-time:     0 d,  0 h,  0 min, 16.116 sec
 * ratio c/w:     1.000 speedup
 ANC optimizer:
 * wall-time:     0 d,  0 h, 12 min, 17.476 sec
 *  cpu-time:     0 d,  0 h, 12 min, 17.486 sec
 * ratio c/w:     1.000 speedup
 analytical hessian:
 * wall-time:     0 d,  1 h, 40 min,  9.577 sec
 *  cpu-time:     0 d,  1 h, 40 min,  9.625 sec
 * ratio c/w:     1.000 speedup

