358
 energy: -614.408485187980 gnorm: 0.000510663788 xtb: 6.4.1 (bd6e46d)
C        65.56354413558569    3.44196771814296    0.01298104272128
C        66.52379784731941    2.49694384887884    0.00750173534855
C        65.82881928713597    1.22253378976925   -0.02982267974540
C        66.49604134626205   -0.01889597226390   -0.04379168986759
C        65.85017455680241   -1.26606432561669   -0.07300112564299
C        66.45888295539483   -2.54949277869574   -0.08347370090844
C        65.45835450303191   -3.47779493945426   -0.11474427175987
C        64.21733446417257   -2.78104838854183   -0.12463934680492
N        64.50682871378143   -1.45044387148146   -0.09784471155234
C        62.95155816017405   -3.34732392452194   -0.15749753284918
C        61.73205989374048   -2.68456581669300   -0.16883704133317
C        60.45668085778338   -3.38571521697301   -0.20643969784761
C        59.50467180680580   -2.43446326964234   -0.20643396158818
C        60.20577737960087   -1.16031465754510   -0.16865206993251
N        61.54212455341951   -1.34906873392902   -0.14723014862698
C        59.55579639093960    0.06737514374166   -0.15618672826452
C        60.17689035370184    1.30634449263292   -0.12042494362820
C        59.56682749067018    2.59328240647571   -0.10591042161861
C        60.56395016267428    3.52261811390805   -0.07007124513293
C        61.80864330916519    2.82810729830657   -0.06179186984106
N        61.52258107732042    1.49997618233769   -0.09283333144832
C        63.07469002414349    3.39376557737437   -0.02870318755219
C        64.29473764981823    2.73450696626672   -0.02183975030882
N        64.49704286587827    1.39504101100072   -0.04645498560001
H        65.66684968074817    4.50979705381285    0.03758186177253
H        67.59023558834923    2.61195161314669    0.02702743340681
H        67.51715202277606   -2.72358136212143   -0.06865665619611
H        65.55965384904461   -4.54550028813763   -0.12985808898680
H        63.83116045772746   -0.69512207317351   -0.09713988950526
H        62.91375598914021   -4.42775695175361   -0.17706535778129
H        60.34779893460406   -4.45320235531448   -0.22912463061414
H        58.43725509447380   -2.54352661626257   -0.22897656194333
H        58.47559797999964    0.05624919581993   -0.17572984802055
H        58.50871613489951    2.76890202972395   -0.12112979557605
H        60.46153587478663    4.59037522523086   -0.05111123397239
H        62.19598470730126    0.74338244483904   -0.09576492605893
H        63.11383657734278    4.47420530744245   -0.00633342690996
C       169.14405341799701   -3.42950312007738    0.32180048279912
C       168.18177878333699   -2.49025999967396    0.23787858341871
C       168.87416318875447   -1.22059528400403    0.10755647671100
C       168.20427938851029    0.01405895130731   -0.00785229974357
C       168.84754679788503    1.25620227695951   -0.13769824397012
C       168.23621406940882    2.53259620227114   -0.25962797459072
C       169.23502480794727    3.45794111112685   -0.35925369925870
C       170.47756836485163    2.76638060877928   -0.30011612307992
N       170.19067712341499    1.44163599365190   -0.16691024491667
C       171.74232757985880    3.33223671064225   -0.36470047360424
C       172.96342200388926    2.67482898775088   -0.30774488840389
C       174.23757778535474    3.37486122535271   -0.38586715013114
C       175.19166737711100    2.42972865238743   -0.29842159054554
C       174.49301200557849    1.16040457472335   -0.16747062297064
N       173.15611140348062    1.34594930466797   -0.17706764036859
C       175.14552829243084   -0.06038469752236   -0.05013425383923
C       174.52681198962563   -1.29459783672553    0.07613951951867
C       175.13969239075718   -2.57445857225374    0.19864800801563
C       174.14444719975288   -3.50141098123852    0.29564456618344
C       172.89810262703375   -2.81244954734783    0.23518809594421
N       173.18137575508752   -1.48987507192643    0.10343407265617
C       171.63298664895984   -3.37757766714873    0.29837245526656
C       170.41152154068683   -2.72323494161039    0.24246121938454
N       170.20643872823155   -1.39025842255597    0.11301631846942
H       169.04295933835087   -4.49264113477824    0.42689182988425
H       167.11547919749879   -2.60643961204458    0.25799361937440
H       167.17749837351855    2.70432284101663   -0.26866936266706
H       169.13160668001208    4.52042574680906   -0.46381143856964
H       170.86753506276335    0.69054067066045   -0.09771385560851
H       171.77775479344598    4.40768311221890   -0.47110682596894
H       174.34436496806831    4.43749389488845   -0.49219452064905
H       176.25903618758500    2.54005871535121   -0.31679821527086
H       176.22585133101256   -0.04747621421744   -0.05818313127211
H       176.19833822656204   -2.74716544281064    0.20957803734477
H       174.24917337800048   -4.56404050247908    0.39960971929481
H       172.50602598613187   -0.73826142019398    0.03355937320175
H       171.59577638481352   -4.45312888172879    0.40414668501236
C        67.89215669278394   -0.01568149647229   -0.02879955310193
C        69.11092429708461   -0.00562545401156   -0.02171461066552
C        70.45144601803264    0.00609402337540   -0.01352824154236
C        71.67033396787352    0.01944489368822   -0.00799545082852
C        81.48533888982242   -0.00618754608428    0.08986934133167
C        82.70439400776559    0.01255053147855    0.09918210108576
C        84.04417867746103    0.03017992975340    0.10348708523014
C        85.26326494402898    0.05023876033242    0.10417213873933
C        95.07542985206273   -0.00088369340272   -0.06876209940914
C        96.29437853441929    0.01163311360375   -0.09394014515909
C        97.63404755576646    0.02296431302077   -0.11521913337970
C        98.85317217398934    0.03422427416379   -0.13221802398077
C       108.66739020659816   -0.03338334995268   -0.05988987831720
C       109.88627851015728   -0.01666924366246   -0.03137392389197
C       111.22574180552056   -0.00078908915125    0.00009555260304
C       112.44450512584575    0.01624700349235    0.03001166805547
C       122.25991093411101   -0.01141264998318    0.15988083635307
C       123.47902307870831    0.00526232012994    0.14707782711136
C       124.81866615761489    0.02071145414567    0.12523503333676
C       126.03767682142467    0.03647234438929    0.10386277958695
C       135.84999449983033   -0.01147389229168   -0.07503855254446
C       137.06912131776676    0.00565016792605   -0.07976953103730
C       138.40882938413540    0.02288547420273   -0.07955286123788
C       139.62794576897156    0.04071646753318   -0.07683218225444
C       149.43932454155919    0.01407976780671    0.03957669697317
C       150.65835861186017    0.02979717169057    0.05443762059501
C       151.99805616058740    0.04403659287368    0.07083043873027
C       153.21712415399537    0.05801565651215    0.08552332112850
C       163.03041861737043   -0.01834015358848    0.07169354947631
C       164.24919564910098   -0.00846831411576    0.05095921709363
C       165.58957240512754   -0.00005914509037    0.02889570323722
C       166.80819839327171    0.00979792691045    0.00937807407917
C        74.04492228996860   -3.41308541920353    0.20318449390405
C        73.07023524683080   -2.48477535696297    0.14094493558458
C        73.74577114042815   -1.20211947819471    0.07610876397928
C        73.06521333864607    0.02992168301883    0.00001565914581
C        73.71173190617746    1.27583152807113   -0.07040389532441
C        73.11356402299691    2.55978573989721   -0.15734440319720
C        74.12379434287092    3.47776050851359   -0.20911260931947
C        75.35823619471077    2.77275874566558   -0.15408154634311
N        75.05698084240365    1.44771614399327   -0.07087800608254
C        76.62620316493241    3.33782648873800   -0.18029464243030
C        77.85331799278171    2.69728801714992   -0.12670611123244
C        79.11188555196520    3.42288507866748   -0.16177180333102
C        80.08629415192658    2.49503342984063   -0.08987928717477
C        79.41032432335271    1.21320491769320   -0.01222995276778
N        78.07619228658733    1.36341082433442   -0.03636232321302
C        80.09104564108623   -0.01834046268482    0.07566551646175
C        79.44467573097693   -1.26438640945520    0.14597130301163
C        80.04294447996952   -2.54851891255434    0.23031092783657
C        79.03288552040979   -3.46715295836538    0.27151874713953
C        77.79833558742237   -2.76239105771487    0.21352306990757
N        78.09963315357724   -1.43666084907417    0.13921188592395
C        76.53056943722295   -3.32771211828175    0.22920438741918
C        75.30326753720919   -2.68676964541185    0.17668693201788
N        75.08028692613169   -1.35246452848440    0.09866601230350
H        73.95773343349988   -4.48100914980940    0.26163318342300
H        72.00553246508230   -2.61616331086114    0.13663582913698
H        72.05686736405309    2.74220008530997   -0.17760333332827
H        74.03232624706919    4.54418408679401   -0.27907973898410
H        75.71283374349689    0.67608423394331   -0.01707949442276
H        76.65654088950036    4.41678640006154   -0.25082632028775
H        79.19946280167662    4.49009389776666   -0.23172553893487
H        81.15102555048283    2.62626007176415   -0.08743291407419
H        81.09962442622064   -2.73065395984060    0.25453277898123
H        79.12452496653138   -4.53392761590580    0.33578333804556
H        77.44396563619620   -0.66496504166588    0.08410487684715
H        76.49989859909206   -4.40719497598236    0.29101784508871
C        87.63633941827187   -3.36931159588932    0.46741572795770
C        86.66204166030015   -2.44281317422180    0.37795645981863
C        87.33800814132401   -1.16819921135764    0.22203992223430
C        86.65759142030628    0.06004399140234    0.09485007074105
C        87.30418129395046    1.30009608759605   -0.04601036871108
C        86.70582624092461    2.58065691399251   -0.17225057155045
C        87.71575153185272    3.49347925380132   -0.28565046971240
C        88.95011635556295    2.78832472551752   -0.23225240573183
N        88.64911666393995    1.46860648718733   -0.08580045146135
C        90.21793281949365    3.34761525203147   -0.31873248528762
C        91.44463299803049    2.70523607502946   -0.27853881009822
C        92.70299796023808    3.42387500177686   -0.38652845415205
C        93.67700473095985    2.49589540439801   -0.31052135944922
C        93.00098750875807    1.22107307232777   -0.15629220479837
N        91.66717568171148    1.37535198206447   -0.14071405511781
C        93.68141257300451   -0.00811114478664   -0.03805547721269
C        93.03502729276975   -1.24702392983286    0.11351417454513
C        93.63330165547328   -2.52745261798269    0.24192139898980
C        92.62352469096746   -3.43877796690153    0.36751041104557
C        91.38925960537610   -2.73306755111408    0.31799483390282
N        91.69028932379436   -1.41421674376264    0.16364824456333
C        90.12169685832181   -3.29183870140318    0.40985193441250
C        88.89473973121164   -2.65020543638543    0.36331214660875
N        88.67210918852815   -1.32133885424618    0.21713609195116
H        87.54879197373920   -4.43172794322695    0.59025001313109
H        85.59742240386497   -2.57058527718411    0.41123502574210
H        85.64919827889224    2.76461520884443   -0.17410704832345
H        87.62396416877324    4.55636691484288   -0.39684056748736
H        89.30579157357383    0.69911293736840   -0.01481259902312
H        90.24855392138599    4.42266598609277   -0.43442147917571
H        92.79067438119472    4.48694395047977   -0.50349278351375
H        94.74149579447482    2.62292111319030   -0.35040956324671
H        94.68977108363850   -2.71222323186882    0.23747710516494
H        92.71516646909522   -4.50114860386764    0.48367473145444
H        91.03420231191097   -0.64412615140562    0.09345732992534
H        90.09124384069750   -4.36625231534021    0.53133493125034
C       101.21107559686189   -3.39389060955575    0.24498896050181
C       100.24083768744106   -2.46463416034544    0.14143592234421
C       100.92264320678541   -1.19159185635516   -0.00158002300309
C       100.24748625530546    0.03824062806479   -0.14170894938424
C       100.89976705497661    1.27437922630703   -0.29030907410524
C       100.30736808580647    2.55446740501101   -0.44630317759611
C       101.32170256064710    3.46264158479799   -0.55733944827454
C       102.55295241998785    2.75536904263360   -0.47002404271438
N       102.24561770327104    1.43866511198463   -0.30998757651441
C       103.82369977120763    3.31096471529147   -0.53363206978940
C       105.04779727461390    2.66820139901538   -0.44586043179342
C       106.30962920295526    3.38493658342311   -0.52153980483133
C       107.27979371712625    2.45852875203554   -0.39443198367711
C       106.59808258976095    1.18617296697121   -0.24504414961206
N       105.26456235372356    1.34066787570523   -0.27967695494598
C       107.27325003594810   -0.04145350679618   -0.08689229228861
C       106.62104818709177   -1.27948283085384    0.04606772270187
C       107.21330137965336   -2.56015131062394    0.19742154727230
C       106.19893701597158   -3.47080505274852    0.28599499250854
C       104.96782966775379   -2.76415542604172    0.19218827855373
N       105.27523608616882   -1.44568868085796    0.04753317491329
C       103.69721029414254   -3.32130559489821    0.24399986951198
C       102.47296832197370   -2.67758228771280    0.16635010688701
N       102.25616483179134   -1.34809566230569    0.01640814742934
H       101.11868711851108   -4.45634541815615    0.36386133903248
H        99.17548599166776   -2.58981529648970    0.15524648420887
H        99.25146469784913    2.74105763642280   -0.46943918975958
H       101.23492687789127    4.52384912401558   -0.68706941737370
H       102.89889672952553    0.66871874906800   -0.21623417927756
H       103.85952302293884    4.38398756366351   -0.66552633801054
H       106.40196610574762    4.44594444344457   -0.65273982489980
H       108.34509536319811    2.58494591750835   -0.39821466867354
H       108.26909162864750   -2.74579545800900    0.23139863619500
H       106.28564847115568   -4.53319776446959    0.40568292880784
H       104.62246634785745   -0.67542720119775   -0.04746547260950
H       103.66170011903911   -4.39576617018394    0.36373401140693
C       114.81400731236839   -3.39043917746947    0.52388721727919
C       113.84062200766472   -2.46908592498715    0.38506203509726
C       114.51773592943462   -1.19468278612968    0.23239671607369
C       113.83847145872011    0.02909614442780    0.06264222598974
C       114.48668581977768    1.26872322275481   -0.07504094566216
C       113.89048998184367    2.54589362840085   -0.24000977813484
C       114.90185943507883    3.45994096090468   -0.32764021061112
C       116.13507177428313    2.75894180635866   -0.21952537007580
N       115.83181704287072    1.44028900671360   -0.06799650418740
C       117.40377352145396    3.32095416099685   -0.26543602957120
C       118.63016699929075    2.68299014279543   -0.17481362472008
C       119.88940608841467    3.40427031435776   -0.25098669745381
C       120.86305224737569    2.47999259081832   -0.13552552125740
C       120.18597542356822    1.20503232418641    0.01260022213927
N       118.85183080848742    1.35560195538045   -0.01422364054398
C       120.86557431345813   -0.02091123070592    0.16470163507052
C       120.21739613476495   -1.25863613824730    0.31828681541074
C       120.81346973015442   -2.53543458196121    0.48635916915272
C       119.80169323933215   -3.44664206376911    0.59626212743377
C       118.56840030974168   -2.74458570558821    0.49612363935937
N       118.87197143854948   -1.42775521126356    0.33026590192062
C       117.29948681506862   -3.30512586462837    0.55354977096299
C       116.07318285021677   -2.66849173427705    0.45283956563389
N       115.85165742919204   -1.34303374777659    0.27683645544589
H       114.72543920688820   -4.45105938133842    0.66072554133232
H       112.77586052890821   -2.60011522411232    0.38261328496743
H       112.83424349494334    2.72694292531545   -0.28339861595010
H       114.81183887710075    4.52107860069657   -0.45572199021234
H       116.48669411962301    0.67309989049406    0.03712858331190
H       117.43577128605416    4.39472010674547   -0.39221438401951
H       119.97783974657723    4.46625384985953   -0.37683700830517
H       121.92794252946709    2.60965677341362   -0.14419926815441
H       121.86986433847595   -2.71807976451038    0.51798178326101
H       119.89157472266572   -4.50669077351794    0.73317634553860
H       118.21735779018340   -0.66004981835152    0.22725796837395
H       117.26739418027610   -4.37753732115452    0.69135735473370
C       128.41177177599161   -3.38493115631940    0.43814352888997
C       127.43732204246703   -2.45788812729380    0.35671967390692
C       128.11278795843361   -1.18327407916068    0.19836380377401
C       127.43175033364369    0.04508180750326    0.07499586321369
C       128.07768473535072    1.28399619563250   -0.07856914167315
C       127.47910718003898    2.56397921128354   -0.20963900778273
C       128.48873810316684    3.47555781869399   -0.33484985140642
C       129.72317817706917    2.77036988919031   -0.28290565207949
N       129.42245404829643    1.45163082266645   -0.12720472967320
C       130.99063495589010    3.32940042640141   -0.37554200499743
C       132.21774206534417    2.68803904301137   -0.33025409397331
C       133.47589673667073    3.40690321694921   -0.43937314782445
C       134.45040763035453    2.48048515721460   -0.35158811456801
C       133.77484178153134    1.20624560879600   -0.19076458940201
N       132.44080559838008    1.35936942151404   -0.18242765855555
C       134.45580855760335   -0.02139787958229   -0.06053559375052
C       133.80988429461260   -1.26081772770182    0.08854372898176
C       134.40866352368997   -2.54060427068818    0.22059732155485
C       133.39901880414212   -3.45296701697695    0.33984937463135
C       132.16443348488585   -2.74833418735342    0.28393017849167
N       132.46503724591565   -1.42929602321433    0.13081025972422
C       130.89683609524377   -3.30765974244786    0.37282925532512
C       129.66985966388265   -2.66598986649707    0.32877182058234
N       129.44674831454998   -1.33685120708200    0.18514712472673
H       128.32457080609049   -4.44754741665600    0.55945429970301
H       126.37285564540471   -2.58539732697355    0.39561401741177
H       126.42257017579897    2.74841226511027   -0.20712133949914
H       128.39681709621809    4.53774844122308   -0.45240742780736
H       130.07876227389025    0.68193165628449   -0.05472303087076
H       131.02073290483190    4.40370053896301   -0.49810667431350
H       133.56318267733133    4.46910191552738   -0.56424574250640
H       135.51495110344621    2.60807631588695   -0.38835924768068
H       135.46532504409740   -2.72435507173366    0.22227121766865
H       133.49106356127859   -4.51525784260016    0.45640255658452
H       131.80860792081572   -0.65985847941386    0.05681819173711
H       130.86655735755159   -4.38217981435478    0.49337059229928
C       141.99711059991301   -3.37443698553631    0.34051122709059
C       141.02391714809838   -2.44988962156894    0.22348474366867
C       141.70156711490444   -1.17441741860193    0.08216537800006
C       141.02218139313860    0.05206316337710   -0.06641655459028
C       141.66935216808983    1.29222410390783   -0.20302552730733
C       141.07160868304246    2.57022481227532   -0.35577450739980
C       142.08213414667503    3.48445241043279   -0.45051687439561
C       143.31628492831530    2.78297694098425   -0.35735068478166
N       143.01449696914696    1.46363448539667   -0.20904460027498
C       144.58452208900692    3.34535627331605   -0.40906202605085
C       145.81096911237222    2.70702321742945   -0.32164922613513
C       147.07038184397373    3.42849755767192   -0.39190947386639
C       148.04358027052956    2.50429555115783   -0.27211192160845
C       147.36598008426299    1.22885959434310   -0.13040954101122
N       146.03199751740556    1.37921021860088   -0.16388978713097
C       148.04512298711077    0.00277015813372    0.02146802337881
C       147.39778013067189   -1.23754575958333    0.15650446387026
C       147.99563351828192   -2.51523060626627    0.31108613730063
C       146.98528305244719   -3.42996842091518    0.40331436834791
C       145.75117335122385   -2.72898495271197    0.30714863886704
N       146.05271648580356   -1.40956966435397    0.15911483436025
C       144.48284527213445   -3.29153826170470    0.35698054954614
C       143.25655536097420   -2.65312402853375    0.26971865918828
N       143.03548438266975   -1.32501438009564    0.11334940260519
H       141.90819611069102   -4.43675952088594    0.46313717627101
H       139.95902747217812   -2.57962084484919    0.22802428897173
H       140.01499149595429    2.75155512441173   -0.38722177869406
H       141.99106250729059    4.54614899125362   -0.57309940494727
H       143.67003789507032    0.69578541955138   -0.11380290625890
H       144.61597593879193    4.41943946621894   -0.53308143496650
H       147.15920017455917    4.49069824049443   -0.51568951103992
H       149.10846306760686    2.63414867202403   -0.27526950349106
H       149.05223320608195   -2.69611056219171    0.34534027340813
H       147.07660463586640   -4.49157713144864    0.52643181808041
H       145.39622118408349   -0.64273320124564    0.06261669453341
H       144.45134841737578   -4.36567037385758    0.48056386642956
C       155.57475217438997   -3.36669973230790    0.49190533903813
C       154.60466692367953   -2.43806796473817    0.38180324743485
C       155.28666772463527   -1.16512629619179    0.23838298404242
C       154.61145473156714    0.06449388069821    0.09731653644562
C       155.26306162214576    1.30298417534657   -0.03268984593686
C       154.67006793288141    2.58497996837917   -0.17004903347311
C       155.68398855570038    3.49571911678526   -0.26151599929937
C       156.91564855869288    2.78795527857334   -0.18320591794202
N       156.60886143697431    1.46860801660587   -0.04513014941384
C       158.18605054252043    3.34454566987534   -0.24110383500458
C       159.41032868174690    2.69889103403053   -0.17767788697434
C       160.67218850937317    3.41481908601802   -0.26024899456175
C       161.64239413153783    2.48399135171923   -0.17158258717039
C       160.96066906135749    1.21034159677986   -0.03382286686383
N       159.62689783979803    1.36827016090957   -0.04039923125493
C       161.63561821446939   -0.02090310598442    0.09092244614039
C       160.98380703324014   -1.25768643713653    0.23464011887180
C       161.57679152579601   -2.53932263431651    0.37528861674273
C       160.56297353239108   -3.44792525338583    0.48724669114887
C       159.33138155677656   -2.73944368308092    0.41581740015223
N       159.63793234101647   -1.42165595597115    0.26419613619725
C       158.06088259978122   -3.29509727778783    0.48481486792526
C       156.83675418563683   -2.65065686686909    0.41239709222497
N       156.62015294579297   -1.32137965251581    0.26015715685176
H       155.48221372273412   -4.42881135641342    0.61375333293529
H       153.53928018795875   -2.56336046606760    0.39316496097468
H       153.61408946111956    2.77120432690209   -0.19352797635337
H       155.59671177956685    4.55892345765133   -0.37338875256451
H       157.26171401528291    0.69716090300057    0.03883131003306
H       158.22175063529579    4.41980584362205   -0.35325081940132
H       160.76448970405698    4.47816858881054   -0.37096795543329
H       162.70773408537397    2.60842441035975   -0.19220785995401
H       162.63277016547238   -2.72655011293074    0.38831636335403
H       160.65025546012595   -4.51019388003889    0.60764227368872
H       158.98418677803758   -0.65080570210481    0.18194302294678
H       158.02545192404477   -4.36918660818866    0.60776453971584
