      -----------------------------------------------------------      
     |                   =====================                   |     
     |                           x T B                           |     
     |                   =====================                   |     
     |                         S. Grimme                         |     
     |          Mulliken Center for Theoretical Chemistry        |     
     |                    University of Bonn                     |     
      -----------------------------------------------------------      

   * xtb version 6.4.1 (bd6e46d) compiled by 'conda@4901f00b25ba' on 2021-06-10

   xtb is free software: you can redistribute it and/or modify it under
   the terms of the GNU Lesser General Public License as published by
   the Free Software Foundation, either version 3 of the License, or
   (at your option) any later version.
   
   xtb is distributed in the hope that it will be useful,
   but WITHOUT ANY WARRANTY; without even the implied warranty of
   MERCHANTABILITY or FITNESS FOR A PARTICULAR PURPOSE.  See the
   GNU Lesser General Public License for more details.
   
   Cite this work as:
   * C. Bannwarth, E. Caldeweyher, S. Ehlert, A. Hansen, P. Pracht,
     J. Seibert, S. Spicher, S. Grimme, WIREs Comput. Mol. Sci., 2020, 11,
     e01493. DOI: 10.1002/wcms.1493
   
   for GFN2-xTB:
   * C. Bannwarth, S. Ehlert and S. Grimme., J. Chem. Theory Comput., 2019,
     15, 1652-1671. DOI: 10.1021/acs.jctc.8b01176
   for GFN1-xTB:
   * S. Grimme, C. Bannwarth, P. Shushkov, J. Chem. Theory Comput., 2017,
     13, 1989-2009. DOI: 10.1021/acs.jctc.7b00118
   for GFN0-xTB:
   * P. Pracht, E. Caldeweyher, S. Ehlert, S. Grimme, ChemRxiv, 2019, preprint.
     DOI: 10.26434/chemrxiv.8326202.v1
   for GFN-FF:
   * S. Spicher and S. Grimme, Angew. Chem. Int. Ed., 2020, 59, 15665-15673.
     DOI: 10.1002/anie.202004239
   
   for DFT-D4:
   * E. Caldeweyher, C. Bannwarth and S. Grimme, J. Chem. Phys., 2017,
     147, 034112. DOI: 10.1063/1.4993215
   * E. Caldeweyher, S. Ehlert, A. Hansen, H. Neugebauer, S. Spicher,
     C. Bannwarth and S. Grimme, J. Chem. Phys., 2019, 150, 154122.
     DOI: 10.1063/1.5090222
   * E. Caldeweyher, J.-M. Mewes, S. Ehlert and S. Grimme, Phys. Chem. Chem. Phys.
     2020, 22, 8499-8512. DOI: 10.1039/D0CP00502A
   
   for sTDA-xTB:
   * S. Grimme and C. Bannwarth, J. Chem. Phys., 2016, 145, 054103.
     DOI: 10.1063/1.4959605
   
   in the mass-spec context:
   * V. Asgeirsson, C. Bauer and S. Grimme, Chem. Sci., 2017, 8, 4879.
     DOI: 10.1039/c7sc00601b
   * J. Koopman and S. Grimme, ACS Omega 2019, 4, 12, 15120-15133.
     DOI: 10.1021/acsomega.9b02011
   
   for metadynamics refer to:
   * S. Grimme, J. Chem. Theory Comput., 2019, 155, 2847-2862
     DOI: 10.1021/acs.jctc.9b00143
   
   for SPH calculations refer to:
   * S. Spicher and S. Grimme, J. Chem. Theory Comput., 2021, 17, 1701-1714
     DOI: 10.1021/acs.jctc.0c01306
   
   with help from (in alphabetical order)
   P. Atkinson, C. Bannwarth, F. Bohle, G. Brandenburg, E. Caldeweyher
   M. Checinski, S. Dohm, S. Ehlert, S. Ehrlich, I. Gerasimov, J. Koopman
   C. Lavigne, S. Lehtola, F. März, M. Müller, F. Musil, H. Neugebauer
   J. Pisarek, C. Plett, P. Pracht, J. Seibert, P. Shushkov, S. Spicher
   M. Stahn, M. Steiner, T. Strunk, J. Stückrath, T. Rose, and J. Unsleber
   
 * started run on 2021/11/21 at 19:08:50.968     

           -------------------------------------------------
          |                Calculation Setup                |
           -------------------------------------------------

          program call               : /home/jeff/miniconda3/bin/xtb /home/jeff/chem/final-year-proejct/Co+2_4_3_outenergy/input_structure.xyz --gfn 2 --parallel 1 --etemp 300 --chrg 0 --uhf 0 -I det_control.in
          coordinate file            : /home/jeff/chem/final-year-proejct/Co+2_4_3_outenergy/input_structure.xyz
          omp threads                :                     1
          number of atoms            :                   115
          number of electrons        :                   391
          charge                     :                     0
          spin                       :                   0.5
          first test random number   :      0.86289391330695

   ID    Z sym.   atoms
    1   27 Co     1, 37, 81
    2    6 C      2-9, 11-15, 17-21, 23, 24, 38-45, 47-51, 53-57, 59, 60,
                  73-80, 82-89, 91-95, 97-101, 103, 104
    3    7 N      10, 16, 22, 25, 46, 52, 58, 61, 90, 96, 102, 105
    4    1 H      26-36, 62-72, 106-115

           -------------------------------------------------
          |                 G F N 2 - x T B                 |
           -------------------------------------------------

        Reference                      10.1021/acs.jctc.8b01176
      * Hamiltonian:
        H0-scaling (s, p, d)           1.850000    2.230000    2.230000
        zeta-weighting                 0.500000
      * Dispersion:
        s8                             2.700000
        a1                             0.520000
        a2                             5.000000
        s9                             5.000000
      * Repulsion:
        kExp                           1.500000    1.000000
        rExp                           1.000000
      * Coulomb:
        alpha                          2.000000
        third order                    shell-resolved
        anisotropic                    true
        a3                             3.000000
        a5                             4.000000
        cn-shift                       1.200000
        cn-exp                         4.000000
        max-rad                        5.000000


          ...................................................
          :                      SETUP                      :
          :.................................................:
          :  # basis functions                 382          :
          :  # atomic orbitals                 379          :
          :  # shells                          201          :
          :  # electrons                       391          :
          :  max. iterations                   250          :
          :  Hamiltonian                  GFN2-xTB          :
          :  restarted?                      false          :
          :  GBSA solvation                  false          :
          :  PC potential                    false          :
          :  electronic temp.          300.0000000     K    :
          :  accuracy                    1.0000000          :
          :  -> integral cutoff          0.2500000E+02      :
          :  -> integral neglect         0.1000000E-07      :
          :  -> SCF convergence          0.1000000E-05 Eh   :
          :  -> wf. convergence          0.1000000E-03 e    :
          :  Broyden damping             0.4000000          :
          ...................................................

 iter      E             dE          RMSdq      gap      omega  full diag
   1   -210.9086926 -0.210909E+03  0.756E+00    0.29       0.0  T
   2   -196.6196736  0.142890E+02  0.988E+00    0.24       1.0  T
   3   -184.5815629  0.120381E+02  0.946E+00    0.07       1.0  T
   4   -204.3552030 -0.197736E+02  0.648E+00    0.78       1.0  T
   5   -189.7575061  0.145977E+02  0.616E+00    0.01       1.0  T
   6   -205.4628696 -0.157054E+02  0.430E+00    0.21       1.0  T
   7   -210.9081511 -0.544528E+01  0.295E+00    0.21       1.0  T
   8   -210.9581209 -0.499699E-01  0.286E+00    0.21       1.0  T
   9   -211.0947739 -0.136653E+00  0.278E+00    0.24       1.0  T
  10   -211.2508751 -0.156101E+00  0.237E+00    0.03       1.0  T
  11   -211.2241405  0.267345E-01  0.250E+00    0.01       1.0  T
  12   -210.7439593  0.480181E+00  0.254E+00    0.03       1.0  T
  13   -210.8013935 -0.574341E-01  0.242E+00    0.04       1.0  T
  14   -211.0853103 -0.283917E+00  0.197E+00    0.05       1.0  T
  15   -211.4585335 -0.373223E+00  0.153E+00    0.05       1.0  T
  16   -211.4434506  0.150829E-01  0.195E+00    0.03       1.0  T
  17   -211.5044773 -0.610267E-01  0.195E+00    0.01       1.0  T
  18   -210.6850083  0.819469E+00  0.250E+00    0.02       1.0  T
  19   -210.9651304 -0.280122E+00  0.204E+00    0.04       1.0  T
  20   -210.8484346  0.116696E+00  0.228E+00    0.02       1.0  T
  21   -210.7484807  0.999539E-01  0.235E+00    0.03       1.0  T
  22   -210.7728830 -0.244022E-01  0.228E+00    0.04       1.0  T
  23   -211.4365871 -0.663704E+00  0.136E+00    0.03       1.0  T
  24   -211.1278331  0.308754E+00  0.183E+00    0.05       1.0  T
  25   -211.1975778 -0.697446E-01  0.172E+00    0.04       1.0  T
  26   -211.5438778 -0.346300E+00  0.111E+00    0.00       1.0  T
  27   -211.5043231  0.395547E-01  0.118E+00    0.03       1.0  T
  28   -211.7043102 -0.199987E+00  0.599E-01    0.02       1.0  T
  29   -211.7460271 -0.417169E-01  0.399E-01    0.01       1.0  T
  30   -211.6176002  0.128427E+00  0.906E-01    0.03       1.0  T
  31   -211.7132764 -0.956762E-01  0.564E-01    0.01       1.0  T
  32   -211.7337393 -0.204629E-01  0.469E-01    0.01       1.0  T
  33   -211.7172090  0.165304E-01  0.564E-01    0.02       1.0  T
  34   -211.7505276 -0.333187E-01  0.379E-01    0.01       1.0  T
  35   -211.7693894 -0.188617E-01  0.199E-01    0.00       1.0  T
  36   -211.7715864 -0.219702E-02  0.122E-01    0.00       1.0  T
  37   -211.7653901  0.619628E-02  0.199E-01    0.00       1.0  T
  38   -211.7697821 -0.439202E-02  0.120E-01    0.00       1.0  T
  39   -211.7708984 -0.111630E-02  0.861E-02    0.00       1.0  T
  40   -211.7705300  0.368425E-03  0.960E-02    0.00       1.0  T
  41   -211.7714007 -0.870668E-03  0.661E-02    0.00       1.0  T
  42   -211.7712787  0.122007E-03  0.705E-02    0.00       1.0  T
  43   -211.7716279 -0.349223E-03  0.548E-02    0.00       1.0  T
  44   -211.7717929 -0.165026E-03  0.447E-02    0.00       1.0  T
  45   -211.7720198 -0.226892E-03  0.259E-02    0.00       1.0  T
  46   -211.7720969 -0.770713E-04  0.136E-02    0.00       1.0  T
  47   -211.7721141 -0.172211E-04  0.857E-03    0.00       1.1  T
  48   -211.7721175 -0.337649E-05  0.690E-03    0.00       1.4  T
  49   -211.7721191 -0.160643E-05  0.583E-03    0.00       1.6  T
  50   -211.7721070  0.120649E-04  0.100E-02    0.00       1.0  T
  51   -211.7721189 -0.119138E-04  0.548E-03    0.00       1.7  T
  52   -211.7721133  0.561896E-05  0.771E-03    0.00       1.2  T
  53   -211.7721216 -0.830012E-05  0.335E-03    0.00       2.8  T
  54   -211.7721219 -0.289020E-06  0.286E-03    0.00       3.3  T
  55   -211.7721227 -0.808086E-06  0.159E-03    0.00       5.9  T
  56   -211.7721229 -0.166981E-06  0.116E-03    0.00       8.0  T
  57   -211.7721230 -0.145846E-06  0.719E-04    0.00      13.0  T
  58   -211.7721231 -0.889261E-07  0.160E-04    0.00      58.2  T

   *** convergence criteria satisfied after 58 iterations ***

         #    Occupation            Energy/Eh            Energy/eV
      -------------------------------------------------------------
         1        2.0000           -0.6693264             -18.2133
       ...           ...                  ...                  ...
       190        1.8609           -0.3479132              -9.4672
       191        1.8548           -0.3478692              -9.4660
       192        1.8239           -0.3476669              -9.4605
       193        1.8170           -0.3476264              -9.4594
       194        1.8169           -0.3476257              -9.4594
       195        1.4400           -0.3463113              -9.4236
       196        1.4308           -0.3462890              -9.4230 (HOMO)
       197        1.4262           -0.3462779              -9.4227 (LUMO)
       198                         -0.3110850              -8.4651
       199                         -0.3007571              -8.1840
       200                         -0.2968133              -8.0767
       201                         -0.2963836              -8.0650
       ...                                ...                  ...
       379                          1.6347218              44.4830
      -------------------------------------------------------------
                  HL-Gap            0.0000111 Eh            0.0003 eV
             Fermi-level           -0.3453756 Eh           -9.3981 eV

 SCC (total)                   0 d,  0 h,  0 min,  1.999 sec
 SCC setup                      ...        0 min,  0.003 sec (  0.126%)
 Dispersion                     ...        0 min,  0.005 sec (  0.255%)
 classical contributions        ...        0 min,  0.001 sec (  0.040%)
 integral evaluation            ...        0 min,  0.047 sec (  2.345%)
 iterations                     ...        0 min,  1.781 sec ( 89.105%)
 molecular gradient             ...        0 min,  0.159 sec (  7.946%)
 printout                       ...        0 min,  0.004 sec (  0.182%)

         :::::::::::::::::::::::::::::::::::::::::::::::::::::
         ::                     SUMMARY                     ::
         :::::::::::::::::::::::::::::::::::::::::::::::::::::
         :: total energy            -208.058342593341 Eh    ::
         :: gradient norm              0.000253199517 Eh/a0 ::
         :: HOMO-LUMO gap              0.000302996391 eV    ::
         ::.................................................::
         :: SCC energy              -211.772123124161 Eh    ::
         :: -> isotropic ES            0.048766134794 Eh    ::
         :: -> anisotropic ES          0.025340326733 Eh    ::
         :: -> anisotropic XC          0.114476251837 Eh    ::
         :: -> dispersion             -0.183813218308 Eh    ::
         :: repulsion energy           3.716380072463 Eh    ::
         :: add. restraining           0.000000000000 Eh    ::
         :: total charge               0.000000000000 e     ::
         :::::::::::::::::::::::::::::::::::::::::::::::::::::

           -------------------------------------------------
          |                Property Printout                |
           -------------------------------------------------

    * Orbital Energies and Occupations

         #    Occupation            Energy/Eh            Energy/eV
      -------------------------------------------------------------
         1        2.0000           -0.6693264             -18.2133
       ...           ...                  ...                  ...
       184        2.0000           -0.3630918              -9.8802
       185        1.9995           -0.3533148              -9.6142
       186        1.8910           -0.3481627              -9.4740
       187        1.8833           -0.3480931              -9.4721
       188        1.8829           -0.3480899              -9.4720
       189        1.8729           -0.3480057              -9.4697
       190        1.8609           -0.3479132              -9.4672
       191        1.8548           -0.3478692              -9.4660
       192        1.8239           -0.3476669              -9.4605
       193        1.8170           -0.3476264              -9.4594
       194        1.8169           -0.3476257              -9.4594
       195        1.4400           -0.3463113              -9.4236
       196        1.4308           -0.3462890              -9.4230 (HOMO)
       197        1.4262           -0.3462779              -9.4227 (LUMO)
       198                         -0.3110850              -8.4651
       199                         -0.3007571              -8.1840
       200                         -0.2968133              -8.0767
       201                         -0.2963836              -8.0650
       202                         -0.2963789              -8.0649
       203                         -0.2916579              -7.9364
       204                         -0.2679450              -7.2912
       205                         -0.2643581              -7.1935
       206                         -0.2632654              -7.1638
       207                         -0.2631626              -7.1610
       ...                                ...                  ...
       379                          1.6347218              44.4830
      -------------------------------------------------------------
                  HL-Gap            0.0000111 Eh            0.0003 eV
             Fermi-level           -0.3453756 Eh           -9.3981 eV

     #   Z          covCN         q      C6AA      α(0)
     1  27 Co       3.055     0.102   140.897    24.319
     2   6 C        3.025    -0.053    29.291     8.878
     3   6 C        3.022    -0.051    29.251     8.872
     4   6 C        3.195     0.073    25.882     8.295
     5   6 C        2.956     0.017    27.621     8.620
     6   6 C        3.195     0.073    25.883     8.295
     7   6 C        3.022    -0.051    29.249     8.871
     8   6 C        3.025    -0.053    29.291     8.878
     9   6 C        3.180     0.072    25.988     8.322
    10   7 N        2.630    -0.131    23.855     7.254
    11   6 C        2.905    -0.050    29.242     8.867
    12   6 C        3.177     0.073    25.983     8.323
    13   6 C        3.021    -0.052    29.270     8.874
    14   6 C        3.022    -0.052    29.272     8.875
    15   6 C        3.177     0.073    25.976     8.322
    16   7 N        2.631    -0.130    23.822     7.249
    17   6 C        2.905    -0.052    29.285     8.873
    18   6 C        3.177     0.073    25.976     8.322
    19   6 C        3.022    -0.052    29.272     8.875
    20   6 C        3.021    -0.052    29.270     8.875
    21   6 C        3.177     0.073    25.983     8.323
    22   7 N        2.631    -0.130    23.822     7.249
    23   6 C        2.905    -0.050    29.242     8.867
    24   6 C        3.181     0.072    25.987     8.322
    25   7 N        2.630    -0.131    23.853     7.254
    26   1 H        0.926     0.034     2.529     2.487
    27   1 H        0.926     0.036     2.500     2.473
    28   1 H        0.926     0.036     2.500     2.473
    29   1 H        0.926     0.034     2.529     2.487
    30   1 H        0.926     0.050     2.324     2.384
    31   1 H        0.926     0.035     2.522     2.483
    32   1 H        0.926     0.034     2.524     2.484
    33   1 H        0.926     0.049     2.332     2.388
    34   1 H        0.926     0.034     2.524     2.484
    35   1 H        0.926     0.035     2.522     2.483
    36   1 H        0.926     0.050     2.324     2.384
    37  27 Co       3.054     0.102   140.896    24.319
    38   6 C        3.025    -0.053    29.291     8.878
    39   6 C        3.022    -0.051    29.251     8.872
    40   6 C        3.195     0.073    25.881     8.294
    41   6 C        2.956     0.017    27.621     8.620
    42   6 C        3.195     0.073    25.882     8.295
    43   6 C        3.022    -0.051    29.250     8.871
    44   6 C        3.025    -0.053    29.291     8.878
    45   6 C        3.181     0.072    25.986     8.322
    46   7 N        2.630    -0.131    23.855     7.254
    47   6 C        2.905    -0.050    29.243     8.867
    48   6 C        3.177     0.073    25.982     8.323
    49   6 C        3.021    -0.052    29.270     8.875
    50   6 C        3.022    -0.052    29.272     8.875
    51   6 C        3.177     0.073    25.975     8.322
    52   7 N        2.631    -0.130    23.822     7.249
    53   6 C        2.905    -0.052    29.286     8.873
    54   6 C        3.177     0.073    25.975     8.322
    55   6 C        3.022    -0.052    29.272     8.875
    56   6 C        3.021    -0.052    29.270     8.875
    57   6 C        3.177     0.073    25.982     8.323
    58   7 N        2.631    -0.130    23.822     7.249
    59   6 C        2.905    -0.050    29.243     8.867
    60   6 C        3.181     0.072    25.986     8.322
    61   7 N        2.630    -0.131    23.854     7.254
    62   1 H        0.926     0.034     2.529     2.487
    63   1 H        0.926     0.036     2.500     2.472
    64   1 H        0.926     0.036     2.499     2.472
    65   1 H        0.926     0.034     2.529     2.487
    66   1 H        0.926     0.050     2.324     2.384
    67   1 H        0.926     0.035     2.522     2.483
    68   1 H        0.926     0.034     2.524     2.484
    69   1 H        0.926     0.049     2.332     2.388
    70   1 H        0.926     0.034     2.524     2.484
    71   1 H        0.926     0.035     2.522     2.484
    72   1 H        0.926     0.050     2.324     2.384
    73   6 C        1.993    -0.021    31.612     9.080
    74   6 C        1.963    -0.010    31.331     9.039
    75   6 C        1.963    -0.010    31.327     9.039
    76   6 C        1.993    -0.021    31.616     9.081
    77   6 C        1.993    -0.021    31.615     9.080
    78   6 C        1.963    -0.010    31.326     9.039
    79   6 C        1.963    -0.010    31.331     9.039
    80   6 C        1.993    -0.021    31.611     9.080
    81  27 Co       3.048     0.102   140.898    24.319
    82   6 C        3.025    -0.053    29.289     8.877
    83   6 C        3.023    -0.051    29.252     8.872
    84   6 C        3.197     0.073    25.865     8.291
    85   6 C        2.957     0.017    27.621     8.620
    86   6 C        3.197     0.073    25.865     8.291
    87   6 C        3.023    -0.051    29.251     8.872
    88   6 C        3.025    -0.053    29.289     8.877
    89   6 C        3.182     0.072    25.980     8.319
    90   7 N        2.629    -0.132    23.872     7.256
    91   6 C        2.905    -0.048    29.195     8.860
    92   6 C        3.182     0.072    25.980     8.319
    93   6 C        3.025    -0.053    29.289     8.877
    94   6 C        3.023    -0.052    29.252     8.872
    95   6 C        3.197     0.073    25.865     8.291
    96   7 N        2.629    -0.132    23.872     7.256
    97   6 C        2.957     0.017    27.621     8.620
    98   6 C        3.197     0.073    25.865     8.291
    99   6 C        3.023    -0.051    29.252     8.872
   100   6 C        3.025    -0.053    29.289     8.877
   101   6 C        3.182     0.072    25.980     8.319
   102   7 N        2.629    -0.132    23.872     7.256
   103   6 C        2.905    -0.048    29.195     8.860
   104   6 C        3.182     0.072    25.980     8.319
   105   7 N        2.629    -0.132    23.871     7.256
   106   1 H        0.926     0.034     2.531     2.488
   107   1 H        0.926     0.036     2.504     2.475
   108   1 H        0.926     0.036     2.504     2.474
   109   1 H        0.926     0.034     2.531     2.488
   110   1 H        0.926     0.050     2.319     2.381
   111   1 H        0.926     0.034     2.531     2.488
   112   1 H        0.926     0.036     2.503     2.474
   113   1 H        0.926     0.036     2.503     2.474
   114   1 H        0.926     0.034     2.531     2.488
   115   1 H        0.926     0.050     2.319     2.381

 Mol. C6AA /au·bohr⁶  :     254888.954727
 Mol. C8AA /au·bohr⁸  :    7400035.484722
 Mol. α(0) /au        :        828.989273


Wiberg/Mayer (AO) data.
largest (>0.10) Wiberg bond orders for each atom

 ---------------------------------------------------------------------------
     #   Z sym  total        # sym  WBO       # sym  WBO       # sym  WBO
 ---------------------------------------------------------------------------
     1  27 Co   3.328 --    16 N    0.724    22 N    0.724    25 N    0.722
                            10 N    0.722
     2   6 C    3.952 --     3 C    1.642    24 C    1.174    26 H    0.972
     3   6 C    3.956 --     2 C    1.642     4 C    1.183    27 H    0.970
     4   6 C    3.916 --    25 N    1.261     5 C    1.257     3 C    1.183
     5   6 C    3.947 --     6 C    1.258     4 C    1.257    73 C    1.178
     6   6 C    3.916 --    10 N    1.261     5 C    1.258     7 C    1.183
     7   6 C    3.956 --     8 C    1.642     6 C    1.183    28 H    0.970
     8   6 C    3.952 --     7 C    1.642     9 C    1.174    29 H    0.972
     9   6 C    3.929 --    11 C    1.359    10 N    1.228     8 C    1.174
    10   7 N    3.514 --     6 C    1.261     9 C    1.228     1 Co   0.722
    11   6 C    3.938 --     9 C    1.359    12 C    1.359    30 H    0.963
    12   6 C    3.934 --    11 C    1.359    16 N    1.239    13 C    1.166
    13   6 C    3.957 --    14 C    1.657    12 C    1.166    31 H    0.972
    14   6 C    3.954 --    13 C    1.657    15 C    1.165    32 H    0.972
    15   6 C    3.936 --    17 C    1.358    16 N    1.242    14 C    1.165
    16   7 N    3.509 --    15 C    1.242    12 C    1.239     1 Co   0.724
    17   6 C    3.935 --    18 C    1.358    15 C    1.358    33 H    0.964
    18   6 C    3.936 --    17 C    1.358    22 N    1.242    19 C    1.165
    19   6 C    3.954 --    20 C    1.657    18 C    1.165    34 H    0.972
    20   6 C    3.957 --    19 C    1.657    21 C    1.166    35 H    0.972
    21   6 C    3.934 --    23 C    1.359    22 N    1.239    20 C    1.166
    22   7 N    3.509 --    18 C    1.242    21 C    1.239     1 Co   0.724
    23   6 C    3.938 --    24 C    1.359    21 C    1.359    36 H    0.963
    24   6 C    3.929 --    23 C    1.359    25 N    1.228     2 C    1.174
    25   7 N    3.514 --     4 C    1.261    24 C    1.228     1 Co   0.722
    26   1 H    0.998 --     2 C    0.972
    27   1 H    0.998 --     3 C    0.970
    28   1 H    0.998 --     7 C    0.970
    29   1 H    0.998 --     8 C    0.972
    30   1 H    0.996 --    11 C    0.963
    31   1 H    0.998 --    13 C    0.972
    32   1 H    0.998 --    14 C    0.972
    33   1 H    0.996 --    17 C    0.964
    34   1 H    0.998 --    19 C    0.972
    35   1 H    0.998 --    20 C    0.972
    36   1 H    0.996 --    23 C    0.963
    37  27 Co   3.327 --    52 N    0.724    58 N    0.724    61 N    0.722
                            46 N    0.722
    38   6 C    3.952 --    39 C    1.642    60 C    1.174    62 H    0.972
    39   6 C    3.956 --    38 C    1.642    40 C    1.183    63 H    0.970
    40   6 C    3.916 --    61 N    1.261    41 C    1.258    39 C    1.183
    41   6 C    3.947 --    42 C    1.258    40 C    1.258    80 C    1.177
    42   6 C    3.916 --    46 N    1.261    41 C    1.258    43 C    1.183
    43   6 C    3.956 --    44 C    1.642    42 C    1.183    64 H    0.970
    44   6 C    3.952 --    43 C    1.642    45 C    1.174    65 H    0.972
    45   6 C    3.929 --    47 C    1.359    46 N    1.228    44 C    1.174
    46   7 N    3.514 --    42 C    1.261    45 C    1.228    37 Co   0.722
    47   6 C    3.938 --    45 C    1.359    48 C    1.359    66 H    0.963
    48   6 C    3.934 --    47 C    1.359    52 N    1.239    49 C    1.166
    49   6 C    3.957 --    50 C    1.657    48 C    1.166    67 H    0.972
    50   6 C    3.954 --    49 C    1.657    51 C    1.165    68 H    0.972
    51   6 C    3.936 --    53 C    1.358    52 N    1.242    50 C    1.165
    52   7 N    3.510 --    51 C    1.242    48 C    1.239    37 Co   0.724
    53   6 C    3.935 --    54 C    1.358    51 C    1.358    69 H    0.964
    54   6 C    3.936 --    53 C    1.358    58 N    1.242    55 C    1.165
    55   6 C    3.954 --    56 C    1.657    54 C    1.165    70 H    0.972
    56   6 C    3.957 --    55 C    1.657    57 C    1.166    71 H    0.972
    57   6 C    3.934 --    59 C    1.359    58 N    1.239    56 C    1.166
    58   7 N    3.510 --    54 C    1.242    57 C    1.239    37 Co   0.724
    59   6 C    3.938 --    60 C    1.359    57 C    1.359    72 H    0.963
    60   6 C    3.929 --    59 C    1.359    61 N    1.228    38 C    1.174
    61   7 N    3.514 --    40 C    1.261    60 C    1.228    37 Co   0.722
    62   1 H    0.998 --    38 C    0.972
    63   1 H    0.998 --    39 C    0.970
    64   1 H    0.998 --    43 C    0.970
    65   1 H    0.998 --    44 C    0.972
    66   1 H    0.996 --    47 C    0.963
    67   1 H    0.998 --    49 C    0.972
    68   1 H    0.998 --    50 C    0.972
    69   1 H    0.996 --    53 C    0.964
    70   1 H    0.998 --    55 C    0.972
    71   1 H    0.998 --    56 C    0.972
    72   1 H    0.996 --    59 C    0.963
    73   6 C    3.920 --    74 C    2.478     5 C    1.178    76 C    0.204
    74   6 C    3.931 --    73 C    2.478    75 C    1.300
    75   6 C    3.929 --    76 C    2.477    74 C    1.300
    76   6 C    3.921 --    75 C    2.477    85 C    1.180    73 C    0.204
    77   6 C    3.920 --    78 C    2.478    97 C    1.179    80 C    0.204
    78   6 C    3.929 --    77 C    2.478    79 C    1.299
    79   6 C    3.931 --    80 C    2.479    78 C    1.299
    80   6 C    3.919 --    79 C    2.479    41 C    1.177    77 C    0.204
    81  27 Co   3.303 --    96 N    0.718   102 N    0.718   105 N    0.718
                            90 N    0.718
    82   6 C    3.953 --    83 C    1.641   104 C    1.175   106 H    0.972
    83   6 C    3.955 --    82 C    1.641    84 C    1.183   107 H    0.970
    84   6 C    3.917 --   105 N    1.264    85 C    1.256    83 C    1.183
    85   6 C    3.938 --    86 C    1.256    84 C    1.256    76 C    1.180
    86   6 C    3.917 --    90 N    1.264    85 C    1.256    87 C    1.183
    87   6 C    3.955 --    88 C    1.641    86 C    1.183   108 H    0.970
    88   6 C    3.953 --    87 C    1.641    89 C    1.175   109 H    0.972
    89   6 C    3.928 --    91 C    1.359    90 N    1.226    88 C    1.175
    90   7 N    3.506 --    86 C    1.264    89 C    1.226    81 Co   0.718
    91   6 C    3.933 --    89 C    1.359    92 C    1.359   110 H    0.963
    92   6 C    3.928 --    91 C    1.359    96 N    1.226    93 C    1.175
    93   6 C    3.953 --    94 C    1.641    92 C    1.175   111 H    0.972
    94   6 C    3.955 --    93 C    1.641    95 C    1.183   112 H    0.970
    95   6 C    3.917 --    96 N    1.264    97 C    1.256    94 C    1.183
    96   7 N    3.506 --    95 C    1.264    92 C    1.226    81 Co   0.718
    97   6 C    3.937 --    98 C    1.256    95 C    1.256    77 C    1.179
    98   6 C    3.917 --   102 N    1.264    97 C    1.256    99 C    1.183
    99   6 C    3.955 --   100 C    1.641    98 C    1.183   113 H    0.970
   100   6 C    3.953 --    99 C    1.641   101 C    1.175   114 H    0.972
   101   6 C    3.928 --   103 C    1.359   102 N    1.227   100 C    1.175
   102   7 N    3.506 --    98 C    1.264   101 C    1.227    81 Co   0.718
   103   6 C    3.933 --   104 C    1.359   101 C    1.359   115 H    0.963
   104   6 C    3.928 --   103 C    1.359   105 N    1.226    82 C    1.175
   105   7 N    3.506 --    84 C    1.264   104 C    1.226    81 Co   0.718
   106   1 H    0.998 --    82 C    0.972
   107   1 H    0.998 --    83 C    0.970
   108   1 H    0.998 --    87 C    0.970
   109   1 H    0.998 --    88 C    0.972
   110   1 H    0.996 --    91 C    0.963
   111   1 H    0.998 --    93 C    0.972
   112   1 H    0.998 --    94 C    0.970
   113   1 H    0.998 --    99 C    0.970
   114   1 H    0.998 --   100 C    0.972
   115   1 H    0.996 --   103 C    0.963
 ---------------------------------------------------------------------------

Topologies differ in total number of bonds
Writing topology from bond orders to xtbtopo.mol

molecular dipole:
                 x           y           z       tot (Debye)
 q only:        0.001      -0.001       0.003
   full:        0.001      -0.001       0.004       0.012
molecular quadrupole (traceless):
                xx          xy          yy          xz          yz          zz
 q only:       32.475       0.117       2.685       0.237       0.852     -35.160
  q+dip:       66.835       0.178      13.444       0.315       2.106     -80.278
   full:       45.725       0.153       5.232       0.338       1.250     -50.957


           -------------------------------------------------
          | TOTAL ENERGY             -208.058342593341 Eh   |
          | GRADIENT NORM               0.000253199517 Eh/α |
          | HOMO-LUMO GAP               0.000302996391 eV   |
           -------------------------------------------------

------------------------------------------------------------------------
 * finished run on 2021/11/21 at 19:08:53.021     
------------------------------------------------------------------------
 total:
 * wall-time:     0 d,  0 h,  0 min,  2.053 sec
 *  cpu-time:     0 d,  0 h,  0 min,  2.053 sec
 * ratio c/w:     1.000 speedup
 SCF:
 * wall-time:     0 d,  0 h,  0 min,  2.000 sec
 *  cpu-time:     0 d,  0 h,  0 min,  2.000 sec
 * ratio c/w:     1.000 speedup

