      -----------------------------------------------------------      
     |                   =====================                   |     
     |                           x T B                           |     
     |                   =====================                   |     
     |                         S. Grimme                         |     
     |          Mulliken Center for Theoretical Chemistry        |     
     |                    University of Bonn                     |     
      -----------------------------------------------------------      

   * xtb version 6.4.1 (bd6e46d) compiled by 'conda@4901f00b25ba' on 2021-06-10

   xtb is free software: you can redistribute it and/or modify it under
   the terms of the GNU Lesser General Public License as published by
   the Free Software Foundation, either version 3 of the License, or
   (at your option) any later version.
   
   xtb is distributed in the hope that it will be useful,
   but WITHOUT ANY WARRANTY; without even the implied warranty of
   MERCHANTABILITY or FITNESS FOR A PARTICULAR PURPOSE.  See the
   GNU Lesser General Public License for more details.
   
   Cite this work as:
   * C. Bannwarth, E. Caldeweyher, S. Ehlert, A. Hansen, P. Pracht,
     J. Seibert, S. Spicher, S. Grimme, WIREs Comput. Mol. Sci., 2020, 11,
     e01493. DOI: 10.1002/wcms.1493
   
   for GFN2-xTB:
   * C. Bannwarth, S. Ehlert and S. Grimme., J. Chem. Theory Comput., 2019,
     15, 1652-1671. DOI: 10.1021/acs.jctc.8b01176
   for GFN1-xTB:
   * S. Grimme, C. Bannwarth, P. Shushkov, J. Chem. Theory Comput., 2017,
     13, 1989-2009. DOI: 10.1021/acs.jctc.7b00118
   for GFN0-xTB:
   * P. Pracht, E. Caldeweyher, S. Ehlert, S. Grimme, ChemRxiv, 2019, preprint.
     DOI: 10.26434/chemrxiv.8326202.v1
   for GFN-FF:
   * S. Spicher and S. Grimme, Angew. Chem. Int. Ed., 2020, 59, 15665-15673.
     DOI: 10.1002/anie.202004239
   
   for DFT-D4:
   * E. Caldeweyher, C. Bannwarth and S. Grimme, J. Chem. Phys., 2017,
     147, 034112. DOI: 10.1063/1.4993215
   * E. Caldeweyher, S. Ehlert, A. Hansen, H. Neugebauer, S. Spicher,
     C. Bannwarth and S. Grimme, J. Chem. Phys., 2019, 150, 154122.
     DOI: 10.1063/1.5090222
   * E. Caldeweyher, J.-M. Mewes, S. Ehlert and S. Grimme, Phys. Chem. Chem. Phys.
     2020, 22, 8499-8512. DOI: 10.1039/D0CP00502A
   
   for sTDA-xTB:
   * S. Grimme and C. Bannwarth, J. Chem. Phys., 2016, 145, 054103.
     DOI: 10.1063/1.4959605
   
   in the mass-spec context:
   * V. Asgeirsson, C. Bauer and S. Grimme, Chem. Sci., 2017, 8, 4879.
     DOI: 10.1039/c7sc00601b
   * J. Koopman and S. Grimme, ACS Omega 2019, 4, 12, 15120-15133.
     DOI: 10.1021/acsomega.9b02011
   
   for metadynamics refer to:
   * S. Grimme, J. Chem. Theory Comput., 2019, 155, 2847-2862
     DOI: 10.1021/acs.jctc.9b00143
   
   for SPH calculations refer to:
   * S. Spicher and S. Grimme, J. Chem. Theory Comput., 2021, 17, 1701-1714
     DOI: 10.1021/acs.jctc.0c01306
   
   with help from (in alphabetical order)
   P. Atkinson, C. Bannwarth, F. Bohle, G. Brandenburg, E. Caldeweyher
   M. Checinski, S. Dohm, S. Ehlert, S. Ehrlich, I. Gerasimov, J. Koopman
   C. Lavigne, S. Lehtola, F. März, M. Müller, F. Musil, H. Neugebauer
   J. Pisarek, C. Plett, P. Pracht, J. Seibert, P. Shushkov, S. Spicher
   M. Stahn, M. Steiner, T. Strunk, J. Stückrath, T. Rose, and J. Unsleber
   
 * started run on 2021/11/19 at 14:59:33.115     

           -------------------------------------------------
          |                Calculation Setup                |
           -------------------------------------------------

          program call               : /home/jeff/miniconda3/bin/xtb /home/jeff/chem/final-year-proejct/_4_3_outenergy/input_structure.xyz --gfn 2 --parallel 1 --etemp 300 --chrg 0 --uhf 0 -I det_control.in
          coordinate file            : /home/jeff/chem/final-year-proejct/_4_3_outenergy/input_structure.xyz
          omp threads                :                     1
          number of atoms            :                   118
          number of electrons        :                   370
          charge                     :                     0
          spin                       :                   0.0
          first test random number   :      0.18296450739141

   ID    Z sym.   atoms
    1    6 C      1-8, 10-14, 16-20, 22, 23, 38-45, 47-51, 53-57, 59, 60,
                  75-90, 92-96, 98-102, 104, 105
    2    7 N      9, 15, 21, 24, 46, 52, 58, 61, 91, 97, 103, 106
    3    1 H      25-37, 62-74, 107-118

           -------------------------------------------------
          |                 G F N 2 - x T B                 |
           -------------------------------------------------

        Reference                      10.1021/acs.jctc.8b01176
      * Hamiltonian:
        H0-scaling (s, p, d)           1.850000    2.230000    2.230000
        zeta-weighting                 0.500000
      * Dispersion:
        s8                             2.700000
        a1                             0.520000
        a2                             5.000000
        s9                             5.000000
      * Repulsion:
        kExp                           1.500000    1.000000
        rExp                           1.000000
      * Coulomb:
        alpha                          2.000000
        third order                    shell-resolved
        anisotropic                    true
        a3                             3.000000
        a5                             4.000000
        cn-shift                       1.200000
        cn-exp                         4.000000
        max-rad                        5.000000


          ...................................................
          :                      SETUP                      :
          :.................................................:
          :  # basis functions                 358          :
          :  # atomic orbitals                 358          :
          :  # shells                          198          :
          :  # electrons                       370          :
          :  max. iterations                   250          :
          :  Hamiltonian                  GFN2-xTB          :
          :  restarted?                      false          :
          :  GBSA solvation                  false          :
          :  PC potential                    false          :
          :  electronic temp.          300.0000000     K    :
          :  accuracy                    1.0000000          :
          :  -> integral cutoff          0.2500000E+02      :
          :  -> integral neglect         0.1000000E-07      :
          :  -> SCF convergence          0.1000000E-05 Eh   :
          :  -> wf. convergence          0.1000000E-03 e    :
          :  Broyden damping             0.4000000          :
          ...................................................

 iter      E             dE          RMSdq      gap      omega  full diag
   1   -203.2363914 -0.203236E+03  0.504E+00    0.68       0.0  T
   2   -203.5313443 -0.294953E+00  0.325E+00    0.93       1.0  T
   3   -203.4706622  0.606821E-01  0.142E+00    0.78       1.0  T
   4   -203.5118531 -0.411909E-01  0.632E-01    0.92       1.0  T
   5   -203.5825608 -0.707077E-01  0.221E-01    0.91       1.0  T
   6   -203.5919993 -0.943853E-02  0.840E-02    0.91       1.0  T
   7   -203.5924937 -0.494335E-03  0.548E-02    0.91       1.0  T
   8   -203.5928093 -0.315694E-03  0.228E-02    0.91       1.0  T
   9   -203.5928541 -0.447534E-04  0.109E-02    0.91       1.0  T
  10   -203.5928587 -0.455582E-05  0.497E-03    0.91       1.9  T
  11   -203.5928617 -0.303626E-05  0.122E-03    0.91       7.5  T
  12   -203.5928618 -0.147350E-06  0.497E-04    0.91      18.5  T
  13   -203.5928618 -0.102566E-07  0.324E-04    0.91      28.4  T

   *** convergence criteria satisfied after 13 iterations ***

         #    Occupation            Energy/Eh            Energy/eV
      -------------------------------------------------------------
         1        2.0000           -0.6844548             -18.6250
       ...           ...                  ...                  ...
       179        2.0000           -0.3710952             -10.0980
       180        2.0000           -0.3695784             -10.0567
       181        2.0000           -0.3687349             -10.0338
       182        2.0000           -0.3685650             -10.0292
       183        2.0000           -0.3643902              -9.9156
       184        2.0000           -0.3560464              -9.6885
       185        2.0000           -0.3463710              -9.4252 (HOMO)
       186                         -0.3128596              -8.5133 (LUMO)
       187                         -0.3022534              -8.2247
       188                         -0.2982618              -8.1161
       189                         -0.2976548              -8.0996
       190                         -0.2972726              -8.0892
       ...                                ...                  ...
       358                          1.6321596              44.4133
      -------------------------------------------------------------
                  HL-Gap            0.0335114 Eh            0.9119 eV
             Fermi-level           -0.3296153 Eh           -8.9693 eV

 SCC (total)                   0 d,  0 h,  0 min,  0.555 sec
 SCC setup                      ...        0 min,  0.004 sec (  0.638%)
 Dispersion                     ...        0 min,  0.005 sec (  0.909%)
 classical contributions        ...        0 min,  0.001 sec (  0.182%)
 integral evaluation            ...        0 min,  0.042 sec (  7.563%)
 iterations                     ...        0 min,  0.349 sec ( 62.866%)
 molecular gradient             ...        0 min,  0.151 sec ( 27.310%)
 printout                       ...        0 min,  0.003 sec (  0.528%)

         :::::::::::::::::::::::::::::::::::::::::::::::::::::
         ::                     SUMMARY                     ::
         :::::::::::::::::::::::::::::::::::::::::::::::::::::
         :: total energy            -199.825331142986 Eh    ::
         :: gradient norm              0.000486135309 Eh/a0 ::
         :: HOMO-LUMO gap              0.911891164280 eV    ::
         ::.................................................::
         :: SCC energy              -203.592861847384 Eh    ::
         :: -> isotropic ES            0.102128238225 Eh    ::
         :: -> anisotropic ES         -0.009035121064 Eh    ::
         :: -> anisotropic XC          0.137499672709 Eh    ::
         :: -> dispersion             -0.163409569736 Eh    ::
         :: repulsion energy           3.769905837621 Eh    ::
         :: add. restraining           0.000000000000 Eh    ::
         :: total charge               0.000000000001 e     ::
         :::::::::::::::::::::::::::::::::::::::::::::::::::::

           -------------------------------------------------
          |                Property Printout                |
           -------------------------------------------------

    * Orbital Energies and Occupations

         #    Occupation            Energy/Eh            Energy/eV
      -------------------------------------------------------------
         1        2.0000           -0.6844548             -18.6250
       ...           ...                  ...                  ...
       173        2.0000           -0.3871477             -10.5348
       174        2.0000           -0.3734723             -10.1627
       175        2.0000           -0.3728886             -10.1468
       176        2.0000           -0.3721911             -10.1278
       177        2.0000           -0.3719155             -10.1203
       178        2.0000           -0.3712080             -10.1011
       179        2.0000           -0.3710952             -10.0980
       180        2.0000           -0.3695784             -10.0567
       181        2.0000           -0.3687349             -10.0338
       182        2.0000           -0.3685650             -10.0292
       183        2.0000           -0.3643902              -9.9156
       184        2.0000           -0.3560464              -9.6885
       185        2.0000           -0.3463710              -9.4252 (HOMO)
       186                         -0.3128596              -8.5133 (LUMO)
       187                         -0.3022534              -8.2247
       188                         -0.2982618              -8.1161
       189                         -0.2976548              -8.0996
       190                         -0.2972726              -8.0892
       191                         -0.2927804              -7.9670
       192                         -0.2680404              -7.2938
       193                         -0.2589577              -7.0466
       194                         -0.2548532              -6.9349
       195                         -0.2251083              -6.1255
       196                         -0.2250818              -6.1248
       ...                                ...                  ...
       358                          1.6321596              44.4133
      -------------------------------------------------------------
                  HL-Gap            0.0335114 Eh            0.9119 eV
             Fermi-level           -0.3296153 Eh           -8.9693 eV

     #   Z          covCN         q      C6AA      α(0)
     1   6 C        3.016    -0.055    29.339     8.885
     2   6 C        3.009    -0.053    29.305     8.880
     3   6 C        3.197     0.087    25.567     8.243
     4   6 C        2.952     0.012    27.752     8.640
     5   6 C        3.096     0.064    26.451     8.429
     6   6 C        3.026    -0.050    29.204     8.864
     7   6 C        3.034    -0.052    29.252     8.871
     8   6 C        3.073     0.064    26.485     8.438
     9   7 N        2.785    -0.081    22.821     7.095
    10   6 C        2.899    -0.055    29.367     8.885
    11   6 C        3.170     0.087    25.719     8.285
    12   6 C        3.012    -0.054    29.315     8.882
    13   6 C        3.009    -0.054    29.317     8.882
    14   6 C        3.174     0.086    25.708     8.281
    15   7 N        1.870    -0.321    29.173     8.006
    16   6 C        2.899    -0.057    29.409     8.892
    17   6 C        3.074     0.065    26.471     8.436
    18   6 C        3.025    -0.051    29.240     8.870
    19   6 C        3.031    -0.051    29.232     8.868
    20   6 C        3.069     0.066    26.461     8.435
    21   7 N        2.787    -0.081    22.814     7.094
    22   6 C        2.899    -0.055    29.363     8.885
    23   6 C        3.175     0.085    25.725     8.283
    24   7 N        1.870    -0.324    29.267     8.019
    25   1 H        0.926     0.019     2.755     2.595
    26   1 H        0.926     0.020     2.728     2.583
    27   1 H        0.926     0.043     2.405     2.425
    28   1 H        0.926     0.041     2.432     2.439
    29   1 H        0.860     0.214     1.037     1.595
    30   1 H        0.925     0.047     2.359     2.402
    31   1 H        0.926     0.019     2.742     2.589
    32   1 H        0.926     0.019     2.741     2.589
    33   1 H        0.926     0.046     2.369     2.407
    34   1 H        0.926     0.042     2.424     2.435
    35   1 H        0.926     0.042     2.425     2.435
    36   1 H        0.860     0.215     1.035     1.594
    37   1 H        0.925     0.047     2.357     2.401
    38   6 C        3.017    -0.055    29.339     8.885
    39   6 C        3.009    -0.053    29.294     8.878
    40   6 C        3.195     0.087    25.572     8.245
    41   6 C        2.952     0.012    27.749     8.640
    42   6 C        3.099     0.064    26.453     8.429
    43   6 C        3.026    -0.050    29.212     8.865
    44   6 C        3.034    -0.052    29.251     8.871
    45   6 C        3.073     0.064    26.487     8.438
    46   7 N        2.785    -0.081    22.811     7.093
    47   6 C        2.899    -0.055    29.363     8.885
    48   6 C        3.171     0.087    25.718     8.285
    49   6 C        3.012    -0.054    29.316     8.882
    50   6 C        3.010    -0.054    29.318     8.882
    51   6 C        3.174     0.086    25.707     8.281
    52   7 N        1.870    -0.321    29.173     8.006
    53   6 C        2.899    -0.057    29.410     8.892
    54   6 C        3.074     0.065    26.471     8.436
    55   6 C        3.025    -0.051    29.240     8.870
    56   6 C        3.031    -0.051    29.231     8.868
    57   6 C        3.068     0.066    26.461     8.435
    58   7 N        2.787    -0.081    22.814     7.094
    59   6 C        2.899    -0.055    29.365     8.885
    60   6 C        3.175     0.086    25.723     8.283
    61   7 N        1.870    -0.325    29.281     8.021
    62   1 H        0.926     0.018     2.758     2.597
    63   1 H        0.926     0.021     2.720     2.579
    64   1 H        0.926     0.043     2.409     2.427
    65   1 H        0.926     0.041     2.429     2.437
    66   1 H        0.860     0.214     1.037     1.595
    67   1 H        0.925     0.047     2.357     2.401
    68   1 H        0.926     0.019     2.742     2.589
    69   1 H        0.926     0.019     2.741     2.589
    70   1 H        0.926     0.046     2.369     2.407
    71   1 H        0.926     0.042     2.424     2.435
    72   1 H        0.926     0.042     2.425     2.435
    73   1 H        0.860     0.214     1.036     1.594
    74   1 H        0.925     0.047     2.359     2.402
    75   6 C        1.995    -0.022    31.629     9.082
    76   6 C        1.963    -0.011    31.369     9.045
    77   6 C        1.964    -0.011    31.354     9.043
    78   6 C        1.994    -0.023    31.643     9.084
    79   6 C        1.994    -0.023    31.648     9.085
    80   6 C        1.964    -0.011    31.350     9.042
    81   6 C        1.963    -0.011    31.372     9.045
    82   6 C        1.996    -0.022    31.625     9.082
    83   6 C        3.018    -0.055    29.333     8.884
    84   6 C        3.008    -0.053    29.290     8.878
    85   6 C        3.195     0.087    25.578     8.246
    86   6 C        2.952     0.012    27.743     8.639
    87   6 C        3.102     0.063    26.458     8.429
    88   6 C        3.025    -0.050    29.222     8.867
    89   6 C        3.037    -0.052    29.250     8.871
    90   6 C        3.073     0.064    26.492     8.439
    91   7 N        2.785    -0.081    22.817     7.094
    92   6 C        2.899    -0.053    29.308     8.876
    93   6 C        3.174     0.085    25.738     8.286
    94   6 C        3.017    -0.055    29.333     8.884
    95   6 C        3.009    -0.053    29.305     8.880
    96   6 C        3.198     0.087    25.565     8.241
    97   7 N        1.870    -0.324    29.246     8.016
    98   6 C        2.952     0.012    27.748     8.640
    99   6 C        3.098     0.064    26.459     8.430
   100   6 C        3.024    -0.050    29.211     8.865
   101   6 C        3.037    -0.052    29.251     8.871
   102   6 C        3.071     0.064    26.491     8.439
   103   7 N        2.786    -0.082    22.831     7.097
   104   6 C        2.899    -0.053    29.315     8.877
   105   6 C        3.172     0.085    25.740     8.287
   106   7 N        1.870    -0.324    29.260     8.018
   107   1 H        0.926     0.018     2.757     2.596
   108   1 H        0.926     0.021     2.722     2.580
   109   1 H        0.926     0.043     2.412     2.429
   110   1 H        0.926     0.041     2.431     2.438
   111   1 H        0.860     0.215     1.034     1.593
   112   1 H        0.925     0.048     2.348     2.396
   113   1 H        0.926     0.019     2.753     2.594
   114   1 H        0.926     0.020     2.728     2.583
   115   1 H        0.926     0.043     2.410     2.428
   116   1 H        0.926     0.041     2.436     2.440
   117   1 H        0.860     0.214     1.036     1.594
   118   1 H        0.925     0.047     2.351     2.398

 Mol. C6AA /au·bohr⁶  :     229872.317291
 Mol. C8AA /au·bohr⁸  :    5899327.906576
 Mol. α(0) /au        :        771.306848


Wiberg/Mayer (AO) data.
largest (>0.10) Wiberg bond orders for each atom

 ---------------------------------------------------------------------------
     #   Z sym  total        # sym  WBO       # sym  WBO       # sym  WBO
 ---------------------------------------------------------------------------
     1   6 C    3.960 --     2 C    1.716    23 C    1.115    25 H    0.973
     2   6 C    3.961 --     1 C    1.716     3 C    1.122    26 H    0.972
     3   6 C    3.916 --    24 N    1.363     4 C    1.241     2 C    1.122
     4   6 C    3.939 --     5 C    1.250     3 C    1.241    75 C    1.192
     5   6 C    3.902 --     4 C    1.250     6 C    1.237     9 N    1.225
     6   6 C    3.955 --     7 C    1.593     5 C    1.237    27 H    0.972
     7   6 C    3.948 --     6 C    1.593     8 C    1.224    28 H    0.973
     8   6 C    3.918 --    10 C    1.344     7 C    1.224     9 N    1.202
     9   7 N    3.590 --     5 C    1.225     8 C    1.202    29 H    0.900
    10   6 C    3.920 --    11 C    1.357     8 C    1.344    30 H    0.964
    11   6 C    3.939 --    10 C    1.357    15 N    1.324    12 C    1.107
    12   6 C    3.963 --    13 C    1.731    11 C    1.107    31 H    0.973
    13   6 C    3.962 --    12 C    1.731    14 C    1.109    32 H    0.973
    14   6 C    3.938 --    16 C    1.354    15 N    1.325    13 C    1.109
    15   7 N    3.001 --    14 C    1.325    11 C    1.324
    16   6 C    3.922 --    14 C    1.354    17 C    1.346    33 H    0.965
    17   6 C    3.921 --    16 C    1.346    18 C    1.216    21 N    1.210
    18   6 C    3.949 --    19 C    1.608    17 C    1.216    34 H    0.973
    19   6 C    3.953 --    18 C    1.608    20 C    1.215    35 H    0.973
    20   6 C    3.916 --    22 C    1.341    19 C    1.215    21 N    1.211
    21   7 N    3.586 --    20 C    1.211    17 C    1.210    36 H    0.900
    22   6 C    3.937 --    23 C    1.367    20 C    1.341    37 H    0.963
    23   6 C    3.924 --    22 C    1.367    24 N    1.298     1 C    1.115
    24   7 N    3.009 --     3 C    1.363    23 C    1.298
    25   1 H    0.999 --     1 C    0.973
    26   1 H    0.999 --     2 C    0.972
    27   1 H    0.998 --     6 C    0.972
    28   1 H    0.998 --     7 C    0.973
    29   1 H    0.954 --     9 N    0.900
    30   1 H    0.997 --    10 C    0.964
    31   1 H    0.999 --    12 C    0.973
    32   1 H    0.999 --    13 C    0.973
    33   1 H    0.997 --    16 C    0.965
    34   1 H    0.998 --    18 C    0.973
    35   1 H    0.998 --    19 C    0.973
    36   1 H    0.954 --    21 N    0.900
    37   1 H    0.997 --    22 C    0.963
    38   6 C    3.960 --    39 C    1.716    60 C    1.115    62 H    0.973
    39   6 C    3.961 --    38 C    1.716    40 C    1.122    63 H    0.972
    40   6 C    3.917 --    61 N    1.361    41 C    1.245    39 C    1.122
    41   6 C    3.939 --    42 C    1.246    40 C    1.245    82 C    1.192
    42   6 C    3.902 --    41 C    1.246    43 C    1.238    46 N    1.226
    43   6 C    3.955 --    44 C    1.592    42 C    1.238    64 H    0.972
    44   6 C    3.948 --    43 C    1.592    45 C    1.224    65 H    0.973
    45   6 C    3.918 --    47 C    1.344    44 C    1.224    46 N    1.202
    46   7 N    3.590 --    42 C    1.226    45 C    1.202    66 H    0.900
    47   6 C    3.921 --    48 C    1.357    45 C    1.344    67 H    0.964
    48   6 C    3.939 --    47 C    1.357    52 N    1.324    49 C    1.107
    49   6 C    3.963 --    50 C    1.731    48 C    1.107    68 H    0.973
    50   6 C    3.962 --    49 C    1.731    51 C    1.109    69 H    0.973
    51   6 C    3.938 --    53 C    1.353    52 N    1.325    50 C    1.109
    52   7 N    3.001 --    51 C    1.325    48 C    1.324
    53   6 C    3.922 --    51 C    1.353    54 C    1.347    70 H    0.965
    54   6 C    3.921 --    53 C    1.347    55 C    1.216    58 N    1.210
    55   6 C    3.949 --    56 C    1.608    54 C    1.216    71 H    0.973
    56   6 C    3.953 --    55 C    1.608    57 C    1.215    72 H    0.973
    57   6 C    3.916 --    59 C    1.342    56 C    1.215    58 N    1.211
    58   7 N    3.586 --    57 C    1.211    54 C    1.210    73 H    0.900
    59   6 C    3.937 --    60 C    1.366    57 C    1.342    74 H    0.964
    60   6 C    3.924 --    59 C    1.366    61 N    1.300    38 C    1.115
    61   7 N    3.009 --    40 C    1.361    60 C    1.300
    62   1 H    0.999 --    38 C    0.973
    63   1 H    0.999 --    39 C    0.972
    64   1 H    0.998 --    43 C    0.972
    65   1 H    0.998 --    44 C    0.973
    66   1 H    0.954 --    46 N    0.900
    67   1 H    0.997 --    47 C    0.964
    68   1 H    0.999 --    49 C    0.973
    69   1 H    0.999 --    50 C    0.973
    70   1 H    0.997 --    53 C    0.965
    71   1 H    0.998 --    55 C    0.973
    72   1 H    0.998 --    56 C    0.973
    73   1 H    0.954 --    58 N    0.900
    74   1 H    0.997 --    59 C    0.964
    75   6 C    3.916 --    76 C    2.461     4 C    1.192    78 C    0.202
    76   6 C    3.925 --    75 C    2.461    77 C    1.311
    77   6 C    3.921 --    78 C    2.459    76 C    1.311
    78   6 C    3.918 --    77 C    2.459    86 C    1.195    75 C    0.202
    79   6 C    3.918 --    80 C    2.458    98 C    1.196    82 C    0.202
    80   6 C    3.921 --    79 C    2.458    81 C    1.311
    81   6 C    3.925 --    82 C    2.461    80 C    1.311
    82   6 C    3.916 --    81 C    2.461    41 C    1.192    79 C    0.202
    83   6 C    3.960 --    84 C    1.716   105 C    1.115   107 H    0.973
    84   6 C    3.961 --    83 C    1.716    85 C    1.124   108 H    0.972
    85   6 C    3.917 --   106 N    1.361    86 C    1.244    84 C    1.124
    86   6 C    3.925 --    85 C    1.244    87 C    1.241    78 C    1.195
    87   6 C    3.903 --    88 C    1.242    86 C    1.241    91 N    1.227
    88   6 C    3.952 --    89 C    1.587    87 C    1.242   109 H    0.972
    89   6 C    3.949 --    88 C    1.587    90 C    1.228   110 H    0.973
    90   6 C    3.914 --    92 C    1.335    89 C    1.228    91 N    1.203
    91   7 N    3.586 --    87 C    1.227    90 C    1.203   111 H    0.897
    92   6 C    3.923 --    93 C    1.372    90 C    1.335   112 H    0.963
    93   6 C    3.926 --    92 C    1.372    97 N    1.294    94 C    1.115
    94   6 C    3.961 --    95 C    1.715    93 C    1.115   113 H    0.973
    95   6 C    3.960 --    94 C    1.715    96 C    1.124   114 H    0.972
    96   6 C    3.917 --    97 N    1.364    98 C    1.238    95 C    1.124
    97   7 N    3.001 --    96 C    1.364    93 C    1.294
    98   6 C    3.926 --    99 C    1.246    96 C    1.238    79 C    1.196
    99   6 C    3.904 --    98 C    1.246   100 C    1.241   103 N    1.226
   100   6 C    3.952 --   101 C    1.588    99 C    1.241   115 H    0.972
   101   6 C    3.949 --   100 C    1.588   102 C    1.227   116 H    0.973
   102   6 C    3.914 --   104 C    1.336   101 C    1.227   103 N    1.204
   103   7 N    3.585 --    99 C    1.226   102 C    1.204   117 H    0.897
   104   6 C    3.922 --   105 C    1.370   102 C    1.336   118 H    0.963
   105   6 C    3.927 --   104 C    1.370   106 N    1.297    83 C    1.115
   106   7 N    3.000 --    85 C    1.361   105 C    1.297
   107   1 H    0.999 --    83 C    0.973
   108   1 H    0.999 --    84 C    0.972
   109   1 H    0.998 --    88 C    0.972
   110   1 H    0.998 --    89 C    0.973
   111   1 H    0.954 --    91 N    0.897
   112   1 H    0.997 --    92 C    0.963
   113   1 H    0.999 --    94 C    0.973
   114   1 H    0.999 --    95 C    0.972
   115   1 H    0.998 --   100 C    0.972
   116   1 H    0.998 --   101 C    0.973
   117   1 H    0.954 --   103 N    0.897
   118   1 H    0.997 --   104 C    0.963
 ---------------------------------------------------------------------------

Topologies differ in total number of bonds
Writing topology from bond orders to xtbtopo.mol

molecular dipole:
                 x           y           z       tot (Debye)
 q only:       -0.004       0.070      -0.090
   full:       -0.002       0.083      -0.107       0.345
molecular quadrupole (traceless):
                xx          xy          yy          xz          yz          zz
 q only:       26.052     -13.363     -20.706      28.816     -10.150      -5.346
  q+dip:       61.629      -1.840     -52.585      18.349     -38.018      -9.044
   full:       41.375      -3.718     -33.615      16.301     -21.808      -7.760


           -------------------------------------------------
          | TOTAL ENERGY             -199.825331142986 Eh   |
          | GRADIENT NORM               0.000486135309 Eh/α |
          | HOMO-LUMO GAP               0.911891164280 eV   |
           -------------------------------------------------

------------------------------------------------------------------------
 * finished run on 2021/11/19 at 14:59:33.717     
------------------------------------------------------------------------
 total:
 * wall-time:     0 d,  0 h,  0 min,  0.603 sec
 *  cpu-time:     0 d,  0 h,  0 min,  0.603 sec
 * ratio c/w:     1.000 speedup
 SCF:
 * wall-time:     0 d,  0 h,  0 min,  0.555 sec
 *  cpu-time:     0 d,  0 h,  0 min,  0.555 sec
 * ratio c/w:     1.000 speedup

