      -----------------------------------------------------------      
     |                   =====================                   |     
     |                           x T B                           |     
     |                   =====================                   |     
     |                         S. Grimme                         |     
     |          Mulliken Center for Theoretical Chemistry        |     
     |                    University of Bonn                     |     
      -----------------------------------------------------------      

   * xtb version 6.4.1 (bd6e46d) compiled by 'conda@4901f00b25ba' on 2021-06-10

   xtb is free software: you can redistribute it and/or modify it under
   the terms of the GNU Lesser General Public License as published by
   the Free Software Foundation, either version 3 of the License, or
   (at your option) any later version.
   
   xtb is distributed in the hope that it will be useful,
   but WITHOUT ANY WARRANTY; without even the implied warranty of
   MERCHANTABILITY or FITNESS FOR A PARTICULAR PURPOSE.  See the
   GNU Lesser General Public License for more details.
   
   Cite this work as:
   * C. Bannwarth, E. Caldeweyher, S. Ehlert, A. Hansen, P. Pracht,
     J. Seibert, S. Spicher, S. Grimme, WIREs Comput. Mol. Sci., 2020, 11,
     e01493. DOI: 10.1002/wcms.1493
   
   for GFN2-xTB:
   * C. Bannwarth, S. Ehlert and S. Grimme., J. Chem. Theory Comput., 2019,
     15, 1652-1671. DOI: 10.1021/acs.jctc.8b01176
   for GFN1-xTB:
   * S. Grimme, C. Bannwarth, P. Shushkov, J. Chem. Theory Comput., 2017,
     13, 1989-2009. DOI: 10.1021/acs.jctc.7b00118
   for GFN0-xTB:
   * P. Pracht, E. Caldeweyher, S. Ehlert, S. Grimme, ChemRxiv, 2019, preprint.
     DOI: 10.26434/chemrxiv.8326202.v1
   for GFN-FF:
   * S. Spicher and S. Grimme, Angew. Chem. Int. Ed., 2020, 59, 15665-15673.
     DOI: 10.1002/anie.202004239
   
   for DFT-D4:
   * E. Caldeweyher, C. Bannwarth and S. Grimme, J. Chem. Phys., 2017,
     147, 034112. DOI: 10.1063/1.4993215
   * E. Caldeweyher, S. Ehlert, A. Hansen, H. Neugebauer, S. Spicher,
     C. Bannwarth and S. Grimme, J. Chem. Phys., 2019, 150, 154122.
     DOI: 10.1063/1.5090222
   * E. Caldeweyher, J.-M. Mewes, S. Ehlert and S. Grimme, Phys. Chem. Chem. Phys.
     2020, 22, 8499-8512. DOI: 10.1039/D0CP00502A
   
   for sTDA-xTB:
   * S. Grimme and C. Bannwarth, J. Chem. Phys., 2016, 145, 054103.
     DOI: 10.1063/1.4959605
   
   in the mass-spec context:
   * V. Asgeirsson, C. Bauer and S. Grimme, Chem. Sci., 2017, 8, 4879.
     DOI: 10.1039/c7sc00601b
   * J. Koopman and S. Grimme, ACS Omega 2019, 4, 12, 15120-15133.
     DOI: 10.1021/acsomega.9b02011
   
   for metadynamics refer to:
   * S. Grimme, J. Chem. Theory Comput., 2019, 155, 2847-2862
     DOI: 10.1021/acs.jctc.9b00143
   
   for SPH calculations refer to:
   * S. Spicher and S. Grimme, J. Chem. Theory Comput., 2021, 17, 1701-1714
     DOI: 10.1021/acs.jctc.0c01306
   
   with help from (in alphabetical order)
   P. Atkinson, C. Bannwarth, F. Bohle, G. Brandenburg, E. Caldeweyher
   M. Checinski, S. Dohm, S. Ehlert, S. Ehrlich, I. Gerasimov, J. Koopman
   C. Lavigne, S. Lehtola, F. März, M. Müller, F. Musil, H. Neugebauer
   J. Pisarek, C. Plett, P. Pracht, J. Seibert, P. Shushkov, S. Spicher
   M. Stahn, M. Steiner, T. Strunk, J. Stückrath, T. Rose, and J. Unsleber
   
 * started run on 2021/11/21 at 09:17:39.808     

           -------------------------------------------------
          |                Calculation Setup                |
           -------------------------------------------------

          program call               : /home/jeff/miniconda3/bin/xtb input_structure_1.xyz --gfn 2 --ohess normal --parallel 1 --etemp 300 --chrg 0 --uhf 0 -I det_control.in
          hostname                   : jelfscompute1
          coordinate file            : input_structure_1.xyz
          omp threads                :                     1
          number of atoms            :                   296
          number of electrons        :                  1026
          charge                     :                     0
          spin                       :                   0.0
          first test random number   :      0.15878860127692

   ID    Z sym.   atoms
    1   29 Cu     1, 37, 87, 122, 157, 192, 227, 262
    2    6 C      2-9, 11-15, 17-21, 23, 24, 38-45, 47-51, 53-57, 59, 60,
                  73-86, 88-95, 97-101, 103-107, 109, 110, 123-130, 132-136,
                  138-142, 144, 145, 158-165, 167-171, 173-177, 179, 180,
                  193-200, 202-206, 208-212, 214, 215, 228-235, 237-241,
                  243-247, 249, 250, 263-270, 272-276, 278-282, 284, 285
    3    7 N      10, 16, 22, 25, 46, 52, 58, 61, 96, 102, 108, 111, 131,
                  137, 143, 146, 166, 172, 178, 181, 201, 207, 213, 216, 236,
                  242, 248, 251, 271, 277, 283, 286
    4    1 H      26-36, 62-72, 112-121, 147-156, 182-191, 217-226, 252-261,
                  287-296

molecular fragmentation (1/2 indicates fragments):
111111111111111111111111111111111111222222222222222222222222222222222222
222222222222222222222222222222222222222222222222222222222222222222222222
222222222222222222222222222222222222222222222222222222222222222222222222
222222222222222222222222222222222222222222222222222222222222222222222222
22222222
# atoms in fragment 1/2:    36   260
 fragment masses (1/2) :      370.87     2758.23
CMA distance (Bohr)    :  83.885
constraining FC (au)   :  0.0500

           -------------------------------------------------
          |                 G F N 2 - x T B                 |
           -------------------------------------------------

        Reference                      10.1021/acs.jctc.8b01176
      * Hamiltonian:
        H0-scaling (s, p, d)           1.850000    2.230000    2.230000
        zeta-weighting                 0.500000
      * Dispersion:
        s8                             2.700000
        a1                             0.520000
        a2                             5.000000
        s9                             5.000000
      * Repulsion:
        kExp                           1.500000    1.000000
        rExp                           1.000000
      * Coulomb:
        alpha                          2.000000
        third order                    shell-resolved
        anisotropic                    true
        a3                             3.000000
        a5                             4.000000
        cn-shift                       1.200000
        cn-exp                         4.000000
        max-rad                        5.000000


          ...................................................
          :                      SETUP                      :
          :.................................................:
          :  # basis functions                 986          :
          :  # atomic orbitals                 978          :
          :  # shells                          518          :
          :  # electrons                      1026          :
          :  max. iterations                   250          :
          :  Hamiltonian                  GFN2-xTB          :
          :  restarted?                      false          :
          :  GBSA solvation                  false          :
          :  PC potential                    false          :
          :  electronic temp.          300.0000000     K    :
          :  accuracy                    1.0000000          :
          :  -> integral cutoff          0.2500000E+02      :
          :  -> integral neglect         0.1000000E-07      :
          :  -> SCF convergence          0.1000000E-05 Eh   :
          :  -> wf. convergence          0.1000000E-03 e    :
          :  Broyden damping             0.4000000          :
          ...................................................

 iter      E             dE          RMSdq      gap      omega  full diag
   1   -546.5536028 -0.546554E+03  0.540E+00    0.01       0.0  T
   2   -539.4824882  0.707111E+01  0.357E+00    0.01       1.0  T
   3    319.8247495  0.859307E+03  0.158E+01    0.10       1.0  T
   4   -498.1943075 -0.818019E+03  0.504E+00    0.07       1.0  T
   5   -463.2415854  0.349527E+02  0.655E+00    0.03       1.0  T
   6   -521.2710451 -0.580295E+02  0.495E+00    0.05       1.0  T
   7   -533.7964914 -0.125254E+02  0.315E+00    0.02       1.0  T
   8   -472.5264436  0.612700E+02  0.484E+00    0.09       1.0  T
   9   -536.8475241 -0.643211E+02  0.262E+00    0.14       1.0  T
  10   -543.4524059 -0.660488E+01  0.207E+00    0.06       1.0  T
  11   -543.7298177 -0.277412E+00  0.177E+00    0.07       1.0  T
  12   -544.6501276 -0.920310E+00  0.155E+00    0.08       1.0  T
  13   -545.3490930 -0.698965E+00  0.127E+00    0.01       1.0  T
  14   -544.5407426  0.808350E+00  0.129E+00    0.16       1.0  T
  15   -545.8202303 -0.127949E+01  0.111E+00    0.13       1.0  T
  16   -545.8632305 -0.430002E-01  0.930E-01    0.01       1.0  T
  17   -546.3642673 -0.501037E+00  0.924E-01    0.07       1.0  T
  18   -546.3443028  0.199645E-01  0.844E-01    0.00       1.0  T
  19   -545.9334924  0.410810E+00  0.773E-01    0.03       1.0  T
  20   -546.4525456 -0.519053E+00  0.788E-01    0.10       1.0  T
  21   -546.5955517 -0.143006E+00  0.682E-01    0.05       1.0  T
  22   -546.6626948 -0.671431E-01  0.637E-01    0.06       1.0  T
  23   -546.7000346 -0.373398E-01  0.592E-01    0.04       1.0  T
  24   -546.7479178 -0.478832E-01  0.560E-01    0.05       1.0  T
  25   -546.8754243 -0.127506E+00  0.462E-01    0.01       1.0  T
  26   -546.8812999 -0.587560E-02  0.453E-01    0.03       1.0  T
  27   -546.8460715  0.352284E-01  0.486E-01    0.01       1.0  T
  28   -546.8497878 -0.371630E-02  0.473E-01    0.01       1.0  T
  29   -546.8319956  0.177921E-01  0.481E-01    0.05       1.0  T
  30   -546.8256793  0.631630E-02  0.443E-01    0.06       1.0  T
  31   -546.8997827 -0.741034E-01  0.324E-01    0.05       1.0  T
  32   -546.9066352 -0.685251E-02  0.293E-01    0.00       1.0  T
  33   -546.9485696 -0.419344E-01  0.203E-01    0.01       1.0  T
  34   -546.9609918 -0.124222E-01  0.188E-01    0.02       1.0  T
  35   -546.9397688  0.212230E-01  0.217E-01    0.01       1.0  T
  36   -546.9893283 -0.495595E-01  0.119E-01    0.00       1.0  T
  37   -546.9906205 -0.129213E-02  0.124E-01    0.00       1.0  T
  38   -546.9913830 -0.762574E-03  0.114E-01    0.01       1.0  T
  39   -546.9924875 -0.110450E-02  0.102E-01    0.00       1.0  T
  40   -546.9973653 -0.487780E-02  0.589E-02    0.00       1.0  T
  41   -546.9972998  0.655117E-04  0.605E-02    0.01       1.0  T
  42   -546.9974538 -0.153947E-03  0.591E-02    0.00       1.0  T
  43   -546.9991886 -0.173485E-02  0.321E-02    0.00       1.0  T
  44   -547.0000272 -0.838536E-03  0.263E-02    0.00       1.0  T
  45   -547.0002743 -0.247132E-03  0.183E-02    0.00       1.0  T
  46   -547.0001217  0.152579E-03  0.209E-02    0.00       1.0  T
  47   -547.0001355 -0.137465E-04  0.206E-02    0.00       1.0  T
  48   -547.0001662 -0.306997E-04  0.181E-02    0.00       1.0  T
  49   -547.0002049 -0.387268E-04  0.161E-02    0.00       1.0  T
  50   -547.0005159 -0.311059E-03  0.706E-03    0.00       1.0  T
  51   -547.0004554  0.604987E-04  0.968E-03    0.00       1.0  T
  52   -547.0004890 -0.335171E-04  0.740E-03    0.00       1.0  T
  53   -547.0005219 -0.329454E-04  0.514E-03    0.00       1.1  T
  54   -547.0005343 -0.124257E-04  0.364E-03    0.00       1.6  T
  55   -547.0005277  0.665123E-05  0.415E-03    0.00       1.4  T
  56   -547.0005396 -0.119356E-04  0.214E-03    0.00       2.7  T
  57   -547.0005378  0.182204E-05  0.218E-03    0.00       2.7  T
  58   -547.0005421 -0.435037E-05  0.109E-03    0.00       5.3  T
  59   -547.0005426 -0.487731E-06  0.888E-04    0.00       6.5  T
  60   -547.0005430 -0.416872E-06  0.653E-04    0.00       8.9  T

   *** convergence criteria satisfied after 60 iterations ***

         #    Occupation            Energy/Eh            Energy/eV
      -------------------------------------------------------------
         1        2.0000           -0.6840199             -18.6131
       ...           ...                  ...                  ...
       507        2.0000           -0.3536320              -9.6228
       508        2.0000           -0.3535541              -9.6207
       509        2.0000           -0.3533036              -9.6139
       510        1.7296           -0.3363912              -9.1537
       511        1.6351           -0.3360531              -9.1445
       512        1.3941           -0.3354198              -9.1272
       513        1.2377           -0.3350886              -9.1182 (HOMO)
       514        1.1909           -0.3349954              -9.1157 (LUMO)
       515        0.6877           -0.3340143              -9.0890
       516        0.1186           -0.3320023              -9.0342
       517        0.0045           -0.3288478              -8.9484
       518        0.0010           -0.3273908              -8.9088
       ...           ...                  ...                  ...
       978                          1.4302334              38.9186
      -------------------------------------------------------------
                  HL-Gap            0.0000931 Eh            0.0025 eV
             Fermi-level           -0.3346282 Eh           -9.1057 eV

 SCC (total)                   0 d,  0 h,  0 min, 19.400 sec
 SCC setup                      ...        0 min,  0.016 sec (  0.082%)
 Dispersion                     ...        0 min,  0.033 sec (  0.168%)
 classical contributions        ...        0 min,  0.003 sec (  0.015%)
 integral evaluation            ...        0 min,  0.246 sec (  1.267%)
 iterations                     ...        0 min, 18.428 sec ( 94.994%)
 molecular gradient             ...        0 min,  0.632 sec (  3.256%)
 printout                       ...        0 min,  0.042 sec (  0.218%)

         :::::::::::::::::::::::::::::::::::::::::::::::::::::
         ::                     SUMMARY                     ::
         :::::::::::::::::::::::::::::::::::::::::::::::::::::
         :: total energy            -537.578179887266 Eh    ::
         :: gradient norm              1.018431428700 Eh/a0 ::
         :: HOMO-LUMO gap              0.002534381006 eV    ::
         ::.................................................::
         :: SCC energy              -547.000543047369 Eh    ::
         :: -> isotropic ES            0.305452834274 Eh    ::
         :: -> anisotropic ES          0.072131742451 Eh    ::
         :: -> anisotropic XC          0.254821609262 Eh    ::
         :: -> dispersion             -0.486602278955 Eh    ::
         :: repulsion energy           9.421817547812 Eh    ::
         :: add. restraining           0.000000000000 Eh    ::
         :: total charge               0.000000000041 e     ::
         :::::::::::::::::::::::::::::::::::::::::::::::::::::

      ----------------------------------------------------------- 
     |                   =====================                   |
     |                        A N C O P T                        |
     |                   =====================                   |
     |               Approximate Normal Coordinate               |
     |                Rational Function Optimizer                |
      ----------------------------------------------------------- 

          ...................................................
          :                      SETUP                      :
          :.................................................:
          :   optimization level            normal          :
          :   max. optcycles                   888          :
          :   ANC micro-cycles                  20          :
          :   degrees of freedom               882          :
          :.................................................:
          :   RF solver                   davidson          :
          :   write xtbopt.log                true          :
          :   linear?                        false          :
          :   energy convergence         0.5000000E-05 Eh   :
          :   grad. convergence          0.1000000E-02 Eh/α :
          :   maximium RF displ.         1.0000000          :
          :   Hlow (freq-cutoff)         0.1000000E-01      :
          :   Hmax (freq-cutoff)         5.0000000          :
          :   S6 in model hess.         20.0000000          :
          ...................................................

generating ANC from model Hessian ...
Using Lindh-Hessian (1995)
 Shifting diagonal of input Hessian by    1.0026869796207007E-002
 Lowest  eigenvalues of input Hessian
    0.010000    0.010001    0.010001    0.010002    0.010002    0.010004
    0.010005    0.010010    0.010013    0.010014    0.010017    0.010018
    0.010020    0.010022    0.010024    0.010024    0.010026    0.000000
 Highest eigenvalues
    2.512586    2.732930    2.732932    2.732932    2.732933    2.732934


........................................................................
.............................. CYCLE    1 ..............................
........................................................................
   1   -547.0005432 -0.547001E+03  0.572E-04    0.00       0.0  T
   2   -547.0002686  0.274568E-03  0.132E-02    0.00       1.0  T
   3   -547.0005187 -0.250077E-03  0.371E-03    0.00       1.6  T
   4   -547.0005336 -0.148765E-04  0.247E-03    0.00       2.4  T
   5   -547.0005250  0.858432E-05  0.337E-03    0.00       1.7  T
   6   -547.0005390 -0.140683E-04  0.168E-03    0.00       3.5  T
   7   -547.0005410 -0.191579E-05  0.130E-03    0.00       4.5  T
   8   -547.0005421 -0.116814E-05  0.998E-04    0.00       5.8  T
   9   -547.0005432 -0.105186E-05  0.471E-04    0.00      12.4  T
  10   -547.0005433 -0.130164E-06  0.385E-04    0.00      15.1  T
  11   -547.0005431  0.155544E-06  0.479E-04    0.00      12.1  T
     SCC iter.                  ...        0 min,  3.380 sec
     gradient                   ...        0 min,  0.634 sec
 * total energy  :  -537.5781800 Eh     change       -0.1002353E-06 Eh
   gradient norm :     1.0184322 Eh/α   predicted     0.0000000E+00 (-100.00%)
   displ. norm   :     0.5971033 α      lambda       -0.5169483E+00
   maximum displ.:     0.2140253 α      in ANC's #861, #300, #860, ...

........................................................................
.............................. CYCLE    2 ..............................
........................................................................
   1   -546.9591845 -0.546959E+03  0.338E-01    0.00       0.0  T
   2   -546.7976294  0.161555E+00  0.438E-01    0.01       1.0  T
   3   -546.2097330  0.587896E+00  0.729E-01    0.03       1.0  T
   4   -545.8368161  0.372917E+00  0.730E-01    0.05       1.0  T
   5   -546.5014286 -0.664612E+00  0.510E-01    0.03       1.0  T
   6   -546.5374273 -0.359987E-01  0.562E-01    0.05       1.0  T
   7   -546.8656308 -0.328203E+00  0.292E-01    0.04       1.0  T
   8   -546.6372164  0.228414E+00  0.494E-01    0.05       1.0  T
   9   -546.6848836 -0.476672E-01  0.440E-01    0.05       1.0  T
  10   -546.5436708  0.141213E+00  0.491E-01    0.04       1.0  T
  11   -546.8814046 -0.337734E+00  0.288E-01    0.00       1.0  T
  12   -546.9021406 -0.207360E-01  0.244E-01    0.02       1.0  T
  13   -546.9678274 -0.656868E-01  0.125E-01    0.01       1.0  T
  14   -546.9776543 -0.982685E-02  0.870E-02    0.00       1.0  T
  15   -546.9711669  0.648735E-02  0.112E-01    0.01       1.0  T
  16   -546.9716157 -0.448733E-03  0.965E-02    0.02       1.0  T
  17   -546.9733306 -0.171498E-02  0.879E-02    0.01       1.0  T
  18   -546.9747199 -0.138928E-02  0.764E-02    0.01       1.0  T
  19   -546.9775326 -0.281266E-02  0.705E-02    0.01       1.0  T
  20   -546.9815895 -0.405695E-02  0.580E-02    0.01       1.0  T
  21   -546.9751970  0.639257E-02  0.838E-02    0.02       1.0  T
  22   -546.9802083 -0.501138E-02  0.632E-02    0.01       1.0  T
  23   -546.9836770 -0.346863E-02  0.379E-02    0.01       1.0  T
  24   -546.9839773 -0.300322E-03  0.326E-02    0.01       1.0  T
  25   -546.9853628 -0.138546E-02  0.183E-02    0.01       1.0  T
  26   -546.9849656  0.397172E-03  0.237E-02    0.00       1.0  T
  27   -546.9855045 -0.538932E-03  0.136E-02    0.00       1.0  T
  28   -546.9851179  0.386632E-03  0.216E-02    0.01       1.0  T
  29   -546.9853940 -0.276122E-03  0.173E-02    0.01       1.0  T
  30   -546.9856697 -0.275677E-03  0.101E-02    0.00       1.0  T
  31   -546.9857426 -0.729380E-04  0.609E-03    0.00       1.0  T
  32   -546.9857793 -0.367209E-04  0.315E-03    0.00       1.8  T
  33   -546.9857888 -0.941032E-05  0.172E-03    0.00       3.4  T
  34   -546.9857831  0.567667E-05  0.246E-03    0.00       2.4  T
  35   -546.9857922 -0.917084E-05  0.497E-04    0.00      11.7  T
  36   -546.9857923 -0.771909E-07  0.429E-04    0.00      13.5  T
  37   -546.9857924 -0.448755E-07  0.374E-04    0.00      15.5  T
     SCC iter.                  ...        0 min, 11.391 sec
     gradient                   ...        0 min,  0.633 sec
 * total energy  :  -537.9951953 Eh     change       -0.4170153E+00 Eh
   gradient norm :     0.6018216 Eh/α   predicted    -0.3506588E+00 ( -15.91%)
   displ. norm   :     0.6761345 α      lambda       -0.3492971E+00
   maximum displ.:     0.2196578 α      in ANC's #300, #861, #293, ...

........................................................................
.............................. CYCLE    3 ..............................
........................................................................
   1   -546.9995045 -0.547000E+03  0.378E-01    0.00       0.0  T
   2   -546.7707373  0.228767E+00  0.520E-01    0.05       1.0  T
   3   -545.3296582  0.144108E+01  0.101E+00    0.23       1.0  T
   4   -545.7069691 -0.377311E+00  0.798E-01    0.05       1.0  T
   5   -546.4871950 -0.780226E+00  0.549E-01    0.01       1.0  T
   6   -546.6361458 -0.148951E+00  0.522E-01    0.04       1.0  T
   7   -546.7088845 -0.727387E-01  0.459E-01    0.04       1.0  T
   8   -546.5090035  0.199881E+00  0.535E-01    0.01       1.0  T
   9   -546.9127239 -0.403720E+00  0.291E-01    0.01       1.0  T
  10   -546.8262403  0.864837E-01  0.380E-01    0.02       1.0  T
  11   -546.8997765 -0.735362E-01  0.264E-01    0.02       1.0  T
  12   -546.8772379  0.225386E-01  0.315E-01    0.02       1.0  T
  13   -546.9754398 -0.982019E-01  0.209E-01    0.02       1.0  T
  14   -546.9938591 -0.184193E-01  0.179E-01    0.00       1.0  T
  15   -546.9972580 -0.339882E-02  0.172E-01    0.00       1.0  T
  16   -547.0036521 -0.639419E-02  0.158E-01    0.01       1.0  T
  17   -547.0061302 -0.247806E-02  0.156E-01    0.01       1.0  T
  18   -547.0192308 -0.131006E-01  0.114E-01    0.00       1.0  T
  19   -547.0052218  0.140090E-01  0.136E-01    0.00       1.0  T
  20   -547.0194837 -0.142618E-01  0.102E-01    0.00       1.0  T
  21   -547.0229667 -0.348307E-02  0.853E-02    0.00       1.0  T
  22   -547.0265132 -0.354643E-02  0.704E-02    0.02       1.0  T
  23   -547.0296682 -0.315504E-02  0.574E-02    0.00       1.0  T
  24   -547.0304389 -0.770652E-03  0.512E-02    0.00       1.0  T
  25   -547.0342892 -0.385035E-02  0.203E-02    0.00       1.0  T
  26   -547.0339471  0.342066E-03  0.231E-02    0.00       1.0  T
  27   -547.0348514 -0.904282E-03  0.873E-03    0.00       1.0  T
  28   -547.0347895  0.619392E-04  0.946E-03    0.00       1.0  T
  29   -547.0348563 -0.667904E-04  0.643E-03    0.00       1.0  T
  30   -547.0347251  0.131222E-03  0.101E-02    0.00       1.0  T
  31   -547.0348859 -0.160889E-03  0.345E-03    0.00       1.7  T
  32   -547.0348962 -0.102057E-04  0.213E-03    0.00       2.7  T
  33   -547.0349027 -0.658029E-05  0.104E-03    0.00       5.6  T
  34   -547.0349019  0.789517E-06  0.115E-03    0.00       5.0  T
  35   -547.0349022 -0.298158E-06  0.104E-03    0.00       5.6  T
  36   -547.0349039 -0.163525E-05  0.439E-04    0.00      13.2  T
  37   -547.0349040 -0.130220E-06  0.268E-04    0.00      21.7  T
  38   -547.0349040 -0.259757E-07  0.218E-04    0.00      26.7  T
     SCC iter.                  ...        0 min, 11.668 sec
     gradient                   ...        0 min,  0.633 sec
 * total energy  :  -538.2586108 Eh     change       -0.2634156E+00 Eh
   gradient norm :     0.2748493 Eh/α   predicted    -0.2544906E+00 (  -3.39%)
   displ. norm   :     0.7514021 α      lambda       -0.1759984E+00
   maximum displ.:     0.2840018 α      in ANC's #300, #293, #301, ...

........................................................................
.............................. CYCLE    4 ..............................
........................................................................
   1   -546.9951699 -0.546995E+03  0.492E-01    0.01       0.0  T
   2   -540.7675262  0.622764E+01  0.203E+00    0.02       1.0  T
   3   -546.5338085 -0.576628E+01  0.600E-01    0.01       1.0  T
   4   -544.5254677  0.200834E+01  0.181E+00    0.09       1.0  T
   5   -546.3342578 -0.180879E+01  0.676E-01    0.09       1.0  T
   6   -546.1238901  0.210368E+00  0.737E-01    0.03       1.0  T
   7   -546.6829751 -0.559085E+00  0.492E-01    0.07       1.0  T
   8   -546.6984776 -0.155025E-01  0.554E-01    0.01       1.0  T
   9   -546.8522736 -0.153796E+00  0.415E-01    0.01       1.0  T
  10   -546.8381340  0.141396E-01  0.429E-01    0.01       1.0  T
  11   -546.2169989  0.621135E+00  0.670E-01    0.08       1.0  T
  12   -546.8382924 -0.621294E+00  0.438E-01    0.03       1.0  T
  13   -546.8717816 -0.334892E-01  0.362E-01    0.02       1.0  T
  14   -547.0460114 -0.174230E+00  0.295E-01    0.03       1.0  T
  15   -547.1064936 -0.604822E-01  0.161E-01    0.01       1.0  T
  16   -547.1280250 -0.215314E-01  0.149E-01    0.01       1.0  T
  17   -547.1280649 -0.399581E-04  0.116E-01    0.01       1.0  T
  18   -547.0882433  0.398216E-01  0.184E-01    0.03       1.0  T
  19   -547.0060473  0.821960E-01  0.247E-01    0.03       1.0  T
  20   -547.0797074 -0.736600E-01  0.170E-01    0.02       1.0  T
  21   -547.1433544 -0.636470E-01  0.750E-02    0.00       1.0  T
  22   -547.1479755 -0.462106E-02  0.527E-02    0.00       1.0  T
  23   -547.1490177 -0.104228E-02  0.395E-02    0.00       1.0  T
  24   -547.1491191 -0.101359E-03  0.327E-02    0.00       1.0  T
  25   -547.1483283  0.790787E-03  0.369E-02    0.00       1.0  T
  26   -547.1495445 -0.121616E-02  0.253E-02    0.00       1.0  T
  27   -547.1477302  0.181428E-02  0.402E-02    0.01       1.0  T
  28   -547.1498247 -0.209454E-02  0.246E-02    0.00       1.0  T
  29   -547.1494462  0.378538E-03  0.229E-02    0.01       1.0  T
  30   -547.1498700 -0.423812E-03  0.225E-02    0.00       1.0  T
  31   -547.1504066 -0.536556E-03  0.136E-02    0.00       1.0  T
  32   -547.1502906  0.115978E-03  0.138E-02    0.00       1.0  T
  33   -547.1504620 -0.171408E-03  0.103E-02    0.00       1.0  T
  34   -547.1504249  0.371452E-04  0.107E-02    0.00       1.0  T
  35   -547.1505604 -0.135545E-03  0.795E-03    0.00       1.0  T
  36   -547.1505741 -0.136688E-04  0.688E-03    0.00       1.0  T
  37   -547.1505830 -0.893793E-05  0.592E-03    0.00       1.0  T
  38   -547.1505863 -0.332807E-05  0.563E-03    0.00       1.0  T
  39   -547.1505867 -0.343154E-06  0.543E-03    0.00       1.1  T
  40   -547.1505878 -0.109739E-05  0.522E-03    0.00       1.1  T
  41   -547.1505877  0.848837E-07  0.508E-03    0.00       1.1  T
  42   -547.1505880 -0.332628E-06  0.491E-03    0.00       1.2  T
  43   -547.1505886 -0.601525E-06  0.464E-03    0.00       1.3  T
  44   -547.1505882  0.389513E-06  0.429E-03    0.00       1.4  T
  45   -547.1505885 -0.311445E-06  0.373E-03    0.00       1.6  T
  46   -547.1505899 -0.136155E-05  0.323E-03    0.00       1.8  T
  47   -547.1505922 -0.224694E-05  0.151E-03    0.00       3.9  T
  48   -547.1505923 -0.128123E-06  0.933E-04    0.00       6.2  T
  49   -547.1505925 -0.228052E-06  0.483E-04    0.00      12.0  T
     SCC iter.                  ...        0 min, 15.025 sec
     gradient                   ...        0 min,  0.635 sec
 * total energy  :  -538.4014584 Eh     change       -0.1428476E+00 Eh
   gradient norm :     0.1529045 Eh/α   predicted    -0.1376842E+00 (  -3.61%)
   displ. norm   :     0.8142652 α      lambda       -0.1181472E+00
   maximum displ.:     0.2957660 α      in ANC's #300, #293, #150, ...

........................................................................
.............................. CYCLE    5 ..............................
........................................................................
   1   -546.9513395 -0.546951E+03  0.632E-01    0.01       0.0  T
   2   -527.5713923  0.193799E+02  0.327E+00    0.06       1.0  T
   3   -546.5174939 -0.189461E+02  0.941E-01    0.01       1.0  T
   4   -546.1349181  0.382576E+00  0.840E-01    0.04       1.0  T
   5   -546.2045924 -0.696742E-01  0.750E-01    0.08       1.0  T
   6   -546.8666306 -0.662038E+00  0.458E-01    0.03       1.0  T
   7   -546.5271866  0.339444E+00  0.619E-01    0.08       1.0  T
   8   -546.4404923  0.866943E-01  0.639E-01    0.04       1.0  T
   9   -546.9761710 -0.535679E+00  0.423E-01    0.04       1.0  T
  10   -546.8961579  0.800131E-01  0.497E-01    0.02       1.0  T
  11   -547.0446462 -0.148488E+00  0.384E-01    0.01       1.0  T
  12   -546.9286733  0.115973E+00  0.395E-01    0.03       1.0  T
  13   -547.0245121 -0.958388E-01  0.344E-01    0.02       1.0  T
  14   -547.0643954 -0.398833E-01  0.344E-01    0.01       1.0  T
  15   -547.1474689 -0.830735E-01  0.271E-01    0.01       1.0  T
  16   -547.1703504 -0.228815E-01  0.248E-01    0.01       1.0  T
  17   -547.1223708  0.479796E-01  0.255E-01    0.02       1.0  T
  18   -547.2467984 -0.124428E+00  0.130E-01    0.01       1.0  T
  19   -547.2528743 -0.607597E-02  0.101E-01    0.00       1.0  T
  20   -547.2560011 -0.312674E-02  0.844E-02    0.01       1.0  T
  21   -547.2652113 -0.921018E-02  0.594E-02    0.01       1.0  T
  22   -547.2591731  0.603818E-02  0.776E-02    0.01       1.0  T
  23   -547.2682389 -0.906579E-02  0.415E-02    0.00       1.0  T
  24   -547.2662863  0.195258E-02  0.512E-02    0.00       1.0  T
  25   -547.2653244  0.961908E-03  0.506E-02    0.01       1.0  T
  26   -547.2695432 -0.421884E-02  0.256E-02    0.00       1.0  T
  27   -547.2698366 -0.293324E-03  0.225E-02    0.00       1.0  T
  28   -547.2698469 -0.103435E-04  0.206E-02    0.00       1.0  T
  29   -547.2704750 -0.628150E-03  0.127E-02    0.00       1.0  T
  30   -547.2703844  0.906687E-04  0.120E-02    0.00       1.0  T
  31   -547.2705953 -0.210904E-03  0.640E-03    0.00       1.0  T
  32   -547.2705958 -0.475218E-06  0.641E-03    0.00       1.0  T
  33   -547.2706422 -0.464433E-04  0.418E-03    0.00       1.4  T
  34   -547.2706408  0.139158E-05  0.419E-03    0.00       1.4  T
  35   -547.2706499 -0.907739E-05  0.358E-03    0.00       1.6  T
  36   -547.2706453  0.457300E-05  0.372E-03    0.00       1.6  T
  37   -547.2706624 -0.170494E-04  0.234E-03    0.00       2.5  T
  38   -547.2706666 -0.424398E-05  0.173E-03    0.00       3.4  T
  39   -547.2706674 -0.749283E-06  0.146E-03    0.00       4.0  T
  40   -547.2706701 -0.278673E-05  0.958E-04    0.00       6.1  T
  41   -547.2706714 -0.124832E-05  0.493E-04    0.00      11.8  T
  42   -547.2706716 -0.246512E-06  0.321E-04    0.00      18.1  T
  43   -547.2706718 -0.119235E-06  0.186E-04    0.00      31.2  T
     SCC iter.                  ...        0 min, 13.221 sec
     gradient                   ...        0 min,  0.635 sec
 * total energy  :  -538.5033509 Eh     change       -0.1018925E+00 Eh
   gradient norm :     0.1164977 Eh/α   predicted    -0.9824214E-01 (  -3.58%)
   displ. norm   :     0.8467127 α      lambda       -0.9104571E-01
   maximum displ.:     0.2792435 α      in ANC's #300, #150, #293, ...

........................................................................
.............................. CYCLE    6 ..............................
........................................................................
   1   -547.1148690 -0.547115E+03  0.609E-01    0.01       0.0  T
   2   -535.2610989  0.118538E+02  0.276E+00    0.04       1.0  T
   3   -546.7325702 -0.114715E+02  0.862E-01    0.05       1.0  T
   4   -546.3917545  0.340816E+00  0.761E-01    0.09       1.0  T
   5   -546.1492252  0.242529E+00  0.724E-01    0.09       1.0  T
   6   -545.8038463  0.345379E+00  0.811E-01    0.11       1.0  T
   7   -546.7435470 -0.939701E+00  0.569E-01    0.06       1.0  T
   8   -547.0003631 -0.256816E+00  0.490E-01    0.00       1.0  T
   9   -547.1244326 -0.124069E+00  0.393E-01    0.01       1.0  T
  10   -547.0107541  0.113678E+00  0.468E-01    0.03       1.0  T
  11   -547.1210251 -0.110271E+00  0.415E-01    0.01       1.0  T
  12   -547.3043805 -0.183355E+00  0.225E-01    0.03       1.0  T
  13   -546.9780315  0.326349E+00  0.470E-01    0.00       1.0  T
  14   -547.2850436 -0.307012E+00  0.276E-01    0.01       1.0  T
  15   -547.3013543 -0.163107E-01  0.220E-01    0.02       1.0  T
  16   -547.3259112 -0.245569E-01  0.186E-01    0.00       1.0  T
  17   -547.3503511 -0.244399E-01  0.166E-01    0.00       1.0  T
  18   -547.3231112  0.272399E-01  0.179E-01    0.01       1.0  T
  19   -547.3708179 -0.477067E-01  0.881E-02    0.01       1.0  T
  20   -547.3759885 -0.517056E-02  0.815E-02    0.01       1.0  T
  21   -547.3811024 -0.511399E-02  0.591E-02    0.00       1.0  T
  22   -547.3823519 -0.124945E-02  0.493E-02    0.00       1.0  T
  23   -547.3845455 -0.219357E-02  0.356E-02    0.00       1.0  T
  24   -547.3840935  0.451948E-03  0.391E-02    0.01       1.0  T
  25   -547.3859943 -0.190083E-02  0.218E-02    0.00       1.0  T
  26   -547.3865145 -0.520117E-03  0.121E-02    0.00       1.0  T
  27   -547.3864923  0.222072E-04  0.118E-02    0.00       1.0  T
  28   -547.3865291 -0.368349E-04  0.103E-02    0.00       1.0  T
  29   -547.3865514 -0.223321E-04  0.113E-02    0.00       1.0  T
  30   -547.3865479  0.351131E-05  0.106E-02    0.00       1.0  T
  31   -547.3867265 -0.178599E-03  0.330E-03    0.00       1.8  T
  32   -547.3867334 -0.688398E-05  0.222E-03    0.00       2.6  T
  33   -547.3867402 -0.684797E-05  0.130E-03    0.00       4.5  T
  34   -547.3867331  0.710929E-05  0.214E-03    0.00       2.7  T
  35   -547.3867366 -0.344889E-05  0.171E-03    0.00       3.4  T
  36   -547.3867387 -0.208029E-05  0.149E-03    0.00       3.9  T
  37   -547.3867394 -0.760117E-06  0.118E-03    0.00       4.9  T
  38   -547.3867409 -0.144035E-05  0.750E-04    0.00       7.8  T
  39   -547.3867414 -0.490420E-06  0.532E-04    0.00      10.9  T
  40   -547.3867417 -0.366815E-06  0.289E-04    0.00      20.1  T
     SCC iter.                  ...        0 min, 12.262 sec
     gradient                   ...        0 min,  0.633 sec
 * total energy  :  -538.5834328 Eh     change       -0.8008190E-01 Eh
   gradient norm :     0.0932542 Eh/α   predicted    -0.7816118E-01 (  -2.40%)
   displ. norm   :     0.8646140 α      lambda       -0.7184219E-01
   maximum displ.:     0.2767470 α      in ANC's #150, #300, #155, ...

........................................................................
.............................. CYCLE    7 ..............................
........................................................................
   1   -547.3840105 -0.547384E+03  0.460E-01    0.01       0.0  T
   2   -541.0568808  0.632713E+01  0.204E+00    0.13       1.0  T
   3   -545.5843957 -0.452751E+01  0.852E-01    0.12       1.0  T
   4   -546.1547016 -0.570306E+00  0.861E-01    0.03       1.0  T
   5   -546.4757786 -0.321077E+00  0.699E-01    0.04       1.0  T
   6   -546.2347248  0.241054E+00  0.707E-01    0.02       1.0  T
   7   -546.7668984 -0.532174E+00  0.597E-01    0.07       1.0  T
   8   -546.9422562 -0.175358E+00  0.592E-01    0.01       1.0  T
   9   -547.0482290 -0.105973E+00  0.452E-01    0.03       1.0  T
  10   -546.9531709  0.950581E-01  0.542E-01    0.01       1.0  T
  11   -547.0315040 -0.783331E-01  0.561E-01    0.01       1.0  T
  12   -547.2533310 -0.221827E+00  0.409E-01    0.02       1.0  T
  13   -547.4023299 -0.148999E+00  0.272E-01    0.01       1.0  T
  14   -547.4247148 -0.223849E-01  0.229E-01    0.02       1.0  T
  15   -547.2951278  0.129587E+00  0.350E-01    0.02       1.0  T
  16   -547.3478106 -0.526828E-01  0.268E-01    0.01       1.0  T
  17   -547.4123168 -0.645061E-01  0.204E-01    0.01       1.0  T
  18   -547.4297255 -0.174088E-01  0.206E-01    0.02       1.0  T
  19   -547.4766966 -0.469711E-01  0.120E-01    0.00       1.0  T
  20   -547.4705494  0.614721E-02  0.121E-01    0.01       1.0  T
  21   -547.4914494 -0.209000E-01  0.524E-02    0.00       1.0  T
  22   -547.4840656  0.738382E-02  0.708E-02    0.01       1.0  T
  23   -547.4868214 -0.275575E-02  0.586E-02    0.01       1.0  T
  24   -547.4907316 -0.391029E-02  0.414E-02    0.00       1.0  T
  25   -547.4925322 -0.180057E-02  0.318E-02    0.00       1.0  T
  26   -547.4920643  0.467879E-03  0.294E-02    0.00       1.0  T
  27   -547.4934433 -0.137901E-02  0.174E-02    0.00       1.0  T
  28   -547.4930047  0.438683E-03  0.210E-02    0.00       1.0  T
  29   -547.4927556  0.249067E-03  0.235E-02    0.00       1.0  T
  30   -547.4928408 -0.851599E-04  0.225E-02    0.00       1.0  T
  31   -547.4938469 -0.100610E-02  0.851E-03    0.00       1.0  T
  32   -547.4938418  0.509555E-05  0.718E-03    0.00       1.0  T
  33   -547.4939595 -0.117754E-03  0.240E-03    0.00       2.4  T
  34   -547.4939551  0.440156E-05  0.238E-03    0.00       2.4  T
  35   -547.4939600 -0.490279E-05  0.180E-03    0.00       3.2  T
  36   -547.4939644 -0.438110E-05  0.881E-04    0.00       6.6  T
  37   -547.4939655 -0.113558E-05  0.496E-04    0.00      11.7  T
  38   -547.4939660 -0.412134E-06  0.265E-04    0.00      21.9  T
  39   -547.4939657  0.206467E-06  0.372E-04    0.00      15.6  T
     SCC iter.                  ...        0 min, 11.985 sec
     gradient                   ...        0 min,  0.631 sec
 * total energy  :  -538.6474824 Eh     change       -0.6404957E-01 Eh
   gradient norm :     0.0736278 Eh/α   predicted    -0.6277418E-01 (  -1.99%)
   displ. norm   :     0.8872337 α      lambda       -0.5839828E-01
   maximum displ.:     0.2884124 α      in ANC's #150, #155, #158, ...

........................................................................
.............................. CYCLE    8 ..............................
........................................................................
   1   -547.5478887 -0.547548E+03  0.337E-01    0.00       0.0  T
   2   -545.8677681  0.168012E+01  0.955E-01    0.03       1.0  T
   3   -546.6896266 -0.821858E+00  0.779E-01    0.10       1.0  T
   4   -546.7199785 -0.303520E-01  0.679E-01    0.00       1.0  T
   5   -546.9476407 -0.227662E+00  0.588E-01    0.02       1.0  T
   6   -546.7878011  0.159840E+00  0.626E-01    0.08       1.0  T
   7   -546.7245093  0.632918E-01  0.660E-01    0.07       1.0  T
   8   -547.1025648 -0.378056E+00  0.501E-01    0.00       1.0  T
   9   -546.8510775  0.251487E+00  0.589E-01    0.04       1.0  T
  10   -546.7256675  0.125410E+00  0.634E-01    0.00       1.0  T
  11   -547.4212584 -0.695591E+00  0.325E-01    0.01       1.0  T
  12   -547.4115086  0.974979E-02  0.339E-01    0.00       1.0  T
  13   -547.5509802 -0.139472E+00  0.159E-01    0.00       1.0  T
  14   -547.4858675  0.651127E-01  0.226E-01    0.01       1.0  T
  15   -547.5264158 -0.405483E-01  0.203E-01    0.00       1.0  T
  16   -547.5489061 -0.224903E-01  0.122E-01    0.00       1.0  T
  17   -547.5359783  0.129278E-01  0.161E-01    0.01       1.0  T
  18   -547.5232288  0.127496E-01  0.173E-01    0.01       1.0  T
  19   -547.5659520 -0.427233E-01  0.861E-02    0.00       1.0  T
  20   -547.5647512  0.120080E-02  0.841E-02    0.01       1.0  T
  21   -547.5778639 -0.131127E-01  0.399E-02    0.00       1.0  T
  22   -547.5781024 -0.238535E-03  0.368E-02    0.00       1.0  T
  23   -547.5800999 -0.199749E-02  0.142E-02    0.00       1.0  T
  24   -547.5792373  0.862571E-03  0.220E-02    0.00       1.0  T
  25   -547.5800777 -0.840330E-03  0.126E-02    0.00       1.0  T
  26   -547.5803024 -0.224704E-03  0.592E-03    0.00       1.0  T
  27   -547.5802618  0.405729E-04  0.748E-03    0.00       1.0  T
  28   -547.5803560 -0.942197E-04  0.331E-03    0.00       1.8  T
  29   -547.5803202  0.357973E-04  0.507E-03    0.00       1.1  T
  30   -547.5803428 -0.225608E-04  0.370E-03    0.00       1.6  T
  31   -547.5803716 -0.287858E-04  0.111E-03    0.00       5.2  T
  32   -547.5803726 -0.996947E-06  0.863E-04    0.00       6.7  T
  33   -547.5803724  0.132922E-06  0.762E-04    0.00       7.6  T
     SCC iter.                  ...        0 min, 10.130 sec
     gradient                   ...        0 min,  0.636 sec
 * total energy  :  -538.7009837 Eh     change       -0.5350139E-01 Eh
   gradient norm :     0.0617807 Eh/α   predicted    -0.5218425E-01 (  -2.46%)
   displ. norm   :     0.9329006 α      lambda       -0.5235326E-01
   maximum displ.:     0.2736726 α      in ANC's #150, #30, #46, ...

........................................................................
.............................. CYCLE    9 ..............................
........................................................................
   1   -547.5996187 -0.547600E+03  0.339E-01    0.02       0.0  T
   2   -546.0397780  0.155984E+01  0.104E+00    0.06       1.0  T
   3   -546.8121340 -0.772356E+00  0.673E-01    0.00       1.0  T
   4   -546.5971006  0.215033E+00  0.778E-01    0.13       1.0  T
   5   -547.1937812 -0.596681E+00  0.534E-01    0.02       1.0  T
   6   -546.7574548  0.436326E+00  0.666E-01    0.08       1.0  T
   7   -546.9281823 -0.170728E+00  0.710E-01    0.02       1.0  T
   8   -547.1556141 -0.227432E+00  0.542E-01    0.03       1.0  T
   9   -547.1836848 -0.280707E-01  0.540E-01    0.05       1.0  T
  10   -547.1780566  0.562826E-02  0.532E-01    0.04       1.0  T
  11   -547.4334545 -0.255398E+00  0.388E-01    0.01       1.0  T
  12   -547.2329726  0.200482E+00  0.415E-01    0.00       1.0  T
  13   -547.4334159 -0.200443E+00  0.338E-01    0.03       1.0  T
  14   -547.4661516 -0.327357E-01  0.307E-01    0.01       1.0  T
  15   -547.6131779 -0.147026E+00  0.152E-01    0.00       1.0  T
  16   -547.6368464 -0.236685E-01  0.731E-02    0.00       1.0  T
  17   -547.5957777  0.410686E-01  0.139E-01    0.00       1.0  T
  18   -547.6135691 -0.177913E-01  0.121E-01    0.00       1.0  T
  19   -547.6060096  0.755947E-02  0.131E-01    0.00       1.0  T
  20   -547.6267452 -0.207356E-01  0.913E-02    0.00       1.0  T
  21   -547.6367308 -0.998556E-02  0.579E-02    0.00       1.0  T
  22   -547.6396003 -0.286957E-02  0.476E-02    0.00       1.0  T
  23   -547.6411257 -0.152534E-02  0.324E-02    0.00       1.0  T
  24   -547.6407822  0.343517E-03  0.358E-02    0.00       1.0  T
  25   -547.6428812 -0.209905E-02  0.124E-02    0.00       1.0  T
  26   -547.6429795 -0.983264E-04  0.921E-03    0.00       1.0  T
  27   -547.6428402  0.139312E-03  0.123E-02    0.00       1.0  T
  28   -547.6430928 -0.252617E-03  0.430E-03    0.00       1.4  T
  29   -547.6431228 -0.299197E-04  0.179E-03    0.00       3.3  T
  30   -547.6431188  0.399121E-05  0.231E-03    0.00       2.5  T
  31   -547.6431249 -0.616198E-05  0.118E-03    0.00       4.9  T
  32   -547.6431019  0.230642E-04  0.377E-03    0.00       1.5  T
  33   -547.6431257 -0.238457E-04  0.847E-04    0.00       6.9  T
  34   -547.6431235  0.224779E-05  0.124E-03    0.00       4.7  T
  35   -547.6431265 -0.305121E-05  0.437E-04    0.00      13.3  T
  36   -547.6431264  0.902520E-07  0.495E-04    0.00      11.7  T
  37   -547.6431268 -0.385738E-06  0.154E-04    0.00      37.8  T
     SCC iter.                  ...        0 min, 11.358 sec
     gradient                   ...        0 min,  0.635 sec
 * total energy  :  -538.7525929 Eh     change       -0.5160911E-01 Eh
   gradient norm :     0.0654468 Eh/α   predicted    -0.4895828E-01 (  -5.14%)
   displ. norm   :     0.9843486 α      lambda       -0.5600328E-01
   maximum displ.:     0.2960025 α      in ANC's #30, #94, #150, ...

........................................................................
.............................. CYCLE   10 ..............................
........................................................................
   1   -547.6121111 -0.547612E+03  0.371E-01    0.01       0.0  T
   2   -534.0076846  0.136044E+02  0.442E+00    0.04       1.0  T
   3   -546.4545228 -0.124468E+02  0.951E-01    0.16       1.0  T
   4   -544.7455620  0.170896E+01  0.104E+00    0.10       1.0  T
   5   -546.8430319 -0.209747E+01  0.647E-01    0.01       1.0  T
   6   -546.8333714  0.966047E-02  0.672E-01    0.10       1.0  T
   7   -546.7826214  0.507500E-01  0.761E-01    0.09       1.0  T
   8   -547.0301025 -0.247481E+00  0.618E-01    0.01       1.0  T
   9   -547.2003494 -0.170247E+00  0.584E-01    0.01       1.0  T
  10   -547.2393095 -0.389602E-01  0.507E-01    0.01       1.0  T
  11   -547.3767481 -0.137439E+00  0.483E-01    0.02       1.0  T
  12   -547.2365105  0.140238E+00  0.536E-01    0.03       1.0  T
  13   -547.3007410 -0.642305E-01  0.491E-01    0.04       1.0  T
  14   -547.6051698 -0.304429E+00  0.258E-01    0.00       1.0  T
  15   -547.2963019  0.308868E+00  0.475E-01    0.01       1.0  T
  16   -547.5003728 -0.204071E+00  0.341E-01    0.01       1.0  T
  17   -547.5678330 -0.674602E-01  0.289E-01    0.01       1.0  T
  18   -547.6617037 -0.938707E-01  0.158E-01    0.01       1.0  T
  19   -547.6691921 -0.748845E-02  0.129E-01    0.00       1.0  T
  20   -547.6716212 -0.242906E-02  0.136E-01    0.00       1.0  T
  21   -547.6871043 -0.154831E-01  0.925E-02    0.00       1.0  T
  22   -547.6805401  0.656423E-02  0.103E-01    0.01       1.0  T
  23   -547.6882688 -0.772873E-02  0.746E-02    0.01       1.0  T
  24   -547.6946890 -0.642023E-02  0.449E-02    0.01       1.0  T
  25   -547.6960441 -0.135504E-02  0.335E-02    0.00       1.0  T
  26   -547.6924584  0.358572E-02  0.545E-02    0.00       1.0  T
  27   -547.6962239 -0.376556E-02  0.261E-02    0.00       1.0  T
  28   -547.6969163 -0.692349E-03  0.216E-02    0.00       1.0  T
  29   -547.6968400  0.762863E-04  0.203E-02    0.00       1.0  T
  30   -547.6974153 -0.575360E-03  0.109E-02    0.00       1.0  T
  31   -547.6975574 -0.142073E-03  0.667E-03    0.00       1.0  T
  32   -547.6975774 -0.200325E-04  0.486E-03    0.00       1.2  T
  33   -547.6975854 -0.795111E-05  0.427E-03    0.00       1.4  T
  34   -547.6976097 -0.242643E-04  0.194E-03    0.00       3.0  T
  35   -547.6975958  0.138917E-04  0.309E-03    0.00       1.9  T
  36   -547.6976045 -0.869376E-05  0.236E-03    0.00       2.5  T
  37   -547.6976129 -0.842084E-05  0.113E-03    0.00       5.2  T
  38   -547.6976121  0.795087E-06  0.123E-03    0.00       4.7  T
  39   -547.6976144 -0.228866E-05  0.390E-04    0.00      14.9  T
  40   -547.6976144 -0.645788E-07  0.328E-04    0.00      17.7  T
  41   -547.6976146 -0.119493E-06  0.194E-04    0.00      30.0  T
     SCC iter.                  ...        0 min, 12.567 sec
     gradient                   ...        0 min,  0.637 sec
 * total energy  :  -538.8081936 Eh     change       -0.5560071E-01 Eh
   gradient norm :     0.0739511 Eh/α   predicted    -0.5513363E-01 (  -0.84%)
   displ. norm   :     0.9675001 α      lambda       -0.5893951E-01
   maximum displ.:     0.2840263 α      in ANC's #94, #30, #150, ...

........................................................................
.............................. CYCLE   11 ..............................
........................................................................
   1   -547.5887871 -0.547589E+03  0.406E-01    0.03       0.0  T
   2   -515.2982684  0.322905E+02  0.553E+00    0.00       1.0  T
   3   -546.2378370 -0.309396E+02  0.108E+00    0.16       1.0  T
   4   -547.1422154 -0.904378E+00  0.620E-01    0.03       1.0  T
   5   -546.7819918  0.360224E+00  0.724E-01    0.02       1.0  T
   6   -546.8010023 -0.190105E-01  0.745E-01    0.01       1.0  T
   7   -546.7543487  0.466536E-01  0.713E-01    0.03       1.0  T
   8   -546.9218016 -0.167453E+00  0.683E-01    0.00       1.0  T
   9   -547.0112171 -0.894156E-01  0.695E-01    0.02       1.0  T
  10   -547.2513041 -0.240087E+00  0.563E-01    0.04       1.0  T
  11   -547.3097210 -0.584168E-01  0.539E-01    0.04       1.0  T
  12   -547.0348280  0.274893E+00  0.633E-01    0.07       1.0  T
  13   -547.5240707 -0.489243E+00  0.383E-01    0.03       1.0  T
  14   -547.4854389  0.386318E-01  0.411E-01    0.04       1.0  T
  15   -547.5339776 -0.485387E-01  0.336E-01    0.01       1.0  T
  16   -547.6600116 -0.126034E+00  0.263E-01    0.01       1.0  T
  17   -547.6995702 -0.395586E-01  0.196E-01    0.03       1.0  T
  18   -547.7458952 -0.463251E-01  0.110E-01    0.01       1.0  T
  19   -547.7070359  0.388594E-01  0.182E-01    0.00       1.0  T
  20   -547.7515562 -0.445203E-01  0.881E-02    0.01       1.0  T
  21   -547.7312506  0.203056E-01  0.125E-01    0.01       1.0  T
  22   -547.7504280 -0.191774E-01  0.875E-02    0.01       1.0  T
  23   -547.7485135  0.191446E-02  0.961E-02    0.01       1.0  T
  24   -547.7532022 -0.468871E-02  0.734E-02    0.00       1.0  T
  25   -547.7597059 -0.650373E-02  0.572E-02    0.01       1.0  T
  26   -547.7618381 -0.213215E-02  0.365E-02    0.01       1.0  T
  27   -547.7641522 -0.231411E-02  0.125E-02    0.00       1.0  T
  28   -547.7642762 -0.123945E-03  0.853E-03    0.00       1.0  T
  29   -547.7635107  0.765500E-03  0.215E-02    0.00       1.0  T
  30   -547.7643182 -0.807543E-03  0.664E-03    0.00       1.0  T
  31   -547.7642983  0.198519E-04  0.637E-03    0.00       1.0  T
  32   -547.7643054 -0.703370E-05  0.609E-03    0.00       1.0  T
  33   -547.7643418 -0.364572E-04  0.528E-03    0.00       1.1  T
  34   -547.7643485 -0.669365E-05  0.401E-03    0.00       1.4  T
  35   -547.7643417  0.685312E-05  0.469E-03    0.00       1.2  T
  36   -547.7643512 -0.948945E-05  0.361E-03    0.00       1.6  T
  37   -547.7643563 -0.517849E-05  0.294E-03    0.00       2.0  T
  38   -547.7643516  0.477136E-05  0.309E-03    0.00       1.9  T
  39   -547.7643573 -0.568316E-05  0.262E-03    0.00       2.2  T
  40   -547.7643591 -0.185202E-05  0.217E-03    0.00       2.7  T
  41   -547.7643590  0.150611E-06  0.189E-03    0.00       3.1  T
  42   -547.7643590 -0.607700E-07  0.175E-03    0.00       3.3  T
  43   -547.7643616 -0.257974E-05  0.119E-03    0.00       4.9  T
  44   -547.7643624 -0.834043E-06  0.848E-04    0.00       6.9  T
  45   -547.7643631 -0.628085E-06  0.529E-04    0.00      11.0  T
     SCC iter.                  ...        0 min, 13.792 sec
     gradient                   ...        0 min,  0.636 sec
 * total energy  :  -538.8626527 Eh     change       -0.5445917E-01 Eh
   gradient norm :     0.0861824 Eh/α   predicted    -0.5705514E-01 (   4.77%)
   displ. norm   :     0.9508845 α      lambda       -0.5292911E-01
   maximum displ.:     0.3355618 α      in ANC's #30, #94, #46, ...

........................................................................
.............................. CYCLE   12 ..............................
........................................................................
   1   -547.6969156 -0.547697E+03  0.308E-01    0.01       0.0  T
   2   -546.2832890  0.141363E+01  0.106E+00    0.16       1.0  T
   3   -545.7019912  0.581298E+00  0.887E-01    0.06       1.0  T
   4   -546.9510678 -0.124908E+01  0.660E-01    0.06       1.0  T
   5   -546.8540607  0.970071E-01  0.700E-01    0.05       1.0  T
   6   -547.1187529 -0.264692E+00  0.551E-01    0.01       1.0  T
   7   -547.3199327 -0.201180E+00  0.518E-01    0.02       1.0  T
   8   -547.1623172  0.157615E+00  0.660E-01    0.02       1.0  T
   9   -547.4202367 -0.257919E+00  0.415E-01    0.00       1.0  T
  10   -547.3882953  0.319415E-01  0.495E-01    0.05       1.0  T
  11   -547.3015130  0.867823E-01  0.512E-01    0.02       1.0  T
  12   -547.2932687  0.824427E-02  0.574E-01    0.01       1.0  T
  13   -547.4553675 -0.162099E+00  0.430E-01    0.01       1.0  T
  14   -547.6229241 -0.167557E+00  0.305E-01    0.02       1.0  T
  15   -547.5444765  0.784475E-01  0.365E-01    0.01       1.0  T
  16   -547.6746602 -0.130184E+00  0.225E-01    0.02       1.0  T
  17   -547.6932887 -0.186285E-01  0.181E-01    0.02       1.0  T
  18   -547.7142224 -0.209337E-01  0.186E-01    0.01       1.0  T
  19   -547.6703848  0.438377E-01  0.235E-01    0.01       1.0  T
  20   -547.6890565 -0.186717E-01  0.207E-01    0.01       1.0  T
  21   -547.7278369 -0.387804E-01  0.150E-01    0.01       1.0  T
  22   -547.7386968 -0.108599E-01  0.122E-01    0.01       1.0  T
  23   -547.7466696 -0.797275E-02  0.102E-01    0.01       1.0  T
  24   -547.7410789  0.559065E-02  0.113E-01    0.01       1.0  T
  25   -547.7509279 -0.984899E-02  0.773E-02    0.01       1.0  T
  26   -547.7529834 -0.205548E-02  0.596E-02    0.01       1.0  T
  27   -547.7579481 -0.496471E-02  0.302E-02    0.00       1.0  T
  28   -547.7589608 -0.101269E-02  0.217E-02    0.00       1.0  T
  29   -547.7595933 -0.632466E-03  0.907E-03    0.00       1.0  T
  30   -547.7592912  0.302051E-03  0.160E-02    0.00       1.0  T
  31   -547.7595768 -0.285555E-03  0.876E-03    0.00       1.0  T
  32   -547.7596197 -0.429032E-04  0.600E-03    0.00       1.0  T
  33   -547.7596416 -0.218959E-04  0.399E-03    0.00       1.5  T
  34   -547.7596650 -0.234660E-04  0.179E-03    0.00       3.2  T
  35   -547.7596681 -0.311152E-05  0.789E-04    0.00       7.4  T
  36   -547.7596683 -0.183490E-06  0.771E-04    0.00       7.5  T
  37   -547.7596690 -0.631798E-06  0.563E-04    0.00      10.3  T
     SCC iter.                  ...        0 min, 11.333 sec
     gradient                   ...        0 min,  0.636 sec
 * total energy  :  -538.9103294 Eh     change       -0.4767670E-01 Eh
   gradient norm :     0.0824696 Eh/α   predicted    -0.5039336E-01 (   5.70%)
   displ. norm   :     0.8576842 α      lambda       -0.5290346E-01
   maximum displ.:     0.3549784 α      in ANC's #30, #94, #46, ...

........................................................................
.............................. CYCLE   13 ..............................
........................................................................
   1   -547.6625167 -0.547663E+03  0.302E-01    0.02       0.0  T
   2   -530.6447907  0.170177E+02  0.455E+00    0.01       1.0  T
   3   -546.2568474 -0.156121E+02  0.104E+00    0.10       1.0  T
   4   -546.8412198 -0.584372E+00  0.745E-01    0.05       1.0  T
   5   -546.8494220 -0.820226E-02  0.718E-01    0.01       1.0  T
   6   -547.3496912 -0.500269E+00  0.493E-01    0.01       1.0  T
   7   -547.4596868 -0.109996E+00  0.464E-01    0.01       1.0  T
   8   -546.2654879  0.119420E+01  0.784E-01    0.06       1.0  T
   9   -547.3340275 -0.106854E+01  0.513E-01    0.03       1.0  T
  10   -547.3046706  0.293569E-01  0.546E-01    0.07       1.0  T
  11   -547.3949188 -0.902482E-01  0.511E-01    0.03       1.0  T
  12   -547.5459778 -0.151059E+00  0.414E-01    0.01       1.0  T
  13   -547.5525578 -0.658001E-02  0.394E-01    0.02       1.0  T
  14   -547.6614471 -0.108889E+00  0.293E-01    0.00       1.0  T
  15   -547.6728707 -0.114237E-01  0.231E-01    0.01       1.0  T
  16   -547.6714967  0.137409E-02  0.255E-01    0.01       1.0  T
  17   -547.7682334 -0.967368E-01  0.131E-01    0.01       1.0  T
  18   -547.7789599 -0.107265E-01  0.959E-02    0.00       1.0  T
  19   -547.7574180  0.215419E-01  0.139E-01    0.01       1.0  T
  20   -547.7735335 -0.161155E-01  0.102E-01    0.00       1.0  T
  21   -547.7729060  0.627439E-03  0.107E-01    0.01       1.0  T
  22   -547.7895274 -0.166214E-01  0.450E-02    0.00       1.0  T
  23   -547.7925632 -0.303576E-02  0.263E-02    0.00       1.0  T
  24   -547.7921116  0.451567E-03  0.285E-02    0.00       1.0  T
  25   -547.7927880 -0.676399E-03  0.199E-02    0.00       1.0  T
  26   -547.7932683 -0.480220E-03  0.132E-02    0.00       1.0  T
  27   -547.7933188 -0.505731E-04  0.111E-02    0.00       1.0  T
  28   -547.7934026 -0.837475E-04  0.910E-03    0.00       1.0  T
  29   -547.7933856  0.169733E-04  0.912E-03    0.00       1.0  T
  30   -547.7934835 -0.979324E-04  0.633E-03    0.00       1.0  T
  31   -547.7935051 -0.215887E-04  0.494E-03    0.00       1.2  T
  32   -547.7935027  0.247007E-05  0.495E-03    0.00       1.2  T
  33   -547.7935054 -0.279544E-05  0.445E-03    0.00       1.3  T
  34   -547.7935061 -0.640704E-06  0.428E-03    0.00       1.4  T
  35   -547.7935069 -0.788746E-06  0.417E-03    0.00       1.4  T
  36   -547.7935075 -0.590448E-06  0.409E-03    0.00       1.4  T
  37   -547.7935082 -0.689907E-06  0.371E-03    0.00       1.6  T
  38   -547.7935094 -0.122797E-05  0.315E-03    0.00       1.8  T
  39   -547.7935100 -0.617937E-06  0.275E-03    0.00       2.1  T
  40   -547.7935099  0.621898E-07  0.236E-03    0.00       2.5  T
  41   -547.7935108 -0.883680E-06  0.168E-03    0.00       3.5  T
  42   -547.7935112 -0.385012E-06  0.123E-03    0.00       4.7  T
  43   -547.7935111  0.152632E-06  0.104E-03    0.00       5.6  T
  44   -547.7935113 -0.270071E-06  0.646E-04    0.00       9.0  T
  45   -547.7935115 -0.139633E-06  0.305E-04    0.00      19.1  T
     SCC iter.                  ...        0 min, 13.808 sec
     gradient                   ...        0 min,  0.634 sec
 * total energy  :  -538.9551340 Eh     change       -0.4480457E-01 Eh
   gradient norm :     0.0807911 Eh/α   predicted    -0.4591026E-01 (   2.47%)
   displ. norm   :     0.8374286 α      lambda       -0.4786651E-01
   maximum displ.:     0.3803450 α      in ANC's #30, #23, #46, ...

........................................................................
.............................. CYCLE   14 ..............................
........................................................................
   1   -547.6568979 -0.547657E+03  0.316E-01    0.01       0.0  T
   2   -507.2434915  0.404134E+02  0.641E+00    0.13       1.0  T
   3   -546.6914141 -0.394479E+02  0.903E-01    0.07       1.0  T
   4   -547.1337662 -0.442352E+00  0.666E-01    0.01       1.0  T
   5   -546.7941573  0.339609E+00  0.713E-01    0.03       1.0  T
   6   -547.4858161 -0.691659E+00  0.486E-01    0.00       1.0  T
   7   -547.3213874  0.164429E+00  0.548E-01    0.02       1.0  T
   8   -546.9672447  0.354143E+00  0.672E-01    0.01       1.0  T
   9   -546.8662911  0.100954E+00  0.613E-01    0.03       1.0  T
  10   -547.4031196 -0.536828E+00  0.515E-01    0.00       1.0  T
  11   -547.4667144 -0.635948E-01  0.468E-01    0.02       1.0  T
  12   -547.4931473 -0.264329E-01  0.462E-01    0.03       1.0  T
  13   -547.3488297  0.144318E+00  0.537E-01    0.01       1.0  T
  14   -547.6465946 -0.297765E+00  0.320E-01    0.01       1.0  T
  15   -547.7436846 -0.970901E-01  0.186E-01    0.01       1.0  T
  16   -547.7749014 -0.312168E-01  0.136E-01    0.01       1.0  T
  17   -547.7296282  0.452732E-01  0.199E-01    0.01       1.0  T
  18   -547.7960502 -0.664221E-01  0.759E-02    0.00       1.0  T
  19   -547.7325830  0.634672E-01  0.204E-01    0.00       1.0  T
  20   -547.7965973 -0.640143E-01  0.780E-02    0.00       1.0  T
  21   -547.8045225 -0.792514E-02  0.377E-02    0.00       1.0  T
  22   -547.8061056 -0.158316E-02  0.267E-02    0.00       1.0  T
  23   -547.8061965 -0.908870E-04  0.245E-02    0.00       1.0  T
  24   -547.8063837 -0.187150E-03  0.232E-02    0.00       1.0  T
  25   -547.8063319  0.517230E-04  0.217E-02    0.00       1.0  T
  26   -547.8066382 -0.306244E-03  0.183E-02    0.00       1.0  T
  27   -547.8069512 -0.313039E-03  0.157E-02    0.00       1.0  T
  28   -547.8070202 -0.689550E-04  0.157E-02    0.00       1.0  T
  29   -547.8070598 -0.396746E-04  0.139E-02    0.00       1.0  T
  30   -547.8070520  0.781488E-05  0.133E-02    0.00       1.0  T
  31   -547.8070060  0.459834E-04  0.128E-02    0.00       1.0  T
  32   -547.8070556 -0.495384E-04  0.121E-02    0.00       1.0  T
  33   -547.8070529  0.271632E-05  0.110E-02    0.00       1.0  T
  34   -547.8070741 -0.212653E-04  0.973E-03    0.00       1.0  T
  35   -547.8070808 -0.671510E-05  0.818E-03    0.00       1.0  T
  36   -547.8070841 -0.321567E-05  0.709E-03    0.00       1.0  T
  37   -547.8071000 -0.159864E-04  0.564E-03    0.00       1.0  T
  38   -547.8071028 -0.274508E-05  0.360E-03    0.00       1.6  T
  39   -547.8071086 -0.583765E-05  0.166E-03    0.00       3.5  T
  40   -547.8071084  0.271049E-06  0.991E-04    0.00       5.9  T
  41   -547.8071092 -0.846641E-06  0.523E-04    0.00      11.1  T
     SCC iter.                  ...        0 min, 12.586 sec
     gradient                   ...        0 min,  0.636 sec
 * total energy  :  -538.9894872 Eh     change       -0.3435325E-01 Eh
   gradient norm :     0.0907743 Eh/α   predicted    -0.4071735E-01 (  18.53%)
   displ. norm   :     0.7833184 α      lambda       -0.3521416E-01
   maximum displ.:     0.4109979 α      in ANC's #30, #23, #46, ...

........................................................................
.............................. CYCLE   15 ..............................
........................................................................
   1   -547.8063316 -0.547806E+03  0.256E-01    0.00       0.0  T
   2   -536.5494148  0.112569E+02  0.399E+00    0.01       1.0  T
   3   -546.7637538 -0.102143E+02  0.862E-01    0.08       1.0  T
   4   -546.8265548 -0.628010E-01  0.831E-01    0.09       1.0  T
   5   -547.4685533 -0.641999E+00  0.517E-01    0.01       1.0  T
   6   -547.3752940  0.932593E-01  0.533E-01    0.05       1.0  T
   7   -547.2022133  0.173081E+00  0.670E-01    0.02       1.0  T
   8   -547.4842437 -0.282030E+00  0.506E-01    0.03       1.0  T
   9   -547.5470524 -0.628087E-01  0.435E-01    0.00       1.0  T
  10   -547.1467262  0.400326E+00  0.599E-01    0.03       1.0  T
  11   -547.6063924 -0.459666E+00  0.437E-01    0.02       1.0  T
  12   -547.5493560  0.570363E-01  0.470E-01    0.04       1.0  T
  13   -547.7755002 -0.226144E+00  0.256E-01    0.00       1.0  T
  14   -547.6440497  0.131451E+00  0.353E-01    0.01       1.0  T
  15   -547.7978881 -0.153838E+00  0.215E-01    0.00       1.0  T
  16   -547.8745664 -0.766783E-01  0.972E-02    0.00       1.0  T
  17   -547.8642038  0.103626E-01  0.121E-01    0.00       1.0  T
  18   -547.8607820  0.342179E-02  0.120E-01    0.00       1.0  T
  19   -547.8709084 -0.101264E-01  0.959E-02    0.00       1.0  T
  20   -547.8856650 -0.147566E-01  0.387E-02    0.00       1.0  T
  21   -547.8866096 -0.944547E-03  0.400E-02    0.01       1.0  T
  22   -547.8890804 -0.247087E-02  0.144E-02    0.00       1.0  T
  23   -547.8891304 -0.499799E-04  0.130E-02    0.00       1.0  T
  24   -547.8890142  0.116252E-03  0.152E-02    0.00       1.0  T
  25   -547.8893081 -0.293953E-03  0.711E-03    0.00       1.0  T
  26   -547.8893623 -0.541737E-04  0.468E-03    0.00       1.2  T
  27   -547.8893938 -0.314736E-04  0.195E-03    0.00       3.0  T
  28   -547.8893970 -0.322225E-05  0.133E-03    0.00       4.4  T
  29   -547.8893904  0.661118E-05  0.206E-03    0.00       2.8  T
  30   -547.8893986 -0.825194E-05  0.784E-04    0.00       7.4  T
  31   -547.8893992 -0.532662E-06  0.538E-04    0.00      10.8  T
  32   -547.8893995 -0.322230E-06  0.328E-04    0.00      17.7  T
     SCC iter.                  ...        0 min,  9.825 sec
     gradient                   ...        0 min,  0.635 sec
 * total energy  :  -539.0211042 Eh     change       -0.3161698E-01 Eh
   gradient norm :     0.0634908 Eh/α   predicted    -0.2841057E-01 ( -10.14%)
   displ. norm   :     0.8606647 α      lambda       -0.3503338E-01
   maximum displ.:     0.4329194 α      in ANC's #30, #46, #23, ...

........................................................................
.............................. CYCLE   16 ..............................
........................................................................
   1   -547.9456951 -0.547946E+03  0.224E-01    0.00       0.0  T
   2   -546.7170728  0.122862E+01  0.939E-01    0.10       1.0  T
   3   -547.1418046 -0.424732E+00  0.827E-01    0.08       1.0  T
   4   -547.6866817 -0.544877E+00  0.487E-01    0.01       1.0  T
   5   -547.5254938  0.161188E+00  0.565E-01    0.04       1.0  T
   6   -547.2915831  0.233911E+00  0.635E-01    0.02       1.0  T
   7   -547.7353479 -0.443765E+00  0.414E-01    0.01       1.0  T
   8   -547.6248137  0.110534E+00  0.516E-01    0.03       1.0  T
   9   -547.5300382  0.947755E-01  0.534E-01    0.03       1.0  T
  10   -547.1283451  0.401693E+00  0.661E-01    0.03       1.0  T
  11   -547.7534027 -0.625058E+00  0.351E-01    0.01       1.0  T
  12   -547.6214131  0.131990E+00  0.473E-01    0.04       1.0  T
  13   -547.9686155 -0.347202E+00  0.102E-01    0.00       1.0  T
  14   -547.9730477 -0.443220E-02  0.909E-02    0.01       1.0  T
  15   -547.9733661 -0.318378E-03  0.874E-02    0.00       1.0  T
  16   -547.9220044  0.513617E-01  0.182E-01    0.01       1.0  T
  17   -547.9781455 -0.561411E-01  0.564E-02    0.00       1.0  T
  18   -547.9704687  0.767683E-02  0.855E-02    0.01       1.0  T
  19   -547.9829838 -0.125151E-01  0.253E-02    0.00       1.0  T
  20   -547.9839472 -0.963400E-03  0.107E-02    0.00       1.0  T
  21   -547.9840006 -0.534455E-04  0.739E-03    0.00       1.0  T
  22   -547.9836470  0.353606E-03  0.168E-02    0.00       1.0  T
  23   -547.9836762 -0.292015E-04  0.150E-02    0.00       1.0  T
  24   -547.9840468 -0.370639E-03  0.589E-03    0.00       1.0  T
  25   -547.9840967 -0.498891E-04  0.281E-03    0.00       2.1  T
  26   -547.9841000 -0.328251E-05  0.210E-03    0.00       2.8  T
  27   -547.9841006 -0.618615E-06  0.204E-03    0.00       2.8  T
  28   -547.9841059 -0.523105E-05  0.112E-03    0.00       5.2  T
  29   -547.9841070 -0.116267E-05  0.680E-04    0.00       8.5  T
  30   -547.9841078 -0.770606E-06  0.206E-04    0.00      28.2  T
  31   -547.9841078 -0.977445E-08  0.184E-04    0.00      31.5  T
     SCC iter.                  ...        0 min,  9.522 sec
     gradient                   ...        0 min,  0.637 sec
 * total energy  :  -539.0509109 Eh     change       -0.2980668E-01 Eh
   gradient norm :     0.0550755 Eh/α   predicted    -0.3049206E-01 (   2.30%)
   displ. norm   :     0.9111870 α      lambda       -0.3090898E-01
   maximum displ.:     0.4739530 α      in ANC's #30, #46, #23, ...

........................................................................
.............................. CYCLE   17 ..............................
........................................................................
   1   -548.0101069 -0.548010E+03  0.184E-01    0.00       0.0  T
   2   -546.6392080  0.137090E+01  0.975E-01    0.12       1.0  T
   3   -547.3481137 -0.708906E+00  0.731E-01    0.03       1.0  T
   4   -547.7814325 -0.433319E+00  0.415E-01    0.01       1.0  T
   5   -547.7554033  0.260292E-01  0.462E-01    0.02       1.0  T
   6   -547.5572410  0.198162E+00  0.537E-01    0.00       1.0  T
   7   -547.5435386  0.137024E-01  0.525E-01    0.01       1.0  T
   8   -547.8339209 -0.290382E+00  0.345E-01    0.02       1.0  T
   9   -547.3996404  0.434280E+00  0.646E-01    0.03       1.0  T
  10   -547.6560109 -0.256371E+00  0.516E-01    0.02       1.0  T
  11   -547.6746765 -0.186655E-01  0.497E-01    0.02       1.0  T
  12   -547.9200671 -0.245391E+00  0.274E-01    0.01       1.0  T
  13   -547.9173336  0.273355E-02  0.272E-01    0.01       1.0  T
  14   -548.0096677 -0.923341E-01  0.139E-01    0.00       1.0  T
  15   -548.0109033 -0.123558E-02  0.126E-01    0.00       1.0  T
  16   -548.0329732 -0.220699E-01  0.654E-02    0.01       1.0  T
  17   -548.0054475  0.275257E-01  0.135E-01    0.01       1.0  T
  18   -548.0322618 -0.268143E-01  0.646E-02    0.00       1.0  T
  19   -548.0373610 -0.509917E-02  0.444E-02    0.00       1.0  T
  20   -548.0385468 -0.118573E-02  0.352E-02    0.00       1.0  T
  21   -548.0397366 -0.118981E-02  0.213E-02    0.00       1.0  T
  22   -548.0396446  0.919244E-04  0.210E-02    0.00       1.0  T
  23   -548.0404664 -0.821732E-03  0.542E-03    0.00       1.1  T
  24   -548.0404833 -0.169165E-04  0.429E-03    0.00       1.4  T
  25   -548.0405020 -0.186786E-04  0.243E-03    0.00       2.4  T
  26   -548.0405060 -0.398842E-05  0.197E-03    0.00       3.0  T
  27   -548.0405081 -0.215712E-05  0.145E-03    0.00       4.0  T
  28   -548.0405094 -0.125417E-05  0.112E-03    0.00       5.2  T
  29   -548.0405068  0.255197E-05  0.156E-03    0.00       3.7  T
  30   -548.0405110 -0.419406E-05  0.644E-04    0.00       9.0  T
  31   -548.0405111 -0.137078E-06  0.509E-04    0.00      11.4  T
  32   -548.0405113 -0.142568E-06  0.433E-04    0.00      13.4  T
     SCC iter.                  ...        0 min,  9.823 sec
     gradient                   ...        0 min,  0.635 sec
 * total energy  :  -539.0774437 Eh     change       -0.2653282E-01 Eh
   gradient norm :     0.0487803 Eh/α   predicted    -0.2828578E-01 (   6.61%)
   displ. norm   :     0.9056591 α      lambda       -0.2713699E-01
   maximum displ.:     0.4495684 α      in ANC's #30, #46, #23, ...

........................................................................
.............................. CYCLE   18 ..............................
........................................................................
   1   -548.0350190 -0.548035E+03  0.169E-01    0.00       0.0  T
   2   -545.0557426  0.297928E+01  0.111E+00    0.16       1.0  T
   3   -547.1060348 -0.205029E+01  0.783E-01    0.05       1.0  T
   4   -547.5389839 -0.432949E+00  0.598E-01    0.02       1.0  T
   5   -547.7861260 -0.247142E+00  0.463E-01    0.01       1.0  T
   6   -547.8883263 -0.102200E+00  0.352E-01    0.01       1.0  T
   7   -547.5311713  0.357155E+00  0.615E-01    0.02       1.0  T
   8   -547.8272468 -0.296075E+00  0.394E-01    0.01       1.0  T
   9   -547.6586706  0.168576E+00  0.496E-01    0.00       1.0  T
  10   -547.7833005 -0.124630E+00  0.407E-01    0.02       1.0  T
  11   -547.6895492  0.937514E-01  0.439E-01    0.02       1.0  T
  12   -547.8765751 -0.187026E+00  0.343E-01    0.00       1.0  T
  13   -547.9809990 -0.104424E+00  0.242E-01    0.01       1.0  T
  14   -547.9469479  0.340511E-01  0.254E-01    0.01       1.0  T
  15   -548.0419884 -0.950405E-01  0.112E-01    0.00       1.0  T
  16   -548.0566357 -0.146473E-01  0.623E-02    0.00       1.0  T
  17   -548.0618886 -0.525289E-02  0.240E-02    0.00       1.0  T
  18   -548.0600488  0.183975E-02  0.427E-02    0.00       1.0  T
  19   -548.0601497 -0.100891E-03  0.367E-02    0.00       1.0  T
  20   -548.0615977 -0.144803E-02  0.239E-02    0.00       1.0  T
  21   -548.0622681 -0.670338E-03  0.121E-02    0.00       1.0  T
  22   -548.0620645  0.203552E-03  0.154E-02    0.00       1.0  T
  23   -548.0624102 -0.345684E-03  0.909E-03    0.00       1.0  T
  24   -548.0624107 -0.518551E-06  0.896E-03    0.00       1.0  T
  25   -548.0624771 -0.663279E-04  0.553E-03    0.00       1.1  T
  26   -548.0625126 -0.354992E-04  0.218E-03    0.00       2.7  T
  27   -548.0625028  0.980017E-05  0.302E-03    0.00       1.9  T
  28   -548.0625102 -0.745288E-05  0.218E-03    0.00       2.7  T
  29   -548.0625116 -0.139696E-05  0.220E-03    0.00       2.6  T
  30   -548.0625162 -0.462236E-05  0.126E-03    0.00       4.6  T
  31   -548.0625182 -0.193910E-05  0.578E-04    0.00      10.1  T
  32   -548.0625187 -0.481746E-06  0.198E-04    0.00      29.4  T
  33   -548.0625187 -0.214175E-07  0.135E-04    0.00      43.0  T
     SCC iter.                  ...        0 min, 10.117 sec
     gradient                   ...        0 min,  0.636 sec
 * total energy  :  -539.1018054 Eh     change       -0.2436168E-01 Eh
   gradient norm :     0.0360904 Eh/α   predicted    -0.2469765E-01 (   1.38%)
   displ. norm   :     0.9280704 α      lambda       -0.2398711E-01
   maximum displ.:     0.4593748 α      in ANC's #30, #46, #23, ...

........................................................................
.............................. CYCLE   19 ..............................
........................................................................
   1   -548.0456182 -0.548046E+03  0.201E-01    0.00       0.0  T
   2   -546.4258527  0.161977E+01  0.971E-01    0.06       1.0  T
   3   -547.4266788 -0.100083E+01  0.675E-01    0.01       1.0  T
   4   -547.5996782 -0.172999E+00  0.503E-01    0.03       1.0  T
   5   -547.4764828  0.123195E+00  0.621E-01    0.04       1.0  T
   6   -547.8486789 -0.372196E+00  0.409E-01    0.00       1.0  T
   7   -547.8700302 -0.213513E-01  0.372E-01    0.02       1.0  T
   8   -547.5538913  0.316139E+00  0.630E-01    0.07       1.0  T
   9   -547.8563512 -0.302460E+00  0.402E-01    0.01       1.0  T
  10   -547.6540775  0.202274E+00  0.526E-01    0.02       1.0  T
  11   -547.7416702 -0.875927E-01  0.486E-01    0.02       1.0  T
  12   -547.7529905 -0.113203E-01  0.455E-01    0.01       1.0  T
  13   -548.0470139 -0.294023E+00  0.180E-01    0.00       1.0  T
  14   -548.0594111 -0.123972E-01  0.147E-01    0.00       1.0  T
  15   -548.0797109 -0.202998E-01  0.944E-02    0.00       1.0  T
  16   -548.0879498 -0.823892E-02  0.655E-02    0.00       1.0  T
  17   -548.0911985 -0.324871E-02  0.533E-02    0.00       1.0  T
  18   -548.0939181 -0.271961E-02  0.310E-02    0.00       1.0  T
  19   -548.0938652  0.528936E-04  0.289E-02    0.00       1.0  T
  20   -548.0953406 -0.147537E-02  0.126E-02    0.00       1.0  T
  21   -548.0953938 -0.531606E-04  0.110E-02    0.00       1.0  T
  22   -548.0953609  0.328466E-04  0.101E-02    0.00       1.0  T
  23   -548.0954722 -0.111274E-03  0.710E-03    0.00       1.0  T
  24   -548.0955345 -0.623378E-04  0.447E-03    0.00       1.3  T
  25   -548.0955618 -0.272699E-04  0.229E-03    0.00       2.5  T
  26   -548.0955608  0.975382E-06  0.257E-03    0.00       2.3  T
  27   -548.0955646 -0.381224E-05  0.197E-03    0.00       2.9  T
  28   -548.0955696 -0.493801E-05  0.712E-04    0.00       8.2  T
  29   -548.0955700 -0.425058E-06  0.582E-04    0.00      10.0  T
  30   -548.0955701 -0.122750E-06  0.463E-04    0.00      12.5  T
     SCC iter.                  ...        0 min,  9.214 sec
     gradient                   ...        0 min,  0.637 sec
 * total energy  :  -539.1240701 Eh     change       -0.2226474E-01 Eh
   gradient norm :     0.0355160 Eh/α   predicted    -0.2232378E-01 (   0.27%)
   displ. norm   :     0.9512708 α      lambda       -0.2373864E-01
   maximum displ.:     0.4595477 α      in ANC's #30, #46, #23, ...

........................................................................
.............................. CYCLE   20 ..............................
........................................................................
   1   -548.0648680 -0.548065E+03  0.240E-01    0.00       0.0  T
   2   -545.8667281  0.219814E+01  0.108E+00    0.06       1.0  T
   3   -547.1376185 -0.127089E+01  0.795E-01    0.07       1.0  T
   4   -547.2501976 -0.112579E+00  0.749E-01    0.07       1.0  T
   5   -547.7240806 -0.473883E+00  0.549E-01    0.03       1.0  T
   6   -547.9658388 -0.241758E+00  0.354E-01    0.00       1.0  T
   7   -547.1149899  0.850849E+00  0.689E-01    0.02       1.0  T
   8   -547.7110780 -0.596088E+00  0.542E-01    0.04       1.0  T
   9   -547.9760062 -0.264928E+00  0.335E-01    0.03       1.0  T
  10   -547.6291623  0.346844E+00  0.586E-01    0.00       1.0  T
  11   -547.5730352  0.561271E-01  0.586E-01    0.01       1.0  T
  12   -548.0222542 -0.449219E+00  0.252E-01    0.00       1.0  T
  13   -547.9946694  0.275848E-01  0.294E-01    0.00       1.0  T
  14   -548.1136108 -0.118941E+00  0.118E-01    0.00       1.0  T
  15   -548.0776922  0.359186E-01  0.189E-01    0.00       1.0  T
  16   -548.1315422 -0.538499E-01  0.606E-02    0.00       1.0  T
  17   -548.1271578  0.438433E-02  0.851E-02    0.00       1.0  T
  18   -548.1344860 -0.732823E-02  0.430E-02    0.00       1.0  T
  19   -548.1346209 -0.134876E-03  0.369E-02    0.01       1.0  T
  20   -548.1364191 -0.179818E-02  0.214E-02    0.00       1.0  T
  21   -548.1368467 -0.427578E-03  0.141E-02    0.00       1.0  T
  22   -548.1368599 -0.131817E-04  0.126E-02    0.00       1.0  T
  23   -548.1370029 -0.143063E-03  0.866E-03    0.00       1.0  T
  24   -548.1370562 -0.533151E-04  0.584E-03    0.00       1.0  T
  25   -548.1370783 -0.220355E-04  0.499E-03    0.00       1.2  T
  26   -548.1370975 -0.192251E-04  0.343E-03    0.00       1.7  T
  27   -548.1371045 -0.699841E-05  0.253E-03    0.00       2.3  T
  28   -548.1371048 -0.264049E-06  0.241E-03    0.00       2.4  T
  29   -548.1371088 -0.400167E-05  0.172E-03    0.00       3.4  T
  30   -548.1371115 -0.277960E-05  0.139E-03    0.00       4.2  T
  31   -548.1371135 -0.196291E-05  0.792E-04    0.00       7.3  T
  32   -548.1371139 -0.358223E-06  0.629E-04    0.00       9.2  T
  33   -548.1371145 -0.591450E-06  0.218E-04    0.00      26.6  T
     SCC iter.                  ...        0 min, 10.098 sec
     gradient                   ...        0 min,  0.637 sec
 * total energy  :  -539.1448738 Eh     change       -0.2080370E-01 Eh
   gradient norm :     0.0390847 Eh/α   predicted    -0.2261006E-01 (   8.68%)
   displ. norm   :     0.9220683 α      lambda       -0.2193448E-01
   maximum displ.:     0.4563961 α      in ANC's #46, #30, #23, ...
 * RMSD in coord.:     0.7717942 α      energy gain  -0.1566694E+01 Eh

generating ANC from model Hessian ...
Using Lindh-Hessian (1995)
 Shifting diagonal of input Hessian by    1.0024422189608116E-002
 Lowest  eigenvalues of input Hessian
    0.010000    0.010002    0.010004    0.010011    0.010015    0.010016
    0.010017    0.010020    0.010022    0.010022    0.010023    0.010023
    0.010023    0.000000    0.000000    0.000000    0.000000    0.000000
 Highest eigenvalues
    2.516396    2.613461    2.614963    2.666981    2.667106    2.670102


........................................................................
.............................. CYCLE   21 ..............................
........................................................................
   1   -548.0960469 -0.548096E+03  0.229E-01    0.00       0.0  T
   2   -546.7270084  0.136904E+01  0.100E+00    0.14       1.0  T
   3   -547.3965668 -0.669558E+00  0.681E-01    0.08       1.0  T
   4   -547.9011814 -0.504615E+00  0.418E-01    0.01       1.0  T
   5   -547.9523031 -0.511217E-01  0.357E-01    0.01       1.0  T
   6   -547.5105520  0.441751E+00  0.641E-01    0.07       1.0  T
   7   -547.5837360 -0.731840E-01  0.631E-01    0.01       1.0  T
   8   -547.8623726 -0.278637E+00  0.469E-01    0.00       1.0  T
   9   -547.8636648 -0.129214E-02  0.436E-01    0.00       1.0  T
  10   -547.7473044  0.116360E+00  0.480E-01    0.00       1.0  T
  11   -548.0524839 -0.305179E+00  0.255E-01    0.01       1.0  T
  12   -548.0818910 -0.294071E-01  0.238E-01    0.00       1.0  T
  13   -548.0841755 -0.228451E-02  0.227E-01    0.01       1.0  T
  14   -548.1080176 -0.238422E-01  0.182E-01    0.01       1.0  T
  15   -548.1541724 -0.461548E-01  0.829E-02    0.00       1.0  T
  16   -548.1586313 -0.445895E-02  0.662E-02    0.00       1.0  T
  17   -548.1621256 -0.349426E-02  0.516E-02    0.00       1.0  T
  18   -548.1659255 -0.379986E-02  0.246E-02    0.00       1.0  T
  19   -548.1658609  0.645718E-04  0.228E-02    0.00       1.0  T
  20   -548.1666135 -0.752636E-03  0.110E-02    0.00       1.0  T
  21   -548.1666932 -0.797272E-04  0.841E-03    0.00       1.0  T
  22   -548.1667625 -0.692257E-04  0.520E-03    0.00       1.1  T
  23   -548.1668097 -0.472290E-04  0.203E-03    0.00       2.9  T
[...]
 569:  0.00 570:  0.00 571:  0.00 572:  0.00 573:  0.00 574:  0.00 575:  0.00 576:  0.00
 577:  0.00 578:  0.00 579:  0.00 580:  0.00 581:  0.00 582:  0.00 583:  0.00 584:  0.00
 585:  0.00 586:  0.00 587:  0.00 588:  0.00 589:  0.00 590:  0.00 591:  0.00 592:  0.00
 593:  0.00 594:  0.00 595:  0.00 596:  0.00 597:  0.00 598:  0.00 599:  0.00 600:  0.00
 601:  0.00 602:  0.00 603:  0.00 604:  0.00 605:  0.00 606:  0.00 607:  0.00 608:  0.00
 609:  0.00 610:  0.00 611:  0.00 612:  0.00 613:  0.00 614:  0.00 615:  0.00 616:  0.00
 617:  0.00 618:  0.00 619:  0.00 620:  0.00 621:  0.00 622:  0.00 623:  0.00 624:  0.00
 625:  0.00 626:  0.00 627:  0.00 628:  0.00 629:  0.00 630:  0.00 631:  0.00 632:  0.00
 633:  0.00 634:  0.00 635:  0.00 636:  0.00 637:  0.00 638:  0.00 639:  0.00 640:  0.00
 641:  0.00 642:  0.00 643:  0.00 644:  0.00 645:  0.00 646:  0.00 647:  0.00 648:  0.00
 649:  0.00 650:  0.00 651:  0.00 652:  0.00 653:  0.00 654:  0.00 655:  0.00 656:  0.00
 657:  0.00 658:  0.00 659:  0.00 660:  0.00 661:  0.00 662:  0.00 663:  0.00 664:  0.00
 665:  0.00 666:  0.00 667:  0.00 668:  0.00 669:  0.00 670:  0.00 671:  0.00 672:  0.00
 673:  0.00 674:  0.00 675:  0.00 676:  0.00 677:  0.00 678:  0.00 679:  0.00 680:  0.00
 681:  0.00 682:  0.00 683:  0.00 684:  0.00 685:  0.00 686:  0.00 687:  0.00 688:  0.00
 689:  0.00 690:  0.00 691:  0.00 692:  0.00 693:  0.00 694:  0.00 695:  0.00 696:  0.00
 697:  0.00 698:  0.00 699:  0.00 700:  0.00 701:  0.00 702:  0.00 703:  0.00 704:  0.00
 705:  0.00 706:  0.00 707:  0.00 708:  0.00 709:  0.00 710:  0.00 711:  0.00 712:  0.00
 713:  0.00 714:  0.00 715:  0.00 716:  0.00 717:  0.00 718:  0.00 719:  0.00 720:  0.00
 721:  0.00 722:  0.00 723:  0.00 724:  0.00 725:  0.00 726:  0.00 727:  0.00 728:  0.00
 729:  0.00 730:  0.00 731:  0.00 732:  0.00 733:  0.00 734:  0.00 735:  0.00 736:  0.00
 737:  0.00 738:  0.00 739:  0.00 740:  0.00 741:  0.00 742:  0.00 743:  0.00 744:  0.00
 745:  0.00 746:  0.00 747:  0.00 748:  0.00 749:  0.00 750:  0.00 751:  0.00 752:  0.00
 753:  0.00 754:  0.00 755:  0.00 756:  0.00 757:  0.00 758:  0.00 759:  0.00 760:  0.00
 761:  0.00 762:  0.00 763:  0.00 764:  0.00 765:  0.00 766:  0.00 767:  0.00 768:  0.00
 769:  0.00 770:  0.00 771:  0.00 772:  0.00 773:  0.00 774:  0.00 775:  0.00 776:  0.00
 777:  0.00 778:  0.00 779:  0.00 780:  0.00 781:  0.00 782:  0.00 783:  0.00 784:  0.00
 785:  0.00 786:  0.00 787:  0.00 788:  0.00 789:  0.00 790:  0.00 791:  0.00 792:  0.00
 793:  0.00 794:  0.00 795:  0.00 796:  0.00 797:  0.00 798:  0.00 799:  0.00 800:  0.00
 801:  0.00 802:  0.00 803:  0.00 804:  0.00 805:  0.00 806:  0.00 807:  0.00 808:  0.00
 809:  0.00 810:  0.00 811:  0.00 812:  0.00 813:  0.00 814:  0.00 815:  0.00 816:  0.00
 817:  0.00 818:  0.00 819:  0.00 820:  0.00 821:  0.00 822:  0.00 823:  0.00 824:  0.00
 825:  0.00 826:  0.00 827:  0.00 828:  0.00 829:  0.00 830:  0.00 831:  0.00 832:  0.00
 833:  0.00 834:  0.00 835:  0.00 836:  0.00 837:  0.00 838:  0.00 839:  0.00 840:  0.00
 841:  0.00 842:  0.00 843:  0.00 844:  0.00 845:  0.00 846:  0.00 847:  0.00 848:  0.00
 849:  0.00 850:  0.00 851:  0.00 852:  0.00 853:  0.00 854:  0.00 855:  0.00 856:  0.00
 857:  0.00 858:  0.00 859:  0.00 860:  0.00 861:  0.00 862:  0.00 863:  0.00 864:  0.00
 865:  0.00 866:  0.00 867:  0.00 868:  0.00 869:  0.00 870:  0.00 871:  0.00 872:  0.00
 873:  0.00 874:  0.00 875:  0.00 876:  0.00 877:  0.00 878:  0.00 879:  0.00 880:  0.00
 881:  0.00 882:  0.00 883:  0.00 884:  0.00 885:  0.00 886:  0.00 887:  0.00 888:  0.00
 output can be read by thermo (or use thermo option).
 writing <g98.out> molden fake output.
 recommended (thermochemical) frequency scaling factor: 1.0
           -------------------------------------------------
          |             Thermodynamic Functions             |
           -------------------------------------------------
 symmetry recognition skipped because # atoms >         200
 inverting freq            1   18.630717744917941     
 inverting freq            2   3.0330212549909752     

          ...................................................
          :                      SETUP                      :
          :.................................................:
          :  # frequencies                         881      :
          :  # imaginary freq.                       0      :
          :  linear?                             false      :
          :  only rotor calc.                    false      :
          :  symmetry                               C1      :
          :  rotational number                       1      :
          :  scaling factor                  1.0000000      :
          :  rotor cutoff                   50.0000000 cm⁻¹ :
          :  imag. cutoff                  -20.0000000 cm⁻¹ :
          :.................................................:

    mode    ω/cm⁻¹     T·S(HO)/kcal·mol⁻¹    T·S(FR)/kcal·mol⁻¹   T·S(vib)
   ------------------------------------------------------------------------
       1     18.63    -2.01997 (  1.89%)    -1.34900 ( 98.11%)    -1.36169
       2      3.03    -3.09529 (  0.00%)    -1.88676 (100.00%)    -1.88677
       3      1.32    -3.58679 (  0.00%)    -2.13251 (100.00%)    -2.13251
       4      1.63    -3.46251 (  0.00%)    -2.07037 (100.00%)    -2.07037
       5      2.80    -3.14221 (  0.00%)    -1.91022 (100.00%)    -1.91023
       6      3.00    -3.10083 (  0.00%)    -1.88953 (100.00%)    -1.88954
       7      3.90    -2.94605 (  0.00%)    -1.81214 (100.00%)    -1.81218
       8      5.12    -2.78506 (  0.01%)    -1.73164 ( 99.99%)    -1.73175
       9      5.18    -2.77797 (  0.01%)    -1.72809 ( 99.99%)    -1.72821
      10      6.01    -2.68996 (  0.02%)    -1.68409 ( 99.98%)    -1.68430
      11      7.18    -2.58507 (  0.04%)    -1.63164 ( 99.96%)    -1.63204
      12      8.87    -2.45950 (  0.10%)    -1.56884 ( 99.90%)    -1.56973
      13      9.92    -2.39305 (  0.15%)    -1.53561 ( 99.85%)    -1.53694
      14     10.93    -2.33561 (  0.23%)    -1.50689 ( 99.77%)    -1.50878
      15     12.29    -2.26649 (  0.36%)    -1.47232 ( 99.64%)    -1.47520
      16     13.50    -2.21092 (  0.53%)    -1.44453 ( 99.47%)    -1.44857
      17     13.66    -2.20381 (  0.55%)    -1.44097 ( 99.45%)    -1.44519
      18     14.40    -2.17263 (  0.68%)    -1.42537 ( 99.32%)    -1.43047
      19     15.02    -2.14741 (  0.81%)    -1.41276 ( 99.19%)    -1.41870
      20     16.45    -2.09376 (  1.16%)    -1.38592 ( 98.84%)    -1.39411
      21     17.46    -2.05837 (  1.47%)    -1.36822 ( 98.53%)    -1.37833
      22     23.43    -1.88418 (  4.60%)    -1.28105 ( 95.40%)    -1.30881
      23     23.57    -1.88067 (  4.71%)    -1.27929 ( 95.29%)    -1.30761
      24     25.52    -1.83377 (  6.35%)    -1.25582 ( 93.65%)    -1.29254
      25     26.59    -1.80952 (  7.40%)    -1.24367 ( 92.60%)    -1.28555
      26     29.57    -1.74649 ( 10.91%)    -1.21211 ( 89.09%)    -1.27039
      27     33.06    -1.68064 ( 16.04%)    -1.17913 ( 83.96%)    -1.25958
      28     34.60    -1.65361 ( 18.66%)    -1.16558 ( 81.34%)    -1.25665
      29     35.33    -1.64137 ( 19.95%)    -1.15944 ( 80.05%)    -1.25560
      30     37.94    -1.59919 ( 24.90%)    -1.13830 ( 75.10%)    -1.25307
      31     38.94    -1.58390 ( 26.89%)    -1.13063 ( 73.11%)    -1.25251
      32     39.48    -1.57578 ( 27.98%)    -1.12656 ( 72.02%)    -1.25227
      33     41.61    -1.54463 ( 32.42%)    -1.11093 ( 67.58%)    -1.25156
      34     42.42    -1.53326 ( 34.14%)    -1.10523 ( 65.86%)    -1.25134
      35     43.08    -1.52422 ( 35.52%)    -1.10070 ( 64.48%)    -1.25115
      36     44.53    -1.50471 ( 38.61%)    -1.09090 ( 61.39%)    -1.25066
      37     45.44    -1.49267 ( 40.56%)    -1.08486 ( 59.44%)    -1.25026
      38     48.73    -1.45153 ( 47.42%)    -1.06420 ( 52.58%)    -1.24787
      39     50.14    -1.43470 ( 50.27%)    -1.05575 ( 49.73%)    -1.24625
      40     52.58    -1.40670 ( 55.01%)    -1.04167 ( 44.99%)    -1.24246
      41     54.55    -1.38498 ( 58.62%)    -1.03075 ( 41.38%)    -1.23841
      42     55.95    -1.37000 ( 61.06%)    -1.02322 ( 38.94%)    -1.23498
      43     56.59    -1.36338 ( 62.13%)    -1.01989 ( 37.87%)    -1.23330
      44     60.00    -1.32895 ( 67.46%)    -1.00256 ( 32.54%)    -1.22274
      45     60.17    -1.32723 ( 67.72%)    -1.00169 ( 32.28%)    -1.22213
      46     66.65    -1.26714 ( 75.94%)    -0.97142 ( 24.06%)    -1.19600
      47     67.04    -1.26371 ( 76.37%)    -0.96968 ( 23.63%)    -1.19422
      48     70.77    -1.23188 ( 80.06%)    -0.95362 ( 19.94%)    -1.17638
      49     70.89    -1.23091 ( 80.16%)    -0.95313 ( 19.84%)    -1.17580
      50     71.31    -1.22747 ( 80.53%)    -0.95140 ( 19.47%)    -1.17372
      51     73.09    -1.21298 ( 82.03%)    -0.94407 ( 17.97%)    -1.16467
      52     73.58    -1.20906 ( 82.43%)    -0.94209 ( 17.57%)    -1.16214
      53     75.68    -1.19254 ( 84.00%)    -0.93375 ( 16.00%)    -1.15113
      54     77.15    -1.18130 ( 85.00%)    -0.92806 ( 15.00%)    -1.14333
      55     84.59    -1.12746 ( 89.12%)    -0.90080 ( 10.88%)    -1.10280
      56     85.01    -1.12452 ( 89.31%)    -0.89931 ( 10.69%)    -1.10045
      57     86.37    -1.11528 ( 89.90%)    -0.89462 ( 10.10%)    -1.09300
      58     88.28    -1.10247 ( 90.67%)    -0.88812 (  9.33%)    -1.08248
      59     89.07    -1.09729 ( 90.97%)    -0.88549 (  9.03%)    -1.07816
      60     92.71    -1.07397 ( 92.20%)    -0.87364 (  7.80%)    -1.05834
      61     97.21    -1.04638 ( 93.46%)    -0.85960 (  6.54%)    -1.03416
      62    102.38    -1.01625 ( 94.62%)    -0.84425 (  5.38%)    -1.00699
      63    104.96    -1.00178 ( 95.10%)    -0.83686 (  4.90%)    -0.99371
      64    107.87    -0.98592 ( 95.59%)    -0.82876 (  4.41%)    -0.97899
      65    111.72    -0.96567 ( 96.14%)    -0.81839 (  3.86%)    -0.95999
      66    114.90    -0.94942 ( 96.54%)    -0.81006 (  3.46%)    -0.94460
      67    116.96    -0.93918 ( 96.77%)    -0.80481 (  3.23%)    -0.93484
      68    117.71    -0.93548 ( 96.85%)    -0.80290 (  3.15%)    -0.93130
      69    118.30    -0.93262 ( 96.91%)    -0.80144 (  3.09%)    -0.92856
      70    120.30    -0.92293 ( 97.10%)    -0.79646 (  2.90%)    -0.91926
      71    120.48    -0.92205 ( 97.12%)    -0.79601 (  2.88%)    -0.91842
      72    122.05    -0.91461 ( 97.26%)    -0.79218 (  2.74%)    -0.91126
      73    122.66    -0.91176 ( 97.31%)    -0.79071 (  2.69%)    -0.90851
      74    124.20    -0.90457 ( 97.44%)    -0.78701 (  2.56%)    -0.90156
      75    125.98    -0.89641 ( 97.58%)    -0.78280 (  2.42%)    -0.89366
      76    126.13    -0.89569 ( 97.59%)    -0.78243 (  2.41%)    -0.89296
      77    128.54    -0.88486 ( 97.76%)    -0.77684 (  2.24%)    -0.88244
      78    129.62    -0.88003 ( 97.83%)    -0.77435 (  2.17%)    -0.87774
      79    132.42    -0.86779 ( 98.01%)    -0.76802 (  1.99%)    -0.86580
      80    134.39    -0.85933 ( 98.12%)    -0.76364 (  1.88%)    -0.85753
      81    135.79    -0.85340 ( 98.20%)    -0.76057 (  1.80%)    -0.85173
      82    145.51    -0.81397 ( 98.63%)    -0.74009 (  1.37%)    -0.81296
      83    159.91    -0.76054 ( 99.05%)    -0.71215 (  0.95%)    -0.76009
      84    165.89    -0.73988 ( 99.18%)    -0.70127 (  0.82%)    -0.73956
      85    166.10    -0.73915 ( 99.19%)    -0.70089 (  0.81%)    -0.73884
      86    166.56    -0.73760 ( 99.19%)    -0.70007 (  0.81%)    -0.73730
      87    166.86    -0.73659 ( 99.20%)    -0.69954 (  0.80%)    -0.73629
      88    167.06    -0.73594 ( 99.20%)    -0.69919 (  0.80%)    -0.73564
      89    167.40    -0.73479 ( 99.21%)    -0.69858 (  0.79%)    -0.73450
      90    167.77    -0.73353 ( 99.22%)    -0.69792 (  0.78%)    -0.73326
      91    168.34    -0.73165 ( 99.23%)    -0.69693 (  0.77%)    -0.73139
      92    176.04    -0.70660 ( 99.35%)    -0.68367 (  0.65%)    -0.70646
      93    179.07    -0.69709 ( 99.40%)    -0.67861 (  0.60%)    -0.69698
      94    180.62    -0.69231 ( 99.42%)    -0.67607 (  0.58%)    -0.69221
      95    182.20    -0.68745 ( 99.44%)    -0.67348 (  0.56%)    -0.68737
      96    183.03    -0.68492 ( 99.45%)    -0.67213 (  0.55%)    -0.68485
      97    183.19    -0.68445 ( 99.45%)    -0.67188 (  0.55%)    -0.68438
      98    183.79    -0.68262 ( 99.46%)    -0.67090 (  0.54%)    -0.68256
      99    184.28    -0.68115 ( 99.46%)    -0.67012 (  0.54%)    -0.68109
     100    184.50    -0.68050 ( 99.46%)    -0.66977 (  0.54%)    -0.68044
     101    184.89    -0.67933 ( 99.47%)    -0.66915 (  0.53%)    -0.67928
     102    185.22    -0.67833 ( 99.47%)    -0.66861 (  0.53%)    -0.67828
     103    185.44    -0.67769 ( 99.47%)    -0.66827 (  0.53%)    -0.67764
     104    186.43    -0.67471 ( 99.49%)    -0.66668 (  0.51%)    -0.67467
     105    189.79    -0.66485 ( 99.52%)    -0.66140 (  0.48%)    -0.66483
     106    191.59    -0.65963 ( 99.54%)    -0.65860 (  0.46%)    -0.65962
     107    192.70    -0.65645 ( 99.55%)    -0.65689 (  0.45%)    -0.65645
     108    194.25    -0.65201 ( 99.56%)    -0.65451 (  0.44%)    -0.65202
     109    203.35    -0.62689 ( 99.64%)    -0.64096 (  0.36%)    -0.62694
     110    203.71    -0.62592 ( 99.64%)    -0.64043 (  0.36%)    -0.62597
     111    204.02    -0.62507 ( 99.64%)    -0.63997 (  0.36%)    -0.62513
     112    204.60    -0.62353 ( 99.64%)    -0.63914 (  0.36%)    -0.62359
     113    204.76    -0.62311 ( 99.65%)    -0.63891 (  0.35%)    -0.62316
     114    205.09    -0.62223 ( 99.65%)    -0.63843 (  0.35%)    -0.62229
     115    205.15    -0.62205 ( 99.65%)    -0.63833 (  0.35%)    -0.62211
     116    205.55    -0.62099 ( 99.65%)    -0.63776 (  0.35%)    -0.62105
     117    205.74    -0.62049 ( 99.65%)    -0.63749 (  0.35%)    -0.62055
     118    209.49    -0.61064 ( 99.68%)    -0.63214 (  0.32%)    -0.61071
     119    209.86    -0.60968 ( 99.68%)    -0.63161 (  0.32%)    -0.60975
     120    210.34    -0.60843 ( 99.68%)    -0.63094 (  0.32%)    -0.60851
     121    210.51    -0.60801 ( 99.68%)    -0.63070 (  0.32%)    -0.60808
     122    210.56    -0.60788 ( 99.68%)    -0.63064 (  0.32%)    -0.60796
     123    210.65    -0.60764 ( 99.68%)    -0.63050 (  0.32%)    -0.60771
     124    211.03    -0.60667 ( 99.69%)    -0.62997 (  0.31%)    -0.60674
     125    211.67    -0.60500 ( 99.69%)    -0.62907 (  0.31%)    -0.60508
     126    211.70    -0.60493 ( 99.69%)    -0.62903 (  0.31%)    -0.60501
     127    212.06    -0.60402 ( 99.69%)    -0.62853 (  0.31%)    -0.60410
     128    216.12    -0.59372 ( 99.71%)    -0.62291 (  0.29%)    -0.59381
     129    217.31    -0.59075 ( 99.72%)    -0.62128 (  0.28%)    -0.59083
     130    217.68    -0.58984 ( 99.72%)    -0.62078 (  0.28%)    -0.58993
     131    218.26    -0.58839 ( 99.73%)    -0.61999 (  0.27%)    -0.58848
     132    218.37    -0.58813 ( 99.73%)    -0.61984 (  0.27%)    -0.58821
     133    218.44    -0.58794 ( 99.73%)    -0.61974 (  0.27%)    -0.58802
     134    218.62    -0.58750 ( 99.73%)    -0.61950 (  0.27%)    -0.58759
     135    219.71    -0.58482 ( 99.73%)    -0.61803 (  0.27%)    -0.58491
     136    220.14    -0.58375 ( 99.73%)    -0.61744 (  0.27%)    -0.58384
     137    220.36    -0.58322 ( 99.74%)    -0.61715 (  0.26%)    -0.58331
     138    220.83    -0.58207 ( 99.74%)    -0.61652 (  0.26%)    -0.58216
     139    232.77    -0.55381 ( 99.79%)    -0.60092 (  0.21%)    -0.55391
     140    232.91    -0.55349 ( 99.79%)    -0.60075 (  0.21%)    -0.55359
     141    235.41    -0.54779 ( 99.80%)    -0.59758 (  0.20%)    -0.54789
     142    240.39    -0.53666 ( 99.81%)    -0.59138 (  0.19%)    -0.53676
     143    241.39    -0.53447 ( 99.82%)    -0.59015 (  0.18%)    -0.53458
     144    246.23    -0.52397 ( 99.83%)    -0.58427 (  0.17%)    -0.52407
     145    249.55    -0.51691 ( 99.84%)    -0.58030 (  0.16%)    -0.51702
     146    252.97    -0.50978 ( 99.85%)    -0.57627 (  0.15%)    -0.50988
     147    256.73    -0.50205 ( 99.86%)    -0.57189 (  0.14%)    -0.50215
     148    259.22    -0.49702 ( 99.86%)    -0.56904 (  0.14%)    -0.49712
     149    259.36    -0.49674 ( 99.86%)    -0.56888 (  0.14%)    -0.49684
     150    260.41    -0.49464 ( 99.86%)    -0.56769 (  0.14%)    -0.49474
     151    260.49    -0.49448 ( 99.86%)    -0.56759 (  0.14%)    -0.49458
     152    261.09    -0.49328 ( 99.87%)    -0.56691 (  0.13%)    -0.49338
     153    261.82    -0.49183 ( 99.87%)    -0.56608 (  0.13%)    -0.49192
     154    262.49    -0.49051 ( 99.87%)    -0.56533 (  0.13%)    -0.49061
     155    262.89    -0.48971 ( 99.87%)    -0.56488 (  0.13%)    -0.48981
     156    262.98    -0.48953 ( 99.87%)    -0.56477 (  0.13%)    -0.48963
     157    268.39    -0.47899 ( 99.88%)    -0.55874 (  0.12%)    -0.47908
     158    271.63    -0.47281 ( 99.89%)    -0.55519 (  0.11%)    -0.47291
     159    276.13    -0.46438 ( 99.89%)    -0.55032 (  0.11%)    -0.46447
     160    282.16    -0.45335 ( 99.90%)    -0.54392 (  0.10%)    -0.45344
   ------------------------------------------------------------------------

   temp. (K)  partition function   enthalpy   heat capacity  entropy
                                   cal/mol     cal/K/mol   cal/K/mol   J/K/mol
 298.15  VIB  0.636E+91           105935.197    677.641    676.231
         ROT  0.182E+11              888.752      2.981     49.928
         INT  0.116+102           106823.949    680.622    726.159
         TR   0.169E+30             1481.254      4.968     49.959
         TOT                      108305.2033   685.5904   776.1182  3247.2784

       T/K    H(0)-H(T)+PV         H(T)/Eh          T*S/Eh         G(T)/Eh
   ------------------------------------------------------------------------
    298.15    0.172595E+00    0.221708E+01    0.368759E+00    0.184832E+01
   ------------------------------------------------------------------------

         :::::::::::::::::::::::::::::::::::::::::::::::::::::
         ::                  THERMODYNAMIC                  ::
         :::::::::::::::::::::::::::::::::::::::::::::::::::::
         :: total free energy        -537.561282570727 Eh   ::
         ::.................................................::
         :: total energy             -539.409599545785 Eh   ::
         :: zero point energy           2.044480429850 Eh   ::
         :: G(RRHO) w/o ZPVE           -0.196163454792 Eh   ::
         :: G(RRHO) contrib.            1.848316975058 Eh   ::
         :::::::::::::::::::::::::::::::::::::::::::::::::::::
imag cut-off (cm-1) :    5.00
 found            1  significant imaginary frequency
 writing imag mode distorted coords to xtbhess.xyz
 for further optimization.

optimized geometry written to: xtbopt.xyz


           -------------------------------------------------
          | TOTAL ENERGY             -539.409599545785 Eh   |
          | TOTAL ENTHALPY           -537.192523788348 Eh   |
          | TOTAL FREE ENERGY        -537.561282570727 Eh   |
          | GRADIENT NORM               0.000457507551 Eh/α |
          | HOMO-LUMO GAP               0.000785981810 eV   |
           -------------------------------------------------

------------------------------------------------------------------------
 * finished run on 2021/11/21 at 12:40:39.057     
------------------------------------------------------------------------
 total:
 * wall-time:     0 d,  3 h, 22 min, 59.249 sec
 *  cpu-time:     0 d,  3 h, 22 min, 59.401 sec
 * ratio c/w:     1.000 speedup
 SCF:
 * wall-time:     0 d,  0 h,  0 min, 19.405 sec
 *  cpu-time:     0 d,  0 h,  0 min, 19.405 sec
 * ratio c/w:     1.000 speedup
 ANC optimizer:
 * wall-time:     0 d,  0 h, 34 min, 30.799 sec
 *  cpu-time:     0 d,  0 h, 34 min, 30.832 sec
 * ratio c/w:     1.000 speedup
 analytical hessian:
 * wall-time:     0 d,  2 h, 48 min,  8.505 sec
 *  cpu-time:     0 d,  2 h, 48 min,  8.625 sec
 * ratio c/w:     1.000 speedup

