 Entering Gaussian System
 *********************************************
 Gaussian 98:
 frequency output generated by the xtb code
 *********************************************
                         Standard orientation:
 --------------------------------------------------------------------
  Center     Atomic     Atomic              Coordinates (Angstroms)
  Number     Number      Type              X           Y           Z
 --------------------------------------------------------------------
    1         28             0       17.898697   -0.005107   -0.007273
    2          6             0       20.396539   -3.418062    0.041669
    3          6             0       21.348891   -2.458191    0.038877
    4          6             0       20.660257   -1.202900    0.019726
    5          6             0       21.327301    0.026087    0.008964
    6          6             0       20.638114    1.242815   -0.000249
    7          6             0       21.303922    2.510521   -0.002560
    8          6             0       20.334353    3.452988    0.000450
    9          6             0       19.084298    2.753999    0.002481
   10          7             0       19.285436    1.399248    0.000824
   11          6             0       17.863624    3.396756    0.006112
   12          6             0       16.656095    2.729857   -0.002879
   13          6             0       15.388516    3.401861   -0.008871
   14          6             0       14.442001    2.438795   -0.030680
   15          6             0       15.135496    1.182501   -0.035408
   16          7             0       16.487363    1.374408   -0.017114
   17          6             0       14.488298   -0.036108   -0.055462
   18          6             0       15.157803   -1.242721   -0.049570
   19          6             0       14.487490   -2.511516   -0.061897
   20          6             0       15.451331   -3.457236   -0.040549
   21          6             0       16.706258   -2.762221   -0.017090
   22          7             0       16.512854   -1.410023   -0.024076
   23          6             0       17.925458   -3.407006    0.008980
   24          6             0       19.134099   -2.742017    0.022477
   25          7             0       19.310644   -1.383914    0.011258
   26          1             0       20.514670   -4.484063    0.054017
   27          1             0       22.416245   -2.564251    0.048927
   28          1             0       22.369182    2.635971   -0.004601
   29          1             0       20.433124    4.521061    0.000557
   30          1             0       17.854271    4.475981    0.012567
   31          1             0       15.267687    4.467847    0.001168
   32          1             0       13.374159    2.541297   -0.042264
   33          1             0       13.409353   -0.045971   -0.073169
   34          1             0       13.421811   -2.633432   -0.082791
   35          1             0       15.350037   -4.525301   -0.040670
   36          1             0       17.935675   -4.486212    0.015984
   37         28             0       65.876483    0.031782   -0.006727
   38          6             0       63.387331    3.389704    0.643471
   39          6             0       62.432514    2.449330    0.463689
   40          6             0       63.117985    1.215040    0.224897
   41          6             0       62.448147    0.008427   -0.000014
   42          6             0       63.134177   -1.190399   -0.218058
   43          6             0       62.464784   -2.436692   -0.439647
   44          6             0       63.431704   -3.367083   -0.606136
   45          6             0       64.683699   -2.681888   -0.486993
   46          7             0       64.486415   -1.347681   -0.248567
   47          6             0       65.902502   -3.316969   -0.606588
   48          6             0       67.111700   -2.661381   -0.501919
   49          6             0       68.377463   -3.323409   -0.635622
   50          6             0       69.326485   -2.374940   -0.481968
   51          6             0       68.636309   -1.137833   -0.252954
   52          7             0       67.283939   -1.326682   -0.267811
   53          6             0       69.286795    0.061405   -0.045923
   54          6             0       68.620628    1.247996    0.183119
   55          6             0       69.294448    2.494914    0.407657
   56          6             0       68.333112    3.423843    0.599358
   57          6             0       67.076192    2.740859    0.489197
   58          7             0       67.265967    1.412273    0.234735
   59          6             0       65.858665    3.374896    0.625446
   60          6             0       64.648112    2.723287    0.510825
   61          7             0       64.468060    1.389863    0.255437
   62          1             0       63.271966    4.436675    0.845880
   63          1             0       61.365441    2.555739    0.486829
   64          1             0       61.399161   -2.557508   -0.459620
   65          1             0       63.329855   -4.418354   -0.793240
   66          1             0       65.908872   -4.379693   -0.794772
   67          1             0       68.495443   -4.373198   -0.822694
   68          1             0       70.394052   -2.475911   -0.514858
   69          1             0       70.365789    0.071116   -0.060469
   70          1             0       70.360524    2.614875    0.413612
   71          1             0       68.437300    4.473278    0.796476
   72          1             0       65.851458    4.434886    0.828452
   73          6             0       22.724015    0.038421    0.009533
   74          6             0       23.943566    0.047957    0.009025
   75          6             0       25.280173    0.057325    0.007872
   76          6             0       26.504194    0.063465    0.005050
   77          6             0       27.840672    0.067036    0.001826
   78          6             0       29.060410    0.067654   -0.001564
   79          6             0       38.720234    0.049014   -0.020658
   80          6             0       39.940015    0.045248   -0.022525
   81          6             0       41.276097    0.040102   -0.022477
   82          6             0       42.500267    0.035014   -0.022326
   83          6             0       43.836348    0.029172   -0.021282
   84          6             0       45.056128    0.024239   -0.019555
   85          6             0       54.715139   -0.015985   -0.015637
   86          6             0       55.934819   -0.018362   -0.017498
   87          6             0       57.271312   -0.018160   -0.013926
   88          6             0       58.495318   -0.014851   -0.012435
   89          6             0       59.831932   -0.009470   -0.006879
   90          6             0       61.051390   -0.000352   -0.003523
   91         28             0       33.890441    0.058059   -0.018731
   92          6             0       31.414787   -3.346094    0.407577
   93          6             0       30.454943   -2.399209    0.303155
   94          6             0       31.133847   -1.148983    0.142676
   95          6             0       30.456487    0.065661   -0.006893
   96          6             0       31.137839    1.276972   -0.163981
   97          6             0       30.463352    2.529483   -0.324888
   98          6             0       31.426649    3.471291   -0.442778
   99          6             0       32.680686    2.786502   -0.351889
  100          7             0       32.488981    1.440855   -0.183582
  101          6             0       33.896854    3.433337   -0.419985
  102          6             0       35.110784    2.785277   -0.330650
  103          6             0       36.367422    3.468187   -0.395924
  104          6             0       37.326939    2.522064   -0.282117
  105          6             0       36.647515    1.268853   -0.149268
  106          7             0       35.297317    1.437091   -0.176553
  107          6             0       37.324469    0.051783   -0.020041
  108          6             0       36.643278   -1.163156    0.107573
  109          6             0       37.318217   -2.419258    0.236230
  110          6             0       36.355277   -3.362531    0.344693
  111          6             0       35.101116   -2.674887    0.281579
  112          7             0       35.292480   -1.326702    0.133482
  113          6             0       33.884862   -3.318752    0.369673
  114          6             0       32.671148   -2.666482    0.310721
  115          7             0       32.484269   -1.319103    0.150805
  116          1             0       31.305265   -4.405113    0.537705
  117          1             0       29.388502   -2.511193    0.328590
  118          1             0       29.397252    2.646188   -0.342071
  119          1             0       31.320936    4.530033   -0.577878
  120          1             0       33.898421    4.505001   -0.548560
  121          1             0       36.477529    4.528647   -0.513114
  122          1             0       38.393426    2.636206   -0.285427
  123          1             0       38.384302   -2.537171    0.240391
  124          1             0       36.461542   -4.423850    0.457530
  125          1             0       33.882489   -4.391109    0.492304
  126         28             0       49.885610    0.003371   -0.019972
  127          6             0       47.400285   -3.393890    0.412142
  128          6             0       46.443224   -2.444414    0.305861
  129          6             0       47.125769   -1.196945    0.139421
  130          6             0       46.451886    0.018442   -0.018738
  131          6             0       47.136025    1.228117   -0.176608
  132          6             0       46.464188    2.481663   -0.341545
  133          6             0       47.429444    3.422558   -0.450059
  134          6             0       48.681905    2.736056   -0.350646
  135          7             0       48.487196    1.390218   -0.186670
  136          6             0       49.899751    3.380530   -0.406917
  137          6             0       51.111656    2.729065   -0.312907
  138          6             0       52.369822    3.410022   -0.368642
  139          6             0       53.327156    2.461335   -0.258036
  140          6             0       52.644934    1.208471   -0.136473
  141          7             0       51.294973    1.379613   -0.166881
  142          6             0       53.319037   -0.011234   -0.017410
  143          6             0       52.634762   -1.225338    0.100033
  144          6             0       53.306095   -2.484073    0.220175
  145          6             0       52.340498   -3.424964    0.326102
  146          6             0       51.088257   -2.733169    0.270318
  147          7             0       51.283265   -1.385047    0.127633
  148          6             0       49.870596   -3.374122    0.363077
  149          6             0       48.658555   -2.718596    0.310168
  150          7             0       48.475498   -1.370943    0.147316
  151          1             0       47.287572   -4.452012    0.546381
  152          1             0       45.376538   -2.552854    0.333847
  153          1             0       45.398377    2.599751   -0.366825
  154          1             0       47.325778    4.481724   -0.583843
  155          1             0       49.904986    4.452750   -0.530629
  156          1             0       52.482117    4.471006   -0.478552
  157          1             0       54.393847    2.573422   -0.257505
  158          1             0       54.371884   -2.605190    0.221426
  159          1             0       52.443638   -4.487241    0.432909
  160          1             0       49.866240   -4.446635    0.484241
 --------------------------------------------------------------------
     1 basis functions        1 primitive gaussians
     1 alpha electrons        1 beta electrons

 Harmonic frequencies (cm**-1), IR intensities (km*mol⁻¹),
 Raman scattering activities (A**4/amu), Raman depolarization ratios,
 reduced masses (AMU), force constants (mDyne/A) and normal coordinates:
                      1                      2                      3
                        a                      a                      a 
 Frequencies --    -4.7231                -3.5502                -2.5307
 Red. masses --    11.5875                13.8122                17.0775
 Frc consts  --     0.0000                 0.0000                 0.0000
 IR Inten    --    25.1989                 0.8848                 0.5519
 Raman Activ --     0.0000                 0.0000                 0.0000
 Depolar     --     0.0000                 0.0000                 0.0000
 Atom AN      X      Y      Z        X      Y      Z        X      Y      Z
   1  28    -0.00   0.02   0.00     0.00   0.01   0.10    -0.00   0.00   0.01
   2   6    -0.00   0.01   0.01    -0.00   0.00   0.24    -0.00  -0.00  -0.11
   3   6    -0.00   0.00   0.00    -0.00   0.00   0.18    -0.00  -0.00  -0.08
   4   6    -0.00   0.01   0.00    -0.00   0.00   0.11    -0.00  -0.00  -0.05
   5   6    -0.00   0.00   0.00     0.00   0.00   0.08     0.00  -0.00  -0.04
   6   6     0.00   0.01   0.00     0.00   0.00   0.12     0.00  -0.00  -0.05
   7   6     0.00   0.00   0.01     0.00   0.00   0.18     0.00  -0.00  -0.08
   8   6     0.00   0.01   0.01     0.00   0.00   0.25     0.00  -0.00  -0.11
   9   6     0.00   0.01   0.01     0.00   0.00   0.20     0.00   0.00  -0.08
  10   7     0.00   0.01   0.00     0.00   0.00   0.13     0.00   0.00  -0.05
  11   6     0.00   0.01   0.01     0.00   0.00   0.19     0.00   0.00  -0.07
  12   6     0.00   0.01   0.00     0.00   0.00   0.07     0.00   0.00   0.00
  13   6     0.00   0.01   0.00     0.00   0.00  -0.03     0.00   0.01   0.06
  14   6     0.00   0.01  -0.00     0.00   0.01  -0.19     0.00   0.01   0.14
  15   6     0.00   0.01  -0.00     0.00   0.01  -0.18    -0.00   0.01   0.13
  16   7     0.00   0.01   0.00     0.00   0.00  -0.03     0.00   0.00   0.05
  17   6    -0.00   0.01  -0.01     0.01   0.01  -0.28    -0.00   0.01   0.18
  18   6    -0.00   0.01  -0.00     0.00   0.01  -0.18    -0.00   0.01   0.13
  19   6    -0.00   0.01  -0.00     0.00   0.01  -0.20    -0.01   0.01   0.14
  20   6    -0.00   0.01  -0.00     0.00   0.01  -0.03    -0.01   0.00   0.05
  21   6    -0.00   0.01   0.00    -0.00   0.01   0.06    -0.00   0.00   0.00
  22   7    -0.00   0.01   0.00     0.00   0.01  -0.03    -0.00   0.00   0.05
  23   6    -0.00   0.01   0.01    -0.00   0.01   0.19    -0.00   0.00  -0.07
  24   6    -0.00   0.01   0.01    -0.00   0.00   0.20    -0.00  -0.00  -0.08
  25   7    -0.00   0.01   0.00    -0.00   0.00   0.13    -0.00  -0.00  -0.05
  26   1    -0.00   0.00   0.00    -0.00   0.00   0.09    -0.00  -0.00  -0.04
  27   1    -0.00   0.00   0.00    -0.00   0.00   0.05    -0.00  -0.00  -0.03
  28   1     0.00   0.00   0.00     0.00   0.00   0.05     0.00  -0.00  -0.03
  29   1     0.00   0.00   0.00     0.00   0.00   0.09     0.00  -0.00  -0.04
  30   1     0.00   0.00   0.00    -0.00   0.00   0.08     0.00   0.00  -0.03
  31   1     0.00   0.00   0.00     0.00   0.00   0.01     0.00   0.00   0.01
  32   1     0.00   0.00  -0.00     0.00   0.00  -0.09     0.00   0.00   0.06
  33   1    -0.00   0.00  -0.00     0.00   0.00  -0.12    -0.00   0.00   0.07
  34   1    -0.00   0.00  -0.00     0.00   0.00  -0.09    -0.00   0.00   0.06
  35   1    -0.00   0.00   0.00     0.00   0.00   0.00    -0.00   0.00   0.01
  36   1    -0.00   0.00   0.00    -0.00   0.00   0.07    -0.00   0.00  -0.03
  37  28     0.00   0.02  -0.05    -0.00  -0.00  -0.01     0.00  -0.02  -0.13
  38   6    -0.01   0.05  -0.26     0.00  -0.00   0.02     0.01  -0.01  -0.02
  39   6    -0.01   0.04  -0.19     0.00  -0.00   0.01     0.01  -0.01  -0.01
  40   6    -0.00   0.02  -0.11     0.00  -0.00   0.01     0.00  -0.01  -0.03
  41   6    -0.00   0.02  -0.08    -0.00  -0.00   0.01     0.00  -0.00  -0.02
  42   6     0.00   0.02  -0.11    -0.00  -0.00   0.01    -0.00  -0.01  -0.02
  43   6     0.00   0.04  -0.19    -0.00  -0.00   0.02    -0.01  -0.01  -0.01
  44   6     0.01   0.05  -0.25    -0.00  -0.00   0.02    -0.01  -0.01  -0.01
  45   6     0.00   0.04  -0.20    -0.00  -0.00   0.01    -0.01  -0.01  -0.03
  46   7     0.00   0.03  -0.12    -0.00  -0.00   0.01    -0.00  -0.01  -0.04
  47   6     0.00   0.04  -0.18    -0.00  -0.00   0.01    -0.01  -0.01  -0.04
  48   6     0.00   0.01  -0.03    -0.00  -0.00  -0.00    -0.01  -0.01  -0.07
  49   6     0.01  -0.00   0.08    -0.00  -0.00  -0.01    -0.01  -0.01  -0.09
  50   6     0.01  -0.04   0.27    -0.00   0.00  -0.03    -0.01  -0.01  -0.12
  51   6     0.01  -0.03   0.25    -0.00   0.00  -0.03    -0.00  -0.01  -0.11
  52   7     0.00  -0.01   0.08    -0.00  -0.00  -0.01    -0.00  -0.01  -0.09
  53   6     0.01  -0.05   0.36    -0.00   0.00  -0.04    -0.00  -0.01  -0.13
  54   6     0.00  -0.03   0.25     0.00   0.00  -0.03     0.00  -0.01  -0.11
  55   6     0.00  -0.04   0.26     0.00   0.00  -0.03     0.01  -0.01  -0.12
  56   6    -0.00  -0.00   0.07     0.00  -0.00  -0.01     0.01  -0.01  -0.09
  57   6    -0.00   0.02  -0.04     0.00  -0.00  -0.00     0.01  -0.01  -0.07
  58   7     0.00  -0.00   0.07     0.00  -0.00  -0.01     0.00  -0.01  -0.09
  59   6    -0.01   0.04  -0.18     0.00  -0.00   0.01     0.01  -0.01  -0.05
  60   6    -0.01   0.04  -0.20     0.00  -0.00   0.01     0.01  -0.01  -0.03
  61   7    -0.00   0.03  -0.12     0.00  -0.00   0.01     0.01  -0.01  -0.04
  62   1    -0.00   0.02  -0.09     0.00  -0.00   0.01     0.00  -0.00  -0.00
  63   1    -0.00   0.01  -0.06     0.00  -0.00   0.00     0.00  -0.00  -0.00
  64   1     0.00   0.01  -0.06    -0.00  -0.00   0.01    -0.00  -0.00   0.00
  65   1     0.00   0.02  -0.09    -0.00  -0.00   0.01    -0.00  -0.00  -0.00
  66   1     0.00   0.01  -0.07    -0.00  -0.00   0.00    -0.00  -0.00  -0.01
  67   1     0.00   0.00   0.01    -0.00  -0.00  -0.00    -0.00  -0.00  -0.02
  68   1     0.00  -0.02   0.12    -0.00   0.00  -0.01    -0.00  -0.00  -0.04
  69   1     0.00  -0.02   0.15    -0.00   0.00  -0.01    -0.00  -0.00  -0.04
  70   1     0.00  -0.02   0.11     0.00   0.00  -0.01     0.00  -0.00  -0.04
  71   1    -0.00   0.00   0.01     0.00  -0.00  -0.00     0.00  -0.00  -0.03
  72   1    -0.00   0.02  -0.08     0.00  -0.00   0.00     0.00  -0.00  -0.01
  73   6    -0.00   0.00   0.00     0.00   0.00   0.06     0.00  -0.00  -0.03
  74   6    -0.00   0.00   0.00     0.00   0.00   0.04     0.00  -0.00  -0.03
  75   6    -0.00   0.00  -0.00     0.00  -0.00   0.01     0.00  -0.01  -0.03
  76   6    -0.00  -0.00  -0.00     0.00  -0.00  -0.00     0.00  -0.01  -0.03
  77   6    -0.00  -0.00  -0.00    -0.00  -0.00  -0.02     0.00  -0.01  -0.04
  78   6    -0.00  -0.00  -0.00    -0.00  -0.01  -0.04     0.00  -0.01  -0.04
  79   6    -0.00  -0.01  -0.00    -0.00  -0.00  -0.04     0.00  -0.00  -0.02
  80   6    -0.00  -0.01   0.00    -0.00  -0.00  -0.03     0.00  -0.00  -0.01
  81   6    -0.00  -0.01   0.00    -0.00  -0.00  -0.02     0.00   0.00   0.01
  82   6    -0.00  -0.01   0.01    -0.00   0.00  -0.01     0.00   0.00   0.03
  83   6    -0.00  -0.01   0.01    -0.00   0.00   0.00     0.00   0.01   0.05
  84   6    -0.00  -0.01   0.02    -0.00   0.00   0.01     0.00   0.01   0.07
  85   6    -0.00  -0.01   0.01    -0.00   0.01   0.02     0.00   0.01   0.06
  86   6    -0.00  -0.01  -0.00    -0.00   0.00   0.02     0.00   0.01   0.05
  87   6    -0.00  -0.01  -0.01    -0.00   0.00   0.01     0.00   0.01   0.03
  88   6    -0.00  -0.00  -0.03    -0.00   0.00   0.01     0.00   0.00   0.02
  89   6    -0.00   0.00  -0.04    -0.00   0.00   0.01     0.00   0.00   0.00
  90   6    -0.00   0.01  -0.06    -0.00   0.00   0.01     0.00  -0.00  -0.01
  91  28    -0.00  -0.02  -0.02    -0.00  -0.02  -0.18     0.00  -0.02  -0.15
  92   6    -0.00  -0.01  -0.01     0.00  -0.01  -0.09     0.00  -0.01  -0.09
  93   6    -0.00  -0.00  -0.01     0.00  -0.01  -0.07     0.00  -0.01  -0.07
  94   6    -0.00  -0.01  -0.01    -0.00  -0.01  -0.07     0.00  -0.01  -0.06
  95   6    -0.00  -0.00  -0.01    -0.00  -0.01  -0.06     0.00  -0.01  -0.05
  96   6     0.00  -0.01  -0.01    -0.00  -0.01  -0.07    -0.00  -0.01  -0.06
  97   6     0.00  -0.00  -0.01    -0.00  -0.01  -0.07    -0.00  -0.01  -0.07
  98   6     0.00  -0.01  -0.01    -0.00  -0.01  -0.09    -0.00  -0.01  -0.08
  99   6     0.00  -0.01  -0.01    -0.00  -0.01  -0.10    -0.00  -0.01  -0.08
 100   7     0.00  -0.01  -0.01    -0.00  -0.01  -0.09    -0.00  -0.01  -0.08
 101   6     0.00  -0.01  -0.01    -0.00  -0.01  -0.11    -0.00  -0.01  -0.09
 102   6     0.00  -0.01  -0.01    -0.00  -0.01  -0.10    -0.00  -0.01  -0.08
 103   6     0.00  -0.01  -0.01    -0.00  -0.01  -0.10    -0.00  -0.01  -0.07
 104   6     0.00  -0.01  -0.01    -0.00  -0.01  -0.08    -0.00  -0.01  -0.05
 105   6     0.00  -0.01  -0.01    -0.00  -0.01  -0.07    -0.00  -0.01  -0.05
 106   7     0.00  -0.01  -0.01    -0.00  -0.01  -0.09    -0.00  -0.01  -0.07
 107   6    -0.00  -0.01  -0.00    -0.00  -0.01  -0.06     0.00  -0.01  -0.04
 108   6    -0.00  -0.01  -0.01     0.00  -0.01  -0.07     0.00  -0.01  -0.05
 109   6    -0.00  -0.01  -0.01     0.00  -0.01  -0.08     0.00  -0.01  -0.06
 110   6    -0.00  -0.01  -0.01     0.00  -0.01  -0.10     0.00  -0.01  -0.08
 111   6    -0.00  -0.01  -0.01     0.00  -0.01  -0.10     0.00  -0.01  -0.08
 112   7    -0.00  -0.01  -0.01     0.00  -0.01  -0.09     0.00  -0.01  -0.07
 113   6    -0.00  -0.01  -0.01     0.00  -0.01  -0.11     0.00  -0.01  -0.09
 114   6    -0.00  -0.01  -0.01     0.00  -0.01  -0.10     0.00  -0.01  -0.09
 115   7    -0.00  -0.01  -0.01    -0.00  -0.01  -0.09     0.00  -0.01  -0.08
 116   1    -0.00  -0.00  -0.00     0.00  -0.00  -0.03     0.00  -0.00  -0.03
 117   1    -0.00  -0.00  -0.00     0.00  -0.00  -0.02     0.00  -0.00  -0.02
 118   1     0.00  -0.00  -0.00    -0.00  -0.00  -0.02    -0.00  -0.00  -0.02
 119   1     0.00  -0.00  -0.00    -0.00  -0.00  -0.03    -0.00  -0.00  -0.03
 120   1     0.00  -0.00  -0.00    -0.00  -0.00  -0.03    -0.00  -0.00  -0.03
 121   1     0.00  -0.00  -0.00    -0.00  -0.00  -0.03    -0.00  -0.00  -0.02
 122   1     0.00  -0.00  -0.00    -0.00  -0.00  -0.02    -0.00  -0.00  -0.01
 123   1    -0.00  -0.00  -0.00     0.00  -0.00  -0.02     0.00  -0.00  -0.01
 124   1    -0.00  -0.00  -0.00     0.00  -0.00  -0.03     0.00  -0.00  -0.02
 125   1    -0.00  -0.00  -0.00     0.00  -0.00  -0.04     0.00  -0.00  -0.03
 126  28    -0.00  -0.02   0.07    -0.00   0.02   0.08     0.00   0.04   0.27
 127   6     0.00  -0.01   0.04    -0.00   0.01   0.04     0.00   0.02   0.13
 128   6     0.00  -0.01   0.03    -0.00   0.01   0.03    -0.00   0.02   0.11
 129   6     0.00  -0.01   0.03    -0.00   0.01   0.03     0.00   0.02   0.10
 130   6    -0.00  -0.01   0.02    -0.00   0.01   0.02     0.00   0.01   0.09
 131   6    -0.00  -0.01   0.03    -0.00   0.01   0.03    -0.00   0.02   0.10
 132   6    -0.00  -0.01   0.03     0.00   0.01   0.03     0.00   0.02   0.11
 133   6    -0.00  -0.01   0.04     0.00   0.01   0.04     0.00   0.02   0.14
 134   6    -0.00  -0.01   0.04    -0.00   0.01   0.04    -0.00   0.02   0.15
 135   7    -0.00  -0.01   0.04    -0.00   0.01   0.04    -0.00   0.02   0.13
 136   6    -0.00  -0.01   0.05    -0.00   0.01   0.05     0.00   0.02   0.16
 137   6    -0.00  -0.01   0.04     0.00   0.01   0.05     0.00   0.02   0.14
 138   6    -0.00  -0.01   0.04     0.00   0.01   0.05     0.00   0.02   0.14
 139   6    -0.00  -0.01   0.03     0.00   0.01   0.04     0.00   0.02   0.11
 140   6    -0.00  -0.01   0.02    -0.00   0.01   0.03     0.00   0.02   0.10
 141   7    -0.00  -0.01   0.04    -0.00   0.01   0.04     0.00   0.02   0.13
 142   6    -0.00  -0.01   0.02    -0.00   0.01   0.03     0.00   0.01   0.09
 143   6     0.00  -0.01   0.02    -0.00   0.01   0.03    -0.00   0.02   0.10
 144   6     0.00  -0.01   0.03    -0.00   0.01   0.04    -0.00   0.02   0.11
 145   6     0.00  -0.01   0.04    -0.00   0.01   0.04    -0.00   0.02   0.13
 146   6     0.00  -0.01   0.04    -0.00   0.01   0.05    -0.00   0.02   0.14
 147   7     0.00  -0.01   0.03    -0.00   0.01   0.04    -0.00   0.02   0.13
 148   6     0.00  -0.01   0.04    -0.00   0.01   0.05     0.00   0.02   0.15
 149   6     0.00  -0.01   0.04    -0.00   0.01   0.04     0.00   0.02   0.14
 150   7     0.00  -0.01   0.04    -0.00   0.01   0.04     0.00   0.02   0.13
 151   1     0.00  -0.00   0.01    -0.00   0.00   0.01    -0.00   0.01   0.04
 152   1     0.00  -0.00   0.01    -0.00   0.00   0.01    -0.00   0.00   0.03
 153   1    -0.00  -0.00   0.01     0.00   0.00   0.01     0.00   0.00   0.03
 154   1    -0.00  -0.00   0.01     0.00   0.00   0.01     0.00   0.01   0.05
 155   1    -0.00  -0.00   0.02     0.00   0.00   0.02    -0.00   0.01   0.05
 156   1    -0.00  -0.00   0.01     0.00   0.00   0.01     0.00   0.01   0.04
 157   1    -0.00  -0.00   0.01     0.00   0.00   0.01     0.00   0.00   0.03
 158   1     0.00  -0.00   0.01    -0.00   0.00   0.01    -0.00   0.00   0.03
 159   1     0.00  -0.00   0.01    -0.00   0.00   0.01    -0.00   0.01   0.04
 160   1     0.00  -0.00   0.01    -0.00   0.00   0.02     0.00   0.01   0.05
                      4                      5                      6
                        a                      a                      a 
 Frequencies --    -1.1498                 1.0580                 3.6031
 Red. masses --    17.8000                17.7279                11.2647
 Frc consts  --     0.0000                 0.0000                 0.0000
 IR Inten    --     5.9602                 0.2745                 0.0026
 Raman Activ --     0.0000                 0.0000                 0.0000
 Depolar     --     0.0000                 0.0000                 0.0000
 Atom AN      X      Y      Z        X      Y      Z        X      Y      Z
   1  28     0.00  -0.05  -0.19     0.00  -0.18   0.05     0.00  -0.01  -0.00
   2   6     0.01  -0.01   0.00     0.04  -0.05   0.01     0.01   0.00   0.12
   3   6     0.01  -0.01  -0.01     0.03  -0.04   0.01     0.00   0.00   0.08
   4   6     0.00  -0.01  -0.03     0.02  -0.05   0.01     0.00   0.00   0.04
   5   6    -0.00  -0.01  -0.03     0.00  -0.04   0.01     0.00   0.00  -0.00
   6   6    -0.00  -0.01  -0.03    -0.01  -0.05   0.01    -0.00   0.00  -0.04
   7   6    -0.01  -0.01   0.00    -0.03  -0.04   0.00    -0.00   0.00  -0.08
   8   6    -0.01  -0.02   0.01    -0.04  -0.05   0.01    -0.01   0.00  -0.11
   9   6    -0.01  -0.02  -0.02    -0.03  -0.07   0.01    -0.00  -0.00  -0.09
  10   7    -0.01  -0.02  -0.04    -0.02  -0.07   0.02    -0.00  -0.00  -0.05
  11   6    -0.01  -0.02  -0.03    -0.04  -0.08   0.02    -0.01  -0.00  -0.11
  12   6    -0.01  -0.03  -0.09    -0.03  -0.10   0.03    -0.00  -0.01  -0.09
  13   6    -0.01  -0.03  -0.13    -0.04  -0.11   0.03    -0.01  -0.01  -0.12
  14   6    -0.01  -0.04  -0.20    -0.03  -0.12   0.04    -0.00  -0.01  -0.09
  15   6    -0.00  -0.03  -0.19    -0.01  -0.12   0.04    -0.00  -0.01  -0.05
  16   7    -0.00  -0.03  -0.13    -0.02  -0.11   0.03    -0.00  -0.01  -0.05
  17   6     0.00  -0.04  -0.23     0.00  -0.12   0.05     0.00  -0.01  -0.01
  18   6     0.01  -0.03  -0.19     0.01  -0.12   0.04     0.00  -0.01   0.04
  19   6     0.01  -0.04  -0.21     0.03  -0.12   0.04     0.00  -0.01   0.08
  20   6     0.01  -0.03  -0.14     0.04  -0.11   0.03     0.01  -0.01   0.11
  21   6     0.01  -0.03  -0.10     0.03  -0.10   0.03     0.00  -0.01   0.09
  22   7     0.01  -0.03  -0.14     0.02  -0.11   0.03     0.00  -0.01   0.05
  23   6     0.01  -0.02  -0.05     0.04  -0.08   0.02     0.01  -0.00   0.11
  24   6     0.01  -0.02  -0.03     0.03  -0.07   0.01     0.00  -0.00   0.09
  25   7     0.00  -0.02  -0.05     0.02  -0.07   0.02     0.00  -0.00   0.05
  26   1     0.00  -0.00   0.01     0.02  -0.01   0.00     0.00   0.00   0.04
  27   1     0.00  -0.00   0.00     0.01  -0.01   0.00     0.00   0.00   0.03
  28   1    -0.00  -0.00   0.00    -0.01  -0.01   0.00    -0.00   0.00  -0.03
  29   1    -0.00  -0.00   0.01    -0.02  -0.02   0.00    -0.00   0.00  -0.04
  30   1    -0.00  -0.01  -0.00    -0.02  -0.02   0.00    -0.00  -0.00  -0.04
  31   1    -0.00  -0.01  -0.03    -0.02  -0.03   0.01    -0.00  -0.00  -0.04
  32   1    -0.00  -0.01  -0.07    -0.01  -0.04   0.01    -0.00  -0.00  -0.03
  33   1     0.00  -0.01  -0.08     0.00  -0.04   0.02     0.00  -0.00  -0.00
  34   1     0.00  -0.01  -0.07     0.01  -0.04   0.02     0.00  -0.00   0.02
  35   1     0.00  -0.01  -0.04     0.02  -0.03   0.01     0.00  -0.00   0.04
  36   1     0.00  -0.01  -0.01     0.02  -0.02   0.00     0.00  -0.00   0.04
  37  28     0.00  -0.04  -0.17     0.00  -0.19   0.05    -0.00   0.00  -0.01
  38   6     0.01  -0.01  -0.07     0.04  -0.05  -0.01    -0.00  -0.04   0.19
  39   6     0.01  -0.01  -0.06     0.03  -0.04  -0.01    -0.00  -0.03   0.13
  40   6     0.00  -0.01  -0.06     0.01  -0.05   0.00    -0.00  -0.02   0.06
  41   6     0.00  -0.01  -0.05    -0.00  -0.04   0.00    -0.00  -0.00  -0.00
  42   6    -0.00  -0.01  -0.05    -0.02  -0.05   0.00     0.00   0.01  -0.07
  43   6    -0.01  -0.01  -0.04    -0.03  -0.04  -0.00     0.00   0.02  -0.14
  44   6    -0.01  -0.02  -0.05    -0.04  -0.05  -0.00     0.00   0.03  -0.20
  45   6    -0.01  -0.02  -0.06    -0.03  -0.07   0.01     0.00   0.03  -0.16
  46   7    -0.01  -0.02  -0.07    -0.02  -0.07   0.01     0.00   0.01  -0.09
  47   6    -0.01  -0.02  -0.07    -0.04  -0.08   0.01     0.00   0.04  -0.20
  48   6    -0.01  -0.02  -0.08    -0.03  -0.10   0.03     0.00   0.03  -0.16
  49   6    -0.01  -0.03  -0.08    -0.04  -0.12   0.04     0.00   0.04  -0.20
  50   6    -0.01  -0.03  -0.09    -0.03  -0.13   0.06     0.00   0.03  -0.14
  51   6    -0.00  -0.03  -0.09    -0.01  -0.12   0.05     0.00   0.02  -0.07
  52   7    -0.01  -0.03  -0.09    -0.02  -0.11   0.04     0.00   0.02  -0.09
  53   6    -0.00  -0.03  -0.10     0.00  -0.13   0.06    -0.00   0.01  -0.00
  54   6     0.00  -0.03  -0.10     0.02  -0.12   0.05    -0.00  -0.01   0.07
  55   6     0.01  -0.03  -0.10     0.03  -0.13   0.05    -0.00  -0.02   0.14
  56   6     0.01  -0.02  -0.10     0.04  -0.12   0.04    -0.00  -0.03   0.19
  57   6     0.01  -0.02  -0.09     0.03  -0.10   0.02    -0.00  -0.03   0.15
  58   7     0.01  -0.02  -0.10     0.02  -0.11   0.03    -0.00  -0.01   0.08
  59   6     0.01  -0.02  -0.08     0.04  -0.08   0.01    -0.00  -0.04   0.19
  60   6     0.01  -0.02  -0.07     0.03  -0.07   0.00    -0.00  -0.03   0.15
  61   7     0.01  -0.02  -0.07     0.02  -0.07   0.01    -0.00  -0.02   0.08
  62   1     0.00  -0.00  -0.02     0.02  -0.01  -0.00    -0.00  -0.01   0.07
  63   1     0.00  -0.00  -0.01     0.01  -0.01  -0.00    -0.00  -0.01   0.04
  64   1    -0.00  -0.00  -0.01    -0.01  -0.01  -0.00     0.00   0.01  -0.04
  65   1    -0.00  -0.00  -0.01    -0.02  -0.01  -0.00     0.00   0.01  -0.07
  66   1    -0.00  -0.01  -0.02    -0.02  -0.02   0.00     0.00   0.01  -0.07
  67   1    -0.00  -0.01  -0.02    -0.02  -0.03   0.01     0.00   0.01  -0.07
  68   1    -0.00  -0.01  -0.03    -0.01  -0.04   0.02     0.00   0.01  -0.04
  69   1    -0.00  -0.01  -0.03     0.00  -0.04   0.02    -0.00   0.00  -0.00
  70   1     0.00  -0.01  -0.03     0.01  -0.04   0.02    -0.00  -0.01   0.04
  71   1     0.00  -0.01  -0.03     0.02  -0.03   0.01    -0.00  -0.01   0.07
  72   1     0.00  -0.01  -0.03     0.02  -0.02   0.00    -0.00  -0.01   0.07
  73   6    -0.00  -0.01  -0.02     0.00  -0.02   0.01     0.00   0.00  -0.00
  74   6    -0.00  -0.00  -0.01    -0.00  -0.01   0.00     0.00   0.01  -0.00
  75   6    -0.00   0.00  -0.00    -0.00   0.00  -0.00     0.00   0.01  -0.00
  76   6    -0.00   0.01   0.01    -0.00   0.02  -0.00     0.00   0.01  -0.00
  77   6    -0.00   0.01   0.02    -0.00   0.03  -0.01     0.00   0.01  -0.00
  78   6    -0.00   0.01   0.04    -0.00   0.04  -0.01     0.00   0.01  -0.00
  79   6    -0.00   0.02   0.07    -0.00   0.10  -0.03    -0.00   0.01   0.00
  80   6    -0.00   0.02   0.07    -0.00   0.10  -0.03    -0.00   0.00   0.00
  81   6    -0.00   0.02   0.06    -0.00   0.11  -0.03    -0.00   0.00   0.00
  82   6    -0.00   0.02   0.06    -0.00   0.11  -0.03    -0.00   0.00   0.00
  83   6    -0.00   0.02   0.06    -0.00   0.11  -0.02    -0.00   0.00   0.00
  84   6    -0.00   0.02   0.06    -0.00   0.10  -0.02    -0.00  -0.00   0.00
  85   6    -0.00   0.01   0.02    -0.00   0.04  -0.01     0.00  -0.01  -0.00
  86   6    -0.00   0.00   0.01    -0.00   0.03  -0.01     0.00  -0.01  -0.00
  87   6    -0.00  -0.00  -0.01    -0.00   0.02  -0.01     0.00  -0.01  -0.00
  88   6    -0.00  -0.00  -0.02    -0.00   0.01  -0.01     0.00  -0.01  -0.00
  89   6    -0.00  -0.01  -0.03    -0.00  -0.01  -0.00     0.00  -0.01  -0.00
  90   6    -0.00  -0.01  -0.04    -0.00  -0.02  -0.00     0.00  -0.01  -0.00
  91  28    -0.00   0.05   0.20    -0.00   0.15  -0.05     0.00   0.02   0.00
  92   6     0.00   0.02   0.09     0.02   0.05  -0.02    -0.00   0.03   0.15
  93   6     0.00   0.02   0.07     0.02   0.05  -0.02    -0.00   0.02   0.11
  94   6     0.00   0.02   0.07     0.01   0.05  -0.02    -0.00   0.01   0.05
  95   6    -0.00   0.02   0.06    -0.00   0.05  -0.01     0.00   0.01  -0.00
  96   6    -0.00   0.02   0.07    -0.01   0.05  -0.02     0.00   0.00  -0.05
  97   6    -0.00   0.02   0.07    -0.02   0.05  -0.01     0.00  -0.01  -0.11
  98   6    -0.00   0.02   0.09    -0.02   0.05  -0.02     0.00  -0.01  -0.15
  99   6    -0.00   0.02   0.10    -0.02   0.06  -0.02     0.00  -0.01  -0.11
 100   7    -0.00   0.02   0.09    -0.01   0.06  -0.02     0.00   0.00  -0.06
 101   6    -0.00   0.03   0.11    -0.02   0.07  -0.02     0.00  -0.01  -0.14
 102   6    -0.00   0.03   0.11    -0.02   0.08  -0.02     0.00  -0.01  -0.11
 103   6    -0.00   0.03   0.11    -0.02   0.08  -0.02     0.00  -0.01  -0.14
 104   6    -0.00   0.03   0.10    -0.02   0.09  -0.02     0.00  -0.00  -0.10
 105   6    -0.00   0.03   0.09    -0.01   0.09  -0.02     0.00   0.00  -0.05
 106   7    -0.00   0.03   0.10    -0.01   0.08  -0.02     0.00   0.00  -0.06
 107   6    -0.00   0.03   0.08    -0.00   0.09  -0.03    -0.00   0.01   0.00
 108   6     0.00   0.03   0.09     0.01   0.09  -0.03    -0.00   0.01   0.05
 109   6     0.00   0.03   0.09     0.02   0.09  -0.03    -0.00   0.02   0.10
 110   6     0.00   0.03   0.11     0.02   0.08  -0.03    -0.00   0.02   0.14
 111   6     0.00   0.03   0.11     0.02   0.08  -0.03    -0.00   0.02   0.12
 112   7     0.00   0.03   0.10     0.01   0.08  -0.03    -0.00   0.01   0.06
 113   6     0.00   0.03   0.11     0.02   0.07  -0.03    -0.00   0.02   0.14
 114   6     0.00   0.02   0.10     0.02   0.06  -0.02    -0.00   0.02   0.12
 115   7     0.00   0.02   0.09     0.01   0.06  -0.02    -0.00   0.02   0.06
 116   1     0.00   0.01   0.03     0.01   0.01  -0.01    -0.00   0.01   0.06
 117   1     0.00   0.00   0.02     0.00   0.01  -0.00    -0.00   0.01   0.03
 118   1    -0.00   0.00   0.02    -0.01   0.01  -0.00     0.00  -0.00  -0.03
 119   1    -0.00   0.01   0.03    -0.01   0.02  -0.00     0.00  -0.00  -0.06
 120   1    -0.00   0.01   0.04    -0.01   0.02  -0.01     0.00  -0.00  -0.05
 121   1    -0.00   0.01   0.04    -0.01   0.02  -0.01     0.00  -0.00  -0.05
 122   1    -0.00   0.01   0.03    -0.00   0.03  -0.01     0.00  -0.00  -0.03
 123   1     0.00   0.01   0.03     0.00   0.03  -0.01    -0.00   0.00   0.03
 124   1     0.00   0.01   0.03     0.01   0.02  -0.01    -0.00   0.01   0.05
 125   1     0.00   0.01   0.04     0.01   0.02  -0.01    -0.00   0.01   0.05
 126  28    -0.00   0.03   0.13    -0.00   0.16  -0.03    -0.00  -0.01   0.01
 127   6    -0.00   0.02   0.07    -0.02   0.09  -0.02    -0.00  -0.01  -0.05
 128   6    -0.00   0.02   0.07    -0.02   0.09  -0.02    -0.00  -0.01  -0.04
 129   6    -0.00   0.02   0.06    -0.01   0.09  -0.02    -0.00  -0.00  -0.02
 130   6    -0.00   0.02   0.06    -0.00   0.09  -0.02    -0.00  -0.00   0.00
 131   6     0.00   0.02   0.06     0.01   0.09  -0.02     0.00   0.00   0.02
 132   6     0.00   0.02   0.06     0.01   0.09  -0.02     0.00   0.00   0.05
 133   6     0.00   0.02   0.07     0.02   0.09  -0.02     0.00   0.01   0.07
 134   6     0.00   0.02   0.07     0.02   0.08  -0.02     0.00   0.00   0.05
 135   7     0.00   0.02   0.07     0.01   0.09  -0.02     0.00  -0.00   0.03
 136   6     0.00   0.02   0.07     0.02   0.07  -0.01     0.00   0.00   0.07
 137   6     0.00   0.01   0.06     0.02   0.07  -0.01     0.00   0.00   0.06
 138   6     0.00   0.01   0.05     0.02   0.06  -0.01     0.00   0.00   0.07
 139   6     0.00   0.01   0.04     0.01   0.05  -0.01     0.00  -0.00   0.05
 140   6     0.00   0.01   0.04     0.01   0.06  -0.01     0.00  -0.00   0.03
 141   7     0.00   0.01   0.05     0.01   0.07  -0.01     0.00  -0.00   0.03
 142   6    -0.00   0.01   0.03    -0.00   0.05  -0.01    -0.00  -0.01   0.00
 143   6    -0.00   0.01   0.04    -0.01   0.06  -0.01    -0.00  -0.01  -0.02
 144   6    -0.00   0.01   0.04    -0.02   0.05  -0.01    -0.00  -0.01  -0.05
 145   6    -0.00   0.01   0.05    -0.02   0.06  -0.01    -0.00  -0.01  -0.06
 146   6    -0.00   0.01   0.06    -0.02   0.07  -0.01    -0.00  -0.01  -0.05
 147   7    -0.00   0.01   0.06    -0.01   0.07  -0.01    -0.00  -0.01  -0.02
 148   6    -0.00   0.02   0.07    -0.02   0.07  -0.01    -0.00  -0.01  -0.06
 149   6    -0.00   0.02   0.07    -0.02   0.08  -0.02    -0.00  -0.01  -0.04
 150   7    -0.00   0.02   0.07    -0.01   0.09  -0.02    -0.00  -0.01  -0.02
 151   1    -0.00   0.01   0.02    -0.01   0.03  -0.00    -0.00  -0.00  -0.02
 152   1    -0.00   0.01   0.02    -0.00   0.03  -0.01    -0.00  -0.00  -0.01
 153   1     0.00   0.01   0.02     0.00   0.03  -0.01     0.00   0.00   0.01
 154   1     0.00   0.01   0.02     0.01   0.03  -0.00     0.00   0.00   0.02
 155   1     0.00   0.00   0.02     0.01   0.02  -0.00     0.00   0.00   0.03
 156   1     0.00   0.00   0.02     0.01   0.02  -0.00     0.00   0.00   0.03
 157   1     0.00   0.00   0.01     0.00   0.01  -0.00     0.00  -0.00   0.02
 158   1    -0.00   0.00   0.01    -0.00   0.01  -0.00    -0.00  -0.00  -0.02
 159   1    -0.00   0.00   0.02    -0.01   0.02  -0.00    -0.00  -0.00  -0.02
 160   1    -0.00   0.01   0.02    -0.01   0.02  -0.00    -0.00  -0.00  -0.02
                      7                      8                      9
                        a                      a                      a 
 Frequencies --     4.0781                 4.1609                 4.6197
 Red. masses --    11.2383                15.5865                11.2556
 Frc consts  --     0.0000                 0.0000                 0.0000
 IR Inten    --     0.0635                 0.5517                 0.0040
 Raman Activ --     0.0000                 0.0000                 0.0000
 Depolar     --     0.0000                 0.0000                 0.0000
 Atom AN      X      Y      Z        X      Y      Z        X      Y      Z
   1  28     0.00  -0.00  -0.00     0.00  -0.08   0.02     0.00  -0.01   0.00
   2   6     0.00   0.00   0.15     0.08   0.02   0.00     0.01  -0.00  -0.15
   3   6     0.00   0.00   0.11     0.06   0.04  -0.00     0.00   0.00  -0.11
   4   6     0.00   0.00   0.05     0.03   0.02   0.00     0.00   0.00  -0.05
   5   6     0.00   0.00   0.00     0.00   0.04  -0.00     0.00   0.00   0.00
   6   6    -0.00   0.00  -0.05    -0.03   0.02   0.00    -0.00   0.00   0.05
   7   6    -0.00   0.00  -0.10    -0.05   0.04   0.00    -0.00   0.00   0.11
   8   6    -0.00   0.00  -0.14    -0.07   0.02   0.01    -0.01   0.00   0.15
   9   6    -0.00   0.00  -0.12    -0.06  -0.01   0.01    -0.00  -0.00   0.12
  10   7    -0.00   0.00  -0.06    -0.03  -0.01   0.01    -0.00  -0.00   0.07
  11   6    -0.00  -0.00  -0.14    -0.07  -0.04   0.01    -0.01  -0.00   0.15
  12   6    -0.00  -0.00  -0.12    -0.06  -0.06   0.01    -0.00  -0.01   0.13
  13   6    -0.00  -0.00  -0.15    -0.07  -0.09   0.02    -0.01  -0.01   0.16
  14   6    -0.00  -0.00  -0.11    -0.05  -0.11   0.02    -0.00  -0.01   0.12
  15   6    -0.00  -0.00  -0.06    -0.02  -0.10   0.01    -0.00  -0.01   0.06
  16   7    -0.00  -0.00  -0.07    -0.03  -0.07   0.01    -0.00  -0.01   0.07
  17   6     0.00  -0.01  -0.00     0.00  -0.11   0.01     0.00  -0.01   0.01
  18   6     0.00  -0.00   0.05     0.03  -0.10   0.01     0.00  -0.01  -0.05
  19   6     0.00  -0.01   0.10     0.06  -0.11   0.01     0.00  -0.01  -0.11
  20   6     0.00  -0.00   0.15     0.08  -0.09   0.01     0.01  -0.01  -0.15
  21   6     0.00  -0.00   0.12     0.06  -0.06   0.01     0.01  -0.00  -0.12
  22   7     0.00  -0.00   0.06     0.03  -0.07   0.01     0.00  -0.00  -0.06
  23   6     0.00  -0.00   0.15     0.08  -0.04   0.01     0.01  -0.00  -0.15
  24   6     0.00   0.00   0.12     0.06  -0.01   0.01     0.01  -0.00  -0.12
  25   7     0.00   0.00   0.06     0.03  -0.01   0.00     0.00  -0.00  -0.06
  26   1     0.00   0.00   0.06     0.03   0.01   0.00     0.00  -0.00  -0.06
  27   1     0.00   0.00   0.03     0.02   0.02  -0.00     0.00   0.00  -0.03
  28   1    -0.00   0.00  -0.03    -0.02   0.02  -0.00    -0.00   0.00   0.03
  29   1    -0.00   0.00  -0.05    -0.03   0.01   0.00    -0.00   0.00   0.06
  30   1    -0.00   0.00  -0.05    -0.03  -0.01   0.00    -0.00  -0.00   0.06
  31   1    -0.00  -0.00  -0.06    -0.03  -0.03   0.01    -0.00  -0.00   0.06
  32   1    -0.00  -0.00  -0.03    -0.02  -0.04   0.01    -0.00  -0.00   0.04
  33   1     0.00  -0.00  -0.00     0.00  -0.04   0.00     0.00  -0.00   0.00
  34   1     0.00  -0.00   0.03     0.02  -0.04   0.00     0.00  -0.00  -0.03
  35   1     0.00  -0.00   0.06     0.03  -0.03   0.00     0.00  -0.00  -0.06
  36   1     0.00   0.00   0.06     0.03  -0.01   0.00     0.00  -0.00  -0.06
  37  28    -0.00   0.00  -0.00    -0.00   0.07  -0.01    -0.00   0.01   0.00
  38   6    -0.00   0.02  -0.10    -0.07  -0.02  -0.01    -0.01   0.01  -0.08
  39   6    -0.00   0.01  -0.07    -0.05  -0.04  -0.01    -0.00   0.01  -0.06
  40   6    -0.00   0.01  -0.04    -0.03  -0.03  -0.00    -0.00   0.00  -0.03
  41   6    -0.00  -0.00   0.00    -0.00  -0.04   0.00    -0.00  -0.00   0.00
  42   6     0.00  -0.01   0.04     0.02  -0.03  -0.00     0.00  -0.01   0.03
  43   6     0.00  -0.01   0.08     0.05  -0.04   0.00     0.00  -0.01   0.06
  44   6     0.00  -0.02   0.11     0.07  -0.02  -0.00     0.01  -0.02   0.08
  45   6     0.00  -0.01   0.09     0.06   0.01  -0.01     0.00  -0.01   0.07
  46   7     0.00  -0.01   0.05     0.03   0.00  -0.00     0.00  -0.01   0.04
  47   6     0.00  -0.02   0.11     0.07   0.03  -0.01     0.01  -0.01   0.08
  48   6     0.00  -0.01   0.09     0.06   0.06  -0.01     0.00  -0.01   0.07
  49   6     0.00  -0.02   0.11     0.07   0.09  -0.00     0.01  -0.01   0.09
  50   6     0.00  -0.01   0.08     0.05   0.11  -0.00     0.00  -0.00   0.06
  51   6     0.00  -0.00   0.04     0.02   0.09  -0.00     0.00   0.00   0.03
  52   7     0.00  -0.01   0.05     0.03   0.07  -0.00     0.00  -0.00   0.04
  53   6    -0.00   0.00  -0.00    -0.00   0.11  -0.00    -0.00   0.01   0.00
  54   6    -0.00   0.01  -0.04    -0.03   0.09  -0.00    -0.00   0.01  -0.03
  55   6    -0.00   0.02  -0.08    -0.05   0.11  -0.01    -0.00   0.02  -0.06
  56   6    -0.00   0.02  -0.11    -0.07   0.09  -0.01    -0.01   0.02  -0.08
  57   6    -0.00   0.02  -0.09    -0.06   0.06  -0.01    -0.00   0.02  -0.07
  58   7    -0.00   0.01  -0.05    -0.03   0.07  -0.01    -0.00   0.01  -0.04
  59   6    -0.00   0.02  -0.11    -0.07   0.04  -0.02    -0.01   0.02  -0.08
  60   6    -0.00   0.02  -0.08    -0.06   0.01  -0.01    -0.00   0.01  -0.06
  61   7    -0.00   0.01  -0.05    -0.03   0.00  -0.01    -0.00   0.01  -0.03
  62   1    -0.00   0.01  -0.04    -0.03  -0.01  -0.00    -0.00   0.01  -0.03
  63   1    -0.00   0.00  -0.02    -0.02  -0.02  -0.00    -0.00   0.00  -0.02
  64   1     0.00  -0.00   0.02     0.02  -0.02   0.00     0.00  -0.00   0.02
  65   1     0.00  -0.01   0.04     0.03  -0.01  -0.00     0.00  -0.01   0.03
  66   1     0.00  -0.01   0.04     0.03   0.01  -0.00     0.00  -0.00   0.03
  67   1     0.00  -0.01   0.04     0.03   0.03  -0.00     0.00  -0.00   0.03
  68   1     0.00  -0.00   0.02     0.02   0.04   0.00     0.00  -0.00   0.02
  69   1    -0.00   0.00  -0.00    -0.00   0.04   0.00    -0.00   0.00   0.00
  70   1    -0.00   0.01  -0.03    -0.02   0.04  -0.00    -0.00   0.01  -0.02
  71   1    -0.00   0.01  -0.04    -0.03   0.03  -0.00    -0.00   0.01  -0.03
  72   1    -0.00   0.01  -0.04    -0.03   0.01  -0.01    -0.00   0.01  -0.03
  73   6    -0.00   0.00  -0.00     0.00   0.07  -0.01     0.00   0.01  -0.00
  74   6    -0.00   0.00  -0.00     0.00   0.09  -0.01     0.00   0.01  -0.00
  75   6    -0.00   0.00  -0.00     0.00   0.11  -0.01     0.00   0.01  -0.00
  76   6    -0.00   0.00  -0.00     0.00   0.12  -0.01     0.00   0.01  -0.00
  77   6    -0.00   0.00  -0.00     0.00   0.12  -0.02     0.00   0.01  -0.00
  78   6    -0.00   0.00   0.00     0.00   0.12  -0.02     0.00   0.01  -0.00
  79   6    -0.00  -0.00  -0.00     0.00   0.04  -0.01    -0.00   0.00  -0.00
  80   6    -0.00  -0.00  -0.00     0.00   0.03  -0.01    -0.00   0.00  -0.00
  81   6    -0.00  -0.00  -0.00     0.00   0.01  -0.00    -0.00   0.00  -0.00
  82   6    -0.00  -0.00  -0.00     0.00  -0.01  -0.00    -0.00  -0.00  -0.00
  83   6    -0.00  -0.00  -0.00    -0.00  -0.02   0.00    -0.00  -0.00  -0.00
  84   6    -0.00  -0.00  -0.00    -0.00  -0.04   0.01    -0.00  -0.00  -0.00
  85   6     0.00  -0.00   0.00    -0.00  -0.12   0.01    -0.00  -0.01   0.00
  86   6     0.00  -0.00   0.00    -0.00  -0.12   0.01    -0.00  -0.01   0.00
  87   6     0.00  -0.00   0.00    -0.00  -0.12   0.01    -0.00  -0.01   0.00
  88   6     0.00  -0.00   0.00    -0.00  -0.11   0.01    -0.00  -0.01   0.00
  89   6    -0.00  -0.00   0.00    -0.00  -0.09   0.01    -0.00  -0.01   0.00
  90   6    -0.00  -0.00   0.00    -0.00  -0.07   0.00    -0.00  -0.01   0.00
  91  28    -0.00   0.01   0.00     0.00   0.19  -0.04     0.00   0.01  -0.00
  92   6    -0.00  -0.00  -0.05    -0.03   0.10  -0.04    -0.00   0.03   0.18
  93   6    -0.00  -0.00  -0.03    -0.02   0.11  -0.03    -0.00   0.03   0.13
  94   6    -0.00   0.00  -0.02    -0.01   0.11  -0.03    -0.00   0.02   0.06
  95   6    -0.00   0.00   0.00     0.00   0.11  -0.02     0.00   0.01  -0.00
  96   6     0.00   0.01   0.02     0.01   0.11  -0.01     0.00  -0.00  -0.07
  97   6     0.00   0.01   0.04     0.02   0.11  -0.00     0.00  -0.01  -0.13
  98   6     0.00   0.01   0.05     0.03   0.11   0.00     0.00  -0.02  -0.18
  99   6     0.00   0.01   0.05     0.02   0.10   0.00     0.00  -0.01  -0.15
 100   7     0.00   0.01   0.03     0.01   0.10  -0.01     0.00  -0.00  -0.08
 101   6     0.00   0.01   0.06     0.03   0.09   0.00     0.00  -0.02  -0.18
 102   6     0.00   0.01   0.05     0.02   0.08   0.00     0.00  -0.01  -0.15
 103   6     0.00   0.01   0.06     0.03   0.07   0.01     0.00  -0.02  -0.18
 104   6     0.00   0.01   0.05     0.02   0.06   0.00     0.00  -0.01  -0.13
 105   6     0.00   0.00   0.02     0.01   0.06  -0.01     0.00  -0.00  -0.07
 106   7     0.00   0.00   0.03     0.01   0.08  -0.01     0.00  -0.00  -0.08
 107   6    -0.00   0.00   0.00     0.00   0.06  -0.01    -0.00   0.00  -0.00
 108   6    -0.00  -0.00  -0.02    -0.01   0.06  -0.02    -0.00   0.01   0.06
 109   6    -0.00  -0.00  -0.04    -0.02   0.05  -0.03    -0.00   0.02   0.13
 110   6    -0.00  -0.01  -0.06    -0.03   0.06  -0.04    -0.00   0.02   0.18
 111   6    -0.00  -0.00  -0.04    -0.02   0.07  -0.03    -0.00   0.02   0.14
 112   7    -0.00  -0.00  -0.02    -0.01   0.08  -0.03    -0.00   0.01   0.08
 113   6    -0.00  -0.00  -0.05    -0.03   0.08  -0.04    -0.00   0.03   0.18
 114   6    -0.00  -0.00  -0.04    -0.02   0.09  -0.04    -0.00   0.02   0.14
 115   7    -0.00   0.00  -0.02    -0.01   0.10  -0.03    -0.00   0.02   0.08
 116   1    -0.00  -0.00  -0.02    -0.01   0.03  -0.01    -0.00   0.01   0.07
 117   1    -0.00  -0.00  -0.01    -0.01   0.03  -0.01    -0.00   0.01   0.04
 118   1     0.00   0.00   0.01     0.01   0.04  -0.00     0.00  -0.00  -0.04
 119   1     0.00   0.00   0.02     0.01   0.03   0.00     0.00  -0.01  -0.07
 120   1     0.00   0.00   0.02     0.01   0.03   0.00     0.00  -0.01  -0.07
 121   1     0.00   0.00   0.02     0.01   0.02   0.00     0.00  -0.01  -0.07
 122   1     0.00   0.00   0.01     0.01   0.01   0.00     0.00  -0.00  -0.04
 123   1    -0.00  -0.00  -0.01    -0.01   0.01  -0.01    -0.00   0.01   0.04
 124   1    -0.00  -0.00  -0.02    -0.01   0.02  -0.01    -0.00   0.01   0.07
 125   1    -0.00  -0.00  -0.02    -0.01   0.02  -0.01    -0.00   0.01   0.07
 126  28     0.00  -0.01  -0.00    -0.00  -0.18   0.03     0.00  -0.01  -0.00
 127   6    -0.00  -0.03  -0.20    -0.03  -0.06   0.03    -0.00  -0.02  -0.11
 128   6    -0.00  -0.02  -0.15    -0.02  -0.05   0.02    -0.00  -0.01  -0.08
 129   6    -0.00  -0.01  -0.07    -0.01  -0.06   0.02    -0.00  -0.01  -0.04
 130   6    -0.00  -0.00  -0.00    -0.00  -0.05   0.01    -0.00  -0.00  -0.00
 131   6     0.00   0.01   0.07     0.01  -0.06   0.00     0.00   0.00   0.04
 132   6     0.00   0.02   0.14     0.02  -0.05  -0.00     0.00   0.01   0.08
 133   6     0.00   0.02   0.20     0.03  -0.06  -0.01     0.00   0.01   0.11
 134   6     0.00   0.02   0.16     0.02  -0.07  -0.00     0.00   0.01   0.09
 135   7     0.00   0.01   0.09     0.01  -0.08   0.01     0.00   0.00   0.05
 136   6     0.00   0.02   0.20     0.03  -0.08  -0.00     0.00   0.01   0.11
 137   6     0.00   0.01   0.16     0.02  -0.09   0.00     0.00   0.00   0.09
 138   6     0.00   0.02   0.20     0.03  -0.11  -0.00     0.00   0.00   0.12
 139   6     0.00   0.01   0.14     0.02  -0.11   0.00     0.00   0.00   0.09
 140   6     0.00   0.00   0.07     0.01  -0.11   0.01     0.00  -0.00   0.04
 141   7     0.00   0.01   0.09     0.01  -0.10   0.01     0.00  -0.00   0.05
 142   6     0.00  -0.00   0.00    -0.00  -0.11   0.02    -0.00  -0.01   0.00
 143   6    -0.00  -0.01  -0.07    -0.01  -0.11   0.02    -0.00  -0.01  -0.04
 144   6    -0.00  -0.02  -0.14    -0.02  -0.11   0.03    -0.00  -0.02  -0.08
 145   6    -0.00  -0.02  -0.20    -0.03  -0.10   0.04    -0.00  -0.02  -0.12
 146   6    -0.00  -0.02  -0.16    -0.02  -0.09   0.03    -0.00  -0.02  -0.09
 147   7    -0.00  -0.01  -0.09    -0.01  -0.10   0.03    -0.00  -0.01  -0.05
 148   6    -0.00  -0.03  -0.20    -0.03  -0.08   0.04    -0.00  -0.02  -0.11
 149   6    -0.00  -0.02  -0.16    -0.02  -0.07   0.03    -0.00  -0.02  -0.09
 150   7    -0.00  -0.01  -0.09    -0.01  -0.07   0.02    -0.00  -0.01  -0.05
 151   1    -0.00  -0.01  -0.08    -0.01  -0.02   0.01    -0.00  -0.01  -0.04
 152   1    -0.00  -0.01  -0.04    -0.01  -0.01   0.01    -0.00  -0.00  -0.02
 153   1     0.00   0.01   0.04     0.01  -0.01  -0.00     0.00   0.00   0.02
 154   1     0.00   0.01   0.08     0.01  -0.02  -0.00     0.00   0.00   0.04
 155   1     0.00   0.01   0.07     0.01  -0.02  -0.00     0.00   0.00   0.04
 156   1     0.00   0.01   0.08     0.01  -0.03  -0.00     0.00   0.00   0.04
 157   1     0.00   0.00   0.04     0.01  -0.04   0.00     0.00  -0.00   0.03
 158   1    -0.00  -0.01  -0.04    -0.01  -0.03   0.01    -0.00  -0.00  -0.03
 159   1    -0.00  -0.01  -0.08    -0.01  -0.03   0.01    -0.00  -0.01  -0.04
 160   1    -0.00  -0.01  -0.08    -0.01  -0.02   0.01    -0.00  -0.01  -0.04
                     10                     11                     12
                        a                      a                      a 
 Frequencies --     7.7110                 9.5264                11.3104
 Red. masses --    11.5659                11.8312                12.0804
 Frc consts  --     0.0000                 0.0000                 0.0000
 IR Inten    --     0.6108                 8.1810                 4.5362
 Raman Activ --     0.0000                 0.0000                 0.0000
 Depolar     --     0.0000                 0.0000                 0.0000
 Atom AN      X      Y      Z        X      Y      Z        X      Y      Z
   1  28    -0.00   0.01  -0.00    -0.00  -0.00   0.01     0.00   0.01  -0.04
   2   6    -0.08  -0.06   0.00     0.00   0.00   0.01     0.03   0.02  -0.03
   3   6    -0.06  -0.08   0.00     0.00   0.00  -0.02     0.02   0.03   0.03
   4   6    -0.03  -0.07   0.00     0.00   0.00  -0.02     0.01   0.02   0.04
   5   6     0.00  -0.08   0.00    -0.00   0.00  -0.03     0.00   0.03   0.07
   6   6     0.03  -0.06   0.00    -0.00   0.00  -0.02    -0.01   0.02   0.04
   7   6     0.06  -0.08   0.00    -0.00   0.00  -0.02    -0.02   0.03   0.03
   8   6     0.08  -0.06  -0.00    -0.00   0.00   0.01    -0.02   0.02  -0.03
   9   6     0.07  -0.03  -0.00    -0.00   0.00   0.02    -0.02   0.01  -0.05
  10   7     0.04  -0.03  -0.00    -0.00   0.00   0.00    -0.01   0.02  -0.01
  11   6     0.08   0.00  -0.00    -0.00  -0.00   0.03    -0.02   0.00  -0.09
  12   6     0.07   0.03  -0.00    -0.00  -0.00   0.03    -0.02  -0.00  -0.07
  13   6     0.08   0.06  -0.00    -0.00  -0.00   0.03    -0.02  -0.01  -0.07
  14   6     0.06   0.09  -0.00    -0.00  -0.01   0.01    -0.02  -0.02  -0.02
  15   6     0.03   0.07  -0.00    -0.00  -0.00   0.00    -0.01  -0.02  -0.00
  16   7     0.04   0.04  -0.00    -0.00  -0.00   0.01    -0.01  -0.01  -0.03
  17   6    -0.00   0.09  -0.00     0.00  -0.00  -0.00     0.00  -0.02   0.02
  18   6    -0.03   0.07  -0.00     0.00  -0.00   0.00     0.01  -0.02  -0.00
  19   6    -0.06   0.09  -0.00     0.00  -0.01   0.01     0.02  -0.02  -0.02
  20   6    -0.08   0.06  -0.00     0.00  -0.00   0.03     0.03  -0.01  -0.06
  21   6    -0.07   0.03  -0.00     0.00  -0.00   0.03     0.02  -0.00  -0.07
  22   7    -0.04   0.04  -0.00     0.00  -0.00   0.01     0.01  -0.01  -0.03
  23   6    -0.08   0.00  -0.00     0.00  -0.00   0.03     0.03   0.00  -0.08
  24   6    -0.07  -0.03   0.00     0.00   0.00   0.02     0.02   0.01  -0.05
  25   7    -0.04  -0.03   0.00     0.00   0.00   0.00     0.01   0.02  -0.01
  26   1    -0.03  -0.02   0.00     0.00   0.00   0.00     0.01   0.01  -0.02
  27   1    -0.02  -0.03   0.00     0.00   0.00  -0.01     0.01   0.01   0.02
  28   1     0.02  -0.03   0.00    -0.00   0.00  -0.01    -0.01   0.01   0.02
  29   1     0.03  -0.02  -0.00    -0.00   0.00   0.00    -0.01   0.01  -0.02
  30   1     0.03   0.00  -0.00    -0.00  -0.00   0.01    -0.01   0.00  -0.03
  31   1     0.03   0.02  -0.00    -0.00  -0.00   0.01    -0.01  -0.00  -0.03
  32   1     0.02   0.03  -0.00    -0.00  -0.00   0.00    -0.01  -0.01  -0.00
  33   1    -0.00   0.03  -0.00     0.00  -0.00  -0.00     0.00  -0.01   0.01
  34   1    -0.02   0.03  -0.00     0.00  -0.00   0.00     0.01  -0.01  -0.00
  35   1    -0.03   0.02  -0.00     0.00  -0.00   0.01     0.01  -0.00  -0.03
  36   1    -0.03   0.00  -0.00     0.00   0.00   0.01     0.01   0.00  -0.03
  37  28    -0.00   0.00   0.00    -0.00  -0.01   0.02    -0.00  -0.02   0.05
  38   6    -0.09  -0.06  -0.01    -0.01  -0.01   0.01    -0.04  -0.04   0.04
  39   6    -0.06  -0.08  -0.01    -0.00  -0.01  -0.02    -0.03  -0.03  -0.05
  40   6    -0.03  -0.07  -0.01    -0.00  -0.00  -0.02    -0.01  -0.02  -0.06
  41   6    -0.00  -0.08  -0.01    -0.00  -0.00  -0.04    -0.00  -0.02  -0.11
  42   6     0.03  -0.07  -0.01     0.00  -0.00  -0.02     0.01  -0.02  -0.06
  43   6     0.06  -0.08  -0.01     0.00  -0.01  -0.02     0.03  -0.03  -0.05
  44   6     0.08  -0.06  -0.01     0.01  -0.01   0.01     0.04  -0.04   0.04
  45   6     0.07  -0.03  -0.00     0.01  -0.01   0.02     0.03  -0.03   0.07
  46   7     0.04  -0.04  -0.00     0.00  -0.01   0.00     0.02  -0.02   0.01
  47   6     0.08   0.00   0.00     0.01  -0.01   0.04     0.04  -0.03   0.12
  48   6     0.07   0.03   0.01     0.01  -0.00   0.03     0.03  -0.01   0.10
  49   6     0.08   0.06   0.01     0.01  -0.00   0.03     0.04   0.01   0.10
  50   6     0.06   0.09   0.02     0.00   0.00   0.01     0.03   0.03   0.03
  51   6     0.03   0.07   0.01     0.00   0.00   0.00     0.01   0.03   0.00
  52   7     0.04   0.04   0.01     0.00  -0.00   0.02     0.02   0.00   0.05
  53   6    -0.00   0.09   0.01    -0.00   0.01  -0.01    -0.00   0.04  -0.03
  54   6    -0.03   0.07   0.01    -0.00   0.00   0.00    -0.02   0.03   0.00
  55   6    -0.06   0.09   0.01    -0.01   0.00   0.01    -0.03   0.03   0.03
  56   6    -0.09   0.06   0.01    -0.01  -0.00   0.03    -0.04   0.01   0.09
  57   6    -0.07   0.03   0.00    -0.01  -0.00   0.03    -0.03  -0.01   0.09
  58   7    -0.04   0.04   0.01    -0.00  -0.00   0.01    -0.02   0.00   0.04
  59   6    -0.09   0.00  -0.00    -0.01  -0.01   0.04    -0.04  -0.03   0.12
  60   6    -0.07  -0.03  -0.01    -0.01  -0.01   0.02    -0.03  -0.03   0.07
  61   7    -0.04  -0.04  -0.01    -0.00  -0.01   0.00    -0.02  -0.02   0.01
  62   1    -0.03  -0.02  -0.00    -0.00  -0.00   0.01    -0.01  -0.01   0.02
  63   1    -0.02  -0.03  -0.01    -0.00  -0.00  -0.01    -0.01  -0.01  -0.03
  64   1     0.02  -0.03  -0.00     0.00  -0.00  -0.01     0.01  -0.01  -0.03
  65   1     0.03  -0.02  -0.00     0.00  -0.00   0.01     0.01  -0.01   0.02
  66   1     0.03   0.00   0.00     0.00  -0.00   0.02     0.01  -0.01   0.05
  67   1     0.03   0.02   0.00     0.00  -0.00   0.01     0.01   0.00   0.04
  68   1     0.02   0.03   0.01     0.00   0.00   0.00     0.01   0.01   0.00
  69   1    -0.00   0.03   0.01    -0.00   0.00  -0.00    -0.00   0.02  -0.02
  70   1    -0.02   0.03   0.00    -0.00   0.00   0.00    -0.01   0.01   0.00
  71   1    -0.03   0.02   0.00    -0.00  -0.00   0.01    -0.01   0.00   0.04
  72   1    -0.03   0.00  -0.00    -0.00  -0.00   0.01    -0.01  -0.01   0.05
  73   6     0.00  -0.11   0.00    -0.00   0.01  -0.05     0.00   0.04   0.12
  74   6     0.00  -0.13   0.00    -0.00   0.01  -0.06     0.00   0.04   0.15
  75   6     0.00  -0.14   0.00    -0.00   0.01  -0.08     0.00   0.04   0.17
  76   6     0.00  -0.13   0.00    -0.00   0.01  -0.08     0.00   0.03   0.18
  77   6     0.00  -0.12   0.00    -0.00   0.00  -0.09     0.00   0.03   0.17
  78   6     0.00  -0.10   0.00    -0.00   0.00  -0.09     0.00   0.02   0.15
  79   6     0.00   0.12  -0.01     0.00   0.01   0.22    -0.00  -0.04  -0.05
  80   6     0.00   0.14  -0.01     0.00   0.02   0.26    -0.00  -0.04  -0.05
  81   6     0.00   0.15  -0.01     0.00   0.02   0.28    -0.00  -0.03  -0.04
  82   6     0.00   0.15  -0.01     0.00   0.02   0.29    -0.00  -0.02  -0.03
  83   6     0.00   0.14  -0.01     0.00   0.02   0.26    -0.00  -0.01  -0.02
  84   6     0.00   0.12  -0.00     0.00   0.02   0.22    -0.00  -0.00  -0.00
  85   6     0.00  -0.10  -0.02     0.00   0.00  -0.10     0.00   0.01  -0.20
  86   6    -0.00  -0.12  -0.02     0.00   0.00  -0.10    -0.00   0.00  -0.24
  87   6    -0.00  -0.14  -0.02     0.00   0.00  -0.10     0.00  -0.00  -0.26
  88   6    -0.00  -0.14  -0.02     0.00   0.00  -0.09     0.00  -0.01  -0.25
  89   6    -0.00  -0.13  -0.02     0.00   0.00  -0.08    -0.00  -0.02  -0.22
  90   6    -0.00  -0.11  -0.02     0.00  -0.00  -0.06    -0.00  -0.02  -0.18
  91  28     0.00   0.02   0.00     0.00  -0.01  -0.03    -0.00  -0.04  -0.01
  92   6     0.08  -0.05   0.00    -0.01  -0.01  -0.13    -0.01  -0.00   0.04
  93   6     0.06  -0.07   0.00    -0.01  -0.01  -0.12    -0.01   0.01   0.09
  94   6     0.03  -0.06   0.00    -0.00  -0.00  -0.09    -0.00   0.00   0.08
  95   6     0.00  -0.07   0.00    -0.00  -0.00  -0.08     0.00   0.01   0.11
  96   6    -0.03  -0.06   0.00     0.00  -0.00  -0.09     0.00   0.00   0.08
  97   6    -0.06  -0.07   0.00     0.01  -0.01  -0.12     0.01   0.01   0.09
  98   6    -0.08  -0.05   0.01     0.01  -0.01  -0.13     0.01  -0.00   0.04
  99   6    -0.06  -0.02   0.00     0.01  -0.01  -0.10     0.01  -0.01   0.01
 100   7    -0.03  -0.03   0.00     0.00  -0.01  -0.07     0.01  -0.01   0.03
 101   6    -0.08   0.01   0.00     0.01  -0.01  -0.07     0.01  -0.02  -0.04
 102   6    -0.06   0.04   0.00     0.01  -0.00  -0.00     0.01  -0.03  -0.06
 103   6    -0.08   0.07   0.00     0.01  -0.00   0.05     0.01  -0.03  -0.09
 104   6    -0.06   0.09  -0.00     0.00   0.01   0.13     0.01  -0.04  -0.08
 105   6    -0.03   0.07  -0.00     0.00   0.01   0.11     0.00  -0.03  -0.05
 106   7    -0.03   0.04  -0.00     0.00  -0.00   0.04     0.00  -0.03  -0.04
 107   6     0.00   0.09  -0.00     0.00   0.01   0.16    -0.00  -0.03  -0.05
 108   6     0.03   0.07  -0.00    -0.00   0.01   0.11    -0.00  -0.03  -0.05
 109   6     0.06   0.09  -0.00    -0.00   0.01   0.13    -0.01  -0.04  -0.08
 110   6     0.08   0.07  -0.00    -0.01  -0.00   0.05    -0.01  -0.03  -0.09
 111   6     0.06   0.04   0.00    -0.01  -0.00  -0.00    -0.01  -0.03  -0.06
 112   7     0.04   0.04  -0.00    -0.00  -0.00   0.04    -0.01  -0.03  -0.04
 113   6     0.08   0.01   0.00    -0.01  -0.01  -0.07    -0.01  -0.02  -0.04
 114   6     0.06  -0.02   0.00    -0.01  -0.01  -0.09    -0.01  -0.01   0.00
 115   7     0.04  -0.03   0.00    -0.00  -0.01  -0.07    -0.01  -0.01   0.03
 116   1     0.03  -0.02   0.00    -0.00  -0.00  -0.05    -0.00  -0.00   0.01
 117   1     0.02  -0.03   0.00    -0.00  -0.00  -0.04    -0.00   0.00   0.04
 118   1    -0.02  -0.03   0.00     0.00  -0.00  -0.04     0.00   0.00   0.04
 119   1    -0.03  -0.02   0.00     0.00  -0.00  -0.05     0.00  -0.00   0.01
 120   1    -0.03   0.00   0.00     0.00  -0.00  -0.03     0.00  -0.01  -0.02
 121   1    -0.03   0.02   0.00     0.00  -0.00   0.01     0.00  -0.01  -0.03
 122   1    -0.02   0.03  -0.00     0.00   0.00   0.05     0.00  -0.01  -0.03
 123   1     0.02   0.03  -0.00    -0.00   0.00   0.05    -0.00  -0.01  -0.03
 124   1     0.03   0.02  -0.00    -0.00  -0.00   0.01    -0.00  -0.01  -0.03
 125   1     0.03   0.00   0.00    -0.00  -0.00  -0.03    -0.00  -0.01  -0.02
 126  28     0.00   0.02   0.01     0.00   0.01  -0.03    -0.00   0.04   0.04
 127   6    -0.08   0.07   0.01     0.01   0.00   0.06     0.01   0.02   0.12
 128   6    -0.06   0.09   0.00     0.01   0.01   0.13     0.01   0.02   0.08
 129   6    -0.03   0.07   0.00     0.00   0.01   0.12     0.00   0.01   0.04
 130   6     0.00   0.09  -0.00     0.00   0.01   0.16    -0.00   0.01   0.02
 131   6     0.03   0.07   0.00    -0.00   0.01   0.12    -0.01   0.01   0.04
 132   6     0.06   0.09   0.01    -0.01   0.01   0.13    -0.01   0.01   0.07
 133   6     0.08   0.07   0.01    -0.01   0.00   0.06    -0.01   0.02   0.11
 134   6     0.06   0.04   0.01    -0.01   0.00   0.00    -0.01   0.03   0.10
 135   7     0.04   0.05   0.01    -0.00   0.00   0.04    -0.01   0.02   0.06
 136   6     0.08   0.01   0.01    -0.01  -0.00  -0.07    -0.01   0.03   0.10
 137   6     0.06  -0.02   0.01    -0.01  -0.00  -0.09    -0.01   0.03   0.03
 138   6     0.08  -0.05   0.00    -0.01  -0.00  -0.13    -0.01   0.03  -0.01
 139   6     0.06  -0.07  -0.00    -0.01  -0.00  -0.13    -0.01   0.02  -0.09
 140   6     0.03  -0.06  -0.01    -0.00   0.00  -0.09    -0.00   0.02  -0.09
 141   7     0.04  -0.03   0.00    -0.00  -0.00  -0.07    -0.00   0.02  -0.02
 142   6     0.00  -0.07  -0.01     0.00   0.00  -0.09    -0.00   0.02  -0.14
 143   6    -0.03  -0.06  -0.01     0.00   0.00  -0.09     0.00   0.02  -0.09
 144   6    -0.06  -0.07  -0.01     0.01  -0.00  -0.13     0.01   0.02  -0.09
 145   6    -0.08  -0.05   0.00     0.01  -0.01  -0.14     0.01   0.03  -0.01
 146   6    -0.06  -0.02   0.01     0.01  -0.00  -0.10     0.01   0.03   0.03
 147   7    -0.03  -0.03   0.00     0.00  -0.00  -0.08     0.00   0.02  -0.02
 148   6    -0.08   0.01   0.01     0.01  -0.00  -0.07     0.01   0.03   0.10
 149   6    -0.06   0.04   0.01     0.01   0.00   0.00     0.01   0.03   0.10
 150   7    -0.03   0.05   0.01     0.00   0.00   0.04     0.01   0.02   0.06
 151   1    -0.03   0.02   0.00     0.00   0.00   0.01     0.00   0.01   0.04
 152   1    -0.02   0.03   0.00     0.00   0.00   0.06     0.00   0.00   0.02
 153   1     0.02   0.03   0.00    -0.00   0.00   0.06    -0.00   0.00   0.02
 154   1     0.03   0.02   0.00    -0.00   0.00   0.01    -0.01   0.01   0.04
 155   1     0.03   0.00   0.00    -0.00  -0.00  -0.03    -0.00   0.01   0.04
 156   1     0.03  -0.01   0.00    -0.00  -0.00  -0.05    -0.00   0.01   0.01
 157   1     0.02  -0.03  -0.00    -0.00  -0.00  -0.04    -0.00   0.01  -0.04
 158   1    -0.02  -0.03  -0.00     0.00  -0.00  -0.04     0.00   0.01  -0.04
 159   1    -0.03  -0.01   0.00     0.00  -0.00  -0.05     0.00   0.01   0.01
 160   1    -0.03   0.00   0.00     0.00  -0.00  -0.03     0.00   0.01   0.04
                     13                     14                     15
                        a                      a                      a 
 Frequencies --    12.2722                17.2920                22.7719
 Red. masses --    12.0418                14.5956                10.9314
 Frc consts  --     0.0000                 0.0000                 0.0000
 IR Inten    --     4.7419                 1.5846                 0.0038
 Raman Activ --     0.0000                 0.0000                 0.0000
 Depolar     --     0.0000                 0.0000                 0.0000
 Atom AN      X      Y      Z        X      Y      Z        X      Y      Z
   1  28     0.00  -0.00  -0.05    -0.00  -0.05  -0.00    -0.00  -0.00   0.00
   2   6     0.01   0.00  -0.04    -0.09  -0.09  -0.00    -0.00  -0.00  -0.01
   3   6     0.01   0.01   0.05    -0.06  -0.11   0.01    -0.00  -0.00  -0.01
   4   6     0.00   0.00   0.07    -0.03  -0.09   0.01    -0.00  -0.00  -0.01
   5   6     0.00   0.01   0.12     0.00  -0.11   0.02    -0.00  -0.00   0.00
   6   6    -0.00   0.00   0.07     0.03  -0.09   0.01    -0.00  -0.00   0.01
   7   6    -0.00   0.01   0.05     0.06  -0.11   0.01     0.00  -0.00   0.01
   8   6    -0.00   0.00  -0.04     0.09  -0.09  -0.00     0.00  -0.00   0.01
   9   6    -0.00   0.00  -0.07     0.07  -0.05  -0.01     0.00  -0.00   0.00
  10   7    -0.00   0.00  -0.01     0.04  -0.06   0.00     0.00  -0.00   0.00
  11   6    -0.00   0.00  -0.13     0.09  -0.02  -0.01     0.00  -0.00  -0.00
  12   6    -0.00  -0.00  -0.10     0.07   0.01  -0.01     0.00  -0.00  -0.01
  13   6    -0.00  -0.00  -0.10     0.09   0.04  -0.01     0.00   0.00  -0.02
  14   6    -0.00  -0.01  -0.03     0.06   0.06  -0.00     0.00   0.00  -0.02
  15   6    -0.00  -0.01   0.00     0.03   0.05   0.00     0.00   0.00  -0.01
  16   7    -0.00  -0.00  -0.05     0.04   0.01  -0.00     0.00   0.00  -0.00
  17   6    -0.00  -0.01   0.04    -0.00   0.06   0.01    -0.00   0.00   0.00
  18   6     0.00  -0.01   0.00    -0.03   0.05   0.00    -0.00   0.00   0.01
  19   6     0.01  -0.01  -0.02    -0.06   0.06  -0.00    -0.00   0.00   0.02
  20   6     0.01  -0.01  -0.10    -0.09   0.04  -0.01    -0.00   0.00   0.02
  21   6     0.01  -0.00  -0.10    -0.07   0.01  -0.01    -0.00   0.00   0.01
  22   7     0.00  -0.00  -0.04    -0.04   0.01  -0.00    -0.00  -0.00   0.00
  23   6     0.01  -0.00  -0.13    -0.09  -0.02  -0.01    -0.00  -0.00   0.00
  24   6     0.01   0.00  -0.07    -0.07  -0.06  -0.01    -0.00  -0.00  -0.01
  25   7     0.00   0.00  -0.01    -0.04  -0.06   0.00    -0.00  -0.00  -0.00
  26   1     0.00   0.00  -0.02    -0.03  -0.03  -0.00    -0.00  -0.00  -0.00
  27   1     0.00   0.00   0.03    -0.02  -0.04   0.00    -0.00  -0.00  -0.01
  28   1    -0.00   0.00   0.03     0.02  -0.04   0.00     0.00  -0.00   0.01
  29   1    -0.00   0.00  -0.02     0.03  -0.03  -0.00     0.00  -0.00   0.00
  30   1    -0.00   0.00  -0.05     0.03  -0.01  -0.01     0.00  -0.00  -0.00
  31   1    -0.00  -0.00  -0.04     0.03   0.01  -0.01     0.00   0.00  -0.01
  32   1    -0.00  -0.00   0.00     0.02   0.03  -0.00     0.00   0.00  -0.01
  33   1    -0.00  -0.00   0.02    -0.00   0.03   0.00    -0.00   0.00   0.00
  34   1     0.00  -0.00   0.00    -0.02   0.03   0.00    -0.00   0.00   0.01
  35   1     0.00  -0.00  -0.04    -0.03   0.01  -0.00    -0.00   0.00   0.01
  36   1     0.00  -0.00  -0.05    -0.03  -0.01  -0.01    -0.00  -0.00   0.00
  37  28    -0.00   0.01  -0.03     0.00   0.05   0.01    -0.00  -0.00  -0.00
  38   6     0.02   0.02  -0.02     0.08   0.07   0.02    -0.00  -0.00   0.01
  39   6     0.01   0.02   0.03     0.05   0.10  -0.01    -0.00  -0.00   0.01
  40   6     0.01   0.01   0.04     0.03   0.09  -0.01    -0.00  -0.00   0.01
  41   6    -0.00   0.01   0.07    -0.00   0.10  -0.03    -0.00  -0.00   0.00
  42   6    -0.01   0.01   0.04    -0.03   0.09  -0.01    -0.00   0.00  -0.01
  43   6    -0.01   0.02   0.03    -0.05   0.10  -0.01    -0.00   0.00  -0.01
  44   6    -0.02   0.02  -0.02    -0.08   0.07   0.02    -0.00   0.00  -0.01
  45   6    -0.02   0.02  -0.04    -0.06   0.04   0.03    -0.00   0.00  -0.01
  46   7    -0.01   0.01  -0.00    -0.03   0.06   0.01    -0.00   0.00  -0.00
  47   6    -0.02   0.02  -0.08    -0.07   0.01   0.05    -0.00  -0.00   0.00
  48   6    -0.02   0.01  -0.06    -0.06  -0.01   0.03    -0.00  -0.00   0.01
  49   6    -0.02  -0.00  -0.06    -0.07  -0.04   0.02    -0.00  -0.00   0.01
  50   6    -0.01  -0.01  -0.02    -0.05  -0.06  -0.01    -0.00  -0.00   0.01
  51   6    -0.01  -0.01   0.00    -0.03  -0.04  -0.01    -0.00  -0.00   0.01
  52   7    -0.01  -0.00  -0.03    -0.03  -0.01   0.01    -0.00  -0.00   0.00
  53   6     0.00  -0.02   0.02     0.00  -0.05  -0.03    -0.00  -0.00   0.00
  54   6     0.01  -0.01   0.00     0.03  -0.04  -0.01    -0.00   0.00  -0.01
  55   6     0.01  -0.01  -0.01     0.05  -0.05  -0.01    -0.00   0.00  -0.01
  56   6     0.02  -0.00  -0.06     0.08  -0.04   0.02    -0.00   0.00  -0.02
  57   6     0.01   0.01  -0.06     0.06  -0.01   0.03    -0.00   0.00  -0.01
  58   7     0.01  -0.00  -0.03     0.03  -0.01   0.01    -0.00   0.00  -0.00
  59   6     0.02   0.02  -0.08     0.08   0.01   0.05    -0.00   0.00  -0.00
  60   6     0.01   0.02  -0.04     0.06   0.04   0.03    -0.00  -0.00   0.00
  61   7     0.01   0.01  -0.00     0.03   0.06   0.01    -0.00  -0.00   0.00
  62   1     0.01   0.01  -0.01     0.03   0.02   0.01    -0.00  -0.00   0.00
  63   1     0.00   0.00   0.02     0.02   0.04  -0.01    -0.00  -0.00   0.01
  64   1    -0.00   0.00   0.02    -0.02   0.04  -0.01    -0.00   0.00  -0.00
  65   1    -0.01   0.01  -0.01    -0.03   0.02   0.01    -0.00   0.00  -0.00
  66   1    -0.01   0.01  -0.03    -0.03   0.00   0.02    -0.00  -0.00   0.00
  67   1    -0.01   0.00  -0.03    -0.03  -0.01   0.01    -0.00  -0.00   0.01
  68   1    -0.00  -0.01  -0.00    -0.02  -0.02  -0.01    -0.00  -0.00   0.01
  69   1     0.00  -0.01   0.01     0.00  -0.02  -0.01    -0.00  -0.00   0.00
  70   1     0.00  -0.01   0.00     0.02  -0.02  -0.01    -0.00   0.00  -0.01
  71   1     0.01   0.00  -0.02     0.03  -0.01   0.01    -0.00   0.00  -0.01
  72   1     0.01   0.01  -0.03     0.03   0.00   0.02    -0.00   0.00  -0.00
  73   6     0.00   0.01   0.19     0.00  -0.14   0.02    -0.00  -0.00   0.00
  74   6     0.00   0.01   0.23     0.00  -0.12   0.03    -0.00  -0.00   0.00
  75   6     0.00   0.01   0.26     0.00  -0.10   0.03    -0.00  -0.00   0.00
  76   6     0.00   0.01   0.26     0.00  -0.05   0.03    -0.00   0.00   0.00
  77   6     0.00   0.01   0.24     0.00  -0.01   0.03    -0.00   0.00   0.00
  78   6     0.00   0.00   0.20     0.00   0.03   0.02    -0.00   0.00  -0.00
  79   6    -0.00   0.03   0.09     0.00   0.11  -0.03     0.00  -0.00   0.00
  80   6    -0.00   0.04   0.12     0.00   0.07  -0.02     0.00  -0.00   0.00
  81   6    -0.00   0.04   0.14    -0.00   0.02  -0.01     0.00  -0.00  -0.00
  82   6    -0.00   0.04   0.15    -0.00  -0.04   0.00     0.00  -0.00  -0.00
  83   6    -0.00   0.04   0.13    -0.00  -0.08   0.01     0.00  -0.00  -0.00
  84   6    -0.00   0.03   0.10    -0.00  -0.12   0.02     0.00   0.00  -0.00
  85   6    -0.00  -0.01   0.11    -0.00  -0.02  -0.06    -0.00  -0.00   0.00
  86   6    -0.00  -0.01   0.14    -0.00   0.02  -0.07    -0.00  -0.00   0.00
  87   6    -0.00  -0.01   0.16    -0.00   0.06  -0.08    -0.00  -0.00   0.00
  88   6    -0.00  -0.00   0.16    -0.00   0.10  -0.07    -0.00  -0.00   0.00
  89   6    -0.00   0.00   0.14    -0.00   0.12  -0.06    -0.00  -0.00   0.00
  90   6    -0.00   0.01   0.11    -0.00   0.13  -0.05    -0.00  -0.00   0.00
  91  28    -0.00  -0.00  -0.06     0.00   0.17  -0.02     0.01   0.00   0.00
  92   6     0.02  -0.02  -0.04     0.03   0.06   0.01    -0.00  -0.03  -0.22
  93   6     0.01  -0.01   0.06     0.02   0.05   0.01    -0.00  -0.03  -0.22
  94   6     0.01  -0.00   0.07     0.01   0.05   0.01    -0.00  -0.01  -0.10
  95   6     0.00   0.00   0.13     0.00   0.05   0.01    -0.00   0.00  -0.00
  96   6    -0.01  -0.00   0.07    -0.01   0.05   0.01     0.00   0.01   0.10
  97   6    -0.01  -0.01   0.06    -0.02   0.05   0.01     0.00   0.03   0.22
  98   6    -0.02  -0.02  -0.05    -0.03   0.06   0.01     0.00   0.03   0.22
  99   6    -0.01  -0.01  -0.08    -0.03   0.07  -0.00     0.00   0.01   0.10
 100   7    -0.01  -0.01  -0.01    -0.01   0.07  -0.00     0.00   0.01   0.06
 101   6    -0.02  -0.02  -0.14    -0.03   0.08  -0.01     0.00   0.00   0.00
 102   6    -0.01  -0.01  -0.11    -0.02   0.09  -0.02     0.00  -0.01  -0.10
 103   6    -0.02   0.00  -0.11    -0.03   0.10  -0.03     0.00  -0.02  -0.22
 104   6    -0.01   0.01  -0.04    -0.02   0.11  -0.03     0.00  -0.02  -0.22
 105   6    -0.01   0.01  -0.00    -0.01   0.10  -0.03     0.00  -0.01  -0.10
 106   7    -0.01   0.00  -0.05    -0.01   0.10  -0.02     0.00  -0.01  -0.05
 107   6    -0.00   0.02   0.04     0.00   0.11  -0.03     0.00  -0.00   0.00
 108   6     0.01   0.01  -0.00     0.01   0.10  -0.03     0.00   0.01   0.10
 109   6     0.01   0.01  -0.03     0.02   0.11  -0.03     0.00   0.02   0.22
 110   6     0.02   0.00  -0.11     0.03   0.10  -0.03     0.00   0.02   0.22
 111   6     0.01  -0.01  -0.11     0.02   0.09  -0.02     0.00   0.01   0.10
 112   7     0.01   0.00  -0.05     0.01   0.10  -0.02     0.00   0.01   0.06
 113   6     0.02  -0.02  -0.14     0.03   0.08  -0.01     0.00  -0.00  -0.00
 114   6     0.01  -0.01  -0.08     0.03   0.07  -0.00    -0.00  -0.01  -0.10
 115   7     0.01  -0.01  -0.01     0.01   0.07  -0.00     0.00  -0.01  -0.06
 116   1     0.01  -0.01  -0.03     0.01   0.02   0.00    -0.00  -0.01  -0.08
 117   1     0.00  -0.00   0.03     0.01   0.01   0.01    -0.00  -0.01  -0.08
 118   1    -0.00  -0.00   0.03    -0.01   0.01   0.01     0.00   0.01   0.08
 119   1    -0.01  -0.01  -0.03    -0.01   0.02   0.00     0.00   0.01   0.08
 120   1    -0.01  -0.01  -0.06    -0.01   0.02  -0.00     0.00   0.00   0.00
 121   1    -0.01  -0.00  -0.05    -0.01   0.03  -0.01     0.00  -0.01  -0.08
 122   1    -0.00   0.01  -0.00    -0.01   0.03  -0.01     0.00  -0.01  -0.08
 123   1     0.00   0.01  -0.00     0.01   0.03  -0.01     0.00   0.01   0.08
 124   1     0.01  -0.00  -0.05     0.01   0.03  -0.01     0.00   0.01   0.08
 125   1     0.01  -0.01  -0.06     0.01   0.02  -0.00     0.00  -0.00  -0.00
 126  28    -0.00  -0.02  -0.04    -0.00  -0.16   0.02    -0.00   0.00  -0.00
 127   6    -0.02  -0.00  -0.06     0.04  -0.10   0.05     0.00   0.03   0.20
 128   6    -0.01   0.01   0.01     0.03  -0.11   0.04     0.00   0.03   0.20
 129   6    -0.01   0.01   0.02     0.01  -0.11   0.03     0.00   0.01   0.09
 130   6    -0.00   0.02   0.06    -0.00  -0.11   0.02     0.00   0.00  -0.00
 131   6     0.00   0.01   0.03    -0.01  -0.11   0.03     0.00  -0.01  -0.09
 132   6     0.01   0.01   0.01    -0.03  -0.11   0.04     0.00  -0.03  -0.20
 133   6     0.01  -0.00  -0.06    -0.04  -0.10   0.05     0.00  -0.03  -0.20
 134   6     0.01  -0.01  -0.07    -0.03  -0.09   0.04     0.00  -0.01  -0.09
 135   7     0.01  -0.00  -0.02    -0.02  -0.10   0.03     0.00  -0.01  -0.05
 136   6     0.01  -0.02  -0.11    -0.04  -0.07   0.03    -0.00  -0.00   0.00
 137   6     0.01  -0.02  -0.07    -0.03  -0.06   0.01    -0.00   0.01   0.09
 138   6     0.01  -0.02  -0.06    -0.04  -0.04  -0.01    -0.00   0.02   0.20
 139   6     0.01  -0.02   0.01    -0.03  -0.04  -0.03    -0.00   0.02   0.20
 140   6     0.00  -0.02   0.03    -0.02  -0.04  -0.03    -0.00   0.01   0.09
 141   7     0.01  -0.02  -0.02    -0.02  -0.06  -0.00    -0.00   0.01   0.05
 142   6    -0.00  -0.01   0.07    -0.00  -0.04  -0.04    -0.00   0.00   0.00
 143   6    -0.01  -0.02   0.03     0.01  -0.04  -0.03    -0.00  -0.01  -0.09
 144   6    -0.01  -0.02   0.01     0.03  -0.04  -0.03    -0.00  -0.02  -0.20
 145   6    -0.01  -0.02  -0.06     0.04  -0.04  -0.01    -0.00  -0.02  -0.20
 146   6    -0.01  -0.02  -0.07     0.03  -0.06   0.01    -0.00  -0.01  -0.09
 147   7    -0.01  -0.02  -0.02     0.02  -0.06  -0.00    -0.00  -0.01  -0.05
 148   6    -0.02  -0.02  -0.11     0.04  -0.07   0.03    -0.00   0.00  -0.00
 149   6    -0.01  -0.01  -0.07     0.03  -0.09   0.04     0.00   0.01   0.09
 150   7    -0.01  -0.00  -0.02     0.02  -0.10   0.03     0.00   0.01   0.05
 151   1    -0.01  -0.00  -0.03     0.02  -0.03   0.02     0.00   0.01   0.07
 152   1    -0.00   0.00   0.01     0.01  -0.04   0.01     0.00   0.01   0.07
 153   1     0.00   0.00   0.01    -0.01  -0.04   0.01     0.00  -0.01  -0.07
 154   1     0.01  -0.00  -0.03    -0.02  -0.03   0.02     0.00  -0.01  -0.07
 155   1     0.01  -0.01  -0.04    -0.02  -0.02   0.01    -0.00  -0.00   0.00
 156   1     0.01  -0.01  -0.03    -0.02  -0.01   0.00    -0.00   0.01   0.08
 157   1     0.00  -0.01   0.01    -0.01  -0.01  -0.01    -0.00   0.01   0.08
 158   1    -0.00  -0.01   0.01     0.01  -0.01  -0.01    -0.00  -0.01  -0.08
 159   1    -0.01  -0.01  -0.03     0.02  -0.01   0.00    -0.00  -0.01  -0.08
 160   1    -0.01  -0.01  -0.04     0.02  -0.02   0.01    -0.00   0.00  -0.00
                     16                     17                     18
                        a                      a                      a 
 Frequencies --    23.2501                23.9051                25.1848
 Red. masses --    10.9404                12.5521                10.9395
 Frc consts  --     0.0000                 0.0000                 0.0000
 IR Inten    --     2.0855                 0.5730                 5.9214
 Raman Activ --     0.0000                 0.0000                 0.0000
 Depolar     --     0.0000                 0.0000                 0.0000
 Atom AN      X      Y      Z        X      Y      Z        X      Y      Z
   1  28     0.01   0.00  -0.00     0.00  -0.06   0.00    -0.00   0.00  -0.00
   2   6     0.01   0.00   0.01    -0.08  -0.09  -0.01     0.00   0.00  -0.00
   3   6     0.01   0.00   0.01    -0.06  -0.11   0.00     0.00   0.00  -0.00
   4   6     0.00   0.00   0.01    -0.03  -0.10   0.01     0.00   0.00  -0.00
   5   6     0.00   0.00  -0.00     0.00  -0.11   0.02    -0.00   0.00   0.00
   6   6     0.00   0.00  -0.01     0.03  -0.10   0.02    -0.00   0.00   0.00
   7   6     0.00   0.00  -0.01     0.06  -0.11   0.02    -0.00   0.00   0.00
   8   6     0.00   0.00  -0.01     0.08  -0.09   0.01    -0.00   0.00   0.00
   9   6     0.00   0.00  -0.01     0.07  -0.06  -0.00    -0.00   0.00  -0.00
  10   7     0.00   0.00  -0.00     0.04  -0.07   0.00    -0.00   0.00  -0.00
  11   6     0.00   0.00   0.00     0.08  -0.03  -0.01    -0.00   0.00  -0.00
  12   6     0.00   0.00   0.01     0.07   0.00  -0.01    -0.00  -0.00  -0.00
  13   6     0.00  -0.00   0.02     0.08   0.03  -0.02    -0.00  -0.00  -0.00
  14   6     0.00  -0.00   0.02     0.06   0.06  -0.01    -0.00  -0.00  -0.00
  15   6     0.00  -0.00   0.01     0.03   0.04  -0.00    -0.00  -0.00  -0.00
  16   7     0.00  -0.00   0.01     0.04   0.01  -0.00    -0.00  -0.00  -0.00
  17   6     0.00  -0.00  -0.00    -0.00   0.06   0.01    -0.00  -0.00  -0.00
  18   6     0.00  -0.00  -0.01    -0.03   0.04   0.01     0.00  -0.00   0.00
[...]
  74   6    -0.00   0.00   0.00     0.00  -0.00  -0.00    -0.00   0.00  -0.00
  75   6     0.00  -0.00   0.00    -0.00  -0.00  -0.00     0.00   0.00   0.00
  76   6    -0.00   0.00  -0.00     0.00  -0.00   0.00    -0.00   0.00  -0.00
  77   6    -0.00   0.00  -0.00    -0.00  -0.00   0.00     0.00   0.00  -0.00
  78   6     0.00  -0.00   0.00    -0.00   0.00  -0.00     0.00  -0.00   0.00
  79   6     0.00  -0.00   0.00     0.00   0.00  -0.00     0.00   0.00  -0.00
  80   6    -0.00   0.00  -0.00    -0.00  -0.00   0.00     0.00  -0.00   0.00
  81   6     0.00   0.00  -0.00     0.00  -0.00   0.00    -0.00   0.00  -0.00
  82   6    -0.00   0.00  -0.00    -0.00  -0.00   0.00     0.00  -0.00   0.00
  83   6     0.00   0.00  -0.00    -0.00  -0.00   0.00     0.00  -0.00   0.00
  84   6     0.00  -0.00   0.00    -0.00   0.00  -0.00     0.00   0.00  -0.00
  85   6     0.00  -0.00   0.00     0.00   0.00  -0.00     0.00   0.00  -0.00
  86   6     0.00   0.00  -0.00     0.00  -0.00   0.00     0.00  -0.00   0.00
  87   6    -0.00   0.00  -0.00    -0.00  -0.00   0.00    -0.00  -0.00   0.00
  88   6     0.00  -0.00  -0.00     0.00  -0.00  -0.00     0.00   0.00  -0.00
  89   6    -0.00  -0.00  -0.00    -0.00  -0.00  -0.00    -0.00  -0.00  -0.00
  90   6    -0.00   0.00   0.00    -0.00   0.00   0.00    -0.00   0.00   0.00
  91  28     0.00   0.00  -0.00     0.00  -0.00   0.00    -0.00   0.00  -0.00
  92   6    -0.00  -0.07   0.01     0.00   0.00  -0.00     0.00   0.09  -0.01
  93   6    -0.09  -0.01   0.00     0.00   0.00  -0.00     0.12   0.01  -0.00
  94   6    -0.00   0.00  -0.00     0.00  -0.00   0.00     0.00  -0.00   0.00
  95   6    -0.00  -0.00   0.00    -0.00   0.00  -0.00     0.00  -0.00   0.00
  96   6     0.00   0.00  -0.00    -0.00  -0.00   0.00     0.00   0.00  -0.00
  97   6     0.08  -0.01   0.00    -0.02   0.00  -0.00     0.14  -0.01   0.00
  98   6     0.00  -0.06   0.01    -0.00   0.01  -0.00     0.01  -0.11   0.01
  99   6    -0.00  -0.00   0.00     0.00   0.00  -0.00    -0.00  -0.00   0.00
 100   7    -0.00   0.00  -0.00     0.00  -0.00   0.00    -0.00   0.00  -0.00
 101   6    -0.00  -0.00   0.00    -0.00   0.00  -0.00     0.00  -0.00   0.00
 102   6     0.00  -0.00   0.00    -0.00   0.00  -0.00    -0.00   0.00  -0.00
 103   6    -0.00  -0.08   0.01     0.00   0.01  -0.00     0.00   0.04  -0.00
 104   6    -0.10  -0.01  -0.00     0.01   0.00   0.00     0.06   0.00   0.00
 105   6    -0.00   0.00  -0.00     0.00  -0.00   0.00     0.00  -0.00   0.00
 106   7     0.00   0.00  -0.00    -0.00  -0.00   0.00    -0.00  -0.00   0.00
 107   6    -0.00  -0.00   0.00    -0.00   0.00  -0.00     0.00   0.00  -0.00
 108   6     0.00   0.00  -0.00    -0.00  -0.00   0.00     0.00   0.00  -0.00
 109   6     0.10  -0.01  -0.00    -0.02   0.00   0.00     0.06  -0.00   0.00
 110   6     0.00  -0.08   0.01    -0.00   0.01  -0.00     0.00  -0.04   0.00
 111   6    -0.00  -0.00   0.00     0.00   0.00  -0.00    -0.00  -0.00   0.00
 112   7    -0.00   0.00  -0.00     0.00  -0.00   0.00    -0.00   0.00  -0.00
 113   6     0.00  -0.00   0.00    -0.00   0.00  -0.00     0.00   0.00  -0.00
 114   6     0.00  -0.00   0.00    -0.00   0.00  -0.00    -0.00   0.00  -0.00
 115   7     0.00   0.00  -0.00    -0.00  -0.00   0.00    -0.00  -0.00   0.00
 116   1     0.02   0.23  -0.03    -0.00  -0.00   0.00    -0.03  -0.28   0.03
 117   1     0.31   0.03  -0.01    -0.00  -0.00   0.00    -0.39  -0.04   0.01
 118   1    -0.25   0.03  -0.00     0.06  -0.01   0.00    -0.44   0.05  -0.01
 119   1    -0.02   0.20  -0.03     0.00  -0.05   0.01    -0.03   0.34  -0.04
 120   1    -0.00   0.01  -0.00    -0.00  -0.00   0.00     0.00   0.00  -0.00
 121   1     0.03   0.25  -0.03    -0.00  -0.02   0.00    -0.01  -0.14   0.02
 122   1     0.33   0.04  -0.00    -0.02  -0.00   0.00    -0.19  -0.02   0.00
 123   1    -0.31   0.03  -0.00     0.05  -0.01   0.00    -0.19   0.02  -0.00
 124   1    -0.02   0.24  -0.03     0.00  -0.04   0.00    -0.01   0.14  -0.01
 125   1     0.00   0.01  -0.00    -0.00  -0.00   0.00     0.00  -0.00   0.00
 126  28    -0.00   0.00  -0.00     0.00  -0.00   0.00    -0.00  -0.00   0.00
 127   6    -0.00  -0.01   0.00     0.00   0.01  -0.00     0.00   0.02  -0.00
 128   6    -0.01  -0.00   0.00     0.01   0.00  -0.00     0.02   0.00  -0.00
 129   6    -0.00   0.00  -0.00     0.00  -0.00   0.00     0.00  -0.00   0.00
 130   6    -0.00  -0.00   0.00     0.00   0.00  -0.00    -0.00   0.00  -0.00
 131   6     0.00   0.00  -0.00    -0.00  -0.00   0.00    -0.00  -0.00   0.00
 132   6     0.04  -0.00   0.00    -0.01   0.00  -0.00    -0.01   0.00  -0.00
 133   6     0.00  -0.03   0.00    -0.00   0.01  -0.00    -0.00   0.01  -0.00
 134   6    -0.00  -0.00   0.00     0.00   0.00  -0.00     0.00  -0.00   0.00
 135   7    -0.00   0.00  -0.00     0.00  -0.00   0.00     0.00  -0.00   0.00
 136   6     0.00  -0.00   0.00     0.00   0.00  -0.00     0.00   0.00  -0.00
 137   6     0.00   0.00   0.00    -0.00   0.00  -0.00    -0.00   0.00  -0.00
 138   6    -0.00  -0.00   0.00     0.00   0.02  -0.00     0.00   0.09  -0.01
 139   6    -0.01  -0.00  -0.00     0.02   0.00   0.00     0.11   0.01   0.00
 140   6    -0.00   0.00  -0.00     0.00  -0.00   0.00     0.00  -0.00   0.00
 141   7     0.00   0.00  -0.00    -0.00  -0.00   0.00    -0.00  -0.00   0.00
 142   6    -0.00  -0.00   0.00    -0.00   0.00  -0.00     0.00   0.00  -0.00
 143   6     0.00   0.00  -0.00    -0.00  -0.00   0.00     0.00   0.00  -0.00
 144   6     0.02  -0.00  -0.00    -0.01   0.00   0.00     0.03  -0.00  -0.00
 145   6     0.00  -0.02   0.00    -0.00   0.01  -0.00     0.00  -0.02   0.00
 146   6    -0.00  -0.00   0.00     0.00   0.00  -0.00    -0.00  -0.00   0.00
 147   7    -0.00   0.00  -0.00     0.00  -0.00   0.00    -0.00   0.00  -0.00
 148   6     0.00  -0.00   0.00     0.00   0.00  -0.00     0.00   0.00  -0.00
 149   6     0.00  -0.00  -0.00    -0.00   0.00  -0.00    -0.00   0.00  -0.00
 150   7     0.00   0.00  -0.00    -0.00  -0.00   0.00    -0.00  -0.00   0.00
 151   1     0.00   0.03  -0.00    -0.00  -0.02   0.00    -0.01  -0.06   0.01
 152   1     0.05   0.00  -0.00    -0.02  -0.00   0.00    -0.08  -0.01   0.00
 153   1    -0.14   0.02  -0.00     0.05  -0.01   0.00     0.05  -0.01   0.00
 154   1    -0.01   0.11  -0.01     0.00  -0.04   0.00     0.00  -0.04   0.00
 155   1     0.00   0.00  -0.00    -0.00  -0.00   0.00     0.00  -0.01   0.00
 156   1     0.00   0.02  -0.00    -0.01  -0.05   0.01    -0.03  -0.27   0.03
 157   1     0.02   0.00   0.00    -0.07  -0.01  -0.00    -0.37  -0.04  -0.00
 158   1    -0.07   0.01  -0.00     0.03  -0.00   0.00    -0.10   0.01  -0.00
 159   1    -0.01   0.05  -0.01     0.00  -0.02   0.00    -0.01   0.07  -0.01
 160   1     0.00   0.00  -0.00    -0.00  -0.00   0.00     0.00  -0.00   0.00
                    472                    473                    474
                        a                      a                      a 
 Frequencies --  3170.1205              3170.2089              3170.2769
 Red. masses --     1.9739                 1.9742                 1.9736
 Frc consts  --     0.0000                 0.0000                 0.0000
 IR Inten    --     2.0509                 2.8669                20.3025
 Raman Activ --     0.0000                 0.0000                 0.0000
 Depolar     --     0.0000                 0.0000                 0.0000
 Atom AN      X      Y      Z        X      Y      Z        X      Y      Z
   1  28     0.00   0.00   0.00    -0.00  -0.00   0.00     0.00   0.00   0.00
   2   6    -0.00   0.00  -0.00     0.00  -0.01   0.00    -0.00   0.01  -0.00
   3   6    -0.00   0.00  -0.00     0.01  -0.00   0.00    -0.01   0.00  -0.00
   4   6    -0.00  -0.00   0.00     0.00   0.00  -0.00    -0.00  -0.00   0.00
   5   6    -0.00   0.00  -0.00     0.00  -0.00  -0.00    -0.00   0.00  -0.00
   6   6    -0.00   0.00  -0.00     0.00  -0.00   0.00    -0.00   0.00  -0.00
   7   6    -0.00  -0.00   0.00     0.01   0.00  -0.00    -0.01  -0.00   0.00
   8   6    -0.00  -0.00  -0.00     0.00   0.01   0.00    -0.00  -0.01  -0.00
   9   6     0.00  -0.00  -0.00    -0.00   0.00  -0.00     0.00  -0.00  -0.00
  10   7     0.00   0.00  -0.00    -0.00  -0.00  -0.00     0.00   0.00  -0.00
  11   6     0.00   0.00   0.00    -0.00   0.00   0.00    -0.00  -0.00  -0.00
  12   6     0.00   0.00   0.00     0.00   0.00   0.00     0.00   0.00   0.00
  13   6    -0.00   0.00   0.00     0.00  -0.00  -0.00    -0.00   0.00   0.00
  14   6    -0.00   0.00  -0.00     0.00  -0.00   0.00    -0.00   0.00  -0.00
  15   6    -0.00  -0.00  -0.00     0.00  -0.00  -0.00    -0.00  -0.00  -0.00
  16   7     0.00  -0.00   0.00    -0.00  -0.00  -0.00     0.00  -0.00   0.00
  17   6    -0.00  -0.00  -0.00     0.00  -0.00   0.00    -0.00  -0.00  -0.00
  18   6    -0.00   0.00  -0.00     0.00   0.00   0.00    -0.00   0.00  -0.00
  19   6    -0.00  -0.00  -0.00     0.00   0.00   0.00    -0.00  -0.00  -0.00
  20   6    -0.00  -0.00   0.00     0.00   0.00   0.00    -0.00  -0.00   0.00
  21   6     0.00  -0.00   0.00     0.00  -0.00   0.00     0.00  -0.00   0.00
  22   7     0.00   0.00   0.00    -0.00   0.00  -0.00     0.00   0.00   0.00
  23   6     0.00  -0.00   0.00    -0.00  -0.00   0.00    -0.00   0.00  -0.00
  24   6     0.00   0.00   0.00    -0.00  -0.00  -0.00     0.00   0.00   0.00
  25   7     0.00  -0.00   0.00    -0.00   0.00  -0.00     0.00  -0.00   0.00
  26   1     0.00  -0.01   0.00    -0.00   0.02  -0.00     0.00  -0.03   0.00
  27   1     0.01  -0.00   0.00    -0.02   0.00  -0.00     0.04  -0.00   0.00
  28   1     0.01   0.00  -0.00    -0.02  -0.00   0.00     0.04   0.00  -0.00
  29   1     0.00   0.01   0.00    -0.00  -0.02  -0.00     0.00   0.03   0.00
  30   1    -0.00  -0.00  -0.00     0.00  -0.00  -0.00    -0.00   0.00   0.00
  31   1     0.00  -0.01  -0.00    -0.00   0.00  -0.00     0.00  -0.00  -0.00
  32   1     0.01  -0.00   0.00    -0.00   0.00  -0.00     0.00  -0.00   0.00
  33   1     0.00   0.00   0.00    -0.00  -0.00  -0.00     0.00   0.00   0.00
  34   1     0.01   0.00   0.00    -0.00  -0.00  -0.00     0.00   0.00   0.00
  35   1     0.00   0.01   0.00    -0.00  -0.00   0.00     0.00   0.00   0.00
  36   1    -0.00   0.00  -0.00     0.00   0.00  -0.00    -0.00  -0.00   0.00
  37  28     0.00   0.00  -0.00     0.00   0.00   0.00    -0.00  -0.00   0.00
  38   6    -0.00   0.01   0.00    -0.00   0.01   0.00     0.00  -0.00  -0.00
  39   6    -0.01   0.00   0.00    -0.01   0.00   0.00     0.00  -0.00  -0.00
  40   6    -0.00  -0.00  -0.00    -0.00  -0.00  -0.00     0.00   0.00   0.00
  41   6    -0.00  -0.00  -0.00    -0.00  -0.00  -0.00    -0.00   0.00   0.00
  42   6    -0.00   0.00   0.00    -0.00   0.00   0.00     0.00  -0.00  -0.00
  43   6    -0.01  -0.00  -0.00    -0.01  -0.00  -0.00     0.01   0.00   0.00
  44   6    -0.00  -0.01  -0.00    -0.00  -0.01  -0.00     0.00   0.00   0.00
  45   6     0.00  -0.00  -0.00     0.00  -0.00  -0.00    -0.00   0.00   0.00
  46   7     0.00   0.00   0.00     0.00   0.00   0.00    -0.00  -0.00  -0.00
  47   6    -0.00  -0.00  -0.00     0.00  -0.00  -0.00     0.00   0.00   0.00
  48   6    -0.00   0.00   0.00    -0.00  -0.00   0.00     0.00   0.00   0.00
  49   6     0.00  -0.00  -0.00    -0.00   0.00   0.00    -0.00   0.00   0.00
  50   6     0.00   0.00  -0.00    -0.00   0.00   0.00    -0.00   0.00   0.00
  51   6    -0.00   0.00   0.00    -0.00  -0.00   0.00    -0.00  -0.00  -0.00
  52   7     0.00   0.00   0.00     0.00   0.00   0.00     0.00  -0.00  -0.00
  53   6    -0.00  -0.00   0.00    -0.00  -0.00   0.00    -0.00   0.00   0.00
  54   6    -0.00  -0.00  -0.00    -0.00   0.00  -0.00    -0.00   0.00   0.00
  55   6     0.00  -0.00   0.00    -0.00  -0.00   0.00    -0.00  -0.00   0.00
  56   6     0.00   0.00   0.00    -0.00  -0.00  -0.00    -0.00  -0.00  -0.00
  57   6    -0.00  -0.00  -0.00    -0.00   0.00  -0.00     0.00  -0.00  -0.00
  58   7     0.00  -0.00  -0.00     0.00  -0.00  -0.00     0.00   0.00   0.00
  59   6    -0.00   0.00   0.00     0.00   0.00   0.00     0.00  -0.00  -0.00
  60   6     0.00   0.00   0.00     0.00   0.00   0.00    -0.00  -0.00  -0.00
  61   7     0.00  -0.00  -0.00     0.00  -0.00  -0.00    -0.00   0.00   0.00
  62   1     0.00  -0.02  -0.00     0.00  -0.03  -0.01    -0.00   0.01   0.00
  63   1     0.02  -0.00  -0.00     0.04  -0.00  -0.00    -0.01   0.00   0.00
  64   1     0.03   0.00   0.00     0.05   0.01   0.00    -0.02  -0.00  -0.00
  65   1     0.00   0.02   0.00     0.00   0.03   0.01    -0.00  -0.01  -0.00
  66   1    -0.00   0.00   0.00    -0.00   0.00   0.00     0.00  -0.00  -0.00
  67   1    -0.00   0.00   0.00     0.00  -0.00  -0.00     0.00  -0.01  -0.00
  68   1    -0.00   0.00   0.00     0.00  -0.00  -0.00     0.01  -0.00  -0.00
  69   1     0.00  -0.00  -0.00     0.00   0.00  -0.00     0.00   0.00  -0.00
  70   1    -0.00  -0.00  -0.00     0.00   0.00   0.00     0.01   0.00   0.00
  71   1    -0.00  -0.00  -0.00     0.00   0.00   0.00     0.00   0.01   0.00
  72   1    -0.00  -0.00  -0.00    -0.00  -0.00  -0.00    -0.00   0.00   0.00
  73   6    -0.00  -0.00   0.00     0.00  -0.00   0.00    -0.00  -0.00  -0.00
  74   6     0.00  -0.00  -0.00    -0.00  -0.00  -0.00     0.00   0.00   0.00
  75   6    -0.00   0.00   0.00     0.00   0.00   0.00    -0.00   0.00  -0.00
  76   6     0.00  -0.00   0.00    -0.00   0.00  -0.00     0.00  -0.00   0.00
  77   6    -0.00  -0.00   0.00     0.00   0.00  -0.00    -0.00  -0.00   0.00
  78   6     0.00   0.00  -0.00     0.00  -0.00   0.00    -0.00   0.00  -0.00
  79   6     0.00   0.00  -0.00     0.00  -0.00   0.00    -0.00   0.00  -0.00
  80   6     0.00  -0.00   0.00    -0.00   0.00  -0.00     0.00  -0.00   0.00
  81   6    -0.00  -0.00   0.00     0.00   0.00  -0.00     0.00   0.00  -0.00
  82   6     0.00   0.00  -0.00    -0.00  -0.00   0.00    -0.00  -0.00   0.00
  83   6    -0.00   0.00  -0.00     0.00  -0.00   0.00     0.00  -0.00   0.00
  84   6    -0.00  -0.00   0.00    -0.00   0.00  -0.00     0.00   0.00  -0.00
  85   6    -0.00  -0.00   0.00    -0.00  -0.00   0.00     0.00   0.00  -0.00
  86   6    -0.00   0.00  -0.00    -0.00   0.00  -0.00     0.00  -0.00   0.00
  87   6     0.00   0.00  -0.00     0.00   0.00  -0.00    -0.00  -0.00   0.00
  88   6    -0.00  -0.00  -0.00    -0.00  -0.00  -0.00     0.00   0.00   0.00
  89   6     0.00  -0.00   0.00     0.00  -0.00   0.00     0.00   0.00  -0.00
  90   6    -0.00  -0.00  -0.00    -0.00  -0.00  -0.00     0.00   0.00   0.00
  91  28    -0.00  -0.00   0.00    -0.00   0.00  -0.00     0.00  -0.00   0.00
  92   6    -0.00  -0.02   0.00     0.00   0.06  -0.01    -0.00  -0.03   0.00
  93   6    -0.03  -0.00   0.00     0.08   0.01  -0.00    -0.04  -0.00   0.00
  94   6    -0.00   0.00  -0.00     0.00  -0.00   0.00    -0.00   0.00  -0.00
  95   6    -0.00   0.00  -0.00     0.00  -0.00   0.00    -0.00   0.00  -0.00
  96   6    -0.00  -0.00   0.00     0.00   0.00  -0.00    -0.00  -0.00   0.00
  97   6    -0.03   0.00  -0.00     0.09  -0.01   0.00    -0.05   0.00  -0.00
  98   6    -0.00   0.03  -0.00     0.00  -0.07   0.01    -0.00   0.04  -0.01
  99   6     0.00   0.00   0.00    -0.00  -0.00   0.00     0.00   0.00  -0.00
 100   7     0.00  -0.00   0.00    -0.00   0.00  -0.00     0.00  -0.00   0.00
 101   6     0.00   0.00  -0.00     0.00  -0.00   0.00    -0.00   0.00  -0.00
 102   6    -0.00   0.00  -0.00     0.00  -0.00   0.00    -0.00   0.00  -0.00
 103   6     0.01   0.12  -0.01    -0.00  -0.02   0.00     0.00   0.03  -0.00
 104   6     0.15   0.01   0.00    -0.02  -0.00  -0.00     0.03   0.00   0.00
 105   6     0.00  -0.01   0.00    -0.00   0.00  -0.00     0.00  -0.00   0.00
 106   7    -0.00  -0.00   0.00     0.00   0.00  -0.00    -0.00  -0.00   0.00
 107   6     0.00   0.00  -0.00     0.00  -0.00   0.00     0.00   0.00  -0.00
 108   6     0.00   0.01  -0.00    -0.00  -0.00   0.00     0.00   0.00  -0.00
 109   6     0.15  -0.01   0.00    -0.02   0.00   0.00     0.02  -0.00  -0.00
 110   6     0.01  -0.11   0.01    -0.00   0.01  -0.00     0.00  -0.01   0.00
 111   6    -0.00  -0.00   0.00     0.00   0.00  -0.00    -0.00  -0.00   0.00
 112   7    -0.00   0.00  -0.00     0.00  -0.00   0.00    -0.00   0.00  -0.00
 113   6     0.00  -0.00   0.00     0.00   0.00  -0.00    -0.00  -0.00   0.00
 114   6     0.00  -0.00  -0.00    -0.00   0.00  -0.00     0.00  -0.00   0.00
 115   7     0.00   0.00  -0.00    -0.00  -0.00   0.00     0.00   0.00  -0.00
 116   1     0.01   0.07  -0.01    -0.02  -0.20   0.02     0.01   0.10  -0.01
 117   1     0.09   0.01  -0.00    -0.26  -0.03   0.01     0.13   0.01  -0.00
 118   1     0.10  -0.01   0.00    -0.29   0.03  -0.00     0.17  -0.02   0.00
 119   1     0.01  -0.08   0.01    -0.02   0.23  -0.03     0.01  -0.13   0.02
 120   1     0.00  -0.01   0.00     0.00   0.01  -0.00    -0.00  -0.01   0.00
 121   1    -0.04  -0.37   0.04     0.01   0.06  -0.01    -0.01  -0.08   0.01
 122   1    -0.50  -0.05   0.00     0.07   0.01  -0.00    -0.11  -0.01   0.00
 123   1    -0.48   0.05  -0.00     0.06  -0.01   0.00    -0.05   0.01  -0.00
 124   1    -0.04   0.36  -0.04     0.00  -0.05   0.00    -0.00   0.04  -0.00
 125   1     0.00   0.01  -0.00     0.00  -0.01   0.00    -0.00   0.00  -0.00
 126  28     0.00   0.00  -0.00     0.00   0.00  -0.00    -0.00  -0.00   0.00
 127   6    -0.00  -0.03   0.00     0.00   0.05  -0.01     0.01   0.15  -0.02
 128   6    -0.03  -0.00   0.00     0.07   0.00  -0.00     0.20   0.01  -0.00
 129   6    -0.00   0.00  -0.00     0.00  -0.00   0.00     0.00  -0.01   0.00
 130   6     0.00  -0.00   0.00     0.00   0.00  -0.00     0.00   0.00  -0.00
 131   6     0.00  -0.00   0.00     0.00   0.00  -0.00     0.00   0.00  -0.00
 132   6    -0.00   0.00  -0.00     0.04  -0.00   0.00     0.08  -0.01   0.00
 133   6    -0.00   0.00  -0.00     0.00  -0.04   0.00     0.00  -0.06   0.01
 134   6     0.00   0.00  -0.00    -0.00  -0.00  -0.00    -0.00  -0.00   0.00
 135   7     0.00  -0.00  -0.00    -0.00   0.00  -0.00    -0.00   0.00  -0.00
 136   6    -0.00  -0.00   0.00    -0.00  -0.00   0.00     0.00  -0.00   0.00
 137   6     0.00  -0.00   0.00     0.00  -0.00   0.00    -0.00   0.00  -0.00
 138   6    -0.00  -0.06   0.01    -0.01  -0.12   0.01     0.00   0.03  -0.00
 139   6    -0.07  -0.00  -0.00    -0.16  -0.01  -0.00     0.05   0.00   0.00
 140   6    -0.00   0.00  -0.00    -0.00   0.01  -0.00     0.00  -0.00   0.00
 141   7     0.00   0.00  -0.00     0.00   0.00  -0.00    -0.00  -0.00   0.00
 142   6    -0.00  -0.00   0.00    -0.00  -0.00   0.00     0.00   0.00  -0.00
 143   6    -0.00  -0.00   0.00    -0.00  -0.00   0.00    -0.00  -0.00   0.00
 144   6    -0.03   0.00   0.00    -0.08   0.01   0.00     0.00  -0.00   0.00
 145   6    -0.00   0.02  -0.00    -0.00   0.06  -0.01    -0.00   0.00  -0.00
 146   6     0.00   0.00  -0.00     0.00   0.00  -0.00     0.00  -0.00   0.00
 147   7     0.00  -0.00   0.00     0.00  -0.00   0.00    -0.00  -0.00   0.00
 148   6    -0.00  -0.00   0.00     0.00   0.00  -0.00     0.00   0.00  -0.00
 149   6     0.00  -0.00   0.00    -0.00   0.00   0.00    -0.01   0.00  -0.00
 150   7     0.00   0.00  -0.00    -0.00  -0.00   0.00    -0.00  -0.00   0.00
 151   1     0.01   0.08  -0.01    -0.02  -0.16   0.02    -0.05  -0.48   0.06
 152   1     0.11   0.01  -0.00    -0.21  -0.02   0.01    -0.65  -0.07   0.02
 153   1     0.01  -0.00   0.00    -0.14   0.02  -0.00    -0.26   0.03  -0.01
 154   1     0.00  -0.01   0.00    -0.01   0.11  -0.01    -0.02   0.19  -0.02
 155   1    -0.00   0.00  -0.00    -0.00   0.01  -0.00     0.00   0.00  -0.00
 156   1     0.02   0.17  -0.02     0.04   0.39  -0.04    -0.01  -0.11   0.01
 157   1     0.23   0.02   0.00     0.52   0.05   0.00    -0.15  -0.02  -0.00
 158   1     0.09  -0.01   0.00     0.26  -0.03   0.00    -0.00   0.00   0.00
 159   1     0.01  -0.06   0.01     0.02  -0.20   0.02     0.00  -0.00   0.00
 160   1    -0.00   0.00  -0.00    -0.00  -0.01   0.00     0.00  -0.01   0.00
