      -----------------------------------------------------------      
     |                   =====================                   |     
     |                           x T B                           |     
     |                   =====================                   |     
     |                         S. Grimme                         |     
     |          Mulliken Center for Theoretical Chemistry        |     
     |                    University of Bonn                     |     
      -----------------------------------------------------------      

   * xtb version 6.4.1 (bd6e46d) compiled by 'conda@4901f00b25ba' on 2021-06-10

   xtb is free software: you can redistribute it and/or modify it under
   the terms of the GNU Lesser General Public License as published by
   the Free Software Foundation, either version 3 of the License, or
   (at your option) any later version.
   
   xtb is distributed in the hope that it will be useful,
   but WITHOUT ANY WARRANTY; without even the implied warranty of
   MERCHANTABILITY or FITNESS FOR A PARTICULAR PURPOSE.  See the
   GNU Lesser General Public License for more details.
   
   Cite this work as:
   * C. Bannwarth, E. Caldeweyher, S. Ehlert, A. Hansen, P. Pracht,
     J. Seibert, S. Spicher, S. Grimme, WIREs Comput. Mol. Sci., 2020, 11,
     e01493. DOI: 10.1002/wcms.1493
   
   for GFN2-xTB:
   * C. Bannwarth, S. Ehlert and S. Grimme., J. Chem. Theory Comput., 2019,
     15, 1652-1671. DOI: 10.1021/acs.jctc.8b01176
   for GFN1-xTB:
   * S. Grimme, C. Bannwarth, P. Shushkov, J. Chem. Theory Comput., 2017,
     13, 1989-2009. DOI: 10.1021/acs.jctc.7b00118
   for GFN0-xTB:
   * P. Pracht, E. Caldeweyher, S. Ehlert, S. Grimme, ChemRxiv, 2019, preprint.
     DOI: 10.26434/chemrxiv.8326202.v1
   for GFN-FF:
   * S. Spicher and S. Grimme, Angew. Chem. Int. Ed., 2020, 59, 15665-15673.
     DOI: 10.1002/anie.202004239
   
   for DFT-D4:
   * E. Caldeweyher, C. Bannwarth and S. Grimme, J. Chem. Phys., 2017,
     147, 034112. DOI: 10.1063/1.4993215
   * E. Caldeweyher, S. Ehlert, A. Hansen, H. Neugebauer, S. Spicher,
     C. Bannwarth and S. Grimme, J. Chem. Phys., 2019, 150, 154122.
     DOI: 10.1063/1.5090222
   * E. Caldeweyher, J.-M. Mewes, S. Ehlert and S. Grimme, Phys. Chem. Chem. Phys.
     2020, 22, 8499-8512. DOI: 10.1039/D0CP00502A
   
   for sTDA-xTB:
   * S. Grimme and C. Bannwarth, J. Chem. Phys., 2016, 145, 054103.
     DOI: 10.1063/1.4959605
   
   in the mass-spec context:
   * V. Asgeirsson, C. Bauer and S. Grimme, Chem. Sci., 2017, 8, 4879.
     DOI: 10.1039/c7sc00601b
   * J. Koopman and S. Grimme, ACS Omega 2019, 4, 12, 15120-15133.
     DOI: 10.1021/acsomega.9b02011
   
   for metadynamics refer to:
   * S. Grimme, J. Chem. Theory Comput., 2019, 155, 2847-2862
     DOI: 10.1021/acs.jctc.9b00143
   
   for SPH calculations refer to:
   * S. Spicher and S. Grimme, J. Chem. Theory Comput., 2021, 17, 1701-1714
     DOI: 10.1021/acs.jctc.0c01306
   
   with help from (in alphabetical order)
   P. Atkinson, C. Bannwarth, F. Bohle, G. Brandenburg, E. Caldeweyher
   M. Checinski, S. Dohm, S. Ehlert, S. Ehrlich, I. Gerasimov, J. Koopman
   C. Lavigne, S. Lehtola, F. März, M. Müller, F. Musil, H. Neugebauer
   J. Pisarek, C. Plett, P. Pracht, J. Seibert, P. Shushkov, S. Spicher
   M. Stahn, M. Steiner, T. Strunk, J. Stückrath, T. Rose, and J. Unsleber
   
 * started run on 2021/11/19 at 14:11:32.803     

           -------------------------------------------------
          |                Calculation Setup                |
           -------------------------------------------------

          program call               : /home/jeff/miniconda3/bin/xtb input_structure_1.xyz --gfn 2 --ohess normal --parallel 1 --etemp 300 --chrg 0 --uhf 0 -I det_control.in
          hostname                   : jelfscompute1
          coordinate file            : input_structure_1.xyz
          omp threads                :                     1
          number of atoms            :                   160
          number of electrons        :                   554
          charge                     :                     0
          spin                       :                   0.0
          first test random number   :      0.98459258999846

   ID    Z sym.   atoms
    1   28 Ni     1, 37, 91, 126
    2    6 C      2-9, 11-15, 17-21, 23, 24, 38-45, 47-51, 53-57, 59, 60,
                  73-90, 92-99, 101-105, 107-111, 113, 114, 127-134, 136-140,
                  142-146, 148, 149
    3    7 N      10, 16, 22, 25, 46, 52, 58, 61, 100, 106, 112, 115, 135,
                  141, 147, 150
    4    1 H      26-36, 62-72, 116-125, 151-160

molecular fragmentation (1/2 indicates fragments):
111111111111111111111111111111111111222222222222222222222222222222222222
222222222222222222222222222222222222222222222222222222222222222222222222
2222222222222222
# atoms in fragment 1/2:    36   124
 fragment masses (1/2) :      366.02     1312.24
CMA distance (Bohr)    :  61.027
constraining FC (au)   :  0.0500

           -------------------------------------------------
          |                 G F N 2 - x T B                 |
           -------------------------------------------------

        Reference                      10.1021/acs.jctc.8b01176
      * Hamiltonian:
        H0-scaling (s, p, d)           1.850000    2.230000    2.230000
        zeta-weighting                 0.500000
      * Dispersion:
        s8                             2.700000
        a1                             0.520000
        a2                             5.000000
        s9                             5.000000
      * Repulsion:
        kExp                           1.500000    1.000000
        rExp                           1.000000
      * Coulomb:
        alpha                          2.000000
        third order                    shell-resolved
        anisotropic                    true
        a3                             3.000000
        a5                             4.000000
        cn-shift                       1.200000
        cn-exp                         4.000000
        max-rad                        5.000000


          ...................................................
          :                      SETUP                      :
          :.................................................:
          :  # basis functions                 538          :
          :  # atomic orbitals                 534          :
          :  # shells                          282          :
          :  # electrons                       554          :
          :  max. iterations                   250          :
          :  Hamiltonian                  GFN2-xTB          :
          :  restarted?                      false          :
          :  GBSA solvation                  false          :
          :  PC potential                    false          :
          :  electronic temp.          300.0000000     K    :
          :  accuracy                    1.0000000          :
          :  -> integral cutoff          0.2500000E+02      :
          :  -> integral neglect         0.1000000E-07      :
          :  -> SCF convergence          0.1000000E-05 Eh   :
          :  -> wf. convergence          0.1000000E-03 e    :
          :  Broyden damping             0.4000000          :
          ...................................................

 iter      E             dE          RMSdq      gap      omega  full diag
   1   -300.4512110 -0.300451E+03  0.914E+00    0.68       0.0  T
   2   -283.1895928  0.172616E+02  0.899E+00    0.02       1.0  T
   3   -147.8346449  0.135355E+03  0.134E+01    0.08       1.0  T
   4   -139.2904850  0.854416E+01  0.109E+01    0.06       1.0  T
   5   -165.6788245 -0.263883E+02  0.107E+01    0.16       1.0  T
   6    -87.6666169  0.780122E+02  0.115E+01    0.02       1.0  T
   7   -263.4845805 -0.175818E+03  0.610E+00    0.04       1.0  T
   8   -266.2132941 -0.272871E+01  0.659E+00    0.03       1.0  T
   9   -287.1626572 -0.209494E+02  0.471E+00    0.01       1.0  T
  10   -291.1031785 -0.394052E+01  0.391E+00    0.06       1.0  T
  11   -296.1679249 -0.506475E+01  0.372E+00    0.00       1.0  T
  12   -299.8181408 -0.365022E+01  0.305E+00    0.10       1.0  T
  13   -300.4672183 -0.649077E+00  0.262E+00    0.03       1.0  T
  14   -300.8134844 -0.346266E+00  0.245E+00    0.22       1.0  T
  15   -300.8695615 -0.560772E-01  0.231E+00    0.07       1.0  T
  16   -301.0329625 -0.163401E+00  0.209E+00    0.11       1.0  T
  17   -301.0472058 -0.142433E-01  0.205E+00    0.14       1.0  T
  18   -300.8994316  0.147774E+00  0.193E+00    0.00       1.0  T
  19   -300.9755944 -0.761628E-01  0.185E+00    0.02       1.0  T
  20   -300.2948333  0.680761E+00  0.236E+00    0.03       1.0  T
  21   -300.3172632 -0.224299E-01  0.236E+00    0.02       1.0  T
  22   -300.4901339 -0.172871E+00  0.213E+00    0.07       1.0  T
  23   -300.8084518 -0.318318E+00  0.189E+00    0.01       1.0  T
  24   -300.5428297  0.265622E+00  0.173E+00    0.07       1.0  T
  25   -300.3028292  0.240000E+00  0.191E+00    0.08       1.0  T
  26   -301.4111608 -0.110833E+01  0.794E-01    0.12       1.0  T
  27   -301.4141986 -0.303780E-02  0.823E-01    0.14       1.0  T
  28   -301.4282532 -0.140546E-01  0.789E-01    0.15       1.0  T
  29   -301.4271846  0.106863E-02  0.785E-01    0.14       1.0  T
  30   -301.4210446  0.614000E-02  0.793E-01    0.13       1.0  T
  31   -301.4142447  0.679987E-02  0.793E-01    0.12       1.0  T
  32   -301.4249352 -0.106905E-01  0.808E-01    0.17       1.0  T
  33   -300.8314267  0.593509E+00  0.172E+00    0.05       1.0  T
  34   -300.5013936  0.330033E+00  0.209E+00    0.09       1.0  T
  35   -300.7858628 -0.284469E+00  0.149E+00    0.04       1.0  T
  36   -300.8221843 -0.363216E-01  0.148E+00    0.04       1.0  T
  37   -301.1458227 -0.323638E+00  0.942E-01    0.00       1.0  T
  38   -300.7916890  0.354134E+00  0.155E+00    0.06       1.0  T
  39   -300.8061211 -0.144321E-01  0.156E+00    0.06       1.0  T
  40   -300.9075342 -0.101413E+00  0.145E+00    0.06       1.0  T
  41   -300.9042818  0.325234E-02  0.149E+00    0.06       1.0  T
  42   -300.3923411  0.511941E+00  0.200E+00    0.07       1.0  T
  43   -300.4125494 -0.202083E-01  0.203E+00    0.07       1.0  T
  44   -300.4976094 -0.850600E-01  0.193E+00    0.06       1.0  T
  45   -300.4414132  0.561962E-01  0.209E+00    0.07       1.0  T
  46   -300.4334140  0.799918E-02  0.211E+00    0.07       1.0  T
  47   -300.4142971  0.191169E-01  0.216E+00    0.07       1.0  T
  48   -300.5523534 -0.138056E+00  0.204E+00    0.08       1.0  T
  49   -301.1266876 -0.574334E+00  0.168E+00    0.00       1.0  T
  50   -301.2448703 -0.118183E+00  0.153E+00    0.01       1.0  T
  51   -301.1820682  0.628020E-01  0.160E+00    0.01       1.0  T
  52   -300.8177350  0.364333E+00  0.191E+00    0.07       1.0  T
  53   -301.1638104 -0.346075E+00  0.147E+00    0.01       1.0  T
  54   -301.2562631 -0.924527E-01  0.135E+00    0.01       1.0  T
  55   -301.3311022 -0.748391E-01  0.120E+00    0.03       1.0  T
  56   -301.3447711 -0.136689E-01  0.119E+00    0.03       1.0  T
  57   -301.2421437  0.102627E+00  0.143E+00    0.01       1.0  T
  58   -301.4136444 -0.171501E+00  0.896E-01    0.05       1.0  T
  59   -301.4300232 -0.163789E-01  0.823E-01    0.06       1.0  T
  60   -301.4458287 -0.158055E-01  0.758E-01    0.06       1.0  T
  61   -301.4787782 -0.329495E-01  0.581E-01    0.08       1.0  T
  62   -301.4818760 -0.309776E-02  0.555E-01    0.08       1.0  T
  63   -301.4856804 -0.380442E-02  0.519E-01    0.09       1.0  T
  64   -301.4933894 -0.770902E-02  0.439E-01    0.09       1.0  T
  65   -301.4946121 -0.122271E-02  0.418E-01    0.09       1.0  T
  66   -301.4979815 -0.336940E-02  0.389E-01    0.10       1.0  T
  67   -301.4987532 -0.771687E-03  0.368E-01    0.08       1.0  T
  68   -301.4950328  0.372039E-02  0.404E-01    0.07       1.0  T
  69   -301.4780636  0.169692E-01  0.527E-01    0.06       1.0  T
  70   -301.4500999  0.279637E-01  0.673E-01    0.05       1.0  T
  71   -301.4835868 -0.334869E-01  0.477E-01    0.07       1.0  T
  72   -301.4922303 -0.864346E-02  0.405E-01    0.08       1.0  T
  73   -301.4999661 -0.773579E-02  0.321E-01    0.08       1.0  T
  74   -301.5042596 -0.429352E-02  0.257E-01    0.09       1.0  T
  75   -301.5048647 -0.605067E-03  0.245E-01    0.09       1.0  T
  76   -301.5045944  0.270319E-03  0.247E-01    0.09       1.0  T
  77   -301.5048802 -0.285877E-03  0.234E-01    0.09       1.0  T
  78   -301.5046844  0.195802E-03  0.231E-01    0.09       1.0  T
  79   -301.5048820 -0.197606E-03  0.223E-01    0.09       1.0  T
  80   -301.5074355 -0.255347E-02  0.175E-01    0.10       1.0  T
  81   -301.5093351 -0.189963E-02  0.125E-01    0.10       1.0  T
  82   -301.5101461 -0.811003E-03  0.958E-02    0.11       1.0  T
  83   -301.5104642 -0.318055E-03  0.769E-02    0.11       1.0  T
  84   -301.5105318 -0.676393E-04  0.707E-02    0.11       1.0  T
  85   -301.5106546 -0.122798E-03  0.615E-02    0.11       1.0  T
  86   -301.5106550 -0.384144E-06  0.594E-02    0.11       1.0  T
  87   -301.5107133 -0.583380E-04  0.534E-02    0.11       1.0  T
  88   -301.5107835 -0.701396E-04  0.459E-02    0.11       1.0  T
  89   -301.5108598 -0.763549E-04  0.374E-02    0.11       1.0  T
  90   -301.5109350 -0.751654E-04  0.269E-02    0.11       1.0  T
  91   -301.5109778 -0.428136E-04  0.201E-02    0.11       1.0  T
  92   -301.5109956 -0.177829E-04  0.163E-02    0.11       1.0  T
  93   -301.5110013 -0.573135E-05  0.149E-02    0.11       1.0  T
  94   -301.5109814  0.198962E-04  0.169E-02    0.11       1.0  T
  95   -301.5109634  0.180249E-04  0.178E-02    0.11       1.0  T
  96   -301.5109577  0.576123E-05  0.177E-02    0.11       1.0  T
  97   -301.5109576  0.881194E-07  0.174E-02    0.11       1.0  T
  98   -301.5109682 -0.106002E-04  0.161E-02    0.11       1.0  T
  99   -301.5109747 -0.651804E-05  0.155E-02    0.11       1.0  T
 100   -301.5109883 -0.136147E-04  0.145E-02    0.11       1.0  T
 101   -301.5109882  0.937354E-07  0.144E-02    0.11       1.0  T
 102   -301.5110110 -0.227693E-04  0.110E-02    0.11       1.0  T
 103   -301.5110234 -0.123874E-04  0.824E-03    0.11       1.0  T
 104   -301.5110325 -0.914520E-05  0.536E-03    0.11       1.5  T
 105   -301.5110364 -0.385861E-05  0.312E-03    0.11       2.5  T
 106   -301.5110375 -0.116101E-05  0.203E-03    0.11       3.9  T
 107   -301.5110379 -0.403364E-06  0.163E-03    0.11       4.8  T
 108   -301.5110380 -0.614376E-07  0.158E-03    0.11       5.0  T
 109   -301.5110382 -0.173648E-06  0.154E-03    0.11       5.1  T
 110   -301.5110384 -0.220517E-06  0.141E-03    0.11       5.6  T
 111   -301.5110386 -0.182376E-06  0.111E-03    0.11       7.1  T
 112   -301.5110386 -0.674308E-07  0.942E-04    0.11       8.4  T
 113   -301.5110388 -0.154730E-06  0.642E-04    0.11      12.3  T

   *** convergence criteria satisfied after 113 iterations ***

         #    Occupation            Energy/Eh            Energy/eV
      -------------------------------------------------------------
         1        2.0000           -0.6901225             -18.7792
       ...           ...                  ...                  ...
       271        1.9989           -0.3532887              -9.6135
       272        1.9987           -0.3530949              -9.6082
       273        1.9963           -0.3520864              -9.5808
       274        1.9951           -0.3518283              -9.5737
       275        1.9885           -0.3510102              -9.5515
       276        1.8846           -0.3487723              -9.4906
       277        1.7787           -0.3480987              -9.4722 (HOMO)
       278        0.1860           -0.3439549              -9.3595 (LUMO)
       279        0.1733           -0.3438814              -9.3575
       280        0.0000           -0.3321653              -9.0387
       281        0.0000           -0.3321555              -9.0384
       282                         -0.3298120              -8.9746
       ...                                ...                  ...
       534                          2.2637711              61.6003
      -------------------------------------------------------------
                  HL-Gap            0.0041438 Eh            0.1128 eV
             Fermi-level           -0.3461188 Eh           -9.4184 eV

 SCC (total)                   0 d,  0 h,  0 min,  8.032 sec
 SCC setup                      ...        0 min,  0.005 sec (  0.058%)
 Dispersion                     ...        0 min,  0.012 sec (  0.150%)
 classical contributions        ...        0 min,  0.001 sec (  0.014%)
 integral evaluation            ...        0 min,  0.085 sec (  1.063%)
 iterations                     ...        0 min,  7.691 sec ( 95.757%)
 molecular gradient             ...        0 min,  0.229 sec (  2.856%)
 printout                       ...        0 min,  0.008 sec (  0.103%)

         :::::::::::::::::::::::::::::::::::::::::::::::::::::
         ::                     SUMMARY                     ::
         :::::::::::::::::::::::::::::::::::::::::::::::::::::
         :: total energy            -295.557362407336 Eh    ::
         :: gradient norm              1.467019839021 Eh/a0 ::
         :: HOMO-LUMO gap              0.112759106802 eV    ::
         ::.................................................::
         :: SCC energy              -301.511038790293 Eh    ::
         :: -> isotropic ES            0.141664120427 Eh    ::
         :: -> anisotropic ES          0.021639466857 Eh    ::
         :: -> anisotropic XC          0.159963342491 Eh    ::
         :: -> dispersion             -0.246144841950 Eh    ::
         :: repulsion energy           5.953878094887 Eh    ::
         :: add. restraining           0.000000000000 Eh    ::
         :: total charge               0.000000000031 e     ::
         :::::::::::::::::::::::::::::::::::::::::::::::::::::

      ----------------------------------------------------------- 
     |                   =====================                   |
     |                        A N C O P T                        |
     |                   =====================                   |
     |               Approximate Normal Coordinate               |
     |                Rational Function Optimizer                |
      ----------------------------------------------------------- 

          ...................................................
          :                      SETUP                      :
          :.................................................:
          :   optimization level            normal          :
          :   max. optcycles                   480          :
          :   ANC micro-cycles                  20          :
          :   degrees of freedom               474          :
          :.................................................:
          :   RF solver                   davidson          :
          :   write xtbopt.log                true          :
          :   linear?                        false          :
          :   energy convergence         0.5000000E-05 Eh   :
          :   grad. convergence          0.1000000E-02 Eh/α :
          :   maximium RF displ.         1.0000000          :
          :   Hlow (freq-cutoff)         0.1000000E-01      :
          :   Hmax (freq-cutoff)         5.0000000          :
          :   S6 in model hess.         20.0000000          :
          ...................................................

generating ANC from model Hessian ...
Using Lindh-Hessian (1995)
 Shifting diagonal of input Hessian by    1.0134276708835517E-002
 Lowest  eigenvalues of input Hessian
    0.010000    0.010034    0.010100    0.010101    0.010110    0.010112
    0.010114    0.010119    0.010124    0.010127    0.010129    0.000000
    0.000000    0.000000    0.000000    0.000000    0.000000    0.010144
 Highest eigenvalues
    2.682207    2.687821    3.325869    3.327672    3.495154    3.495768


........................................................................
.............................. CYCLE    1 ..............................
........................................................................
   1   -301.5110389 -0.301511E+03  0.368E-04    0.11       0.0  T
   2   -301.5110295  0.940237E-05  0.663E-03    0.11       1.2  T
   3   -301.5110387 -0.925079E-05  0.859E-04    0.11       9.2  T
   4   -301.5110388 -0.101795E-06  0.757E-04    0.11      10.4  T
   5   -301.5110385  0.277748E-06  0.972E-04    0.11       8.1  T
     SCC iter.                  ...        0 min,  0.346 sec
     gradient                   ...        0 min,  0.229 sec
 * total energy  :  -295.5573622 Eh     change        0.2459569E-06 Eh
   gradient norm :     1.4670174 Eh/α   predicted     0.0000000E+00 (-100.00%)
   displ. norm   :     0.5840994 α      lambda       -0.7680131E+00
   maximum displ.:     0.1452734 α      in ANC's #378, #379, #474, ...

........................................................................
.............................. CYCLE    2 ..............................
........................................................................
   1   -301.5353319 -0.301535E+03  0.405E-01    0.12       0.0  T
   2   -301.4290980  0.106234E+00  0.732E-01    0.10       1.0  T
   3   -301.2675064  0.161592E+00  0.112E+00    0.01       1.0  T
   4   -301.4509046 -0.183398E+00  0.675E-01    0.10       1.0  T
   5   -301.5348013 -0.838968E-01  0.305E-01    0.20       1.0  T
   6   -299.3815451  0.215326E+01  0.339E+00    0.02       1.0  T
   7   -301.1862509 -0.180471E+01  0.125E+00    0.03       1.0  T
   8   -301.4660914 -0.279840E+00  0.448E-01    0.05       1.0  T
   9   -301.5199415 -0.538501E-01  0.356E-01    0.14       1.0  T
  10   -301.5374105 -0.174690E-01  0.263E-01    0.19       1.0  T
  11   -301.5435440 -0.613343E-02  0.224E-01    0.18       1.0  T
  12   -301.5441114 -0.567427E-03  0.200E-01    0.16       1.0  T
  13   -301.5478107 -0.369928E-02  0.162E-01    0.15       1.0  T
  14   -301.5486524 -0.841695E-03  0.150E-01    0.15       1.0  T
  15   -301.5512049 -0.255255E-02  0.102E-01    0.14       1.0  T
  16   -301.5531713 -0.196643E-02  0.390E-02    0.11       1.0  T
  17   -301.5532052 -0.338731E-04  0.378E-02    0.11       1.0  T
  18   -301.5532824 -0.771589E-04  0.276E-02    0.11       1.0  T
  19   -301.5532720  0.103718E-04  0.330E-02    0.11       1.0  T
  20   -301.5532033  0.686585E-04  0.376E-02    0.11       1.0  T
  21   -301.5533260 -0.122651E-03  0.264E-02    0.11       1.0  T
  22   -301.5534450 -0.119050E-03  0.105E-02    0.12       1.0  T
  23   -301.5534269  0.180981E-04  0.162E-02    0.12       1.0  T
  24   -301.5509874  0.243953E-02  0.122E-01    0.10       1.0  T
  25   -301.5528767 -0.188933E-02  0.567E-02    0.11       1.0  T
  26   -301.5530488 -0.172025E-03  0.469E-02    0.11       1.0  T
  27   -301.5532784 -0.229611E-03  0.315E-02    0.12       1.0  T
  28   -301.5534455 -0.167077E-03  0.872E-03    0.12       1.0  T
  29   -301.5534595 -0.140014E-04  0.205E-03    0.12       3.9  T
  30   -301.5534600 -0.513222E-06  0.171E-03    0.12       4.6  T
  31   -301.5534601 -0.161003E-06  0.144E-03    0.12       5.5  T
  32   -301.5534604 -0.237776E-06  0.472E-04    0.12      16.8  T
  33   -301.5534604 -0.158952E-07  0.351E-04    0.12      22.5  T
     SCC iter.                  ...        0 min,  2.243 sec
     gradient                   ...        0 min,  0.228 sec
 * total energy  :  -296.0720414 Eh     change       -0.5146793E+00 Eh
   gradient norm :     0.5706662 Eh/α   predicted    -0.5150448E+00 (   0.07%)
   displ. norm   :     0.6201743 α      lambda       -0.2822930E+00
   maximum displ.:     0.1939149 α      in ANC's #166, #163, #164, ...

........................................................................
.............................. CYCLE    3 ..............................
........................................................................
   1   -301.5750435 -0.301575E+03  0.410E-01    0.10       0.0  T
   2   -301.1956564  0.379387E+00  0.115E+00    0.27       1.0  T
   3   -301.4137743 -0.218118E+00  0.868E-01    0.18       1.0  T
   4   -300.3439754  0.106980E+01  0.244E+00    0.04       1.0  T
   5   -301.5547377 -0.121076E+01  0.453E-01    0.23       1.0  T
   6   -301.5611403 -0.640258E-02  0.395E-01    0.11       1.0  T
   7   -301.5471044  0.140359E-01  0.463E-01    0.15       1.0  T
   8   -301.5593731 -0.122686E-01  0.369E-01    0.18       1.0  T
   9   -301.5694694 -0.100964E-01  0.332E-01    0.20       1.0  T
  10   -301.5776847 -0.821522E-02  0.292E-01    0.18       1.0  T
  11   -301.5799708 -0.228617E-02  0.276E-01    0.16       1.0  T
  12   -301.5803550 -0.384209E-03  0.271E-01    0.17       1.0  T
  13   -301.5814468 -0.109179E-02  0.261E-01    0.16       1.0  T
  14   -301.5823988 -0.951973E-03  0.250E-01    0.17       1.0  T
  15   -301.5835522 -0.115335E-02  0.236E-01    0.15       1.0  T
  16   -301.5840134 -0.461229E-03  0.233E-01    0.15       1.0  T
  17   -301.5842438 -0.230444E-03  0.229E-01    0.15       1.0  T
  18   -301.5858244 -0.158061E-02  0.210E-01    0.14       1.0  T
  19   -301.5867684 -0.943992E-03  0.195E-01    0.14       1.0  T
  20   -301.5883852 -0.161682E-02  0.171E-01    0.14       1.0  T
  21   -301.5905453 -0.216006E-02  0.131E-01    0.13       1.0  T
  22   -301.5913155 -0.770168E-03  0.111E-01    0.12       1.0  T
  23   -301.5911774  0.138083E-03  0.118E-01    0.13       1.0  T
  24   -301.5919121 -0.734700E-03  0.964E-02    0.12       1.0  T
  25   -301.5932655 -0.135342E-02  0.409E-02    0.11       1.0  T
  26   -301.5934625 -0.196971E-03  0.249E-02    0.11       1.0  T
  27   -301.5935534 -0.908689E-04  0.867E-03    0.11       1.0  T
  28   -301.5935352  0.181480E-04  0.146E-02    0.11       1.0  T
  29   -301.5935672 -0.320049E-04  0.124E-03    0.11       6.4  T
  30   -301.5935638  0.340738E-05  0.485E-03    0.11       1.6  T
  31   -301.5935661 -0.225489E-05  0.300E-03    0.11       2.6  T
  32   -301.5935665 -0.469908E-06  0.270E-03    0.11       2.9  T
  33   -301.5935677 -0.112126E-05  0.495E-04    0.11      16.0  T
  34   -301.5935676  0.121521E-07  0.568E-04    0.11      13.9  T
  35   -301.5935677 -0.539977E-07  0.116E-04    0.11      68.4  T
     SCC iter.                  ...        0 min,  2.374 sec
     gradient                   ...        0 min,  0.228 sec
 * total energy  :  -296.2897042 Eh     change       -0.2176628E+00 Eh
   gradient norm :     0.2789276 Eh/α   predicted    -0.1954339E+00 ( -10.21%)
   displ. norm   :     0.7178839 α      lambda       -0.1600804E+00
   maximum displ.:     0.2591150 α      in ANC's #166, #163, #164, ...

........................................................................
.............................. CYCLE    4 ..............................
........................................................................
   1   -301.6609419 -0.301661E+03  0.424E-01    0.10       0.0  T
   2   -300.9543955  0.706546E+00  0.154E+00    0.26       1.0  T
   3   -301.5294040 -0.575008E+00  0.789E-01    0.18       1.0  T
   4   -300.5636964  0.965708E+00  0.205E+00    0.02       1.0  T
   5   -301.6480784 -0.108438E+01  0.387E-01    0.21       1.0  T
   6   -301.6157614  0.323170E-01  0.475E-01    0.11       1.0  T
   7   -301.6417580 -0.259966E-01  0.381E-01    0.12       1.0  T
   8   -301.6511858 -0.942783E-02  0.330E-01    0.21       1.0  T
   9   -301.6633397 -0.121540E-01  0.272E-01    0.16       1.0  T
  10   -301.6709715 -0.763173E-02  0.218E-01    0.12       1.0  T
  11   -301.6717027 -0.731181E-03  0.213E-01    0.13       1.0  T
  12   -301.6714222  0.280483E-03  0.209E-01    0.14       1.0  T
  13   -301.6740981 -0.267590E-02  0.191E-01    0.12       1.0  T
  14   -301.6728606  0.123743E-02  0.190E-01    0.14       1.0  T
  15   -301.6735317 -0.671086E-03  0.185E-01    0.13       1.0  T
  16   -301.6737790 -0.247298E-03  0.180E-01    0.13       1.0  T
  17   -301.6749262 -0.114714E-02  0.166E-01    0.12       1.0  T
  18   -301.6760113 -0.108512E-02  0.153E-01    0.12       1.0  T
  19   -301.6759669  0.443392E-04  0.154E-01    0.12       1.0  T
  20   -301.6770441 -0.107720E-02  0.134E-01    0.11       1.0  T
  21   -301.6784536 -0.140948E-02  0.100E-01    0.11       1.0  T
  22   -301.6795503 -0.109665E-02  0.608E-02    0.10       1.0  T
  23   -301.6799705 -0.420237E-03  0.396E-02    0.09       1.0  T
  24   -301.6801564 -0.185906E-03  0.196E-02    0.09       1.0  T
  25   -301.6801941 -0.376904E-04  0.143E-02    0.09       1.0  T
  26   -301.6802150 -0.208742E-04  0.114E-02    0.09       1.0  T
  27   -301.6802283 -0.133635E-04  0.356E-03    0.09       2.2  T
  28   -301.6802345 -0.618545E-05  0.316E-03    0.09       2.5  T
  29   -301.6802368 -0.222450E-05  0.137E-03    0.09       5.8  T
  30   -301.6802371 -0.302402E-06  0.598E-04    0.09      13.2  T
  31   -301.6802371 -0.568914E-07  0.376E-04    0.09      21.0  T
     SCC iter.                  ...        0 min,  2.111 sec
     gradient                   ...        0 min,  0.230 sec
 * total energy  :  -296.4159255 Eh     change       -0.1262213E+00 Eh
   gradient norm :     0.1371701 Eh/α   predicted    -0.1212899E+00 (  -3.91%)
   displ. norm   :     0.7784123 α      lambda       -0.9833920E-01
   maximum displ.:     0.2781767 α      in ANC's #166, #163, #126, ...

........................................................................
.............................. CYCLE    5 ..............................
........................................................................
   1   -301.7435172 -0.301744E+03  0.387E-01    0.10       0.0  T
   2   -301.2452651  0.498252E+00  0.131E+00    0.08       1.0  T
   3   -301.6770031 -0.431738E+00  0.542E-01    0.08       1.0  T
   4   -301.2833294  0.393674E+00  0.913E-01    0.06       1.0  T
   5   -301.6682427 -0.384913E+00  0.401E-01    0.03       1.0  T
   6   -301.6698504 -0.160773E-02  0.544E-01    0.32       1.0  T
   7   -301.6903218 -0.204714E-01  0.468E-01    0.25       1.0  T
   8   -301.6903380 -0.161948E-04  0.463E-01    0.06       1.0  T
   9   -301.7041331 -0.137950E-01  0.284E-01    0.04       1.0  T
  10   -301.7384966 -0.343636E-01  0.209E-01    0.13       1.0  T
  11   -301.7386200 -0.123356E-03  0.157E-01    0.07       1.0  T
  12   -301.7427693 -0.414936E-02  0.139E-01    0.07       1.0  T
  13   -301.7426210  0.148353E-03  0.139E-01    0.07       1.0  T
  14   -301.7504219 -0.780093E-02  0.899E-02    0.09       1.0  T
  15   -301.7542915 -0.386961E-02  0.615E-02    0.08       1.0  T
  16   -301.7545733 -0.281742E-03  0.596E-02    0.08       1.0  T
  17   -301.7529129  0.166035E-02  0.707E-02    0.08       1.0  T
  18   -301.7543418 -0.142887E-02  0.500E-02    0.09       1.0  T
  19   -301.7545549 -0.213093E-03  0.382E-02    0.08       1.0  T
  20   -301.7546884 -0.133501E-03  0.324E-02    0.08       1.0  T
  21   -301.7546497  0.387184E-04  0.320E-02    0.08       1.0  T
  22   -301.7549093 -0.259625E-03  0.235E-02    0.08       1.0  T
  23   -301.7551151 -0.205798E-03  0.153E-02    0.08       1.0  T
  24   -301.7551523 -0.372547E-04  0.132E-02    0.08       1.0  T
  25   -301.7552081 -0.558002E-04  0.820E-03    0.08       1.0  T
  26   -301.7552197 -0.115901E-04  0.596E-03    0.08       1.3  T
  27   -301.7552278 -0.808725E-05  0.369E-03    0.08       2.1  T
  28   -301.7552296 -0.179102E-05  0.214E-03    0.08       3.7  T
  29   -301.7552322 -0.261985E-05  0.580E-04    0.09      13.6  T
  30   -301.7552323 -0.726486E-07  0.442E-04    0.09      17.9  T
  31   -301.7552324 -0.518631E-07  0.393E-04    0.08      20.1  T
     SCC iter.                  ...        0 min,  2.103 sec
     gradient                   ...        0 min,  0.229 sec
 * total energy  :  -296.4983381 Eh     change       -0.8241262E-01 Eh
   gradient norm :     0.0999746 Eh/α   predicted    -0.7896272E-01 (  -4.19%)
   displ. norm   :     0.8063875 α      lambda       -0.7111730E-01
   maximum displ.:     0.2650123 α      in ANC's #89, #166, #163, ...

........................................................................
.............................. CYCLE    6 ..............................
........................................................................
   1   -301.8112416 -0.301811E+03  0.363E-01    0.10       0.0  T
   2   -301.4405365  0.370705E+00  0.895E-01    0.05       1.0  T
   3   -301.1481769  0.292360E+00  0.949E-01    0.10       1.0  T
   4   -301.6891402 -0.540963E+00  0.713E-01    0.26       1.0  T
   5   -301.7632232 -0.740831E-01  0.409E-01    0.43       1.0  T
   6   -301.7254937  0.377296E-01  0.568E-01    0.21       1.0  T
   7   -301.7611385 -0.356448E-01  0.426E-01    0.13       1.0  T
   8   -301.7937355 -0.325970E-01  0.213E-01    0.08       1.0  T
   9   -301.8001959 -0.646046E-02  0.159E-01    0.08       1.0  T
  10   -301.8051312 -0.493530E-02  0.147E-01    0.09       1.0  T
  11   -301.8030542  0.207706E-02  0.166E-01    0.10       1.0  T
  12   -301.8071893 -0.413517E-02  0.152E-01    0.11       1.0  T
  13   -301.8085977 -0.140833E-02  0.120E-01    0.07       1.0  T
  14   -301.8141876 -0.558994E-02  0.721E-02    0.10       1.0  T
  15   -301.8066445  0.754309E-02  0.122E-01    0.06       1.0  T
  16   -301.8080852 -0.144066E-02  0.107E-01    0.07       1.0  T
  17   -301.8161059 -0.802078E-02  0.269E-02    0.10       1.0  T
  18   -301.8164830 -0.377098E-03  0.158E-02    0.10       1.0  T
  19   -301.8163749  0.108117E-03  0.208E-02    0.10       1.0  T
  20   -301.8165253 -0.150381E-03  0.114E-02    0.10       1.0  T
  21   -301.8165558 -0.304767E-04  0.618E-03    0.09       1.3  T
  22   -301.8164774  0.783584E-04  0.128E-02    0.09       1.0  T
  23   -301.8165729 -0.955221E-04  0.119E-03    0.09       6.6  T
  24   -301.8165727  0.243357E-06  0.136E-03    0.09       5.8  T
  25   -301.8165734 -0.685132E-06  0.540E-04    0.09      14.6  T
  26   -301.8165731  0.254070E-06  0.771E-04    0.09      10.3  T
     SCC iter.                  ...        0 min,  1.766 sec
     gradient                   ...        0 min,  0.230 sec
 * total energy  :  -296.5589794 Eh     change       -0.6064125E-01 Eh
   gradient norm :     0.0798870 Eh/α   predicted    -0.5868105E-01 (  -3.23%)
   displ. norm   :     0.8131860 α      lambda       -0.5237739E-01
   maximum displ.:     0.3019089 α      in ANC's #89, #88, #126, ...

........................................................................
.............................. CYCLE    7 ..............................
........................................................................
   1   -301.8634704 -0.301863E+03  0.349E-01    0.11       0.0  T
   2   -301.6324941  0.230976E+00  0.629E-01    0.04       1.0  T
   3   -300.9474336  0.685060E+00  0.118E+00    0.02       1.0  T
   4   -301.7463875 -0.798954E+00  0.675E-01    0.54       1.0  T
   5   -301.7904606 -0.440731E-01  0.444E-01    0.45       1.0  T
   6   -301.7576878  0.327728E-01  0.637E-01    0.32       1.0  T
   7   -301.7660396 -0.835175E-02  0.609E-01    0.24       1.0  T
   8   -301.8190174 -0.529779E-01  0.398E-01    0.20       1.0  T
   9   -301.8529695 -0.339520E-01  0.191E-01    0.15       1.0  T
  10   -301.8599280 -0.695854E-02  0.127E-01    0.13       1.0  T
  11   -301.8612624 -0.133444E-02  0.112E-01    0.13       1.0  T
  12   -301.8625535 -0.129108E-02  0.904E-02    0.12       1.0  T
  13   -301.8643306 -0.177705E-02  0.542E-02    0.10       1.0  T
  14   -301.8657651 -0.143456E-02  0.305E-02    0.10       1.0  T
  15   -301.8662214 -0.456288E-03  0.149E-02    0.10       1.0  T
  16   -301.8661852  0.361949E-04  0.153E-02    0.10       1.0  T
  17   -301.8662927 -0.107490E-03  0.803E-03    0.10       1.0  T
  18   -301.8663158 -0.230944E-04  0.551E-03    0.10       1.4  T
  19   -301.8663263 -0.105417E-04  0.363E-03    0.10       2.2  T
  20   -301.8663305 -0.415709E-05  0.237E-03    0.10       3.3  T
  21   -301.8663337 -0.319888E-05  0.579E-04    0.10      13.6  T
  22   -301.8663337  0.891617E-08  0.492E-04    0.10      16.1  T
  23   -301.8663336  0.632332E-07  0.563E-04    0.10      14.0  T
     SCC iter.                  ...        0 min,  1.558 sec
     gradient                   ...        0 min,  0.230 sec
 * total energy  :  -296.6036669 Eh     change       -0.4468755E-01 Eh
   gradient norm :     0.0585006 Eh/α   predicted    -0.4350655E-01 (  -2.64%)
   displ. norm   :     0.8141464 α      lambda       -0.3783659E-01
   maximum displ.:     0.3044637 α      in ANC's #89, #32, #88, ...

........................................................................
.............................. CYCLE    8 ..............................
........................................................................
   1   -301.8972683 -0.301897E+03  0.336E-01    0.12       0.0  T
   2   -301.6814891  0.215779E+00  0.656E-01    0.02       1.0  T
   3   -301.5660703  0.115419E+00  0.744E-01    0.04       1.0  T
   4   -301.8255595 -0.259489E+00  0.483E-01    0.39       1.0  T
   5   -301.7784283  0.471312E-01  0.647E-01    0.28       1.0  T
   6   -301.8501900 -0.717617E-01  0.448E-01    0.23       1.0  T
   7   -301.8727911 -0.226012E-01  0.312E-01    0.20       1.0  T
   8   -301.8673259  0.546523E-02  0.340E-01    0.21       1.0  T
   9   -301.8931707 -0.258448E-01  0.143E-01    0.17       1.0  T
  10   -301.8966108 -0.344010E-02  0.980E-02    0.15       1.0  T
  11   -301.8977471 -0.113633E-02  0.808E-02    0.15       1.0  T
  12   -301.8995566 -0.180950E-02  0.425E-02    0.13       1.0  T
  13   -301.9003168 -0.760172E-03  0.193E-02    0.12       1.0  T
  14   -301.9004393 -0.122549E-03  0.190E-02    0.12       1.0  T
  15   -301.9004425 -0.314741E-05  0.147E-02    0.12       1.0  T
  16   -301.9004940 -0.515136E-04  0.105E-02    0.12       1.0  T
  17   -301.9005242 -0.302008E-04  0.645E-03    0.12       1.2  T
  18   -301.9005317 -0.747245E-05  0.259E-03    0.12       3.1  T
  19   -301.9005323 -0.668784E-06  0.205E-03    0.11       3.9  T
  20   -301.9005329 -0.545737E-06  0.150E-03    0.12       5.3  T
  21   -301.9005332 -0.320674E-06  0.996E-04    0.12       7.9  T
  22   -301.9005337 -0.468501E-06  0.453E-04    0.12      17.4  T
     SCC iter.                  ...        0 min,  1.494 sec
     gradient                   ...        0 min,  0.230 sec
 * total energy  :  -296.6358462 Eh     change       -0.3217925E-01 Eh
   gradient norm :     0.0417133 Eh/α   predicted    -0.3145801E-01 (  -2.24%)
   displ. norm   :     0.8230748 α      lambda       -0.2714567E-01
   maximum displ.:     0.4113644 α      in ANC's #32, #89, #88, ...

........................................................................
.............................. CYCLE    9 ..............................
........................................................................
   1   -301.9141232 -0.301914E+03  0.313E-01    0.15       0.0  T
   2   -301.5590790  0.355044E+00  0.797E-01    0.06       1.0  T
   3   -301.8578829 -0.298804E+00  0.425E-01    0.06       1.0  T
   4   -301.8720822 -0.141993E-01  0.386E-01    0.31       1.0  T
   5   -301.8762479 -0.416565E-02  0.413E-01    0.39       1.0  T
   6   -301.9022488 -0.260009E-01  0.223E-01    0.11       1.0  T
   7   -301.9029257 -0.676934E-03  0.220E-01    0.17       1.0  T
   8   -301.9040506 -0.112492E-02  0.220E-01    0.23       1.0  T
   9   -301.9143929 -0.103423E-01  0.101E-01    0.15       1.0  T
  10   -301.9150438 -0.650876E-03  0.907E-02    0.16       1.0  T
  11   -301.9161558 -0.111201E-02  0.707E-02    0.16       1.0  T
  12   -301.9171806 -0.102476E-02  0.519E-02    0.16       1.0  T
  13   -301.9183462 -0.116567E-02  0.211E-02    0.14       1.0  T
  14   -301.9184447 -0.984326E-04  0.138E-02    0.12       1.0  T
  15   -301.9184987 -0.539994E-04  0.114E-02    0.13       1.0  T
  16   -301.9184692  0.294561E-04  0.109E-02    0.13       1.0  T
  17   -301.9185082 -0.389653E-04  0.714E-03    0.13       1.1  T
  18   -301.9185220 -0.138856E-04  0.398E-03    0.13       2.0  T
  19   -301.9185280 -0.593641E-05  0.184E-03    0.13       4.3  T
  20   -301.9185289 -0.945222E-06  0.927E-04    0.13       8.5  T
  21   -301.9185290 -0.825078E-07  0.826E-04    0.13       9.6  T
     SCC iter.                  ...        0 min,  1.425 sec
     gradient                   ...        0 min,  0.231 sec
 * total energy  :  -296.6593210 Eh     change       -0.2347487E-01 Eh
   gradient norm :     0.0327834 Eh/α   predicted    -0.2276787E-01 (  -3.01%)
   displ. norm   :     0.8642828 α      lambda       -0.2144165E-01
   maximum displ.:     0.5286443 α      in ANC's #32, #16, #30, ...

........................................................................
.............................. CYCLE   10 ..............................
........................................................................
   1   -301.9206391 -0.301921E+03  0.282E-01    0.21       0.0  T
   2   -301.6362532  0.284386E+00  0.704E-01    0.00       1.0  T
   3   -301.9030707 -0.266818E+00  0.311E-01    0.42       1.0  T
   4   -301.8807161  0.223546E-01  0.431E-01    0.24       1.0  T
   5   -301.9001404 -0.194243E-01  0.313E-01    0.35       1.0  T
   6   -301.9094137 -0.927329E-02  0.246E-01    0.33       1.0  T
   7   -301.9199706 -0.105570E-01  0.130E-01    0.28       1.0  T
   8   -301.9238315 -0.386087E-02  0.688E-02    0.19       1.0  T
   9   -301.9242792 -0.447705E-03  0.589E-02    0.21       1.0  T
  10   -301.9249038 -0.624613E-03  0.417E-02    0.19       1.0  T
  11   -301.9252820 -0.378215E-03  0.303E-02    0.17       1.0  T
  12   -301.9254450 -0.162945E-03  0.219E-02    0.15       1.0  T
  13   -301.9256487 -0.203745E-03  0.119E-02    0.16       1.0  T
  14   -301.9256541 -0.534248E-05  0.922E-03    0.15       1.0  T
  15   -301.9257078 -0.537728E-04  0.298E-03    0.15       2.7  T
  16   -301.9257119 -0.408423E-05  0.123E-03    0.15       6.4  T
  17   -301.9257124 -0.492138E-06  0.576E-04    0.15      13.7  T
  18   -301.9257125 -0.482727E-07  0.454E-04    0.15      17.4  T
     SCC iter.                  ...        0 min,  1.224 sec
     gradient                   ...        0 min,  0.230 sec
 * total energy  :  -296.6791730 Eh     change       -0.1985191E-01 Eh
   gradient norm :     0.0305809 Eh/α   predicted    -0.1872914E-01 (  -5.66%)
   displ. norm   :     0.9383306 α      lambda       -0.2124723E-01
   maximum displ.:     0.6124137 α      in ANC's #32, #16, #30, ...

........................................................................
.............................. CYCLE   11 ..............................
........................................................................
   1   -301.9212407 -0.301921E+03  0.280E-01    0.30       0.0  T
   2   -301.8187100  0.102531E+00  0.500E-01    0.05       1.0  T
   3   -301.9117249 -0.930149E-01  0.244E-01    0.27       1.0  T
   4   -301.9161406 -0.441567E-02  0.210E-01    0.41       1.0  T
   5   -301.9181434 -0.200283E-02  0.169E-01    0.30       1.0  T
   6   -301.9239417 -0.579827E-02  0.761E-02    0.25       1.0  T
   7   -301.9240596 -0.117937E-03  0.927E-02    0.30       1.0  T
   8   -301.9250886 -0.102898E-02  0.567E-02    0.32       1.0  T
   9   -301.9258704 -0.781829E-03  0.378E-02    0.24       1.0  T
  10   -301.9258401  0.302859E-04  0.223E-02    0.25       1.0  T
  11   -301.9259715 -0.131394E-03  0.135E-02    0.20       1.0  T
  12   -301.9259710  0.554806E-06  0.108E-02    0.19       1.0  T
  13   -301.9260167 -0.457515E-04  0.402E-03    0.20       2.0  T
  14   -301.9260200 -0.332593E-05  0.227E-03    0.20       3.5  T
  15   -301.9260215 -0.151799E-05  0.105E-03    0.21       7.5  T
  16   -301.9260219 -0.358934E-06  0.389E-04    0.21      20.3  T
  17   -301.9260219 -0.158681E-07  0.226E-04    0.21      34.9  T
     SCC iter.                  ...        0 min,  1.158 sec
     gradient                   ...        0 min,  0.230 sec
 * total energy  :  -296.7008475 Eh     change       -0.2167454E-01 Eh
   gradient norm :     0.0351397 Eh/α   predicted    -0.1997733E-01 (  -7.83%)
   displ. norm   :     0.9208992 α      lambda       -0.2297195E-01
   maximum displ.:     0.6023728 α      in ANC's #32, #16, #30, ...

........................................................................
.............................. CYCLE   12 ..............................
........................................................................
   1   -301.9111106 -0.301911E+03  0.268E-01    0.41       0.0  T
   2   -301.8924933  0.186173E-01  0.318E-01    0.25       1.0  T
   3   -301.8984662 -0.597286E-02  0.287E-01    0.37       1.0  T
   4   -301.9013267 -0.286055E-02  0.229E-01    0.46       1.0  T
   5   -301.9129809 -0.116542E-01  0.741E-02    0.37       1.0  T
   6   -301.9133595 -0.378578E-03  0.537E-02    0.30       1.0  T
   7   -301.9140007 -0.641208E-03  0.208E-02    0.34       1.0  T
   8   -301.9139949  0.578298E-05  0.140E-02    0.33       1.0  T
   9   -301.9140203 -0.253767E-04  0.756E-03    0.34       1.0  T
  10   -301.9140331 -0.128193E-04  0.284E-03    0.33       2.8  T
  11   -301.9140342 -0.116245E-05  0.148E-03    0.34       5.3  T
  12   -301.9140344 -0.147844E-06  0.817E-04    0.34       9.7  T
  13   -301.9140344 -0.565277E-07  0.569E-04    0.34      13.9  T
     SCC iter.                  ...        0 min,  0.885 sec
     gradient                   ...        0 min,  0.235 sec
 * total energy  :  -296.7257311 Eh     change       -0.2488363E-01 Eh
   gradient norm :     0.0482998 Eh/α   predicted    -0.2122672E-01 ( -14.70%)
   displ. norm   :     0.8853799 α      lambda       -0.2785467E-01
   maximum displ.:     0.5606090 α      in ANC's #32, #16, #34, ...

........................................................................
.............................. CYCLE   13 ..............................
........................................................................
   1   -301.8995515 -0.301900E+03  0.263E-01    0.63       0.0  T
   2   -301.8918635  0.768796E-02  0.241E-01    0.55       1.0  T
   3   -301.8897976  0.206587E-02  0.258E-01    0.65       1.0  T
   4   -301.8972321 -0.743445E-02  0.142E-01    0.69       1.0  T
   5   -301.9011906 -0.395855E-02  0.565E-02    0.64       1.0  T
   6   -301.9015520 -0.361349E-03  0.263E-02    0.62       1.0  T
   7   -301.9015855 -0.335063E-04  0.209E-02    0.65       1.0  T
   8   -301.9016329 -0.474066E-04  0.896E-03    0.63       1.0  T
   9   -301.9016436 -0.107113E-04  0.400E-03    0.63       2.0  T
  10   -301.9016467 -0.305614E-05  0.195E-03    0.63       4.1  T
  11   -301.9016470 -0.365101E-06  0.106E-03    0.63       7.5  T
  12   -301.9016471 -0.101121E-06  0.776E-04    0.63      10.2  T
  13   -301.9016472 -0.727129E-07  0.410E-04    0.63      19.3  T
     SCC iter.                  ...        0 min,  0.886 sec
     gradient                   ...        0 min,  0.229 sec
 * total energy  :  -296.7567300 Eh     change       -0.3099884E-01 Eh
   gradient norm :     0.0640068 Eh/α   predicted    -0.2484493E-01 ( -19.85%)
   displ. norm   :     0.8598809 α      lambda       -0.3546562E-01
   maximum displ.:     0.5170122 α      in ANC's #32, #16, #34, ...

........................................................................
.............................. CYCLE   14 ..............................
........................................................................
   1   -301.8886890 -0.301889E+03  0.251E-01    1.03       0.0  T
   2   -301.8853976  0.329137E-02  0.201E-01    0.98       1.0  T
   3   -301.8828263  0.257131E-02  0.216E-01    1.07       1.0  T
   4   -301.8891883 -0.636197E-02  0.804E-02    1.08       1.0  T
   5   -301.8897684 -0.580095E-03  0.557E-02    1.06       1.0  T
   6   -301.8902628 -0.494435E-03  0.212E-02    1.06       1.0  T
   7   -301.8902576  0.527362E-05  0.142E-02    1.06       1.0  T
   8   -301.8902792 -0.216679E-04  0.784E-03    1.05       1.0  T
   9   -301.8902909 -0.116950E-04  0.280E-03    1.06       2.8  T
  10   -301.8902919 -0.944039E-06  0.166E-03    1.06       4.8  T
  11   -301.8902922 -0.316392E-06  0.887E-04    1.06       8.9  T
  12   -301.8902922 -0.473033E-07  0.547E-04    1.06      14.5  T
     SCC iter.                  ...        0 min,  0.822 sec
     gradient                   ...        0 min,  0.229 sec
 * total energy  :  -296.7955431 Eh     change       -0.3881311E-01 Eh
   gradient norm :     0.0775387 Eh/α   predicted    -0.3084436E-01 ( -20.53%)
   displ. norm   :     0.8499884 α      lambda       -0.4319363E-01
   maximum displ.:     0.4915135 α      in ANC's #32, #16, #34, ...

........................................................................
.............................. CYCLE   15 ..............................
........................................................................
   1   -301.8823171 -0.301882E+03  0.225E-01    1.24       0.0  T
   2   -301.8807978  0.151924E-02  0.178E-01    1.25       1.0  T
   3   -301.8793533  0.144450E-02  0.171E-01    1.24       1.0  T
   4   -301.8832581 -0.390482E-02  0.482E-02    1.24       1.0  T
   5   -301.8833118 -0.536616E-04  0.356E-02    1.24       1.0  T
   6   -301.8834437 -0.131905E-03  0.206E-02    1.24       1.0  T
   7   -301.8834588 -0.150581E-04  0.108E-02    1.24       1.0  T
   8   -301.8834716 -0.128337E-04  0.640E-03    1.24       1.2  T
   9   -301.8834808 -0.918903E-05  0.211E-03    1.24       3.8  T
  10   -301.8834811 -0.350862E-06  0.128E-03    1.24       6.2  T
  11   -301.8834812 -0.108869E-06  0.865E-04    1.24       9.1  T
  12   -301.8834813 -0.620966E-07  0.466E-04    1.24      17.0  T
     SCC iter.                  ...        0 min,  0.821 sec
     gradient                   ...        0 min,  0.230 sec
 * total energy  :  -296.8410871 Eh     change       -0.4554398E-01 Eh
   gradient norm :     0.0837355 Eh/α   predicted    -0.3720020E-01 ( -18.32%)
   displ. norm   :     0.8494389 α      lambda       -0.4684237E-01
   maximum displ.:     0.4899168 α      in ANC's #32, #16, #34, ...

........................................................................
.............................. CYCLE   16 ..............................
........................................................................
   1   -301.8828332 -0.301883E+03  0.200E-01    1.24       0.0  T
   2   -301.8816797  0.115342E-02  0.171E-01    1.25       1.0  T
   3   -301.8817292 -0.494110E-04  0.131E-01    1.25       1.0  T
   4   -301.8836125 -0.188336E-02  0.406E-02    1.25       1.0  T
   5   -301.8837011 -0.886317E-04  0.263E-02    1.25       1.0  T
   6   -301.8837469 -0.457259E-04  0.183E-02    1.25       1.0  T
   7   -301.8837786 -0.317402E-04  0.921E-03    1.25       1.0  T
   8   -301.8837847 -0.606142E-05  0.522E-03    1.25       1.5  T
   9   -301.8837898 -0.509125E-05  0.188E-03    1.25       4.2  T
  10   -301.8837901 -0.362904E-06  0.113E-03    1.25       7.0  T
  11   -301.8837902 -0.793281E-07  0.681E-04    1.25      11.6  T
  12   -301.8837902 -0.375981E-07  0.378E-04    1.25      20.9  T
     SCC iter.                  ...        0 min,  0.816 sec
     gradient                   ...        0 min,  0.231 sec
 * total energy  :  -296.8852912 Eh     change       -0.4420416E-01 Eh
   gradient norm :     0.0798196 Eh/α   predicted    -0.4032065E-01 (  -8.79%)
   displ. norm   :     0.9204483 α      lambda       -0.5425980E-01
   maximum displ.:     0.4446946 α      in ANC's #32, #16, #34, ...

........................................................................
.............................. CYCLE   17 ..............................
........................................................................
   1   -301.9054266 -0.301905E+03  0.273E-01    1.22       0.0  T
   2   -301.9039725  0.145405E-02  0.221E-01    1.22       1.0  T
   3   -301.9017722  0.220033E-02  0.180E-01    1.22       1.0  T
   4   -301.9064026 -0.463040E-02  0.528E-02    1.22       1.0  T
   5   -301.9067442 -0.341616E-03  0.281E-02    1.22       1.0  T
   6   -301.9068018 -0.575853E-04  0.197E-02    1.22       1.0  T
   7   -301.9068368 -0.350172E-04  0.112E-02    1.22       1.0  T
   8   -301.9068461 -0.925433E-05  0.562E-03    1.22       1.4  T
   9   -301.9068515 -0.541583E-05  0.258E-03    1.22       3.1  T
  10   -301.9068520 -0.500586E-06  0.153E-03    1.22       5.2  T
  11   -301.9068520  0.201769E-07  0.104E-03    1.22       7.6  T
  12   -301.9068521 -0.153537E-06  0.539E-04    1.22      14.7  T
  13   -301.9068522 -0.341211E-07  0.302E-04    1.22      26.1  T
     SCC iter.                  ...        0 min,  0.883 sec
     gradient                   ...        0 min,  0.230 sec
 * total energy  :  -296.9287500 Eh     change       -0.4345877E-01 Eh
   gradient norm :     0.0851052 Eh/α   predicted    -0.5011507E-01 (  15.32%)
   displ. norm   :     0.7744792 α      lambda       -0.3687569E-01
   maximum displ.:     0.4638191 α      in ANC's #32, #16, #34, ...

........................................................................
.............................. CYCLE   18 ..............................
........................................................................
   1   -301.9367456 -0.301937E+03  0.165E-01    1.21       0.0  T
   2   -301.9359421  0.803504E-03  0.144E-01    1.21       1.0  T
   3   -301.9360505 -0.108403E-03  0.978E-02    1.21       1.0  T
   4   -301.9371418 -0.109128E-02  0.346E-02    1.21       1.0  T
   5   -301.9373107 -0.168878E-03  0.173E-02    1.21       1.0  T
   6   -301.9373095  0.115334E-05  0.135E-02    1.21       1.0  T
   7   -301.9373241 -0.145844E-04  0.643E-03    1.21       1.2  T
   8   -301.9373294 -0.534119E-05  0.256E-03    1.21       3.1  T
   9   -301.9373302 -0.816299E-06  0.148E-03    1.21       5.4  T
  10   -301.9373304 -0.202291E-06  0.883E-04    1.21       9.0  T
  11   -301.9373305 -0.426000E-07  0.520E-04    1.21      15.2  T
     SCC iter.                  ...        0 min,  0.746 sec
     gradient                   ...        0 min,  0.231 sec
 * total energy  :  -296.9567674 Eh     change       -0.2801742E-01 Eh
   gradient norm :     0.0785583 Eh/α   predicted    -0.2949721E-01 (   5.28%)
   displ. norm   :     0.7495905 α      lambda       -0.3328063E-01
   maximum displ.:     0.4379114 α      in ANC's #32, #16, #34, ...

........................................................................
.............................. CYCLE   19 ..............................
........................................................................
   1   -302.0004091 -0.302000E+03  0.167E-01    1.23       0.0  T
   2   -302.0002969  0.112154E-03  0.120E-01    1.23       1.0  T
   3   -301.9989039  0.139300E-02  0.997E-02    1.23       1.0  T
   4   -302.0005867 -0.168277E-02  0.315E-02    1.23       1.0  T
   5   -302.0007107 -0.124027E-03  0.163E-02    1.23       1.0  T
   6   -302.0007088  0.193878E-05  0.119E-02    1.23       1.0  T
   7   -302.0007225 -0.137547E-04  0.551E-03    1.23       1.4  T
   8   -302.0007284 -0.587485E-05  0.209E-03    1.23       3.8  T
   9   -302.0007285 -0.643125E-07  0.152E-03    1.23       5.2  T
  10   -302.0007287 -0.252658E-06  0.107E-03    1.23       7.4  T
  11   -302.0007289 -0.140901E-06  0.609E-04    1.23      13.0  T
  12   -302.0007289 -0.193214E-07  0.408E-04    1.23      19.4  T
     SCC iter.                  ...        0 min,  0.815 sec
     gradient                   ...        0 min,  0.231 sec
 * total energy  :  -296.9817378 Eh     change       -0.2497043E-01 Eh
   gradient norm :     0.0591520 Eh/α   predicted    -0.2599029E-01 (   4.08%)
   displ. norm   :     0.8684213 α      lambda       -0.2662444E-01
   maximum displ.:     0.5419910 α      in ANC's #32, #16, #34, ...

........................................................................
.............................. CYCLE   20 ..............................
........................................................................
   1   -302.0423670 -0.302042E+03  0.130E-01    1.22       0.0  T
   2   -302.0422798  0.872156E-04  0.958E-02    1.22       1.0  T
   3   -302.0412269  0.105288E-02  0.846E-02    1.22       1.0  T
   4   -302.0424368 -0.120990E-02  0.259E-02    1.22       1.0  T
   5   -302.0425377 -0.100843E-03  0.131E-02    1.22       1.0  T
   6   -302.0425373  0.393973E-06  0.972E-03    1.22       1.0  T
   7   -302.0425485 -0.111901E-04  0.465E-03    1.22       1.7  T
   8   -302.0425524 -0.397288E-05  0.163E-03    1.22       4.8  T
   9   -302.0425528 -0.370831E-06  0.898E-04    1.22       8.8  T
  10   -302.0425529 -0.547346E-07  0.512E-04    1.22      15.4  T
     SCC iter.                  ...        0 min,  0.682 sec
     gradient                   ...        0 min,  0.230 sec
 * total energy  :  -297.0050114 Eh     change       -0.2327352E-01 Eh
   gradient norm :     0.0456944 Eh/α   predicted    -0.2335173E-01 (   0.34%)
   displ. norm   :     0.9018213 α      lambda       -0.2369956E-01
   maximum displ.:     0.5399340 α      in ANC's #16, #32, #15, ...
 * RMSD in coord.:     0.9675768 α      energy gain  -0.1447649E+01 Eh

generating ANC from model Hessian ...
Using Lindh-Hessian (1995)
 Shifting diagonal of input Hessian by    1.0010926419488904E-002
 Lowest  eigenvalues of input Hessian
    0.010000    0.010005    0.010007    0.010008    0.010010    0.010011
    0.000000    0.000000    0.000000    0.000000    0.000000    0.000000
    0.010015    0.010021    0.010027    0.010028    0.010036    0.010042
 Highest eigenvalues
    2.386730    2.405554    2.640930    2.675659    2.702998    2.963369


........................................................................
.............................. CYCLE   21 ..............................
........................................................................
   1   -302.0880266 -0.302088E+03  0.154E-01    1.19       0.0  T
   2   -302.0879387  0.879590E-04  0.104E-01    1.20       1.0  T
   3   -302.0853451  0.259353E-02  0.101E-01    1.19       1.0  T
   4   -302.0881001 -0.275494E-02  0.241E-02    1.20       1.0  T
   5   -302.0881632 -0.631414E-04  0.135E-02    1.20       1.0  T
   6   -302.0881618  0.143730E-05  0.103E-02    1.20       1.0  T
   7   -302.0881728 -0.110444E-04  0.428E-03    1.20       1.8  T
   8   -302.0881767 -0.383240E-05  0.175E-03    1.20       4.5  T
   9   -302.0881770 -0.320747E-06  0.112E-03    1.20       7.0  T
  10   -302.0881771 -0.799909E-07  0.677E-04    1.20      11.7  T
  11   -302.0881771 -0.321600E-07  0.345E-04    1.20      22.9  T
     SCC iter.                  ...        0 min,  0.754 sec
     gradient                   ...        0 min,  0.230 sec
 * total energy  :  -297.0252399 Eh     change       -0.2022853E-01 Eh
   gradient norm :     0.0360481 Eh/α   predicted     0.0000000E+00 (-100.00%)
   displ. norm   :     0.7254619 α      lambda       -0.1694856E-01
   maximum displ.:     0.4923330 α      in ANC's #40, #29, #19, ...

........................................................................
.............................. CYCLE   22 ..............................
........................................................................
   1   -302.1176133 -0.302118E+03  0.935E-02    1.19       0.0  T
   2   -302.1175787  0.345408E-04  0.628E-02    1.19       1.0  T
   3   -302.1164193  0.115937E-02  0.611E-02    1.19       1.0  T
   4   -302.1176327 -0.121335E-02  0.128E-02    1.19       1.0  T
   5   -302.1176459 -0.131861E-04  0.906E-03    1.19       1.0  T
   6   -302.1176448  0.108584E-05  0.627E-03    1.19       1.3  T
   7   -302.1176498 -0.500719E-05  0.245E-03    1.19       3.2  T
   8   -302.1176509 -0.111728E-05  0.796E-04    1.19       9.9  T
   9   -302.1176510 -0.460963E-07  0.482E-04    1.19      16.4  T
  10   -302.1176510 -0.161946E-07  0.330E-04    1.19      23.9  T
     SCC iter.                  ...        0 min,  0.684 sec
     gradient                   ...        0 min,  0.232 sec
 * total energy  :  -297.0411815 Eh     change       -0.1594161E-01 Eh
   gradient norm :     0.0283592 Eh/α   predicted    -0.1293438E-01 ( -18.86%)
   displ. norm   :     0.9315417 α      lambda       -0.1960293E-01
   maximum displ.:     0.6128257 α      in ANC's #40, #29, #19, ...

........................................................................
.............................. CYCLE   23 ..............................
........................................................................
   1   -302.1495746 -0.302150E+03  0.129E-01    1.17       0.0  T
   2   -302.1495291  0.455131E-04  0.853E-02    1.17       1.0  T
   3   -302.1477109  0.181815E-02  0.788E-02    1.17       1.0  T
   4   -302.1495972 -0.188624E-02  0.178E-02    1.17       1.0  T
   5   -302.1496310 -0.338914E-04  0.119E-02    1.17       1.0  T
   6   -302.1496282  0.284071E-05  0.852E-03    1.17       1.0  T
   7   -302.1496374 -0.920785E-05  0.343E-03    1.17       2.3  T
   8   -302.1496396 -0.223931E-05  0.100E-03    1.17       7.9  T
   9   -302.1496397 -0.483156E-07  0.628E-04    1.17      12.6  T
  10   -302.1496397 -0.136745E-07  0.426E-04    1.17      18.5  T
     SCC iter.                  ...        0 min,  0.678 sec
     gradient                   ...        0 min,  0.231 sec
 * total energy  :  -297.0590707 Eh     change       -0.1788918E-01 Eh
   gradient norm :     0.0221042 Eh/α   predicted    -0.1830689E-01 (   2.33%)
   displ. norm   :     0.9467349 α      lambda       -0.1821328E-01
   maximum displ.:     0.5980802 α      in ANC's #40, #29, #19, ...

........................................................................
.............................. CYCLE   24 ..............................
........................................................................
   1   -302.1796405 -0.302180E+03  0.157E-01    1.16       0.0  T
   2   -302.1796128  0.276880E-04  0.995E-02    1.16       1.0  T
   3   -302.1779323  0.168056E-02  0.759E-02    1.16       1.0  T
   4   -302.1796607 -0.172837E-02  0.173E-02    1.16       1.0  T
   5   -302.1796918 -0.311637E-04  0.117E-02    1.16       1.0  T
   6   -302.1796895  0.227211E-05  0.810E-03    1.16       1.0  T
   7   -302.1796974 -0.789744E-05  0.346E-03    1.16       2.3  T
   8   -302.1796997 -0.222947E-05  0.103E-03    1.16       7.7  T
   9   -302.1796997 -0.517962E-07  0.602E-04    1.16      13.1  T
  10   -302.1796997 -0.706609E-08  0.390E-04    1.16      20.3  T
     SCC iter.                  ...        0 min,  0.677 sec
     gradient                   ...        0 min,  0.232 sec
 * total energy  :  -297.0749484 Eh     change       -0.1587770E-01 Eh
   gradient norm :     0.0240298 Eh/α   predicted    -0.1726904E-01 (   8.76%)
   displ. norm   :     0.9213666 α      lambda       -0.1582118E-01
   maximum displ.:     0.5495892 α      in ANC's #40, #29, #19, ...

........................................................................
.............................. CYCLE   25 ..............................
........................................................................
   1   -302.2110039 -0.302211E+03  0.134E-01    1.15       0.0  T
   2   -302.2109857  0.181683E-04  0.854E-02    1.15       1.0  T
   3   -302.2098243  0.116148E-02  0.637E-02    1.15       1.0  T
   4   -302.2110252 -0.120093E-02  0.145E-02    1.15       1.0  T
   5   -302.2110394 -0.141909E-04  0.102E-02    1.15       1.0  T
   6   -302.2110399 -0.538765E-06  0.565E-03    1.15       1.4  T
   7   -302.2110434 -0.345737E-05  0.209E-03    1.15       3.8  T
   8   -302.2110444 -0.982178E-06  0.103E-03    1.15       7.6  T
   9   -302.2110445 -0.136177E-06  0.583E-04    1.15      13.5  T
  10   -302.2110445 -0.133591E-07  0.354E-04    1.15      22.3  T
     SCC iter.                  ...        0 min,  0.682 sec
     gradient                   ...        0 min,  0.230 sec
 * total energy  :  -297.0891720 Eh     change       -0.1422364E-01 Eh
   gradient norm :     0.0224200 Eh/α   predicted    -0.1462603E-01 (   2.83%)
   displ. norm   :     0.9352644 α      lambda       -0.1464952E-01
   maximum displ.:     0.5215358 α      in ANC's #40, #29, #19, ...

........................................................................
.............................. CYCLE   26 ..............................
........................................................................
   1   -302.2411267 -0.302241E+03  0.158E-01    1.15       0.0  T
   2   -302.2411013  0.253957E-04  0.991E-02    1.15       1.0  T
   3   -302.2396579  0.144345E-02  0.737E-02    1.15       1.0  T
   4   -302.2411534 -0.149547E-02  0.142E-02    1.15       1.0  T
   5   -302.2411622 -0.884314E-05  0.104E-02    1.15       1.0  T
   6   -302.2411599  0.228030E-05  0.702E-03    1.15       1.1  T
   7   -302.2411678 -0.784202E-05  0.270E-03    1.15       2.9  T
   8   -302.2411695 -0.171338E-05  0.933E-04    1.15       8.5  T
   9   -302.2411695 -0.397503E-07  0.565E-04    1.15      14.0  T
  10   -302.2411695 -0.116607E-07  0.358E-04    1.15      22.1  T
     SCC iter.                  ...        0 min,  0.685 sec
     gradient                   ...        0 min,  0.231 sec
 * total energy  :  -297.1015870 Eh     change       -0.1241496E-01 Eh
   gradient norm :     0.0188309 Eh/α   predicted    -0.1373188E-01 (  10.61%)
   displ. norm   :     0.9068820 α      lambda       -0.1272654E-01
   maximum displ.:     0.4637914 α      in ANC's #29, #40, #19, ...

........................................................................
.............................. CYCLE   27 ..............................
........................................................................
   1   -302.2718332 -0.302272E+03  0.129E-01    1.15       0.0  T
   2   -302.2718160  0.172053E-04  0.821E-02    1.15       1.0  T
   3   -302.2707618  0.105420E-02  0.623E-02    1.15       1.0  T
   4   -302.2718554 -0.109361E-02  0.136E-02    1.15       1.0  T
   5   -302.2718649 -0.949233E-05  0.978E-03    1.15       1.0  T
   6   -302.2718648  0.589790E-07  0.604E-03    1.15       1.3  T
   7   -302.2718692 -0.444262E-05  0.238E-03    1.15       3.3  T
   8   -302.2718704 -0.111678E-05  0.977E-04    1.15       8.1  T
   9   -302.2718705 -0.973349E-07  0.545E-04    1.15      14.5  T
  10   -302.2718705 -0.115104E-07  0.358E-04    1.15      22.1  T
     SCC iter.                  ...        0 min,  0.681 sec
     gradient                   ...        0 min,  0.232 sec
 * total energy  :  -297.1131422 Eh     change       -0.1155525E-01 Eh
   gradient norm :     0.0143465 Eh/α   predicted    -0.1159665E-01 (   0.36%)
   displ. norm   :     0.9251150 α      lambda       -0.1103095E-01
   maximum displ.:     0.4996739 α      in ANC's #29, #19, #40, ...

........................................................................
.............................. CYCLE   28 ..............................
........................................................................
   1   -302.2989851 -0.302299E+03  0.125E-01    1.14       0.0  T
   2   -302.2989701  0.150931E-04  0.793E-02    1.14       1.0  T
   3   -302.2980308  0.939224E-03  0.606E-02    1.14       1.0  T
   4   -302.2990070 -0.976128E-03  0.132E-02    1.14       1.0  T
   5   -302.2990150 -0.806031E-05  0.966E-03    1.14       1.0  T
   6   -302.2990154 -0.340069E-06  0.597E-03    1.14       1.3  T
   7   -302.2990197 -0.432298E-05  0.231E-03    1.14       3.4  T
   8   -302.2990206 -0.939153E-06  0.968E-04    1.14       8.2  T
   9   -302.2990207 -0.105719E-06  0.512E-04    1.14      15.4  T
     SCC iter.                  ...        0 min,  0.611 sec
     gradient                   ...        0 min,  0.233 sec
 * total energy  :  -297.1232526 Eh     change       -0.1011036E-01 Eh
   gradient norm :     0.0139396 Eh/α   predicted    -0.1023583E-01 (   1.24%)
   displ. norm   :     0.9351467 α      lambda       -0.1047464E-01
   maximum displ.:     0.5146289 α      in ANC's #29, #19, #30, ...

........................................................................
.............................. CYCLE   29 ..............................
........................................................................
   1   -302.3262326 -0.302326E+03  0.148E-01    1.14       0.0  T
   2   -302.3262251  0.759169E-05  0.918E-02    1.14       1.0  T
   3   -302.3254727  0.752400E-03  0.547E-02    1.14       1.0  T
   4   -302.3262511 -0.778489E-03  0.128E-02    1.14       1.0  T
   5   -302.3262580 -0.683438E-05  0.938E-03    1.14       1.0  T
   6   -302.3262591 -0.113100E-05  0.535E-03    1.14       1.5  T
   7   -302.3262627 -0.362731E-05  0.219E-03    1.14       3.6  T
   8   -302.3262635 -0.758510E-06  0.102E-03    1.14       7.7  T
   9   -302.3262636 -0.126321E-06  0.515E-04    1.14      15.3  T
  10   -302.3262636 -0.647128E-08  0.364E-04    1.14      21.7  T
     SCC iter.                  ...        0 min,  0.681 sec
     gradient                   ...        0 min,  0.231 sec
 * total energy  :  -297.1322096 Eh     change       -0.8957035E-02 Eh
   gradient norm :     0.0147177 Eh/α   predicted    -0.9817357E-02 (   9.60%)
   displ. norm   :     0.8991538 α      lambda       -0.9386049E-02
   maximum displ.:     0.5000743 α      in ANC's #29, #19, #30, ...

........................................................................
.............................. CYCLE   30 ..............................
........................................................................
   1   -302.3533796 -0.302353E+03  0.123E-01    1.14       0.0  T
   2   -302.3533791  0.539426E-06  0.763E-02    1.14       1.0  T
   3   -302.3530045  0.374569E-03  0.394E-02    1.14       1.0  T
   4   -302.3533906 -0.386043E-03  0.114E-02    1.14       1.0  T
   5   -302.3533955 -0.496259E-05  0.826E-03    1.14       1.0  T
   6   -302.3533978 -0.223906E-05  0.410E-03    1.14       1.9  T
   7   -302.3533998 -0.206087E-05  0.160E-03    1.14       4.9  T
   8   -302.3534001 -0.329232E-06  0.898E-04    1.14       8.8  T
   9   -302.3534003 -0.105039E-06  0.392E-04    1.14      20.2  T
     SCC iter.                  ...        0 min,  0.618 sec
     gradient                   ...        0 min,  0.232 sec
 * total energy  :  -297.1405749 Eh     change       -0.8365246E-02 Eh
   gradient norm :     0.0135144 Eh/α   predicted    -0.8487245E-02 (   1.46%)
   displ. norm   :     0.9241050 α      lambda       -0.8745109E-02
   maximum displ.:     0.5298626 α      in ANC's #19, #29, #30, ...

........................................................................
.............................. CYCLE   31 ..............................
........................................................................
   1   -302.3752742 -0.302375E+03  0.153E-01    1.13       0.0  T
   2   -302.3752726  0.166254E-05  0.933E-02    1.13       1.0  T
   3   -302.3748275  0.445051E-03  0.441E-02    1.13       1.0  T
   4   -302.3752893 -0.461772E-03  0.110E-02    1.13       1.0  T
   5   -302.3752918 -0.250688E-05  0.819E-03    1.13       1.0  T
   6   -302.3752938 -0.204868E-05  0.398E-03    1.13       2.0  T
   7   -302.3752960 -0.215215E-05  0.184E-03    1.13       4.3  T
   8   -302.3752966 -0.645344E-06  0.949E-04    1.13       8.3  T
   9   -302.3752968 -0.139122E-06  0.408E-04    1.13      19.4  T
     SCC iter.                  ...        0 min,  0.613 sec
     gradient                   ...        0 min,  0.233 sec
 * total energy  :  -297.1477276 Eh     change       -0.7152764E-02 Eh
   gradient norm :     0.0145239 Eh/α   predicted    -0.8106594E-02 (  13.34%)
   displ. norm   :     0.8798764 α      lambda       -0.8183390E-02
   maximum displ.:     0.5181104 α      in ANC's #19, #29, #30, ...

........................................................................
.............................. CYCLE   32 ..............................
........................................................................
   1   -302.3979854 -0.302398E+03  0.127E-01    1.13       0.0  T
   2   -302.3979843  0.112113E-05  0.781E-02    1.12       1.0  T
   3   -302.3976197  0.364522E-03  0.395E-02    1.13       1.0  T
   4   -302.3979976 -0.377913E-03  0.105E-02    1.13       1.0  T
   5   -302.3980006 -0.291955E-05  0.774E-03    1.13       1.0  T
   6   -302.3980022 -0.163370E-05  0.394E-03    1.13       2.0  T
   7   -302.3980042 -0.200337E-05  0.179E-03    1.13       4.4  T
   8   -302.3980048 -0.578508E-06  0.849E-04    1.13       9.3  T
   9   -302.3980049 -0.104944E-06  0.370E-04    1.13      21.4  T
     SCC iter.                  ...        0 min,  0.609 sec
     gradient                   ...        0 min,  0.233 sec
 * total energy  :  -297.1549310 Eh     change       -0.7203399E-02 Eh
   gradient norm :     0.0101921 Eh/α   predicted    -0.7259421E-02 (   0.78%)
   displ. norm   :     0.9138012 α      lambda       -0.6977100E-02
   maximum displ.:     0.5533461 α      in ANC's #19, #29, #30, ...

........................................................................
.............................. CYCLE   33 ..............................
........................................................................
   1   -302.4214771 -0.302421E+03  0.105E-01    1.12       0.0  T
   2   -302.4214748  0.232759E-05  0.658E-02    1.12       1.0  T
   3   -302.4211207  0.354113E-03  0.393E-02    1.12       1.0  T
   4   -302.4214893 -0.368603E-03  0.103E-02    1.12       1.0  T
   5   -302.4214907 -0.138181E-05  0.774E-03    1.12       1.0  T
   6   -302.4214925 -0.186237E-05  0.399E-03    1.12       2.0  T
   7   -302.4214946 -0.206639E-05  0.177E-03    1.12       4.5  T
   8   -302.4214951 -0.530128E-06  0.734E-04    1.12      10.8  T
   9   -302.4214952 -0.749023E-07  0.296E-04    1.12      26.7  T
     SCC iter.                  ...        0 min,  0.615 sec
     gradient                   ...        0 min,  0.232 sec
 * total energy  :  -297.1614588 Eh     change       -0.6527712E-02 Eh
   gradient norm :     0.0087181 Eh/α   predicted    -0.6401595E-02 (  -1.93%)
   displ. norm   :     0.9295051 α      lambda       -0.6554770E-02
   maximum displ.:     0.5757285 α      in ANC's #19, #29, #30, ...

........................................................................
.............................. CYCLE   34 ..............................
........................................................................
   1   -302.4443377 -0.302444E+03  0.113E-01    1.11       0.0  T
   2   -302.4443359  0.184010E-05  0.697E-02    1.11       1.0  T
   3   -302.4439951  0.340816E-03  0.388E-02    1.11       1.0  T
   4   -302.4443502 -0.355121E-03  0.102E-02    1.11       1.0  T
   5   -302.4443512 -0.984616E-06  0.760E-03    1.11       1.0  T
   6   -302.4443534 -0.219142E-05  0.351E-03    1.11       2.3  T
   7   -302.4443548 -0.142740E-05  0.156E-03    1.11       5.1  T
   8   -302.4443552 -0.402261E-06  0.799E-04    1.11       9.9  T
   9   -302.4443553 -0.112334E-06  0.272E-04    1.11      29.0  T
     SCC iter.                  ...        0 min,  0.615 sec
     gradient                   ...        0 min,  0.233 sec
 * total energy  :  -297.1674748 Eh     change       -0.6016079E-02 Eh
   gradient norm :     0.0085108 Eh/α   predicted    -0.6108983E-02 (   1.54%)
   displ. norm   :     0.9373824 α      lambda       -0.6214287E-02
   maximum displ.:     0.5717008 α      in ANC's #19, #29, #30, ...

........................................................................
.............................. CYCLE   35 ..............................
........................................................................
   1   -302.4668991 -0.302467E+03  0.112E-01    1.10       0.0  T
   2   -302.4668976  0.143497E-05  0.692E-02    1.10       1.0  T
   3   -302.4665700  0.327614E-03  0.382E-02    1.10       1.0  T
   4   -302.4669116 -0.341529E-03  0.102E-02    1.10       1.0  T
   5   -302.4669129 -0.132413E-05  0.745E-03    1.10       1.1  T
   6   -302.4669150 -0.209100E-05  0.327E-03    1.10       2.4  T
   7   -302.4669161 -0.115713E-05  0.125E-03    1.10       6.3  T
   8   -302.4669163 -0.184999E-06  0.823E-04    1.10       9.6  T
   9   -302.4669164 -0.140225E-06  0.273E-04    1.10      28.9  T
     SCC iter.                  ...        0 min,  0.612 sec
     gradient                   ...        0 min,  0.233 sec
 * total energy  :  -297.1731588 Eh     change       -0.5683945E-02 Eh
   gradient norm :     0.0077685 Eh/α   predicted    -0.5837360E-02 (   2.70%)
   displ. norm   :     0.9348705 α      lambda       -0.5417265E-02
   maximum displ.:     0.5850659 α      in ANC's #19, #29, #30, ...

........................................................................
.............................. CYCLE   36 ..............................
........................................................................
   1   -302.4859536 -0.302486E+03  0.973E-02    1.09       0.0  T
   2   -302.4859515  0.201707E-05  0.614E-02    1.09       1.0  T
   3   -302.4856240  0.327524E-03  0.385E-02    1.10       1.0  T
   4   -302.4859659 -0.341934E-03  0.103E-02    1.09       1.0  T
   5   -302.4859675 -0.156019E-05  0.750E-03    1.09       1.1  T
   6   -302.4859697 -0.217559E-05  0.315E-03    1.09       2.5  T
   7   -302.4859708 -0.111208E-05  0.104E-03    1.09       7.6  T
   8   -302.4859709 -0.561610E-07  0.798E-04    1.09       9.9  T
   9   -302.4859710 -0.137076E-06  0.268E-04    1.09      29.5  T
     SCC iter.                  ...        0 min,  0.612 sec
     gradient                   ...        0 min,  0.234 sec
 * total energy  :  -297.1782413 Eh     change       -0.5082515E-02 Eh
   gradient norm :     0.0068247 Eh/α   predicted    -0.5075944E-02 (  -0.13%)
   displ. norm   :     0.9319692 α      lambda       -0.4840281E-02
   maximum displ.:     0.5872673 α      in ANC's #19, #29, #30, ...

........................................................................
.............................. CYCLE   37 ..............................
........................................................................
   1   -302.5057495 -0.302506E+03  0.957E-02    1.09       0.0  T
   2   -302.5057472  0.225040E-05  0.606E-02    1.09       1.0  T
   3   -302.5054213  0.325955E-03  0.384E-02    1.09       1.0  T
   4   -302.5057617 -0.340460E-03  0.104E-02    1.09       1.0  T
   5   -302.5057626 -0.913061E-06  0.753E-03    1.09       1.0  T
   6   -302.5057651 -0.244306E-05  0.308E-03    1.09       2.6  T
   7   -302.5057662 -0.111187E-05  0.105E-03    1.09       7.5  T
   8   -302.5057663 -0.828935E-07  0.779E-04    1.09      10.2  T
   9   -302.5057664 -0.131171E-06  0.261E-04    1.09      30.2  T
     SCC iter.                  ...        0 min,  0.617 sec
     gradient                   ...        0 min,  0.232 sec
 * total energy  :  -297.1827594 Eh     change       -0.4518135E-02 Eh
   gradient norm :     0.0063862 Eh/α   predicted    -0.4522199E-02 (   0.09%)
   displ. norm   :     0.9292635 α      lambda       -0.4318327E-02
   maximum displ.:     0.5888161 α      in ANC's #19, #29, #30, ...

........................................................................
.............................. CYCLE   38 ..............................
........................................................................
   1   -302.5254499 -0.302525E+03  0.950E-02    1.08       0.0  T
   2   -302.5254481  0.184425E-05  0.604E-02    1.08       1.0  T
   3   -302.5251351  0.312912E-03  0.378E-02    1.08       1.0  T
   4   -302.5254616 -0.326449E-03  0.105E-02    1.08       1.0  T
   5   -302.5254624 -0.772375E-06  0.765E-03    1.08       1.0  T
   6   -302.5254645 -0.214414E-05  0.339E-03    1.08       2.3  T
   7   -302.5254660 -0.148836E-05  0.133E-03    1.08       5.9  T
   8   -302.5254663 -0.310537E-06  0.709E-04    1.08      11.2  T
   9   -302.5254664 -0.923347E-07  0.249E-04    1.08      31.7  T
     SCC iter.                  ...        0 min,  0.616 sec
     gradient                   ...        0 min,  0.234 sec
[...]
 185:  0.08 186:  0.07 187:  0.35 188:  6.94 189:  9.49 190:  0.01 191:  3.19 192:  4.01
 193: 16.69 194: 16.68 195: 22.88 196:  0.00 197:  9.81 198:  0.00 199: 24.99 200:  4.12
 201: 36.43 202:  3.45 203:  0.04 204:  0.00 205: 43.87 206: 28.41 207: 60.75 208:  0.01
 209:  0.04 210:  0.00 211: 36.14 212:  0.00 213:  3.77 214:  0.00 215:  3.05 216:  0.04
 217: 17.41 218:  0.15 219:  0.14 220:  1.38 221:  0.51 222:104.95 223:  0.23 224:  0.34
 225: 16.53 226: 17.80 227:  0.02 228: 58.69 229:  0.07 230:  0.38 231:  0.02 232:  0.56
 233:  7.71 234:  6.33 235:  0.40 236:  0.01 237:  6.23 238:  0.03 239: 17.57 240:  0.07
 241: 51.01 242:  3.56 243:  0.49 244:  0.35 245:  1.08 246:245.73 247:  0.10 248:  0.28
 249:139.76 250:136.47 251: 56.61 252:  2.96 253:  5.85 254: 16.85 255:  2.80 256: 53.52
 257:  1.89 258:  2.10 259:  0.03 260:  0.09 261:  3.34 262:  0.61 263:  0.15 264:  0.33
 265:  0.04 266:  0.08 267:  0.35 268:  0.00 269:  0.02 270:  0.00 271:  6.59 272:  0.00
 273: 71.16 274:  2.50 275:  5.81 276: 39.43 277: 83.31 278:  0.01 279: 62.18 280: 64.49
 281:  0.70 282:  0.02 283:  0.35 284:  1.12 285:  0.01 286:  0.00 287: 78.96 288:  9.52
 289: 17.18 290:  0.02 291:  0.02 292:  0.00 293:118.56 294: 17.23 295:  3.33 296: 39.97
 297:  0.03 298: 64.27 299: 12.23 300:  3.61 301:  0.06 302:  0.19 303: 33.83 304:  0.10
 305:  0.07 306:  0.41 307: 30.57 308: 44.67 309:  0.03 310:164.83 311:  4.54 312:  0.14
 313: 25.99 314:  0.49 315:488.29 316:  0.00 317: 11.66 318:  0.02 319: 12.48 320:104.55
 321:  3.90 322:  0.05 323: 38.47 324:  0.04 325:  0.00 326:  0.00 327: 47.01 328: 66.43
 329: 15.81 330:  0.02 331: 13.13 332: 14.96 333:215.26 334: 83.38 335: 18.65 336:  0.22
 337:  0.11 338:  3.14 339:137.65 340:  0.00 341:  0.00 342:  0.00 343:  9.04 344:  0.01
 345: 21.33 346:  0.37 347:  0.03 348: 10.45 349: 36.65 350:  9.21 351:749.27 352:  0.02
 353: 79.84 354:  2.88 355:  0.13 356:  1.31 357:  0.01 358:  0.03 359: 79.58 360: 11.82
 361:  0.00 362:  0.91 363: 29.13 364: 20.88 365: 21.52 366:  5.23 367:  0.05 368:  0.01
 369: 69.05 370:  0.35 371: 32.22 372:  0.00 373:  8.47 374:  0.05 375:  3.09 376: 24.99
 377:  0.06 378:  0.29 379: 90.92 380:  0.00 381:  2.02 382:  0.77 383: 18.81 384: 85.71
 385: 45.74 386:  0.16 387:  0.93 388:  0.01 389:150.96 390:  0.03 391:268.28 392:  0.01
 393:  0.12 394:  0.02 395:  0.03 396:  0.03 397:108.03 398:  0.08 399:  0.02 400:  0.00
 401:  0.06 402:  0.04 403:  0.02 404:  0.01 405:  0.73 406:  0.47 407:214.84 408:  1.90
 409: 10.23 410:  2.01 411:283.65 412: 33.70 413: 15.76 414: 20.54 415: 14.31 416:  0.00
 417:  0.97 418:  4.58 419:  5.11 420:  2.85 421:  0.09 422:517.75 423:  0.88 424:544.93
 425:  0.33 426:  0.01 427:  0.00 428:  0.01 429:  0.88 430:  0.13 431: 60.49 432:  3.94
 433:  0.00 434:  1.88 435:  1.94 436:  0.05 437:  0.04 438:  0.37 439:  0.74 440:  0.08
 441: 44.54 442:  0.94 443: 12.01 444: 88.05 445: 30.02 446: 90.20 447: 21.58 448: 13.90
 449:  6.95 450:  4.71 451:  8.84 452: 10.49 453: 16.45 454: 31.83 455:  2.27 456:  5.19
 457: 20.57 458:  0.13 459:  7.41 460:  4.58 461: 45.01 462:  5.91 463: 37.40 464:  9.75
 465: 36.90 466:161.08 467:514.47 468:  4.45 469:  6.14 470: 67.43 471: 18.35 472: 21.64
 473: 47.41 474: 30.46 475:110.00 476: 11.55 477: 74.61 478:  2.05 479:  2.87 480: 20.30
 Raman intensities (amu)
   1:  0.00   2:  0.00   3:  0.00   4:  0.00   5:  0.00   6:  0.00   7:  0.00   8:  0.00
   9:  0.00  10:  0.00  11:  0.00  12:  0.00  13:  0.00  14:  0.00  15:  0.00  16:  0.00
  17:  0.00  18:  0.00  19:  0.00  20:  0.00  21:  0.00  22:  0.00  23:  0.00  24:  0.00
  25:  0.00  26:  0.00  27:  0.00  28:  0.00  29:  0.00  30:  0.00  31:  0.00  32:  0.00
  33:  0.00  34:  0.00  35:  0.00  36:  0.00  37:  0.00  38:  0.00  39:  0.00  40:  0.00
  41:  0.00  42:  0.00  43:  0.00  44:  0.00  45:  0.00  46:  0.00  47:  0.00  48:  0.00
  49:  0.00  50:  0.00  51:  0.00  52:  0.00  53:  0.00  54:  0.00  55:  0.00  56:  0.00
  57:  0.00  58:  0.00  59:  0.00  60:  0.00  61:  0.00  62:  0.00  63:  0.00  64:  0.00
  65:  0.00  66:  0.00  67:  0.00  68:  0.00  69:  0.00  70:  0.00  71:  0.00  72:  0.00
  73:  0.00  74:  0.00  75:  0.00  76:  0.00  77:  0.00  78:  0.00  79:  0.00  80:  0.00
  81:  0.00  82:  0.00  83:  0.00  84:  0.00  85:  0.00  86:  0.00  87:  0.00  88:  0.00
  89:  0.00  90:  0.00  91:  0.00  92:  0.00  93:  0.00  94:  0.00  95:  0.00  96:  0.00
  97:  0.00  98:  0.00  99:  0.00 100:  0.00 101:  0.00 102:  0.00 103:  0.00 104:  0.00
 105:  0.00 106:  0.00 107:  0.00 108:  0.00 109:  0.00 110:  0.00 111:  0.00 112:  0.00
 113:  0.00 114:  0.00 115:  0.00 116:  0.00 117:  0.00 118:  0.00 119:  0.00 120:  0.00
 121:  0.00 122:  0.00 123:  0.00 124:  0.00 125:  0.00 126:  0.00 127:  0.00 128:  0.00
 129:  0.00 130:  0.00 131:  0.00 132:  0.00 133:  0.00 134:  0.00 135:  0.00 136:  0.00
 137:  0.00 138:  0.00 139:  0.00 140:  0.00 141:  0.00 142:  0.00 143:  0.00 144:  0.00
 145:  0.00 146:  0.00 147:  0.00 148:  0.00 149:  0.00 150:  0.00 151:  0.00 152:  0.00
 153:  0.00 154:  0.00 155:  0.00 156:  0.00 157:  0.00 158:  0.00 159:  0.00 160:  0.00
 161:  0.00 162:  0.00 163:  0.00 164:  0.00 165:  0.00 166:  0.00 167:  0.00 168:  0.00
 169:  0.00 170:  0.00 171:  0.00 172:  0.00 173:  0.00 174:  0.00 175:  0.00 176:  0.00
 177:  0.00 178:  0.00 179:  0.00 180:  0.00 181:  0.00 182:  0.00 183:  0.00 184:  0.00
 185:  0.00 186:  0.00 187:  0.00 188:  0.00 189:  0.00 190:  0.00 191:  0.00 192:  0.00
 193:  0.00 194:  0.00 195:  0.00 196:  0.00 197:  0.00 198:  0.00 199:  0.00 200:  0.00
 201:  0.00 202:  0.00 203:  0.00 204:  0.00 205:  0.00 206:  0.00 207:  0.00 208:  0.00
 209:  0.00 210:  0.00 211:  0.00 212:  0.00 213:  0.00 214:  0.00 215:  0.00 216:  0.00
 217:  0.00 218:  0.00 219:  0.00 220:  0.00 221:  0.00 222:  0.00 223:  0.00 224:  0.00
 225:  0.00 226:  0.00 227:  0.00 228:  0.00 229:  0.00 230:  0.00 231:  0.00 232:  0.00
 233:  0.00 234:  0.00 235:  0.00 236:  0.00 237:  0.00 238:  0.00 239:  0.00 240:  0.00
 241:  0.00 242:  0.00 243:  0.00 244:  0.00 245:  0.00 246:  0.00 247:  0.00 248:  0.00
 249:  0.00 250:  0.00 251:  0.00 252:  0.00 253:  0.00 254:  0.00 255:  0.00 256:  0.00
 257:  0.00 258:  0.00 259:  0.00 260:  0.00 261:  0.00 262:  0.00 263:  0.00 264:  0.00
 265:  0.00 266:  0.00 267:  0.00 268:  0.00 269:  0.00 270:  0.00 271:  0.00 272:  0.00
 273:  0.00 274:  0.00 275:  0.00 276:  0.00 277:  0.00 278:  0.00 279:  0.00 280:  0.00
 281:  0.00 282:  0.00 283:  0.00 284:  0.00 285:  0.00 286:  0.00 287:  0.00 288:  0.00
 289:  0.00 290:  0.00 291:  0.00 292:  0.00 293:  0.00 294:  0.00 295:  0.00 296:  0.00
 297:  0.00 298:  0.00 299:  0.00 300:  0.00 301:  0.00 302:  0.00 303:  0.00 304:  0.00
 305:  0.00 306:  0.00 307:  0.00 308:  0.00 309:  0.00 310:  0.00 311:  0.00 312:  0.00
 313:  0.00 314:  0.00 315:  0.00 316:  0.00 317:  0.00 318:  0.00 319:  0.00 320:  0.00
 321:  0.00 322:  0.00 323:  0.00 324:  0.00 325:  0.00 326:  0.00 327:  0.00 328:  0.00
 329:  0.00 330:  0.00 331:  0.00 332:  0.00 333:  0.00 334:  0.00 335:  0.00 336:  0.00
 337:  0.00 338:  0.00 339:  0.00 340:  0.00 341:  0.00 342:  0.00 343:  0.00 344:  0.00
 345:  0.00 346:  0.00 347:  0.00 348:  0.00 349:  0.00 350:  0.00 351:  0.00 352:  0.00
 353:  0.00 354:  0.00 355:  0.00 356:  0.00 357:  0.00 358:  0.00 359:  0.00 360:  0.00
 361:  0.00 362:  0.00 363:  0.00 364:  0.00 365:  0.00 366:  0.00 367:  0.00 368:  0.00
Refinement of some symmetry elements was terminated before convergence was reached.
Some symmetry elements may remain unidentified.
Molecule has no symmetry elements
It seems to be the C1 point group
 369:  0.00 370:  0.00 371:  0.00 372:  0.00 373:  0.00 374:  0.00 375:  0.00 376:  0.00
 377:  0.00 378:  0.00 379:  0.00 380:  0.00 381:  0.00 382:  0.00 383:  0.00 384:  0.00
 385:  0.00 386:  0.00 387:  0.00 388:  0.00 389:  0.00 390:  0.00 391:  0.00 392:  0.00
 393:  0.00 394:  0.00 395:  0.00 396:  0.00 397:  0.00 398:  0.00 399:  0.00 400:  0.00
 401:  0.00 402:  0.00 403:  0.00 404:  0.00 405:  0.00 406:  0.00 407:  0.00 408:  0.00
 409:  0.00 410:  0.00 411:  0.00 412:  0.00 413:  0.00 414:  0.00 415:  0.00 416:  0.00
 417:  0.00 418:  0.00 419:  0.00 420:  0.00 421:  0.00 422:  0.00 423:  0.00 424:  0.00
 425:  0.00 426:  0.00 427:  0.00 428:  0.00 429:  0.00 430:  0.00 431:  0.00 432:  0.00
 433:  0.00 434:  0.00 435:  0.00 436:  0.00 437:  0.00 438:  0.00 439:  0.00 440:  0.00
 441:  0.00 442:  0.00 443:  0.00 444:  0.00 445:  0.00 446:  0.00 447:  0.00 448:  0.00
 449:  0.00 450:  0.00 451:  0.00 452:  0.00 453:  0.00 454:  0.00 455:  0.00 456:  0.00
 457:  0.00 458:  0.00 459:  0.00 460:  0.00 461:  0.00 462:  0.00 463:  0.00 464:  0.00
 465:  0.00 466:  0.00 467:  0.00 468:  0.00 469:  0.00 470:  0.00 471:  0.00 472:  0.00
 473:  0.00 474:  0.00 475:  0.00 476:  0.00 477:  0.00 478:  0.00 479:  0.00 480:  0.00
 output can be read by thermo (or use thermo option).
 writing <g98.out> molden fake output.
 recommended (thermochemical) frequency scaling factor: 1.0
           -------------------------------------------------
          |             Thermodynamic Functions             |
           -------------------------------------------------

c1  symmetry found (for desy threshold:  0.10E+00) used in thermo
 inverting freq            1   4.7231494373764837     
 inverting freq            2   3.5501972000567656     
 inverting freq            3   2.5307161448616826     
 inverting freq            4   1.1497868346520630     

          ...................................................
          :                      SETUP                      :
          :.................................................:
          :  # frequencies                         474      :
          :  # imaginary freq.                       0      :
          :  linear?                             false      :
          :  only rotor calc.                    false      :
          :  symmetry                               c1      :
          :  rotational number                       1      :
          :  scaling factor                  1.0000000      :
          :  rotor cutoff                   50.0000000 cm⁻¹ :
          :  imag. cutoff                  -20.0000000 cm⁻¹ :
          :.................................................:

    mode    ω/cm⁻¹     T·S(HO)/kcal·mol⁻¹    T·S(FR)/kcal·mol⁻¹   T·S(vib)
   ------------------------------------------------------------------------
       1      4.72    -2.83287 (  0.01%)    -1.75554 ( 99.99%)    -1.75563
       2      3.55    -3.00201 (  0.00%)    -1.84011 (100.00%)    -1.84014
       3      2.53    -3.20256 (  0.00%)    -1.94039 (100.00%)    -1.94040
       4      1.15    -3.66998 (  0.00%)    -2.17410 (100.00%)    -2.17410
       5      1.06    -3.71928 (  0.00%)    -2.19874 (100.00%)    -2.19874
       6      3.60    -2.99324 (  0.00%)    -1.83573 (100.00%)    -1.83576
       7      4.08    -2.91987 (  0.00%)    -1.79905 (100.00%)    -1.79910
       8      4.16    -2.90797 (  0.00%)    -1.79309 (100.00%)    -1.79315
       9      4.62    -2.84600 (  0.01%)    -1.76211 ( 99.99%)    -1.76219
      10      7.71    -2.54247 (  0.06%)    -1.61034 ( 99.94%)    -1.61086
      11      9.53    -2.41723 (  0.13%)    -1.54771 ( 99.87%)    -1.54885
      12     11.31    -2.31555 (  0.26%)    -1.49686 ( 99.74%)    -1.49899
      13     12.27    -2.26721 (  0.36%)    -1.47268 ( 99.64%)    -1.47555
      14     17.29    -2.06412 (  1.41%)    -1.37109 ( 98.59%)    -1.38087
      15     22.77    -1.90115 (  4.12%)    -1.28954 ( 95.88%)    -1.31477
      16     23.25    -1.88885 (  4.47%)    -1.28339 ( 95.53%)    -1.31043
      17     23.91    -1.87241 (  4.97%)    -1.27516 ( 95.03%)    -1.30481
      18     25.18    -1.84155 (  6.05%)    -1.25971 ( 93.95%)    -1.29489
      19     25.74    -1.82866 (  6.56%)    -1.25325 ( 93.44%)    -1.29101
      20     28.22    -1.77430 (  9.21%)    -1.22604 ( 90.79%)    -1.27652
      21     29.61    -1.74584 ( 10.95%)    -1.21178 ( 89.05%)    -1.27025
      22     35.70    -1.63512 ( 20.64%)    -1.15631 ( 79.36%)    -1.25512
      23     36.45    -1.62294 ( 22.02%)    -1.15020 ( 77.98%)    -1.25430
      24     42.24    -1.53584 ( 33.74%)    -1.10652 ( 66.26%)    -1.25139
      25     61.48    -1.31457 ( 69.57%)    -0.99532 ( 30.43%)    -1.21741
      26     71.43    -1.22647 ( 80.64%)    -0.95089 ( 19.36%)    -1.17311
      27     72.33    -1.21908 ( 81.41%)    -0.94716 ( 18.59%)    -1.16854
      28     81.02    -1.15262 ( 87.34%)    -0.91355 ( 12.66%)    -1.12234
      29     87.70    -1.10637 ( 90.44%)    -0.89010 (  9.56%)    -1.08570
      30     91.16    -1.08377 ( 91.70%)    -0.87862 (  8.30%)    -1.06674
      31     95.15    -1.05884 ( 92.91%)    -0.86595 (  7.09%)    -1.04518
      32     99.79    -1.03115 ( 94.07%)    -0.85185 (  5.93%)    -1.02052
      33    100.13    -1.02917 ( 94.15%)    -0.85084 (  5.85%)    -1.01873
      34    100.61    -1.02636 ( 94.25%)    -0.84941 (  5.75%)    -1.01619
      35    102.07    -1.01802 ( 94.55%)    -0.84515 (  5.45%)    -1.00861
      36    105.82    -0.99709 ( 95.25%)    -0.83447 (  4.75%)    -0.98937
      37    105.99    -0.99613 ( 95.28%)    -0.83398 (  4.72%)    -0.98848
      38    117.28    -0.93758 ( 96.80%)    -0.80398 (  3.20%)    -0.93331
      39    118.45    -0.93185 ( 96.92%)    -0.80104 (  3.08%)    -0.92783
      40    118.56    -0.93132 ( 96.93%)    -0.80077 (  3.07%)    -0.92731
      41    120.27    -0.92310 ( 97.10%)    -0.79654 (  2.90%)    -0.91943
      42    120.34    -0.92275 ( 97.11%)    -0.79636 (  2.89%)    -0.91909
      43    128.98    -0.88289 ( 97.79%)    -0.77582 (  2.21%)    -0.88052
      44    137.83    -0.84491 ( 98.30%)    -0.75617 (  1.70%)    -0.84340
      45    165.44    -0.74138 ( 99.17%)    -0.70206 (  0.83%)    -0.74106
      46    166.50    -0.73780 ( 99.19%)    -0.70017 (  0.81%)    -0.73750
      47    175.03    -0.70984 ( 99.34%)    -0.68539 (  0.66%)    -0.70968
      48    175.77    -0.70746 ( 99.35%)    -0.68412 (  0.65%)    -0.70731
      49    175.94    -0.70693 ( 99.35%)    -0.68384 (  0.65%)    -0.70678
      50    176.32    -0.70572 ( 99.36%)    -0.68320 (  0.64%)    -0.70557
      51    176.78    -0.70429 ( 99.36%)    -0.68244 (  0.64%)    -0.70415
      52    181.95    -0.68823 ( 99.43%)    -0.67389 (  0.57%)    -0.68815
      53    183.08    -0.68479 ( 99.45%)    -0.67206 (  0.55%)    -0.68472
      54    185.73    -0.67680 ( 99.48%)    -0.66780 (  0.52%)    -0.67676
      55    188.36    -0.66901 ( 99.51%)    -0.66363 (  0.49%)    -0.66898
      56    192.41    -0.65727 ( 99.55%)    -0.65734 (  0.45%)    -0.65727
      57    224.59    -0.57299 ( 99.75%)    -0.61153 (  0.25%)    -0.57308
      58    226.48    -0.56848 ( 99.76%)    -0.60904 (  0.24%)    -0.56857
      59    226.58    -0.56824 ( 99.76%)    -0.60891 (  0.24%)    -0.56834
      60    226.82    -0.56767 ( 99.76%)    -0.60860 (  0.24%)    -0.56777
      61    227.09    -0.56704 ( 99.77%)    -0.60825 (  0.23%)    -0.56714
      62    229.52    -0.56132 ( 99.78%)    -0.60508 (  0.22%)    -0.56142
      63    229.84    -0.56058 ( 99.78%)    -0.60468 (  0.22%)    -0.56068
      64    230.68    -0.55862 ( 99.78%)    -0.60359 (  0.22%)    -0.55872
      65    233.08    -0.55310 ( 99.79%)    -0.60053 (  0.21%)    -0.55320
      66    233.32    -0.55255 ( 99.79%)    -0.60022 (  0.21%)    -0.55265
      67    234.17    -0.55062 ( 99.79%)    -0.59915 (  0.21%)    -0.55072
      68    234.29    -0.55034 ( 99.79%)    -0.59900 (  0.21%)    -0.55044
      69    237.46    -0.54317 ( 99.80%)    -0.59501 (  0.20%)    -0.54328
      70    237.47    -0.54316 ( 99.80%)    -0.59500 (  0.20%)    -0.54327
      71    242.49    -0.53206 ( 99.82%)    -0.58880 (  0.18%)    -0.53216
      72    245.76    -0.52498 ( 99.83%)    -0.58483 (  0.17%)    -0.52508
      73    245.94    -0.52459 ( 99.83%)    -0.58462 (  0.17%)    -0.52470
      74    245.98    -0.52450 ( 99.83%)    -0.58456 (  0.17%)    -0.52460
      75    246.38    -0.52365 ( 99.83%)    -0.58409 (  0.17%)    -0.52375
      76    246.67    -0.52303 ( 99.83%)    -0.58374 (  0.17%)    -0.52313
      77    246.87    -0.52260 ( 99.83%)    -0.58350 (  0.17%)    -0.52270
      78    256.22    -0.50310 ( 99.86%)    -0.57249 (  0.14%)    -0.50320
      79    269.08    -0.47768 ( 99.88%)    -0.55798 (  0.12%)    -0.47777
      80    269.33    -0.47720 ( 99.88%)    -0.55771 (  0.12%)    -0.47729
      81    270.73    -0.47452 ( 99.88%)    -0.55617 (  0.12%)    -0.47461
      82    270.96    -0.47409 ( 99.88%)    -0.55592 (  0.12%)    -0.47418
      83    271.46    -0.47314 ( 99.89%)    -0.55537 (  0.11%)    -0.47323
      84    271.80    -0.47249 ( 99.89%)    -0.55500 (  0.11%)    -0.47258
      85    272.02    -0.47208 ( 99.89%)    -0.55477 (  0.11%)    -0.47217
      86    272.22    -0.47169 ( 99.89%)    -0.55454 (  0.11%)    -0.47179
      87    291.28    -0.43724 ( 99.91%)    -0.53450 (  0.09%)    -0.43733
      88    293.06    -0.43418 ( 99.92%)    -0.53269 (  0.08%)    -0.43426
      89    294.74    -0.43130 ( 99.92%)    -0.53099 (  0.08%)    -0.43138
      90    299.69    -0.42296 ( 99.92%)    -0.52606 (  0.08%)    -0.42304
   ------------------------------------------------------------------------

   temp. (K)  partition function   enthalpy   heat capacity  entropy
                                   cal/mol     cal/K/mol   cal/K/mol   J/K/mol
 298.15  VIB  0.788E+55            58977.633    375.285    381.034
         ROT  0.338E+10              888.752      2.981     46.585
         INT  0.267E+65            59866.386    378.266    427.620
         TR   0.665E+29             1481.254      4.968     48.103
         TOT                       61347.6395   383.2339   475.7226  1990.4233

       T/K    H(0)-H(T)+PV         H(T)/Eh          T*S/Eh         G(T)/Eh
   ------------------------------------------------------------------------
    298.15    0.977637E-01    0.118485E+01    0.226031E+00    0.958818E+00
   ------------------------------------------------------------------------

         :::::::::::::::::::::::::::::::::::::::::::::::::::::
         ::                  THERMODYNAMIC                  ::
         :::::::::::::::::::::::::::::::::::::::::::::::::::::
         :: total free energy        -296.246005086887 Eh   ::
         ::.................................................::
         :: total energy             -297.204822720955 Eh   ::
         :: zero point energy           1.087085101770 Eh   ::
         :: G(RRHO) w/o ZPVE           -0.128267467702 Eh   ::
         :: G(RRHO) contrib.            0.958817634067 Eh   ::
         :::::::::::::::::::::::::::::::::::::::::::::::::::::

optimized geometry written to: xtbopt.xyz


           -------------------------------------------------
          | TOTAL ENERGY             -297.204822720955 Eh   |
          | TOTAL ENTHALPY           -296.019973932742 Eh   |
          | TOTAL FREE ENERGY        -296.246005086887 Eh   |
          | GRADIENT NORM               0.000522535301 Eh/α |
          | HOMO-LUMO GAP               1.023822089049 eV   |
           -------------------------------------------------

------------------------------------------------------------------------
 * finished run on 2021/11/19 at 14:23:21.844     
------------------------------------------------------------------------
 total:
 * wall-time:     0 d,  0 h, 11 min, 49.041 sec
 *  cpu-time:     0 d,  0 h, 11 min, 49.049 sec
 * ratio c/w:     1.000 speedup
 SCF:
 * wall-time:     0 d,  0 h,  0 min,  8.034 sec
 *  cpu-time:     0 d,  0 h,  0 min,  8.034 sec
 * ratio c/w:     1.000 speedup
 ANC optimizer:
 * wall-time:     0 d,  0 h,  1 min, 14.961 sec
 *  cpu-time:     0 d,  0 h,  1 min, 14.962 sec
 * ratio c/w:     1.000 speedup
 analytical hessian:
 * wall-time:     0 d,  0 h, 10 min, 25.685 sec
 *  cpu-time:     0 d,  0 h, 10 min, 25.692 sec
 * ratio c/w:     1.000 speedup

