160
 energy: -295.557362161379 gnorm: 1.467017408978 xtb: 6.4.1 (bd6e46d)
Ni       16.63705400000000    0.03435800000000   -0.01039200000000
C        18.96604500000000   -3.11243500000000    1.31229700000000
C        19.88215200000000   -2.16822700000000    1.26201500000000
C        19.47097200000000   -1.11432300000000    0.34072300000000
C        20.08984300000000    0.01002300000000   -0.00568700000000
C        19.38580100000000    1.22997100000000   -0.36979200000000
C        19.71391100000000    2.19002600000000   -1.21726600000000
C        18.67913100000000    3.20631100000000   -1.23416400000000
C        17.74286300000000    2.82984900000000   -0.38727200000000
N        18.14485400000000    1.59683800000000    0.17654500000000
C        16.48178900000000    3.47484800000000   -0.00812000000000
C        15.38657200000000    2.84006600000000    0.34264000000000
C        14.31294600000000    3.15802200000000    1.31166800000000
C        13.47538300000000    2.16126800000000    1.23450200000000
C        13.91368100000000    1.15758500000000    0.25405000000000
N        15.01861900000000    1.59643800000000   -0.23024200000000
C        13.30284600000000   -0.09568600000000   -0.15949800000000
C        13.96700700000000   -1.20019200000000   -0.41392300000000
C        13.59315800000000   -2.26313400000000   -1.37145000000000
C        14.54190500000000   -3.15689000000000   -1.28243100000000
C        15.52762900000000   -2.71944000000000   -0.29955300000000
N        15.17458300000000   -1.57363500000000    0.19724400000000
C        16.75851700000000   -3.37551000000000    0.14616800000000
C        17.88155800000000   -2.72964900000000    0.41328900000000
N        18.21015800000000   -1.48220800000000   -0.18511500000000
H        19.02630600000000   -4.02221600000000    1.92984300000000
H        20.79847900000000   -2.20817700000000    1.84006300000000
H        20.64127600000000    2.20682100000000   -1.81840900000000
H        18.69603000000000    4.11100000000000   -1.84678500000000
H        16.43406600000000    4.56965100000000   -0.01189800000000
H        14.26012500000000    4.03674700000000    1.93666000000000
H        12.56375300000000    2.12559800000000    1.85182600000000
H        12.20459600000000   -0.09277500000000   -0.25876900000000
H        12.72430200000000   -2.31559900000000   -2.02040000000000
H        14.53905900000000   -4.07319800000000   -1.88119000000000
H        16.72303500000000   -4.47131200000000    0.25809300000000
Ni       67.11619399999999   -0.01301800000000   -0.01482500000000
C        64.78720300000001    2.83377400000000    1.86868000000000
C        63.87109600000000    1.91528500000000    1.64410600000000
C        64.28227500000000    1.05058800000000    0.54329200000000
C        63.66340500000000    0.01002300000000   -0.00568700000000
C        64.36744700000000   -1.12120200000000   -0.58979000000000
C        64.03933600000001   -1.90737400000000   -1.60065700000000
C        65.07411600000000   -2.90288300000000   -1.80579700000000
C        66.01038400000000   -2.69006700000000   -0.90376700000000
N        65.60839400000000   -1.58305500000000   -0.12099500000000
C        67.27145899999999   -3.39420800000000   -0.65085300000000
C        68.36667600000001   -2.83551500000000   -0.18842000000000
C        69.44030100000001   -3.32772000000000    0.70480200000000
C        70.27786399999999   -2.33395300000000    0.81388700000000
C        69.83956700000000   -1.16580500000000    0.03665200000000
N        68.73462900000000   -1.50719700000000   -0.52064700000000
C        70.45040200000000    0.14243100000000   -0.13721800000000
C        69.78624100000000    1.27496400000000   -0.18232400000000
C        70.16009000000000    2.49709000000000   -0.92603900000000
C        69.21134200000000    3.35881700000000   -0.67276100000000
C        68.22561899999999    2.74662200000000    0.21190300000000
N        68.57866400000000    1.52854400000000    0.48751300000000
C        66.99473100000000    3.30861700000000    0.77159700000000
C        65.87168900000000    2.62441200000000    0.91426500000000
N        65.54308899999999    1.50963700000000    0.09483000000000
H        64.72694100000000    3.61319900000000    2.64428400000000
H        62.95476800000001    1.84730400000000    2.21953200000000
H        63.11197100000000   -1.81235700000000   -2.19448100000000
H        65.05721699999999   -3.67821800000000   -2.57561700000000
H        67.31918100000000   -4.46930600000000   -0.85766700000000
H        69.49312300000000   -4.30713700000000    1.15592900000000
H        71.18949500000001   -2.41342500000000    1.42711300000000
H        71.54865200000000    0.15798600000000   -0.23530500000000
H        71.02894499999999    2.66903300000000   -1.55399200000000
H        69.21418799999999    4.37029800000000   -1.09113800000000
H        67.03021300000000    4.36463300000000    1.08486600000000
C        23.06185400000000    0.02115400000000   -0.00164500000000
C        24.27738700000000   -0.00419000000000   -0.01212500000000
C        25.69890400000000   -0.02561300000000   -0.01630100000000
C        26.90746600000000   -0.02782400000000   -0.01619600000000
C        28.32854100000000   -0.00886400000000   -0.01682300000000
C        29.53968300000000    0.02115400000000   -0.00164500000000
C        38.63703000000000    0.02115400000000   -0.00164500000000
C        39.85256300000000   -0.00419000000000   -0.01212500000000
C        41.27408000000000   -0.02561300000000   -0.01630100000000
C        42.48264100000001   -0.02782400000000   -0.01619600000000
C        43.90371700000000   -0.00886400000000   -0.01682300000000
C        45.11485900000001    0.02115400000000   -0.00164500000000
C        54.21220500000000    0.02115400000000   -0.00164500000000
C        55.42773800000001   -0.00419000000000   -0.01212500000000
C        56.84925500000000   -0.02561300000000   -0.01630100000000
C        58.05781700000001   -0.02782400000000   -0.01619600000000
C        59.47889200000000   -0.00886400000000   -0.01682300000000
C        60.69003400000000    0.02115400000000   -0.00164500000000
Ni       34.12827300000000    0.03277100000000    0.00318300000000
C        31.84846300000000   -3.22867600000000   -0.90648300000000
C        30.89225300000000   -2.32932600000000   -1.00851000000000
C        31.28462800000000   -1.16702100000000   -0.20599400000000
C        30.64951100000000   -0.01574900000000    0.00627300000000
C        31.33496800000000    1.25885100000000    0.23250200000000
C        30.99967800000000    2.33745100000000    0.93674200000000
C        32.02421900000000    3.35676800000000    0.84616100000000
C        32.97481700000000    2.85984300000000    0.07279600000000
N        32.59782200000000    1.54323800000000   -0.34334700000000
C        34.22195600000000    3.47154500000000   -0.34407000000000
C        35.32350800000000    2.80428800000000   -0.67584100000000
C        36.31705400000000    3.05627200000000   -1.71001100000000
C        37.21093700000000    2.09541300000000   -1.60852700000000
C        36.83123900000000    1.18352900000000   -0.50455000000000
N        35.73632400000000    1.63284800000000    0.00281700000000
C        37.48844600000000   -0.01574900000000    0.00627300000000
C        36.86503500000000   -1.08493100000000    0.46778900000000
C        37.24374700000000   -2.01704600000000    1.54326500000000
C        36.30307900000000   -2.93119200000000    1.62913100000000
C        35.29477700000001   -2.63541300000000    0.63170400000000
N        35.63255200000000   -1.58203600000000   -0.01759100000000
C        34.04238400000000   -3.34242000000000    0.30051100000000
C        32.92850800000000   -2.74572400000000   -0.04683100000000
N        32.54639500000000   -1.46296700000000    0.37085200000000
H        31.84880700000000   -4.21975000000000   -1.39771800000000
H        29.98371900000000   -2.45102000000000   -1.58965800000000
H        30.07482600000000    2.45580200000000    1.51366800000000
H        32.05151400000000    4.34593200000000    1.30281100000000
H        34.30789600000000    4.56892200000000   -0.40609300000000
H        36.34972700000000    3.86248800000000   -2.43683500000000
H        38.10399900000000    1.98244500000000   -2.24230100000000
H        38.15849800000000   -1.94264000000000    2.15343500000000
H        36.32212500000000   -3.74480000000000    2.33739800000000
H        34.08086900000000   -4.44238000000000    0.35954700000000
Ni       49.70344900000000    0.03277100000000    0.00318300000000
C        47.42363800000000   -3.22867600000000   -0.90648300000000
C        46.46742900000000   -2.32932600000000   -1.00851000000000
C        46.85980300000000   -1.16702100000000   -0.20599400000000
C        46.22468700000000   -0.01574900000000    0.00627300000000
C        46.91014400000000    1.25885100000000    0.23250200000000
C        46.57485300000000    2.33745100000000    0.93674200000000
C        47.59939500000000    3.35676800000000    0.84616100000000
C        48.54999200000000    2.85984300000000    0.07279600000000
N        48.17299800000000    1.54323800000000   -0.34334700000000
C        49.79713200000000    3.47154500000000   -0.34407000000000
C        50.89868300000000    2.80428800000000   -0.67584100000000
C        51.89223000000000    3.05627200000000   -1.71001100000000
C        52.78611300000000    2.09541300000000   -1.60852700000000
C        52.40641500000000    1.18352900000000   -0.50455000000000
N        51.31150000000001    1.63284800000000    0.00281700000000
C        53.06362200000000   -0.01574900000000    0.00627300000000
C        52.44021000000000   -1.08493100000000    0.46778900000000
C        52.81892300000000   -2.01704600000000    1.54326500000000
C        51.87825400000001   -2.93119200000000    1.62913100000000
C        50.86995300000001   -2.63541300000000    0.63170400000000
N        51.20772800000000   -1.58203600000000   -0.01759100000000
C        49.61756000000000   -3.34242000000000    0.30051100000000
C        48.50368300000001   -2.74572400000000   -0.04683100000000
N        48.12157100000000   -1.46296700000000    0.37085200000000
H        47.42398300000001   -4.21975000000000   -1.39771800000000
H        45.55889500000000   -2.45102000000000   -1.58965800000000
H        45.65000100000000    2.45580200000000    1.51366800000000
H        47.62669000000001    4.34593200000000    1.30281100000000
H        49.88307200000000    4.56892200000000   -0.40609300000000
H        51.92490200000001    3.86248800000000   -2.43683500000000
H        53.67917400000000    1.98244500000000   -2.24230100000000
H        53.73367300000001   -1.94264000000000    2.15343500000000
H        51.89730100000000   -3.74480000000000    2.33739800000000
H        49.65604400000000   -4.44238000000000    0.35954700000000
160
 energy: -296.072041431851 gnorm: 0.570666228279 xtb: 6.4.1 (bd6e46d)
Ni       16.64229347005762    0.03363576814183   -0.00970726073465
C        18.96511006167914   -3.11987441004178    1.30780224373845
C        19.89215913326899   -2.16697347686771    1.26114470527890
C        19.46670458524254   -1.11810684923469    0.34407560710263
C        20.07619804413617    0.02571132997816   -0.00783116601404
C        19.37733458558425    1.22240971754897   -0.36201250296534
C        19.72267767671876    2.21235379736488   -1.23231508958846
C        18.70308312509833    3.20803586192055   -1.24600093326794
C        17.73529829540818    2.81247850369779   -0.37941501718317
N        18.12513267789879    1.58102312210143    0.17759996797498
C        16.49588838229799    3.47686059112780   -0.00935091290171
C        15.37680865147608    2.82853633790929    0.34381934915755
C        14.31621229687541    3.16465450836482    1.30123039003071
C        13.45650872310605    2.15469616791810    1.23769647412223
C        13.90871231077467    1.15787019934556    0.26486340716825
N        15.04564883657895    1.58188923591911   -0.22036272830662
C        13.29294805579980   -0.07922064643456   -0.15474911222664
C        13.97075070470286   -1.20511083093051   -0.41749546494914
C        13.58627393412527   -2.26099540588790   -1.36324744951965
C        14.54803285688358   -3.17232720788460   -1.28187293053968
C        15.53531762973947   -2.72702025987794   -0.30411272146465
N        15.18408407648851   -1.55443975809052    0.18221337785412
C        16.74377726253996   -3.38208203403175    0.14079748290256
C        17.88773091746276   -2.71708219390791    0.41459322225772
N        18.20323812817756   -1.47655267927475   -0.16733665252711
H        19.02161168520801   -4.01832217038392    1.92504962255718
H        20.80047070503099   -2.20285364382236    1.83843545235704
H        20.63858674601387    2.21133249522331   -1.81868300734215
H        18.69949593771758    4.10852888738646   -1.84705953622251
H        16.44234589387004    4.56783474168938   -0.00831901193642
H        14.26386264187493    4.03571489705525    1.93371255115322
H        12.56249010087476    2.12040741746601    1.85053842890253
H        12.20600562629839   -0.08880176422590   -0.26189764097651
H        12.72571521861747   -2.31029016490726   -2.01637484202499
H        14.54509320558563   -4.07444493763532   -1.87891029467460
H        16.72072168269528   -4.46868933166298    0.25843512853682
Ni       67.11095941373482   -0.01243203245386   -0.01401946223533
C        64.78814935846414    2.84191891054833    1.86564545634828
C        63.86109779316524    1.91421867814578    1.64300039834207
C        64.28657614204684    1.05371693352551    0.54727929423428
C        63.67686294841736   -0.00489628663715   -0.01070000651223
C        64.37590922996110   -1.11520782200199   -0.58075756586160
C        64.03057135214435   -1.92651685141316   -1.61955982485428
C        65.05017861638463   -2.90238545761260   -1.81773822518523
C        66.01794961191817   -2.67446560635979   -0.89282710771898
N        65.62809558762612   -1.56769228509191   -0.11704183705051
C        67.25735394282883   -3.39596239678080   -0.65243597094393
C        68.37643916840756   -2.82440007711930   -0.18511734770736
C        69.43703101173270   -3.33229947857304    0.69331109775776
C        70.29673708381901   -2.32808204931224    0.81824456303200
C        69.84453958811777   -1.16809131235865    0.04722393550540
N        68.70760069120857   -1.49473999135776   -0.50824477763872
C        70.46029987428932    0.12536692197711   -0.13560475426335
C        69.78249480808054    1.28046099912031   -0.18492323525838
C        70.16697201982092    2.49346357845872   -0.91837450782613
C        69.20521139251609    3.37388281404125   -0.66934742753503
C        68.21792981685614    2.75491800964805    0.20882837737118
N        68.56916323836181    1.51247028091285    0.46918272802109
C        67.00946966391491    3.31608028708144    0.76753788700116
C        65.86551978203252    2.61183162840171    0.91322052760159
N        65.55003348096504    1.50076243194125    0.11128214018139
H        64.73163555652573    3.61026195407277    2.63885261017669
H        62.95277769101421    1.84238079637775    2.21694272577786
H        63.11466403882645   -1.81673342620418   -2.19560022199595
H        65.05375437573697   -3.67574003204702   -2.57543222338188
H        67.31090431889307   -4.46818935195668   -0.85381887632120
H        69.48938522195999   -4.30557687823774    1.15322391184101
H        71.19075880711104   -2.40808564858827    1.42681050524364
H        71.54724292351342    0.15466242612228   -0.23911464374768
H        71.02753142182580    2.66306915950683   -1.55102104833999
H        69.20815305119793    4.37110075488517   -1.08866586952963
H        67.03252677993140    4.36199750262226    1.08471585862800
C        23.06165725052367    0.02080180740091   -0.00150123409747
C        24.28484503836987   -0.00448801396842   -0.01200932988945
C        25.68338876160067   -0.02504131630633   -0.01628641806858
C        26.90705498344681   -0.02713574776638   -0.01624564971703
C        28.26663399553312   -0.00881775260752   -0.01646861295921
C        29.45852654405970    0.03120333449659   -0.00351625705041
C        38.70910247268963    0.02880387140836   -0.00086686252543
C        39.90493112665446   -0.00438137551558   -0.01145086051560
C        41.26647663518611   -0.02490499085227   -0.01719020790418
C        42.48701383260079   -0.02712828696400   -0.01625651779962
C        43.84292404198902   -0.00884247318198   -0.01641860130708
C        45.03401654096868    0.03114935386891   -0.00383214131894
C        54.28489367597756    0.02884298192767   -0.00068357660531
C        55.48112220172914   -0.00423887249262   -0.01124469428935
C        56.84775297881401   -0.02484514828816   -0.01715932681205
C        58.07130526579650   -0.02723859289474   -0.01643231303988
C        59.47052644648507   -0.00935409101612   -0.01655401603278
C        60.69171635800682    0.02066833695014   -0.00145928508342
Ni       34.12408068601989    0.03390650941734    0.00230261931616
C        31.85087840841204   -3.24387394037499   -0.90297421433198
C        30.88913311454102   -2.32703238042002   -1.00414445561156
C        31.32663583343126   -1.18868830958774   -0.20943052237415
C        30.72130111689133   -0.00281683510888    0.00704474610358
C        31.37204930916443    1.26513989217486    0.23020745566802
C        30.99392785787191    2.35845890131933    0.94620748963521
C        32.00508350117423    3.35898373041831    0.85319403693965
C        32.98543067804186    2.84568754663496    0.06717673335026
N        32.62019371411320    1.53522290788381   -0.33613059577579
C        34.21089097046985    3.47466784536129   -0.34431311179606
C        35.33054344430963    2.79689345951371   -0.67682761712590
C        36.31929409775058    3.06322019921101   -1.70279892842562
C        37.22504309512852    2.08589083400643   -1.60803171436145
C        36.81882148206729    1.18831035329822   -0.51863212553172
N        35.70572450292532    1.62380588933802   -0.00600495219469
C        37.43950166652926   -0.00358116748448   -0.00015458314928
C        36.83291558904141   -1.10347594919644    0.47804540390265
C        37.25217625135742   -2.01340631236871    1.53730268084095
C        36.29880586561319   -2.94409190765257    1.62985761791846
C        35.28507638245330   -2.64530791276553    0.63857263529378
N        35.61696548243603   -1.55911043343720   -0.01290257236136
C        34.05926322324260   -3.35068573449115    0.30787159244841
C        32.91809306184742   -2.73730711438919   -0.05236966166551
N        32.56039324048868   -1.45561260399482    0.35223041266642
H        31.85148010238961   -4.21685670827186   -1.39535174645446
H        29.98480225130265   -2.44462743623329   -1.58683204799616
H        30.07547239841720    2.45708992988312    1.51375965319435
H        32.04558880814290    4.34228703715315    1.30399055969894
H        34.29865587243166    4.56598756106057   -0.40923246433534
H        36.34556446925324    3.86145522847392   -2.43258927467277
H        38.10287844374413    1.97865399794760   -2.23967574420037
H        38.15427420465931   -1.93923336330890    2.14818750142420
H        36.31807579351256   -3.74815890944553    2.33793469725504
H        34.08379851309121   -4.44108133468136    0.35801586175567
Ni       49.69876535878320    0.03372544152524    0.00230783733249
C        47.42578937029165   -3.24371477310904   -0.90317507418709
C        46.46414963734045   -2.32739928331200   -1.00395246258062
C        46.90162064856707   -1.18825736034310   -0.20899001170241
C        46.29687112335688   -0.00306845993183    0.00688004968200
C        46.94692619665987    1.26533391937740    0.23021318402433
C        46.56900653127919    2.35836372829442    0.94615211028812
C        47.58024794580430    3.35882830048322    0.85328050074582
C        48.56074492512374    2.84552996952411    0.06707799909295
N        48.19580729867722    1.53524705521333   -0.33599888137538
C        49.78601745709437    3.47462411600151   -0.34429949370964
C        50.90579017070218    2.79694239272998   -0.67683156097296
C        51.89444664040937    3.06332789579509   -1.70271348542139
C        52.80014863807172    2.08582041077611   -1.60807810006351
C        52.39359043661705    1.18814616957859   -0.51912312868947
N        51.28114676889652    1.62372333044802   -0.00617178509501
C        53.01494254713923   -0.00387616973236   -0.00017914740201
C        52.40822179216498   -1.10334566602543    0.47820477845668
C        52.82728949632335   -2.01322663407282    1.53725820470036
C        51.87390981046684   -2.94418243036756    1.62966530021842
C        50.86059804121717   -2.64503384033155    0.63888115196919
N        51.19226071362561   -1.55901905467474   -0.01256483735893
C        49.63398998572556   -3.35072822839790    0.30771563851239
C        48.49368147059464   -2.73729591529387   -0.05209412413790
N        48.13627175968922   -1.45539002960087    0.35219052348425
H        47.42658853353646   -4.21684216597202   -1.39534108180786
H        45.55997554752767   -2.44464710440571   -1.58688705829533
H        45.65064740277671    2.45707718871173    1.51379466074448
H        47.62071892359258    4.34229103869366    1.30391400499359
H        49.87379815071482    4.56597722351654   -0.40927876628897
H        51.92073286238011    3.86147622159847   -2.43258725313828
H        53.67804702977163    1.97865593729175   -2.23963437997775
H        53.72944325946604   -1.93925796942026    2.14814206642390
H        51.89317728228848   -3.74812829325831    2.33792540166445
H        49.65896099136755   -4.44108235373068    0.35778954095435
160
 energy: -296.289704205617 gnorm: 0.278927552114 xtb: 6.4.1 (bd6e46d)
Ni       16.65053532121918    0.03247044252459   -0.00776073067271
C        18.96577806731237   -3.12610312593350    1.29628779841739
C        19.90456878233166   -2.16626209163312    1.25584813789116
C        19.45796600405203   -1.11807217683765    0.35309644506448
C        20.04658685867892    0.04961913249460   -0.00927261336761
C        19.36156028703982    1.21716538928081   -0.35880481851325
C        19.72988583624692    2.23920823834253   -1.24267295923852
C        18.73279500868178    3.20640870331392   -1.25075087959550
C        17.72936676857181    2.78687211433808   -0.37391194834310
N        18.09378398953912    1.55511455342065    0.16518885879179
C        16.51586822540465    3.47039762491085   -0.00939946807462
C        15.37452146450164    2.80837921265047    0.34768258551104
C        14.31763974290326    3.16779030082981    1.27980713768759
C        13.43456191030876    2.15107364027121    1.23414767998052
C        13.90641329249055    1.15586849651853    0.28262988162013
N        15.08832306883617    1.55109579008242   -0.18800664026344
C        13.28491006759326   -0.05963888327069   -0.14746943656689
C        13.97719112354948   -1.20263664725387   -0.42610849250875
C        13.58171095020216   -2.26139404152025   -1.34600451131651
C        14.55175579152819   -3.19022449262724   -1.27397044937559
C        15.54577944437041   -2.73183546612678   -0.31384598169595
N        15.20456894896468   -1.52040218991228    0.14440770466011
C        16.72847298292473   -3.38466200066280    0.13348417821291
C        17.88834047098150   -2.69998883443237    0.41940044779396
N        18.18832989859454   -1.46484279490545   -0.13200348752318
H        19.01219838127276   -4.01300736682759    1.91450208920727
H        20.80684034948381   -2.19215537788929    1.83418971994664
H        20.63648494341533    2.21994692588981   -1.81955369200922
H        18.70566897916023    4.10385572391042   -1.84568848762655
H        16.46012734844687    4.55961787893735   -0.00445108260079
H        14.27116876283773    4.03172289466609    1.92342314515949
H        12.55641689021299    2.11048828660447    1.84800403144068
H        12.20714683805669   -0.08097409755622   -0.26490557785333
H        12.72899634315644   -2.30062905689895   -2.00576840490710
H        14.55685711402633   -4.07998562246087   -1.87365231079713
H        16.71793225342673   -4.46394233076222    0.25649562284639
Ni       67.10271809213644   -0.01164315364951   -0.01188960536012
C        64.78749340530165    2.85018239299158    1.85549337479647
C        63.84869132214600    1.91452360112353    1.63765220875388
C        64.29531290927154    1.05205649602518    0.55611535716105
C        63.70626017115477   -0.02795910149333   -0.01659641883549
C        64.39161350635602   -1.11061053494592   -0.57662534524607
C        64.02334060544641   -1.95097500175388   -1.63469182986177
C        65.02047101367302   -2.89990764392694   -1.82208447819762
C        66.02386847560754   -2.65031379350646   -0.88265513384678
N        65.65938159989243   -1.53987754549391   -0.12442881431777
C        67.23736453977344   -3.38959718786993   -0.65126939674027
C        68.37872312867712   -2.80530706486883   -0.17756878485046
C        69.43559938869006   -3.33140258253022    0.67168805370818
C        70.31868312431048   -2.32386018869288    0.81543565089080
C        69.84683984286727   -1.16942105952322    0.06505784692068
N        68.66492612774125   -1.47048813736934   -0.47073074094560
C        70.46833619827657    0.10477237726087   -0.13208053249186
C        69.77605074503577    1.27962605021917   -0.19384850222381
C        70.17153168573263    2.49065226425723   -0.90136176769157
C        69.20148908725066    3.39000278919100   -0.65826509576947
C        68.20746752684248    2.76145695280338    0.20015389989229
N        68.54867721920650    1.48603721511024    0.42571581474172
C        67.02477427795023    3.31997598025834    0.76082106911034
C        65.86491915651247    2.59414265046709    0.91478749396965
N        65.56496142479187    1.48266218087838    0.14386590880682
H        64.74104834691359    3.60700696167597    2.62749743105470
H        62.94640967822026    1.83267918077518    2.21076988237803
H        63.11677037762427   -1.82504152347244   -2.19806683828362
H        65.04758517427359   -3.67140354014457   -2.57320555175881
H        67.29312245751208   -4.46083079916810   -0.84848639657522
H        69.48207843553389   -4.29974144007917    1.14386682962769
H        71.19683105569410   -2.39786535927410    1.42616752341824
H        71.54610101200176    0.14752874718209   -0.24351726984484
H        71.02424871556873    2.65160345404189   -1.54239466585659
H        69.19638819177989    4.37556646801532   -1.08247896279029
H        67.03531353403810    4.35770061358145    1.08191227732934
C        23.06291986066412    0.02020331327386   -0.00150159375730
C        24.28924251024196   -0.00469321063598   -0.01189443624449
C        25.66075761007665   -0.02391510668861   -0.01621549973211
C        26.88941640477756   -0.02624679926132   -0.01659057809235
C        28.21722614918855   -0.01017687935977   -0.01496117016342
C        29.43323369933325    0.04379125887695   -0.00593646544671
C        38.74097940817402    0.03534673297624    0.00199345985779
C        39.95059772536545   -0.00628513669333   -0.00989093685429
C        41.26664695868703   -0.02399231023752   -0.01832217110521
C        42.48666369727037   -0.02628960827672   -0.01673875223434
C        43.80220684890936   -0.01019324335745   -0.01496055474091
C        45.01393118002014    0.04387737858980   -0.00682181102339
C        54.32208912611012    0.03536280111457    0.00227396126728
C        55.53566635156394   -0.00606180226169   -0.00937348265472
C        56.86549234158577   -0.02357558450011   -0.01808598675691
C        58.09322624985695   -0.02589490118945   -0.01663209062604
C        59.46589738531261   -0.01031956360330   -0.01629375158175
C        60.69126722259331    0.01922556888093   -0.00149196487997
Ni       34.11929094519616    0.03615904099979    0.00021903434155
C        31.85382278287329   -3.26097873278648   -0.89260325647264
C        30.88851499214284   -2.32576523426453   -0.99345455834462
C        31.35716489183554   -1.19886879312066   -0.21506033728507
C        30.74973201126126    0.02039902288052    0.00594247621778
C        31.41008397545841    1.26972127804465    0.22879676444225
C        30.99001380707822    2.38449416895969    0.95208738693639
C        31.98149236563897    3.35850103966378    0.85426148507006
C        32.99802912111584    2.82798826774372    0.06483104104041
N        32.65798392267001    1.51938728537650   -0.30723431566895
C        34.19409588143451    3.47519732938275   -0.34672477966809
C        35.33117368835342    2.78468034082430   -0.68117280778207
C        36.32552066454716    3.06889492731512   -1.68637854718921
C        37.24075181294825    2.07663688516834   -1.60142417023071
C        36.80804782279010    1.18595491553015   -0.53887427078290
N        35.65535082320911    1.59928881937689   -0.03616781327218
C        37.41993185642543    0.01240206317123   -0.00969850695974
C        36.80693652496080   -1.11239918488062    0.48802375831321
C        37.25668910030657   -2.01320953801622    1.52441328314401
C        36.29589641879941   -2.96018883096540    1.62322861945934
C        35.27032980892783   -2.65289777982621    0.64948645041508
N        35.58691196193446   -1.51912988377416    0.01315780447518
C        34.07673892733149   -3.35805231276614    0.31717071535602
C        32.91630321638327   -2.73039530719478   -0.06264038440403
N        32.58709463271367   -1.44196573477683    0.30827897787420
H        31.85715127837000   -4.21620902809769   -1.38986264180641
H        29.98792538357261   -2.43218859942246   -1.57853319871396
H        30.07571793776663    2.46004893837551    1.51320505967550
H        32.03399087720110    4.33572701096810    1.30472371483960
H        34.27857943599766    4.56050410737008   -0.41278500085771
H        36.33837337748197    3.85963245540422   -2.42097426118807
H        38.10389252114221    1.97048256126291   -2.23412468789666
H        38.14625296619455   -1.93355589132182    2.13650212697669
H        36.30994902630685   -3.75631954896226    2.33688498083040