160
 energy: -297.204822719770 gnorm: 0.000522578125 xtb: 6.4.1 (bd6e46d)
Ni       17.89869652937120   -0.00510728450950   -0.00727326054013
C        20.39653896893291   -3.41806245757881    0.04166863929768
C        21.34889135814352   -2.45819138991220    0.03887693756318
C        20.66025694643155   -1.20289955731913    0.01972621020966
C        21.32730088758949    0.02608738990406    0.00896405711026
C        20.63811438135217    1.24281456545054   -0.00024882121077
C        21.30392197862715    2.51052109887903   -0.00255959418572
C        20.33435269801660    3.45298791298670    0.00045042383534
C        19.08429796982836    2.75399913920940    0.00248058055973
N        19.28543645700627    1.39924795494675    0.00082359284867
C        17.86362419882503    3.39675555994011    0.00611245252259
C        16.65609542872073    2.72985710421158   -0.00287886605125
C        15.38851551524042    3.40186105321711   -0.00887096221058
C        14.44200149383364    2.43879463164318   -0.03067960710404
C        15.13549617598537    1.18250105798526   -0.03540812914182
N        16.48736300964246    1.37440817930397   -0.01711408958473
C        14.48829793527565   -0.03610849904218   -0.05546222365840
C        15.15780278836373   -1.24272079906879   -0.04957005476083
C        14.48749019261966   -2.51151649488716   -0.06189716828120
C        15.45133061733255   -3.45723637134410   -0.04054907220543
C        16.70625798972158   -2.76222118265800   -0.01709010668012
N        16.51285354011259   -1.41002343709372   -0.02407590285895
C        17.92545801796546   -3.40700570900783    0.00897953668492
C        19.13409919699896   -2.74201687150047    0.02247695173751
N        19.31064388091610   -1.38391423381253    0.01125756852846
H        20.51467042194549   -4.48406265649632    0.05401747230025
H        22.41624529971692   -2.56425057508010    0.04892725242837
H        22.36918204141852    2.63597070768111   -0.00460058975342
H        20.43312369135080    4.52106133609671    0.00055689061817
H        17.85427095929872    4.47598071887243    0.01256659097570
H        15.26768698128841    4.46784712234011    0.00116819511862
H        13.37415909177084    2.54129664946962   -0.04226372905760
H        13.40935262536208   -0.04597107025595   -0.07316866411762
H        13.42181089346179   -2.63343231977629   -0.08279057084427
H        15.35003720473041   -4.52530095907891   -0.04066964718140
H        17.93567462994846   -4.48621230600792    0.01598383382824
Ni       65.87648251856770    0.03178208325885   -0.00672691329225
C        63.38733090021928    3.38970393498178    0.64347077305636
C        62.43251359659745    2.44933003886354    0.46368868975208
C        63.11798493893860    1.21504029727480    0.22489738216721
C        62.44814678295648    0.00842651743369   -0.00001402560406
C        63.13417726511111   -1.19039892857486   -0.21805829136853
C        62.46478443208397   -2.43669213977900   -0.43964658488798
C        63.43170444117834   -3.36708265524275   -0.60613644715874
C        64.68369852012880   -2.68188799222895   -0.48699298436136
N        64.48641535610248   -1.34768099005518   -0.24856685537668
C        65.90250170693812   -3.31696886760014   -0.60658801712187
C        67.11170037001439   -2.66138079315144   -0.50191882329524
C        68.37746307401717   -3.32340931681584   -0.63562186470860
C        69.32648499673948   -2.37493961048141   -0.48196845624378
C        68.63630862069775   -1.13783337717411   -0.25295419313054
N        67.28393939867097   -1.32668196487852   -0.26781108620436
C        69.28679505628128    0.06140459304725   -0.04592322521619
C        68.62062774344014    1.24799609931278    0.18311904760344
C        69.29444792528491    2.49491369702580    0.40765741288550
C        68.33311229949834    3.42384267676834    0.59935826856386
C        67.07619157083106    2.74085869232930    0.48919700200214
N        67.26596650584436    1.41227303247606    0.23473462098517
C        65.85866505315765    3.37489568475568    0.62544642313427
C        64.64811212511817    2.72328739723972    0.51082471831241
N        64.46805992784711    1.38986321493899    0.25543685922881
H        63.27196551515223    4.43667532396553    0.84588007357120
H        61.36544070066829    2.55573893110578    0.48682851439155
H        61.39916055522264   -2.55750808931059   -0.45961964464893
H        63.32985537509990   -4.41835398302621   -0.79324025512961
H        65.90887216900138   -4.37969310753648   -0.79477217828220
H        68.49544282717200   -4.37319771682441   -0.82269420365631
H        70.39405179640157   -2.47591132495139   -0.51485848335808
H        70.36578852013363    0.07111601887322   -0.06046929087907
H        70.36052355419056    2.61487545541672    0.41361207441049
H        68.43730005639100    4.47327827204868    0.79647587423178
H        65.85145813741370    4.43488590301392    0.82845164532775
C        22.72401452998416    0.03842069013150    0.00953262144027
C        23.94356646675106    0.04795681590052    0.00902491179201
C        25.28017255245736    0.05732532670061    0.00787179155487
C        26.50419430070177    0.06346487829909    0.00505011514939
C        27.84067212534694    0.06703615246956    0.00182598661930
C        29.06040963519989    0.06765414524391   -0.00156424254702
C        38.72023420527581    0.04901440965633   -0.02065818283835
C        39.94001489098337    0.04524813504982   -0.02252510157414
C        41.27609685123743    0.04010164192069   -0.02247650644636
C        42.50026742704665    0.03501439429178   -0.02232589670764
C        43.83634798653468    0.02917200888063   -0.02128154375558
C        45.05612774714832    0.02423910656935   -0.01955543490278
C        54.71513872534850   -0.01598470668755   -0.01563663926559
C        55.93481888635014   -0.01836164801573   -0.01749807231198
C        57.27131172638268   -0.01816006314029   -0.01392645066403
C        58.49531842859385   -0.01485124290156   -0.01243458492216
C        59.83193234595848   -0.00947022922572   -0.00687943252605
C        61.05138963508471   -0.00035158924579   -0.00352274332323
Ni       33.89044080260308    0.05805901979875   -0.01873126205756
C        31.41478711513504   -3.34609415160411    0.40757693427697
C        30.45494259297675   -2.39920860882082    0.30315548575894
C        31.13384701314699   -1.14898278582566    0.14267592328381
C        30.45648681109610    0.06566131759942   -0.00689262626394
C        31.13783929467668    1.27697236744019   -0.16398147931074
C        30.46335167979722    2.52948318484801   -0.32488804422407
C        31.42664885514264    3.47129077315357   -0.44277783844601
C        32.68068595455338    2.78650182657167   -0.35188930442993
N        32.48898133005808    1.44085461333864   -0.18358154123000
C        33.89685377793118    3.43333704834618   -0.41998526482193
C        35.11078388310856    2.78527670351886   -0.33064961662503
C        36.36742199458939    3.46818746629304   -0.39592390648928
C        37.32693946174152    2.52206427532806   -0.28211685611685
C        36.64751496037741    1.26885295290325   -0.14926769573320
N        35.29731703620077    1.43709136494202   -0.17655251633245
C        37.32446907033201    0.05178313313499   -0.02004100071662
C        36.64327807057895   -1.16315630015438    0.10757288550515
C        37.31821737010949   -2.41925755250961    0.23622966802829
C        36.35527719115152   -3.36253065915247    0.34469345526125
C        35.10111576843479   -2.67488712100740    0.28157941125648
N        35.29247980910799   -1.32670214970874    0.13348160099046
C        33.88486228115359   -3.31875173753870    0.36967335748436
C        32.67114781479052   -2.66648234420384    0.31072096579734
N        32.48426890782773   -1.31910287296223    0.15080490006542
H        31.30526497284006   -4.40511280492520    0.53770509286260
H        29.38850235963908   -2.51119262047666    0.32859031053753
H        29.39725164535298    2.64618752746585   -0.34207104439372
H        31.32093596850398    4.53003319762462   -0.57787810937152
H        33.89842119864581    4.50500117571610   -0.54856030785624
H        36.47752920725966    4.52864709016631   -0.51311352024735
H        38.39342610015765    2.63620603211299   -0.28542711355691
H        38.38430243993184   -2.53717147469338    0.24039053149341
H        36.46154211624208   -4.42384950110658    0.45753046027576
H        33.88248885278166   -4.39110874579633    0.49230376999900
Ni       49.88561032572449    0.00337149650455   -0.01997226293090
C        47.40028465731686   -3.39389041385494    0.41214167414899
C        46.44322365529691   -2.44441418967325    0.30586070417158
C        47.12576883322308   -1.19694467519310    0.13942062035552
C        46.45188593524446    0.01844175928895   -0.01873847433802
C        47.13602467271667    1.22811683377211   -0.17660815733244
C        46.46418752259496    2.48166259375986   -0.34154515886390
C        47.42944413890070    3.42255757125489   -0.45005940611268
C        48.68190468702826    2.73605620036873   -0.35064645286130
N        48.48719563581679    1.39021831916791   -0.18666952103688
C        49.89975094073508    3.38053002729287   -0.40691711043789
C        51.11165602732178    2.72906500913498   -0.31290678174487
C        52.36982237675115    3.41002171275725   -0.36864167889899
C        53.32715632243619    2.46133516425230   -0.25803581891178
C        52.64493411179023    1.20847131464702   -0.13647342231482
N        51.29497317960177    1.37961277451777   -0.16688083179100
C        53.31903687804665   -0.01123403655658   -0.01740981283208
C        52.63476185141971   -1.22533832620834    0.10003323151821
C        53.30609530478661   -2.48407267458942    0.22017510985767
C        52.34049839493846   -3.42496411693840    0.32610174329988
C        51.08825680697358   -2.73316919891361    0.27031753924681
N        51.28326454264774   -1.38504716447067    0.12763314857690
C        49.87059592051068   -3.37412180070066    0.36307679128863
C        48.65855488708382   -2.71859624860050    0.31016793377874
N        48.47549816808579   -1.37094308141998    0.14731642209085
H        47.28757247251543   -4.45201225053475    0.54638140836741
H        45.37653778553751   -2.55285385162924    0.33384713042044
H        45.39837661362812    2.59975080692717   -0.36682465189074
H        47.32577800913566    4.48172431197909   -0.58384327336451
H        49.90498563934766    4.45275013918383   -0.53062861974367
H        52.48211706362601    4.47100596187687   -0.47855197560212
H        54.39384723495851    2.57342224827615   -0.25750491182966
H        54.37188441534804   -2.60519025372597    0.22142600899045
H        52.44363823082501   -4.48724083693795    0.43290897429766
H        49.86623993168467   -4.44663543823159    0.48424100792384
