 Entering Gaussian System
 *********************************************
 Gaussian 98:
 frequency output generated by the xtb code
 *********************************************
                         Standard orientation:
 --------------------------------------------------------------------
  Center     Atomic     Atomic              Coordinates (Angstroms)
  Number     Number      Type              X           Y           Z
 --------------------------------------------------------------------
    1         30             0       17.032593    0.000139   -0.001429
    2          6             0       19.523881   -3.098686    1.548614
    3          6             0       20.488260   -2.243235    1.131751
    4          6             0       19.815425   -1.120269    0.543428
    5          6             0       20.468440   -0.011932   -0.017439
    6          6             0       19.817158    1.101665   -0.569989
    7          6             0       20.491803    2.222603   -1.160315
    8          6             0       19.529469    3.087703   -1.561472
    9          6             0       18.269081    2.490021   -1.222678
   10          7             0       18.475548    1.282564   -0.626125
   11          6             0       17.035865    3.067488   -1.475383
   12          6             0       15.801402    2.509657   -1.188217
   13          6             0       14.536246    3.131190   -1.472047
   14          6             0       13.577790    2.269497   -1.059350
   15          6             0       14.256670    1.121053   -0.521865
   16          7             0       15.600952    1.295635   -0.611433
   17          6             0       13.623547    0.006521    0.003741
   18          6             0       14.254749   -1.108421    0.530687
   19          6             0       13.573272   -2.251507    1.076118
   20          6             0       14.529741   -3.113564    1.492590
   21          6             0       15.796403   -2.498453    1.201349
   22          7             0       15.598712   -1.287125    0.617990
   23          6             0       17.029340   -3.061330    1.485360
   24          6             0       18.264397   -2.493811    1.219467
   25          7             0       18.473320   -1.291127    0.614296
   26          1             0       19.639843   -4.047459    2.036194
   27          1             0       21.552702   -2.341438    1.220083
   28          1             0       21.555836    2.313113   -1.260677
   29          1             0       19.647189    4.038529   -2.044624
   30          1             0       17.038594    4.040934   -1.945914
   31          1             0       14.416899    4.096148   -1.926302
   32          1             0       12.511703    2.383135   -1.106516
   33          1             0       12.542538    0.007579    0.004254
   34          1             0       12.506901   -2.361230    1.126269
   35          1             0       14.408307   -4.074938    1.953801
   36          1             0       17.028894   -4.031713    1.962234
   37         30             0       38.820185    0.043835    0.001612
   38          6             0       36.318608    3.064648    1.682073
   39          6             0       35.357028    2.223611    1.230930
   40          6             0       36.033316    1.128430    0.596020
   41          6             0       35.383666    0.042151   -0.010206
   42          6             0       36.038875   -1.044928   -0.609202
   43          6             0       35.368198   -2.142742   -1.245557
   44          6             0       36.333572   -2.986325   -1.683557
   45          6             0       37.591836   -2.398154   -1.321228
   46          7             0       37.381115   -1.217782   -0.674110
   47          6             0       38.827186   -2.958962   -1.599734
   48          6             0       40.059702   -2.408033   -1.291754
   49          6             0       41.326963   -3.010912   -1.604714
   50          6             0       42.282473   -2.162832   -1.158268
   51          6             0       41.599666   -1.041448   -0.571096
   52          7             0       40.255991   -1.218494   -0.664608
   53          6             0       42.229244    0.052910   -0.000728
   54          6             0       41.594384    1.142171    0.573419
   55          6             0       42.271908    2.265261    1.163514
   56          6             0       41.312472    3.104803    1.617540
   57          6             0       40.047985    2.496014    1.304445
   58          7             0       40.249861    1.310650    0.671293
   59          6             0       38.812976    3.040380    1.614226
   60          6             0       37.579994    2.478683    1.326977
   61          7             0       37.374953    1.301278    0.672811
   62          1             0       36.199693    3.992057    2.208474
   63          1             0       34.292319    2.314051    1.324040
   64          1             0       34.304476   -2.233266   -1.348754
   65          1             0       36.219239   -3.916361   -2.206346
   66          1             0       38.827954   -3.911782   -2.110764
   67          1             0       41.449558   -3.955093   -2.099941
   68          1             0       43.348935   -2.269166   -1.213108
   69          1             0       43.310244    0.056607   -0.002754
   70          1             0       43.337873    2.378123    1.215249
   71          1             0       41.430686    4.047154    2.117280
   72          1             0       38.809664    3.990093    2.131020
   73          6             0       21.871970   -0.015182   -0.023031
   74          6             0       23.084861   -0.017016   -0.024560
   75          6             0       32.767198    0.037885   -0.021121
   76          6             0       33.980103    0.040931   -0.015904
   77         30             0       27.925742    0.010107   -0.029149
   78          6             0       25.452947   -3.462492   -0.186237
   79          6             0       24.483207   -2.516376   -0.164306
   80          6             0       25.148613   -1.247520   -0.084536
   81          6             0       24.488004   -0.010665   -0.026625
   82          6             0       25.134434    1.233831    0.030946
   83          6             0       24.454146    2.494428    0.115437
   84          6             0       25.412406    3.452126    0.135874
   85          6             0       26.675052    2.773780    0.070971
   86          7             0       26.475106    1.427033    0.014091
   87          6             0       27.905722    3.407584    0.061188
   88          6             0       29.144017    2.790171    0.018132
   89          6             0       30.398428    3.486240   -0.009188
   90          6             0       31.368248    2.540430   -0.037910
   91          6             0       30.703183    1.269021   -0.021034
   92          7             0       29.360234    1.444903    0.003673
   93          6             0       31.364032    0.030866   -0.024968
   94          6             0       30.717415   -1.214915   -0.031203
   95          6             0       31.397421   -2.478309   -0.010653
   96          6             0       30.439141   -3.435698   -0.041870
   97          6             0       29.176612   -2.754735   -0.073570
   98          7             0       29.376736   -1.406894   -0.060228
   99          6             0       27.946004   -3.387364   -0.116825
  100          6             0       26.707554   -2.768848   -0.126099
  101          7             0       26.491539   -1.424533   -0.071083
  102          1             0       25.343448   -4.528479   -0.240872
  103          1             0       23.419650   -2.647446   -0.210248
  104          1             0       23.389387    2.612666    0.166280
  105          1             0       25.290090    4.516547    0.193196
  106          1             0       27.899059    4.488421    0.090367
  107          1             0       30.507581    4.553637   -0.009721
  108          1             0       32.431618    2.673910   -0.080529
  109          1             0       32.462040   -2.599132    0.036563
  110          1             0       30.561300   -4.501687   -0.039521
  111          1             0       27.952941   -4.468262   -0.144538
 --------------------------------------------------------------------
     1 basis functions        1 primitive gaussians
     1 alpha electrons        1 beta electrons

 Harmonic frequencies (cm**-1), IR intensities (km*mol⁻¹),
 Raman scattering activities (A**4/amu), Raman depolarization ratios,
 reduced masses (AMU), force constants (mDyne/A) and normal coordinates:
                      1                      2                      3
                        a                      a                      a 
 Frequencies --     3.5524                 6.4633                 8.0447
 Red. masses --    18.5493                16.1274                11.2505
 Frc consts  --     0.0000                 0.0000                 0.0000
 IR Inten    --     0.0247                 2.0628                 0.1566
 Raman Activ --     0.0000                 0.0000                 0.0000
 Depolar     --     0.0000                 0.0000                 0.0000
 Atom AN      X      Y      Z        X      Y      Z        X      Y      Z
   1  30     0.00   0.00   0.15     0.00   0.13   0.01     0.00  -0.00  -0.00
   2   6     0.05   0.01   0.00    -0.08  -0.02  -0.03     0.00   0.08   0.16
   3   6     0.03   0.01  -0.02    -0.06  -0.05  -0.03     0.00   0.06   0.11
   4   6     0.02   0.01  -0.01    -0.03  -0.03  -0.02     0.00   0.03   0.06
   5   6     0.00   0.01  -0.02    -0.00  -0.05  -0.02     0.00  -0.00  -0.00
   6   6    -0.02   0.01  -0.01     0.03  -0.03  -0.02     0.00  -0.03  -0.06
   7   6    -0.03   0.01  -0.03     0.06  -0.05  -0.03     0.00  -0.06  -0.11
   8   6    -0.04   0.00  -0.00     0.08  -0.03  -0.03     0.00  -0.08  -0.16
   9   6    -0.03   0.00   0.03     0.06   0.01  -0.02     0.00  -0.07  -0.14
  10   7    -0.02   0.00   0.03     0.04   0.01  -0.01     0.00  -0.04  -0.08
  11   6    -0.04   0.00   0.06     0.08   0.05  -0.01     0.00  -0.08  -0.18
  12   6    -0.03  -0.00   0.10     0.06   0.09   0.01     0.00  -0.07  -0.15
  13   6    -0.04  -0.00   0.13     0.08   0.13   0.03     0.00  -0.09  -0.19
  14   6    -0.03  -0.00   0.15     0.06   0.16   0.04     0.00  -0.07  -0.14
  15   6    -0.01  -0.00   0.14     0.03   0.14   0.04     0.00  -0.03  -0.07
  16   7    -0.02  -0.00   0.11     0.04   0.11   0.02     0.00  -0.04  -0.08
  17   6     0.00  -0.00   0.15     0.00   0.16   0.05     0.00  -0.00  -0.00
  18   6     0.02  -0.00   0.14    -0.03   0.14   0.04     0.00   0.03   0.07
  19   6     0.03  -0.00   0.16    -0.06   0.16   0.05     0.00   0.07   0.14
  20   6     0.04  -0.00   0.13    -0.08   0.13   0.03     0.00   0.09   0.19
  21   6     0.04  -0.00   0.10    -0.06   0.09   0.02     0.00   0.07   0.15
  22   7     0.02  -0.00   0.11    -0.03   0.11   0.02     0.00   0.04   0.08
  23   6     0.04   0.00   0.07    -0.08   0.05   0.00     0.00   0.08   0.17
  24   6     0.04   0.00   0.03    -0.06   0.02  -0.01     0.00   0.07   0.14
  25   7     0.02   0.00   0.03    -0.03   0.01  -0.01     0.00   0.04   0.08
  26   1     0.02   0.00  -0.00    -0.03  -0.01  -0.01     0.00   0.03   0.06
  27   1     0.01   0.00  -0.01    -0.02  -0.02  -0.01     0.00   0.02   0.03
  28   1    -0.01   0.00  -0.02     0.02  -0.02  -0.01     0.00  -0.02  -0.03
  29   1    -0.02   0.00  -0.00     0.03  -0.01  -0.01     0.00  -0.03  -0.06
  30   1    -0.02   0.00   0.02     0.03   0.01  -0.00     0.00  -0.03  -0.07
  31   1    -0.02  -0.00   0.04     0.03   0.04   0.01     0.00  -0.03  -0.07
  32   1    -0.01  -0.00   0.05     0.02   0.06   0.02     0.00  -0.02  -0.04
  33   1     0.00  -0.00   0.05     0.00   0.06   0.02     0.00  -0.00  -0.00
  34   1     0.01  -0.00   0.05    -0.02   0.06   0.02     0.00   0.02   0.04
  35   1     0.02  -0.00   0.04    -0.03   0.04   0.01     0.00   0.03   0.07
  36   1     0.02   0.00   0.02    -0.03   0.01  -0.00     0.00   0.03   0.07
  37  30    -0.00  -0.01   0.15    -0.00   0.13   0.00    -0.00  -0.00  -0.00
  38   6    -0.04  -0.00  -0.00    -0.08  -0.03   0.03     0.00  -0.09   0.16
  39   6    -0.03  -0.00  -0.03    -0.06  -0.05   0.03    -0.00  -0.06   0.11
  40   6    -0.02  -0.00  -0.01    -0.03  -0.03   0.02    -0.00  -0.03   0.05
  41   6    -0.00  -0.00  -0.03    -0.00  -0.05   0.02    -0.00   0.00  -0.00
  42   6     0.01  -0.00  -0.01     0.03  -0.03   0.02    -0.00   0.03  -0.05
  43   6     0.03  -0.00  -0.03     0.06  -0.05   0.03    -0.00   0.06  -0.11
  44   6     0.04  -0.00  -0.00     0.08  -0.02   0.03    -0.00   0.09  -0.16
  45   6     0.03  -0.00   0.03     0.06   0.01   0.02    -0.00   0.07  -0.13
  46   7     0.02  -0.01   0.03     0.04   0.01   0.01    -0.00   0.04  -0.07
  47   6     0.04  -0.01   0.06     0.08   0.05   0.01    -0.00   0.09  -0.17
  48   6     0.03  -0.01   0.10     0.06   0.09  -0.01    -0.00   0.07  -0.14
  49   6     0.04  -0.01   0.13     0.08   0.13  -0.02    -0.00   0.09  -0.18
  50   6     0.03  -0.01   0.16     0.06   0.16  -0.03    -0.00   0.07  -0.13
  51   6     0.01  -0.01   0.14     0.03   0.14  -0.02    -0.00   0.03  -0.07
  52   7     0.02  -0.01   0.11     0.04   0.11  -0.01    -0.00   0.04  -0.08
  53   6    -0.00  -0.01   0.16    -0.00   0.16  -0.03    -0.00  -0.00   0.00
  54   6    -0.01  -0.01   0.14    -0.03   0.14  -0.02    -0.00  -0.04   0.07
  55   6    -0.03  -0.01   0.16    -0.06   0.16  -0.03     0.00  -0.07   0.14
  56   6    -0.04  -0.01   0.13    -0.08   0.13  -0.01     0.00  -0.10   0.18
  57   6    -0.03  -0.01   0.10    -0.07   0.09  -0.00     0.00  -0.08   0.14
  58   7    -0.02  -0.01   0.11    -0.04   0.11  -0.01    -0.00  -0.04   0.08
  59   6    -0.04  -0.01   0.06    -0.08   0.05   0.01     0.00  -0.09   0.17
  60   6    -0.03  -0.01   0.03    -0.06   0.01   0.02     0.00  -0.07   0.13
  61   7    -0.02  -0.01   0.03    -0.04   0.01   0.02    -0.00  -0.04   0.07
  62   1    -0.02  -0.00  -0.00    -0.03  -0.01   0.01     0.00  -0.03   0.06
  63   1    -0.01  -0.00  -0.02    -0.02  -0.02   0.01    -0.00  -0.02   0.03
  64   1     0.01  -0.00  -0.02     0.02  -0.02   0.01    -0.00   0.02  -0.03
  65   1     0.02  -0.00  -0.00     0.03  -0.01   0.01    -0.00   0.03  -0.06
  66   1     0.02  -0.00   0.02     0.03   0.01   0.00    -0.00   0.03  -0.07
  67   1     0.01  -0.00   0.04     0.03   0.04  -0.00    -0.00   0.04  -0.07
  68   1     0.01  -0.00   0.05     0.02   0.06  -0.01    -0.00   0.02  -0.04
  69   1    -0.00  -0.00   0.05    -0.00   0.06  -0.01    -0.00  -0.00   0.00
  70   1    -0.01  -0.00   0.05    -0.02   0.06  -0.01     0.00  -0.02   0.04
  71   1    -0.02  -0.00   0.04    -0.03   0.04  -0.00     0.00  -0.04   0.07
  72   1    -0.02  -0.00   0.02    -0.03   0.01   0.00     0.00  -0.04   0.06
  73   6     0.00   0.01  -0.06    -0.00  -0.08  -0.02     0.00  -0.00  -0.00
  74   6     0.00   0.01  -0.08    -0.00  -0.09  -0.01     0.00  -0.00  -0.00
  75   6    -0.00  -0.00  -0.08    -0.00  -0.09   0.00    -0.00   0.00   0.00
  76   6    -0.00  -0.00  -0.06    -0.00  -0.08   0.01    -0.00   0.00   0.00
  77  30     0.00   0.01  -0.28    -0.00  -0.23  -0.01    -0.00   0.00   0.00
  78   6    -0.01   0.01  -0.12    -0.00  -0.10  -0.00     0.00  -0.00   0.03
  79   6    -0.00   0.01  -0.11    -0.00  -0.10  -0.00     0.00  -0.00   0.03
  80   6    -0.00   0.01  -0.11    -0.00  -0.10  -0.00     0.00  -0.00   0.01
  81   6     0.00   0.01  -0.10    -0.00  -0.10  -0.01     0.00  -0.00   0.00
  82   6     0.00   0.01  -0.11     0.00  -0.10  -0.00    -0.00   0.00  -0.01
  83   6     0.00   0.01  -0.11     0.00  -0.10   0.00    -0.00   0.00  -0.03
  84   6     0.01   0.01  -0.13     0.00  -0.10   0.00    -0.00   0.00  -0.03
  85   6     0.00   0.01  -0.13    -0.00  -0.10   0.00    -0.00   0.00  -0.01
  86   7     0.00   0.01  -0.13     0.00  -0.11  -0.00    -0.00   0.00  -0.01
  87   6     0.01   0.01  -0.14    -0.00  -0.10  -0.00    -0.00   0.00   0.00
  88   6     0.00   0.00  -0.13    -0.00  -0.10  -0.00    -0.00   0.00   0.01
  89   6     0.01   0.00  -0.13    -0.00  -0.10  -0.01    -0.00   0.00   0.03
  90   6     0.00  -0.00  -0.12    -0.00  -0.10  -0.01    -0.00   0.00   0.03
  91   6     0.00  -0.00  -0.11    -0.00  -0.10  -0.00    -0.00   0.00   0.02
  92   7     0.00   0.00  -0.13    -0.00  -0.11  -0.00    -0.00   0.00   0.01
  93   6     0.00  -0.00  -0.10    -0.00  -0.10  -0.00    -0.00   0.00   0.00
  94   6    -0.00  -0.00  -0.11     0.00  -0.10  -0.01     0.00   0.00  -0.01
  95   6    -0.00  -0.00  -0.12     0.00  -0.10  -0.01     0.00   0.00  -0.03
  96   6    -0.01   0.00  -0.13     0.00  -0.10  -0.01     0.00   0.00  -0.03
  97   6    -0.00   0.00  -0.13     0.00  -0.10  -0.01     0.00   0.00  -0.01
  98   7    -0.00   0.00  -0.13     0.00  -0.11  -0.01     0.00   0.00  -0.01
  99   6    -0.01   0.01  -0.13     0.00  -0.10  -0.01     0.00   0.00  -0.00
 100   6    -0.00   0.01  -0.13    -0.00  -0.10  -0.01     0.00  -0.00   0.01
 101   7    -0.00   0.01  -0.13    -0.00  -0.11  -0.01     0.00  -0.00   0.01
 102   1    -0.00   0.00  -0.04    -0.00  -0.03  -0.00     0.00  -0.00   0.01
 103   1    -0.00   0.00  -0.03    -0.00  -0.03  -0.00     0.00  -0.00   0.01
 104   1     0.00   0.00  -0.03     0.00  -0.03   0.00    -0.00  -0.00  -0.01
 105   1     0.00   0.00  -0.04     0.00  -0.03   0.00    -0.00   0.00  -0.01
 106   1     0.00   0.00  -0.04    -0.00  -0.03  -0.00    -0.00   0.00   0.00
 107   1     0.00   0.00  -0.04    -0.00  -0.03  -0.00    -0.00   0.00   0.01
 108   1     0.00  -0.00  -0.03    -0.00  -0.03  -0.00    -0.00   0.00   0.01
 109   1    -0.00  -0.00  -0.03     0.00  -0.03  -0.00     0.00   0.00  -0.01
 110   1    -0.00   0.00  -0.04     0.00  -0.03  -0.01     0.00   0.00  -0.01
 111   1    -0.00   0.00  -0.04     0.00  -0.03  -0.00     0.00   0.00  -0.00
                      4                      5                      6
                        a                      a                      a 
 Frequencies --    12.4540                12.8632                15.1764
 Red. masses --    11.5544                11.5288                11.2736
 Frc consts  --     0.0000                 0.0000                 0.0000
 IR Inten    --     0.5485                 1.6718                 1.5181
 Raman Activ --     0.0000                 0.0000                 0.0000
 Depolar     --     0.0000                 0.0000                 0.0000
 Atom AN      X      Y      Z        X      Y      Z        X      Y      Z
   1  30     0.00  -0.01  -0.02    -0.00   0.02   0.02     0.00  -0.00  -0.00
   2   6     0.06  -0.01  -0.11     0.06   0.10   0.09     0.01   0.04   0.07
   3   6     0.04  -0.01  -0.14     0.05   0.13   0.09     0.00   0.02   0.03
   4   6     0.02  -0.00  -0.11     0.02   0.10   0.07     0.00   0.01   0.02
   5   6    -0.00   0.00  -0.13    -0.00   0.11   0.07    -0.00   0.00  -0.00
   6   6    -0.02  -0.00  -0.11    -0.02   0.10   0.07    -0.00  -0.01  -0.02
   7   6    -0.04  -0.00  -0.14    -0.05   0.12   0.09    -0.00  -0.02  -0.04
   8   6    -0.06  -0.01  -0.11    -0.07   0.10   0.08    -0.00  -0.03  -0.07
   9   6    -0.05  -0.01  -0.06    -0.05   0.06   0.05    -0.00  -0.03  -0.07
  10   7    -0.03  -0.01  -0.07    -0.03   0.06   0.05    -0.00  -0.02  -0.04
  11   6    -0.06  -0.01  -0.02    -0.07   0.02   0.03    -0.00  -0.05  -0.10
  12   6    -0.04  -0.00   0.04    -0.06  -0.03  -0.02    -0.00  -0.05  -0.10
  13   6    -0.06  -0.00   0.10    -0.07  -0.08  -0.06    -0.00  -0.06  -0.13
  14   6    -0.04   0.00   0.14    -0.05  -0.12  -0.10    -0.00  -0.05  -0.10
  15   6    -0.02   0.00   0.11    -0.03  -0.09  -0.08     0.00  -0.03  -0.05
  16   7    -0.02  -0.00   0.06    -0.03  -0.04  -0.03    -0.00  -0.03  -0.05
  17   6     0.00   0.00   0.14    -0.00  -0.12  -0.10     0.00  -0.00   0.00
  18   6     0.02   0.00   0.11     0.02  -0.09  -0.08     0.00   0.02   0.05
  19   6     0.04   0.00   0.14     0.05  -0.11  -0.09     0.00   0.04   0.10
  20   6     0.06  -0.00   0.09     0.07  -0.07  -0.05     0.00   0.06   0.13
  21   6     0.05  -0.01   0.03     0.05  -0.03  -0.01     0.00   0.04   0.10
  22   7     0.03  -0.00   0.05     0.03  -0.04  -0.03     0.00   0.02   0.06
  23   6     0.06  -0.01  -0.02     0.07   0.02   0.03     0.00   0.05   0.10
  24   6     0.05  -0.01  -0.07     0.05   0.06   0.06     0.00   0.03   0.07
  25   7     0.03  -0.01  -0.07     0.03   0.06   0.05     0.00   0.02   0.04
  26   1     0.02  -0.00  -0.04     0.02   0.03   0.03     0.00   0.01   0.03
  27   1     0.01  -0.00  -0.05     0.01   0.05   0.03     0.00   0.00   0.01
  28   1    -0.01  -0.00  -0.05    -0.01   0.05   0.03     0.00  -0.00  -0.01
  29   1    -0.02  -0.00  -0.03    -0.02   0.03   0.03    -0.00  -0.01  -0.03
  30   1    -0.02  -0.00  -0.01    -0.03   0.01   0.01    -0.00  -0.02  -0.04
  31   1    -0.02  -0.00   0.03    -0.03  -0.02  -0.02    -0.00  -0.02  -0.05
  32   1    -0.01   0.00   0.06    -0.02  -0.05  -0.04    -0.00  -0.02  -0.03
  33   1     0.00   0.00   0.06    -0.00  -0.05  -0.04     0.00  -0.00   0.00
  34   1     0.01   0.00   0.05     0.01  -0.04  -0.04     0.00   0.01   0.03
  35   1     0.02  -0.00   0.03     0.03  -0.02  -0.01     0.00   0.02   0.05
  36   1     0.02  -0.00  -0.01     0.03   0.01   0.01     0.00   0.02   0.04
  37  30     0.00  -0.02   0.03     0.00  -0.02   0.02     0.00  -0.00   0.00
  38   6     0.05  -0.03   0.12    -0.07  -0.11   0.07     0.01   0.04  -0.07
  39   6     0.04  -0.02   0.15    -0.05  -0.13   0.07     0.00   0.02  -0.03
  40   6     0.02  -0.02   0.12    -0.02  -0.10   0.05     0.00   0.01  -0.02
  41   6    -0.00  -0.02   0.13     0.00  -0.11   0.05    -0.00  -0.00   0.00
  42   6    -0.02  -0.02   0.12     0.03  -0.10   0.05    -0.00  -0.01   0.02
  43   6    -0.04  -0.02   0.14     0.05  -0.13   0.07     0.00  -0.02   0.04
  44   6    -0.05  -0.02   0.12     0.07  -0.10   0.07    -0.00  -0.04   0.07
  45   6    -0.04  -0.02   0.07     0.06  -0.06   0.04    -0.00  -0.04   0.07
  46   7    -0.02  -0.02   0.08     0.03  -0.06   0.04    -0.00  -0.02   0.04
  47   6    -0.05  -0.01   0.02     0.07  -0.02   0.02    -0.00  -0.05   0.10
  48   6    -0.04   0.00  -0.04     0.06   0.03  -0.01    -0.00  -0.05   0.09
  49   6    -0.05   0.01  -0.10     0.08   0.08  -0.04    -0.00  -0.07   0.12
  50   6    -0.03   0.02  -0.15     0.05   0.12  -0.08    -0.00  -0.05   0.09
  51   6    -0.02   0.02  -0.12     0.03   0.10  -0.06     0.00  -0.03   0.05
  52   7    -0.02   0.00  -0.06     0.03   0.05  -0.03     0.00  -0.03   0.05
  53   6    -0.00   0.02  -0.15     0.00   0.12  -0.08     0.00  -0.00  -0.00
  54   6     0.02   0.02  -0.11    -0.03   0.10  -0.06     0.00   0.02  -0.05
  55   6     0.03   0.02  -0.14    -0.05   0.12  -0.07     0.00   0.05  -0.10
  56   6     0.05   0.01  -0.09    -0.07   0.08  -0.04     0.00   0.07  -0.13
  57   6     0.04  -0.00  -0.03    -0.06   0.03  -0.01     0.00   0.05  -0.10
  58   7     0.02   0.00  -0.05    -0.03   0.05  -0.02     0.00   0.03  -0.06
  59   6     0.05  -0.01   0.02    -0.07  -0.02   0.03     0.00   0.05  -0.10
  60   6     0.04  -0.02   0.07    -0.06  -0.06   0.05     0.00   0.04  -0.07
  61   7     0.02  -0.02   0.08    -0.03  -0.07   0.04     0.00   0.02  -0.04
  62   1     0.02  -0.01   0.04    -0.03  -0.03   0.03     0.00   0.01  -0.03
  63   1     0.01  -0.01   0.05    -0.02  -0.05   0.03     0.00   0.00  -0.01
  64   1    -0.01  -0.01   0.05     0.02  -0.05   0.03     0.00  -0.00   0.01
  65   1    -0.02  -0.01   0.04     0.03  -0.03   0.02    -0.00  -0.01   0.03
  66   1    -0.02  -0.00   0.01     0.03  -0.01   0.01    -0.00  -0.02   0.04
  67   1    -0.02   0.00  -0.03     0.03   0.02  -0.01    -0.00  -0.03   0.05
  68   1    -0.01   0.01  -0.06     0.02   0.05  -0.03    -0.00  -0.02   0.03
  69   1    -0.00   0.01  -0.06     0.00   0.05  -0.03     0.00  -0.00  -0.00
  70   1     0.01   0.01  -0.06    -0.02   0.05  -0.03     0.00   0.02  -0.03
  71   1     0.02   0.00  -0.03    -0.03   0.02  -0.01     0.00   0.03  -0.05
  72   1     0.02  -0.00   0.01    -0.03  -0.01   0.01     0.00   0.02  -0.04
  73   6    -0.00   0.01  -0.15    -0.00   0.13   0.06    -0.00   0.00  -0.01
  74   6    -0.00   0.02  -0.16    -0.00   0.12   0.03    -0.00   0.00  -0.01
  75   6    -0.00  -0.00   0.16     0.00  -0.12   0.01    -0.00   0.00   0.01
  76   6    -0.00  -0.01   0.16     0.00  -0.13   0.03    -0.00   0.00   0.01
  77  30     0.00   0.02  -0.00     0.00  -0.00  -0.04    -0.00   0.00  -0.00
  78   6    -0.00   0.02  -0.11    -0.09   0.07  -0.02    -0.00   0.01  -0.23
  79   6    -0.00   0.02  -0.15    -0.07   0.09  -0.00    -0.00   0.01  -0.16
  80   6    -0.00   0.02  -0.12    -0.03   0.07   0.00    -0.00   0.01  -0.08
  81   6    -0.00   0.02  -0.14    -0.00   0.09   0.01    -0.00   0.00  -0.01
  82   6    -0.00   0.02  -0.12     0.03   0.07  -0.00    -0.00  -0.00   0.07
  83   6    -0.00   0.02  -0.16     0.07   0.09  -0.01    -0.00  -0.01   0.15
  84   6     0.00   0.02  -0.12     0.09   0.07  -0.02    -0.00  -0.01   0.22
  85   6     0.00   0.01  -0.07     0.07   0.03  -0.03    -0.00  -0.00   0.18
  86   7     0.00   0.01  -0.07     0.04   0.04  -0.01    -0.00  -0.00   0.10
  87   6     0.00   0.01  -0.01     0.09   0.00  -0.04    -0.00  -0.00   0.23
  88   6     0.00   0.01   0.05     0.07  -0.03  -0.03    -0.00  -0.00   0.19
  89   6     0.01   0.00   0.10     0.09  -0.07  -0.04    -0.00   0.00   0.23
  90   6     0.01   0.00   0.14     0.07  -0.09  -0.02    -0.00   0.00   0.16
  91   6     0.00   0.00   0.11     0.03  -0.07  -0.02    -0.00   0.00   0.08
  92   7     0.00   0.01   0.06     0.04  -0.04  -0.02    -0.00  -0.00   0.11
  93   6    -0.00   0.00   0.14     0.00  -0.09  -0.01    -0.00   0.00   0.01
  94   6    -0.00   0.00   0.12    -0.03  -0.07  -0.02    -0.00   0.00  -0.07
  95   6    -0.01   0.00   0.15    -0.06  -0.09  -0.03    -0.00  -0.00  -0.15
  96   6    -0.01   0.00   0.12    -0.09  -0.07  -0.04    -0.00   0.00  -0.22
  97   6    -0.01   0.01   0.06    -0.07  -0.03  -0.03    -0.00   0.00  -0.18
  98   7    -0.00   0.01   0.07    -0.04  -0.04  -0.02    -0.00   0.00  -0.10
  99   6    -0.00   0.01   0.01    -0.09  -0.00  -0.03    -0.00   0.01  -0.23
 100   6    -0.00   0.01  -0.05    -0.07   0.03  -0.02    -0.00   0.01  -0.19
 101   7    -0.00   0.01  -0.07    -0.04   0.04  -0.01    -0.00   0.00  -0.11
 102   1    -0.00   0.00  -0.03    -0.03   0.02  -0.01    -0.00   0.00  -0.09
 103   1     0.00   0.01  -0.06    -0.02   0.03   0.00    -0.00   0.00  -0.05
 104   1    -0.00   0.01  -0.06     0.02   0.03  -0.00    -0.00  -0.00   0.04
 105   1     0.00   0.00  -0.04     0.03   0.02  -0.01    -0.00  -0.00   0.08
 106   1     0.00   0.00  -0.00     0.03   0.00  -0.01    -0.00  -0.00   0.09
 107   1     0.00   0.00   0.03     0.03  -0.02  -0.01    -0.00   0.00   0.09
 108   1     0.00  -0.00   0.05     0.02  -0.03  -0.01    -0.00   0.00   0.05
 109   1    -0.00  -0.00   0.06    -0.02  -0.03  -0.01    -0.00  -0.00  -0.04
 110   1    -0.00   0.00   0.04    -0.03  -0.02  -0.01    -0.00   0.00  -0.08
 111   1    -0.00   0.00   0.00    -0.03  -0.00  -0.01    -0.00   0.00  -0.09
                      7                      8                      9
                        a                      a                      a 
 Frequencies --    28.0511                35.4530                40.5244
 Red. masses --    15.1911                14.4582                10.9684
 Frc consts  --     0.0000                 0.0000                 0.0000
 IR Inten    --     4.5232                 4.1405                 0.8836
 Raman Activ --     0.0000                 0.0000                 0.0000
 Depolar     --     0.0000                 0.0000                 0.0000
 Atom AN      X      Y      Z        X      Y      Z        X      Y      Z
   1  30     0.00   0.00   0.10    -0.00  -0.09  -0.08     0.00  -0.00  -0.00
   2   6    -0.07  -0.02   0.13    -0.03  -0.11  -0.11     0.01  -0.07  -0.15
   3   6    -0.05  -0.04   0.13    -0.02  -0.08  -0.05     0.01  -0.08  -0.15
   4   6    -0.03  -0.04   0.11    -0.01  -0.06  -0.02     0.00  -0.04  -0.07
   5   6     0.00  -0.05   0.11     0.00  -0.05   0.02     0.00   0.00  -0.00
   6   6     0.03  -0.04   0.11     0.01  -0.06  -0.02     0.00   0.04   0.07
   7   6     0.05  -0.04   0.13     0.02  -0.08  -0.05     0.01   0.08   0.15
   8   6     0.08  -0.02   0.13     0.03  -0.10  -0.11     0.01   0.07   0.15
   9   6     0.06  -0.00   0.10     0.02  -0.09  -0.10     0.00   0.03   0.07
  10   7     0.03  -0.01   0.10     0.01  -0.07  -0.06     0.00   0.02   0.04
  11   6     0.08   0.02   0.07     0.03  -0.08  -0.11     0.00  -0.00  -0.00
  12   6     0.06   0.02   0.01     0.02  -0.03  -0.04     0.00  -0.04  -0.07
  13   6     0.08   0.02  -0.05     0.03   0.00   0.01     0.00  -0.07  -0.15
  14   6     0.05   0.01  -0.11     0.02   0.05   0.10     0.00  -0.07  -0.15
  15   6     0.03   0.01  -0.09     0.01   0.04   0.09     0.00  -0.03  -0.07
  16   7     0.03   0.01  -0.02     0.01  -0.01   0.01     0.00  -0.02  -0.05
  17   6     0.00   0.00  -0.13    -0.00   0.08   0.14     0.00  -0.00   0.00
  18   6    -0.03   0.01  -0.09    -0.01   0.05   0.09     0.00   0.03   0.07
  19   6    -0.05   0.01  -0.12    -0.02   0.06   0.10     0.00   0.07   0.15
  20   6    -0.07   0.02  -0.06    -0.03   0.01   0.01     0.00   0.07   0.15
  21   6    -0.06   0.02   0.01    -0.03  -0.03  -0.04     0.00   0.04   0.07
  22   7    -0.03   0.01  -0.02    -0.01  -0.01   0.01     0.00   0.02   0.05
  23   6    -0.07   0.02   0.07    -0.03  -0.08  -0.11     0.00   0.00   0.00
  24   6    -0.06   0.00   0.10    -0.02  -0.09  -0.10     0.00  -0.03  -0.07
  25   7    -0.03  -0.01   0.10    -0.01  -0.07  -0.06     0.00  -0.02  -0.04
  26   1    -0.03  -0.00   0.04    -0.01  -0.04  -0.04     0.00  -0.03  -0.06
  27   1    -0.02  -0.02   0.04    -0.01  -0.03  -0.01     0.00  -0.03  -0.06
  28   1     0.02  -0.02   0.04     0.01  -0.02  -0.01     0.00   0.03   0.06
  29   1     0.03  -0.00   0.04     0.01  -0.04  -0.04     0.00   0.03   0.06
  30   1     0.03   0.01   0.02     0.01  -0.03  -0.04     0.00  -0.00  -0.00
  31   1     0.03   0.01  -0.01     0.01  -0.00  -0.01    -0.00  -0.03  -0.06
  32   1     0.02   0.00  -0.05     0.01   0.03   0.05     0.00  -0.03  -0.05
  33   1     0.00  -0.00  -0.06    -0.00   0.03   0.06     0.00  -0.00   0.00
  34   1    -0.02   0.00  -0.05    -0.01   0.03   0.05     0.00   0.03   0.06
  35   1    -0.03   0.01  -0.02    -0.01  -0.00  -0.00     0.00   0.03   0.06
  36   1    -0.03   0.01   0.02    -0.01  -0.03  -0.04     0.00   0.00   0.00
  37  30    -0.00  -0.01   0.10    -0.00  -0.10   0.07    -0.00  -0.00   0.00
  38   6     0.07   0.01   0.13    -0.03  -0.11   0.11    -0.01   0.08  -0.14
  39   6     0.05   0.04   0.13    -0.02  -0.09   0.05    -0.01   0.08  -0.14
  40   6     0.02   0.03   0.11    -0.01  -0.06   0.02    -0.00   0.04  -0.07
  41   6    -0.00   0.05   0.11     0.00  -0.05  -0.02    -0.00  -0.00  -0.00
  42   6    -0.03   0.03   0.11     0.01  -0.06   0.02    -0.00  -0.04   0.07
  43   6    -0.05   0.04   0.13     0.02  -0.08   0.04    -0.01  -0.08   0.14
  44   6    -0.08   0.01   0.13     0.03  -0.11   0.10    -0.01  -0.08   0.14
  45   6    -0.06  -0.00   0.10     0.02  -0.09   0.10    -0.00  -0.04   0.06
  46   7    -0.03   0.01   0.10     0.01  -0.07   0.06    -0.00  -0.02   0.04
  47   6    -0.07  -0.02   0.07     0.03  -0.08   0.11    -0.00   0.00  -0.00
  48   6    -0.06  -0.02   0.01     0.02  -0.04   0.04    -0.00   0.04  -0.07
  49   6    -0.08  -0.02  -0.05     0.03   0.00  -0.01    -0.00   0.08  -0.14
  50   6    -0.05  -0.01  -0.12     0.02   0.06  -0.09    -0.00   0.08  -0.14
  51   6    -0.03  -0.00  -0.09     0.01   0.05  -0.09    -0.00   0.04  -0.07
  52   7    -0.03  -0.01  -0.02     0.01  -0.01  -0.01    -0.00   0.02  -0.05
  53   6    -0.00   0.00  -0.13    -0.00   0.08  -0.13    -0.00   0.00  -0.00
  54   6     0.03  -0.00  -0.09    -0.01   0.05  -0.09    -0.00  -0.04   0.07
  55   6     0.05  -0.00  -0.12    -0.02   0.06  -0.10    -0.00  -0.07   0.14
  56   6     0.07  -0.01  -0.05    -0.03   0.01  -0.01    -0.00  -0.08   0.14
  57   6     0.06  -0.02   0.01    -0.02  -0.03   0.04    -0.00  -0.04   0.07
  58   7     0.03  -0.01  -0.02    -0.01  -0.01  -0.01    -0.00  -0.02   0.05
  59   6     0.07  -0.02   0.07    -0.03  -0.08   0.10    -0.00  -0.00   0.01
  60   6     0.06  -0.00   0.10    -0.02  -0.09   0.10    -0.00   0.04  -0.06
  61   7     0.03   0.01   0.10    -0.01  -0.07   0.06    -0.00   0.02  -0.04
  62   1     0.03   0.00   0.04    -0.01  -0.04   0.04    -0.00   0.03  -0.05
  63   1     0.02   0.02   0.04    -0.01  -0.03   0.01    -0.00   0.03  -0.05
  64   1    -0.02   0.02   0.04     0.01  -0.02   0.01    -0.00  -0.03   0.05
  65   1    -0.03   0.00   0.04     0.01  -0.04   0.04    -0.00  -0.03   0.05
  66   1    -0.03  -0.01   0.02     0.01  -0.03   0.04    -0.00   0.00  -0.00
  67   1    -0.03  -0.01  -0.01     0.01  -0.00   0.01    -0.00   0.03  -0.05
  68   1    -0.02  -0.00  -0.05     0.01   0.03  -0.04    -0.00   0.03  -0.05
  69   1    -0.00   0.00  -0.06    -0.00   0.04  -0.06    -0.00   0.00  -0.00
  70   1     0.02   0.00  -0.05    -0.01   0.03  -0.05    -0.00  -0.03   0.05
  71   1     0.03  -0.01  -0.01    -0.01  -0.00   0.00    -0.00  -0.03   0.05
  72   1     0.03  -0.01   0.02    -0.01  -0.03   0.04    -0.00  -0.00   0.00
  73   6     0.00  -0.08   0.10     0.00  -0.02   0.08     0.00   0.00  -0.00
  74   6     0.00  -0.07   0.06     0.00   0.05   0.12     0.00  -0.00  -0.00
  75   6    -0.00   0.07   0.06     0.00   0.05  -0.11    -0.00   0.00  -0.00
  76   6    -0.00   0.07   0.10     0.00  -0.01  -0.08    -0.00   0.00  -0.00
  77  30    -0.00   0.00  -0.22     0.00   0.17   0.00     0.00  -0.00  -0.00
  78   6     0.05  -0.03  -0.09    -0.00   0.06   0.11     0.00   0.01  -0.18
  79   6     0.03  -0.05  -0.03    -0.00   0.06   0.14     0.00   0.01  -0.19
  80   6     0.02  -0.04  -0.03     0.00   0.07   0.11     0.00   0.00  -0.09
  81   6     0.00  -0.05   0.01     0.00   0.06   0.12     0.00  -0.00  -0.00
  82   6    -0.02  -0.04  -0.03    -0.00   0.07   0.11     0.00  -0.00   0.09
  83   6    -0.03  -0.05  -0.02     0.00   0.06   0.13     0.01  -0.01   0.19
  84   6    -0.05  -0.04  -0.09     0.00   0.06   0.10     0.00  -0.01   0.19
  85   6    -0.04  -0.02  -0.12     0.00   0.07   0.06     0.00  -0.00   0.09
  86   7    -0.02  -0.02  -0.09    -0.00   0.07   0.07     0.00  -0.00   0.05
  87   6    -0.05   0.00  -0.15     0.00   0.07   0.00    -0.00   0.00   0.00
  88   6    -0.04   0.02  -0.12     0.00   0.07  -0.05    -0.00   0.00  -0.09
  89   6    -0.05   0.04  -0.09     0.00   0.07  -0.10    -0.00   0.00  -0.19
  90   6    -0.03   0.05  -0.03     0.00   0.07  -0.13    -0.00   0.00  -0.19
  91   6    -0.02   0.04  -0.03     0.00   0.07  -0.10    -0.00   0.00  -0.09
  92   7    -0.02   0.03  -0.09     0.00   0.07  -0.07    -0.00   0.00  -0.05
  93   6    -0.00   0.05   0.01     0.00   0.07  -0.12    -0.00   0.00  -0.00
  94   6     0.02   0.04  -0.02    -0.00   0.07  -0.11    -0.00  -0.00   0.09
  95   6     0.03   0.05  -0.02     0.00   0.07  -0.13    -0.00   0.00   0.19
  96   6     0.05   0.04  -0.08     0.00   0.07  -0.11    -0.00  -0.00   0.19
  97   6     0.04   0.02  -0.11    -0.00   0.07  -0.06    -0.00  -0.00   0.09
  98   7     0.02   0.03  -0.09    -0.00   0.07  -0.07    -0.00  -0.00   0.05
  99   6     0.05   0.00  -0.15    -0.00   0.07  -0.00     0.00  -0.00   0.00
 100   6     0.04  -0.02  -0.12    -0.00   0.07   0.06     0.00   0.00  -0.09
 101   7     0.02  -0.02  -0.09     0.00   0.07   0.07     0.00   0.00  -0.05
 102   1     0.02  -0.01  -0.03    -0.00   0.02   0.03     0.00   0.00  -0.07
 103   1     0.01  -0.02   0.00    -0.00   0.02   0.05     0.00   0.00  -0.07
 104   1    -0.01  -0.02   0.01     0.00   0.02   0.05     0.00  -0.00   0.07
 105   1    -0.02  -0.01  -0.03     0.00   0.02   0.03     0.00  -0.00   0.07
 106   1    -0.02   0.00  -0.05     0.00   0.02   0.00    -0.00   0.00   0.00
 107   1    -0.02   0.01  -0.03    -0.00   0.02  -0.03    -0.00   0.00  -0.07
 108   1    -0.01   0.02   0.01    -0.00   0.02  -0.05    -0.00  -0.00  -0.07
 109   1     0.01   0.02   0.01     0.00   0.02  -0.05    -0.00   0.00   0.07
 110   1     0.02   0.01  -0.03     0.00   0.02  -0.03    -0.00  -0.00   0.07
 111   1     0.02   0.00  -0.05    -0.00   0.02  -0.00     0.00  -0.00   0.00
                     10                     11                     12
                        a                      a                      a 
 Frequencies --    44.8310                48.7651                49.2426
 Red. masses --    11.0609                13.6179                12.1596
 Frc consts  --     0.0000                 0.0000                 0.0000
 IR Inten    --     9.0255                 0.5724                 1.8481
 Raman Activ --     0.0000                 0.0000                 0.0000
 Depolar     --     0.0000                 0.0000                 0.0000
 Atom AN      X      Y      Z        X      Y      Z        X      Y      Z
   1  30     0.02  -0.00  -0.00     0.15   0.03   0.00     0.08  -0.05  -0.01
   2   6     0.00   0.10   0.20     0.08   0.09   0.13    -0.00  -0.05   0.01
   3   6     0.00   0.10   0.19     0.07   0.07   0.07     0.01  -0.02   0.08
   4   6     0.00   0.04   0.09     0.05   0.03   0.01     0.02  -0.01   0.08
   5   6    -0.00  -0.00   0.00     0.04   0.00  -0.06     0.02  -0.00   0.11
   6   6     0.00  -0.05  -0.09     0.04  -0.00  -0.08     0.04  -0.03   0.03
   7   6     0.00  -0.10  -0.19     0.04  -0.02  -0.10     0.05  -0.07  -0.02
   8   6     0.00  -0.10  -0.20     0.04  -0.00  -0.07     0.06  -0.10  -0.11
   9   6     0.00  -0.05  -0.11     0.04   0.02  -0.02     0.06  -0.08  -0.10
  10   7     0.00  -0.03  -0.06     0.05   0.01  -0.04     0.04  -0.05  -0.03
  11   6     0.01  -0.01  -0.02     0.04   0.04   0.04     0.06  -0.07  -0.12
  12   6     0.01   0.04   0.08     0.04   0.04   0.06     0.06  -0.03  -0.05
  13   6     0.01   0.08   0.17     0.04   0.04   0.09     0.07   0.01   0.00
  14   6     0.01   0.09   0.18     0.05   0.01   0.05     0.06   0.06   0.09
  15   6     0.01   0.04   0.09     0.06  -0.01   0.00     0.05   0.05   0.08
  16   7     0.01   0.02   0.05     0.06   0.01   0.02     0.05   0.00   0.01
  17   6     0.01   0.00   0.00     0.07  -0.04  -0.06     0.04   0.07   0.10
  18   6     0.01  -0.04  -0.09     0.07  -0.04  -0.07     0.02   0.03   0.04
  19   6     0.01  -0.08  -0.18     0.08  -0.06  -0.10     0.01   0.02  -0.00
  20   6     0.00  -0.08  -0.17     0.08  -0.03  -0.05    -0.00  -0.03  -0.08
  21   6     0.00  -0.04  -0.08     0.08   0.00   0.01     0.01  -0.05  -0.07
  22   7     0.01  -0.02  -0.05     0.08  -0.01  -0.02     0.02  -0.01  -0.01
  23   6     0.00   0.01   0.02     0.08   0.04   0.08    -0.00  -0.07  -0.09
  24   6     0.00   0.05   0.10     0.07   0.06   0.10     0.00  -0.05  -0.03
  25   7     0.00   0.03   0.06     0.06   0.03   0.04     0.02  -0.03   0.02
  26   1     0.00   0.04   0.08     0.03   0.03   0.05    -0.00  -0.02  -0.01
  27   1     0.00   0.04   0.07     0.02   0.03   0.02     0.00  -0.00   0.04
  28   1     0.00  -0.04  -0.07     0.01  -0.01  -0.04     0.02  -0.02   0.00
  29   1     0.00  -0.04  -0.08     0.01  -0.00  -0.02     0.02  -0.04  -0.05
  30   1     0.00  -0.00  -0.01     0.01   0.01   0.02     0.02  -0.03  -0.05
  31   1     0.00   0.03   0.06     0.01   0.02   0.04     0.02  -0.00  -0.01
  32   1     0.00   0.03   0.07     0.01   0.00   0.02     0.02   0.03   0.04
  33   1     0.00   0.00   0.00     0.02  -0.02  -0.02     0.01   0.03   0.04
  34   1     0.00  -0.03  -0.07     0.02  -0.03  -0.04     0.00   0.01   0.01
  35   1     0.00  -0.03  -0.06     0.02  -0.01  -0.01    -0.00  -0.02  -0.04
  36   1     0.00   0.00   0.01     0.02   0.02   0.03    -0.00  -0.03  -0.04
  37  30     0.01  -0.00  -0.00    -0.14  -0.03   0.00    -0.08   0.05  -0.01
  38   6    -0.00   0.11  -0.20    -0.08  -0.10   0.13    -0.00   0.04   0.01
  39   6    -0.00   0.10  -0.19    -0.07  -0.08   0.07    -0.01   0.01   0.09
  40   6    -0.00   0.05  -0.09    -0.05  -0.04   0.01    -0.02   0.00   0.08
  41   6    -0.00  -0.00  -0.00    -0.04  -0.00  -0.06    -0.02  -0.00   0.10
  42   6    -0.00  -0.05   0.09    -0.04   0.01  -0.08    -0.04   0.03   0.03
  43   6     0.00  -0.11   0.18    -0.04   0.03  -0.11    -0.05   0.07  -0.02
  44   6     0.00  -0.11   0.20    -0.04   0.01  -0.07    -0.06   0.11  -0.11
  45   6     0.00  -0.06   0.10    -0.04  -0.02  -0.02    -0.05   0.08  -0.10
  46   7     0.00  -0.03   0.06    -0.05  -0.01  -0.04    -0.04   0.05  -0.03
  47   6     0.01  -0.01   0.02    -0.04  -0.04   0.04    -0.06   0.08  -0.12
  48   6     0.01   0.04  -0.07    -0.04  -0.04   0.06    -0.06   0.03  -0.04
  49   6     0.01   0.09  -0.17    -0.04  -0.05   0.10    -0.06  -0.01   0.01
  50   6     0.01   0.09  -0.17    -0.05  -0.02   0.06    -0.06  -0.07   0.09
  51   6     0.00   0.05  -0.08    -0.06   0.00   0.01    -0.05  -0.05   0.08
  52   7     0.01   0.03  -0.05    -0.06  -0.02   0.02    -0.05  -0.00   0.01
  53   6     0.00   0.00  -0.00    -0.07   0.04  -0.06    -0.04  -0.07   0.10
  54   6     0.00  -0.04   0.08    -0.07   0.05  -0.07    -0.02  -0.03   0.04
  55   6     0.00  -0.09   0.17    -0.08   0.07  -0.11    -0.01  -0.02  -0.00
  56   6     0.00  -0.09   0.17    -0.08   0.03  -0.05     0.00   0.04  -0.08
  57   6     0.00  -0.04   0.08    -0.08  -0.00   0.01    -0.01   0.05  -0.08
  58   7     0.00  -0.03   0.05    -0.08   0.01  -0.02    -0.02   0.01  -0.01
  59   6     0.00   0.01  -0.02    -0.08  -0.05   0.08    -0.00   0.08  -0.09
  60   6    -0.00   0.05  -0.10    -0.07  -0.07   0.10    -0.01   0.05  -0.03
  61   7    -0.00   0.03  -0.06    -0.06  -0.04   0.04    -0.02   0.03   0.02
  62   1    -0.00   0.04  -0.07    -0.03  -0.04   0.05     0.00   0.02  -0.00
  63   1    -0.00   0.04  -0.07    -0.02  -0.03   0.02    -0.00  -0.00   0.04
  64   1    -0.00  -0.04   0.07    -0.01   0.01  -0.04    -0.02   0.02   0.00
  65   1     0.00  -0.04   0.07    -0.01   0.00  -0.02    -0.02   0.04  -0.05
  66   1     0.00  -0.00   0.01    -0.01  -0.02   0.02    -0.02   0.03  -0.05
  67   1     0.00   0.03  -0.06    -0.01  -0.02   0.04    -0.02   0.00  -0.01
  68   1     0.00   0.04  -0.07    -0.01  -0.00   0.02    -0.02  -0.03   0.04
  69   1     0.00   0.00  -0.00    -0.02   0.02  -0.03    -0.01  -0.03   0.04
  70   1     0.00  -0.03   0.07    -0.02   0.03  -0.05    -0.00  -0.01   0.01
  71   1     0.00  -0.03   0.06    -0.02   0.01  -0.02     0.00   0.02  -0.04
  72   1    -0.00   0.00  -0.01    -0.02  -0.02   0.03     0.00   0.03  -0.04
  73   6    -0.00  -0.00   0.00     0.03  -0.01  -0.09     0.02   0.02   0.15
  74   6    -0.00   0.00   0.00     0.03  -0.05  -0.08     0.02   0.09   0.14
  75   6    -0.00   0.00  -0.00    -0.03   0.05  -0.08    -0.02  -0.09   0.14
  76   6    -0.00  -0.00  -0.00    -0.03   0.02  -0.09    -0.02  -0.03   0.15
  77  30    -0.02   0.01   0.00    -0.00   0.00  -0.00    -0.00   0.00   0.02
  78   6    -0.01   0.00  -0.04     0.05  -0.03  -0.12    -0.08   0.07  -0.18
  79   6    -0.01   0.00  -0.02     0.04  -0.04  -0.17    -0.05   0.09  -0.09
  80   6    -0.01   0.00  -0.01     0.03  -0.04  -0.11    -0.02   0.07   0.00
  81   6    -0.00   0.00  -0.00     0.03  -0.04  -0.06     0.02   0.08   0.10
  82   6    -0.01   0.00   0.01     0.00  -0.04   0.05     0.04   0.07   0.10
  83   6    -0.01   0.00   0.01    -0.02  -0.06   0.15     0.06   0.08   0.11
  84   6    -0.01   0.00   0.04    -0.04  -0.04   0.21     0.08   0.06   0.03
  85   6    -0.01   0.00   0.04    -0.03  -0.01   0.13     0.07   0.04  -0.03
  86   7    -0.01   0.00   0.02    -0.00  -0.01   0.05     0.04   0.04   0.03
  87   6    -0.01   0.00   0.05    -0.04   0.02   0.07     0.08   0.01  -0.12
  88   6    -0.01   0.00   0.04    -0.04   0.03  -0.04     0.06  -0.02  -0.12
  89   6    -0.01   0.00   0.03    -0.05   0.04  -0.12     0.08  -0.06  -0.17
  90   6    -0.01   0.00   0.01    -0.04   0.05  -0.17     0.05  -0.09  -0.09
  91   6    -0.01   0.00   0.01    -0.03   0.04  -0.11     0.02  -0.07   0.00
  92   7    -0.01   0.00   0.02    -0.04   0.03  -0.05     0.02  -0.03  -0.03
  93   6    -0.00   0.00  -0.00    -0.03   0.05  -0.06    -0.02  -0.08   0.10
  94   6    -0.01   0.00  -0.00    -0.00   0.04   0.05    -0.04  -0.07   0.10
  95   6    -0.01   0.00  -0.00     0.02   0.05   0.15    -0.06  -0.08   0.11
  96   6    -0.01   0.00  -0.02     0.04   0.03   0.21    -0.08  -0.06   0.03
  97   6    -0.01   0.00  -0.03     0.03   0.00   0.13    -0.07  -0.04  -0.03
  98   7    -0.01   0.00  -0.02     0.00   0.01   0.05    -0.04  -0.04   0.03
  99   6    -0.01   0.00  -0.05     0.04  -0.02   0.07    -0.08  -0.01  -0.12
 100   6    -0.01   0.00  -0.04     0.04  -0.03  -0.03    -0.06   0.03  -0.12
 101   7    -0.01   0.00  -0.02     0.04  -0.03  -0.05    -0.02   0.03  -0.03
 102   1    -0.00   0.00  -0.01     0.02  -0.01  -0.04    -0.03   0.02  -0.08
 103   1    -0.00   0.00  -0.00     0.01  -0.01  -0.07    -0.02   0.04  -0.02
 104   1    -0.00  -0.00  -0.00    -0.01  -0.03   0.05     0.02   0.03   0.05
 105   1    -0.00   0.00   0.01    -0.02  -0.01   0.08     0.03   0.02   0.00
 106   1    -0.00   0.00   0.02    -0.02   0.00   0.03     0.03   0.00  -0.05
 107   1    -0.00   0.00   0.01    -0.02   0.01  -0.04     0.03  -0.02  -0.07
 108   1    -0.00   0.00  -0.00    -0.01   0.02  -0.07     0.02  -0.03  -0.02
 109   1    -0.00  -0.00   0.00     0.01   0.02   0.05    -0.02  -0.03   0.05
 110   1    -0.00   0.00  -0.01     0.02   0.01   0.08    -0.03  -0.02   0.00
 111   1    -0.00   0.00  -0.02     0.02  -0.01   0.03    -0.03  -0.00  -0.05
                     13                     14                     15
                        a                      a                      a 
 Frequencies --    53.1409                56.7865                68.8390
 Red. masses --    14.9093                18.7578                25.2036
 Frc consts  --     0.0000                 0.0000                 0.0000
 IR Inten    --     1.4637                 0.0360                 1.3141
 Raman Activ --     0.0000                 0.0000                 0.0000
 Depolar     --     0.0000                 0.0000                 0.0000
 Atom AN      X      Y      Z        X      Y      Z        X      Y      Z
   1  30    -0.00  -0.07   0.09     0.26  -0.00   0.01     0.00   0.17   0.31
   2   6    -0.09  -0.09   0.05     0.10  -0.05  -0.07     0.01  -0.04  -0.10
   3   6    -0.06  -0.12   0.04     0.09  -0.03  -0.06     0.01   0.01  -0.00
   4   6    -0.03  -0.10   0.05     0.08  -0.02  -0.03     0.00   0.06   0.09
   5   6    -0.00  -0.12   0.05     0.07  -0.00   0.00     0.00   0.07   0.12
   6   6     0.02  -0.10   0.05     0.09   0.02   0.03    -0.00   0.06   0.09
   7   6     0.05  -0.12   0.04     0.10   0.02   0.06    -0.00   0.01  -0.00
   8   6     0.08  -0.09   0.05     0.11   0.04   0.07    -0.01  -0.04  -0.10
   9   6     0.06  -0.05   0.06     0.10   0.04   0.04    -0.01  -0.02  -0.06
  10   7     0.03  -0.06   0.06     0.10   0.03   0.02    -0.00   0.04   0.07
  11   6     0.08  -0.02   0.05     0.10   0.03   0.01    -0.01  -0.07  -0.15
  12   6     0.07   0.00   0.02     0.11  -0.00  -0.02    -0.01  -0.04  -0.10
  13   6     0.09   0.02  -0.02     0.11  -0.02  -0.05    -0.01  -0.08  -0.17
  14   6     0.06   0.03  -0.06     0.11  -0.03  -0.06    -0.01  -0.03  -0.06
  15   6     0.03   0.02  -0.04     0.12  -0.01  -0.03    -0.00   0.03   0.06
  16   7     0.04   0.00   0.00     0.12   0.00  -0.01    -0.00   0.03   0.05
  17   6    -0.00   0.02  -0.07     0.12   0.00  -0.00     0.00   0.05   0.11
  18   6    -0.03   0.02  -0.04     0.11   0.01   0.03     0.00   0.03   0.06
  19   6    -0.07   0.03  -0.05     0.11   0.03   0.05     0.01  -0.03  -0.06
  20   6    -0.09   0.02  -0.01     0.10   0.02   0.05     0.01  -0.08  -0.17
  21   6    -0.07   0.00   0.02     0.10  -0.00   0.02     0.01  -0.04  -0.09
  22   7    -0.04   0.00   0.01     0.12  -0.00   0.01     0.00   0.03   0.05
  23   6    -0.09  -0.02   0.05     0.10  -0.03  -0.01     0.01  -0.07  -0.15
  24   6    -0.07  -0.05   0.05     0.10  -0.04  -0.04     0.01  -0.02  -0.06
  25   7    -0.03  -0.06   0.06     0.09  -0.03  -0.02     0.00   0.04   0.07
  26   1    -0.03  -0.03   0.01     0.03  -0.02  -0.03     0.00  -0.03  -0.06
  27   1    -0.02  -0.05   0.01     0.03  -0.01  -0.02     0.00   0.00   0.00
  28   1     0.02  -0.05   0.01     0.03   0.00   0.02    -0.00   0.00   0.00
  29   1     0.03  -0.03   0.02     0.03   0.01   0.03    -0.00  -0.03  -0.06
  30   1     0.03  -0.00   0.02     0.03   0.01   0.01    -0.00  -0.04  -0.08
  31   1     0.03   0.01  -0.00     0.03  -0.01  -0.02    -0.00  -0.04  -0.08
  32   1     0.02   0.01  -0.03     0.03  -0.01  -0.02    -0.00  -0.01  -0.02
  33   1    -0.00   0.01  -0.03     0.03   0.00  -0.00     0.00   0.02   0.04
  34   1    -0.02   0.01  -0.02     0.03   0.01   0.02     0.00  -0.01  -0.02
  35   1    -0.03   0.01  -0.00     0.03   0.01   0.02     0.00  -0.04  -0.08
  36   1    -0.03  -0.00   0.02     0.03  -0.01  -0.01     0.00  -0.04  -0.08
  37  30     0.01  -0.07  -0.10    -0.26  -0.00   0.00    -0.00   0.19  -0.31
  38   6    -0.08  -0.09  -0.05    -0.11   0.05  -0.07     0.01  -0.05   0.10
  39   6    -0.06  -0.13  -0.04    -0.10   0.03  -0.06     0.01   0.01   0.00
  40   6    -0.02  -0.10  -0.05    -0.08   0.02  -0.03     0.00   0.06  -0.09
  41   6     0.00  -0.12  -0.05    -0.07  -0.00   0.00     0.00   0.08  -0.12
  42   6     0.03  -0.10  -0.06    -0.08  -0.02   0.03    -0.00   0.06  -0.09
  43   6     0.06  -0.12  -0.05    -0.10  -0.03   0.06    -0.01   0.01   0.00
  44   6     0.09  -0.09  -0.06    -0.10  -0.04   0.06    -0.01  -0.05   0.10
  45   6     0.07  -0.05  -0.06    -0.10  -0.04   0.04    -0.01  -0.02   0.06
  46   7     0.04  -0.06  -0.06    -0.09  -0.03   0.02    -0.00   0.05  -0.07
  47   6     0.09  -0.02  -0.05    -0.10  -0.03   0.01    -0.01  -0.07   0.15
  48   6     0.07   0.00  -0.02    -0.11   0.00  -0.02    -0.01  -0.05   0.10
  49   6     0.09   0.02   0.02    -0.10   0.02  -0.05    -0.01  -0.09   0.17
  50   6     0.07   0.03   0.06    -0.11   0.03  -0.06    -0.01  -0.03   0.06
  51   6     0.03   0.02   0.04    -0.12   0.01  -0.03    -0.01   0.03  -0.06
  52   7     0.04   0.00  -0.00    -0.12  -0.00  -0.01    -0.01   0.03  -0.05
  53   6     0.00   0.02   0.06    -0.12  -0.00   0.00    -0.00   0.06  -0.11
  54   6    -0.03   0.02   0.04    -0.12  -0.01   0.03     0.00   0.03  -0.06
  55   6    -0.06   0.03   0.05    -0.11  -0.03   0.06     0.01  -0.03   0.06
  56   6    -0.09   0.02   0.01    -0.10  -0.02   0.05     0.01  -0.09   0.17
  57   6    -0.07   0.00  -0.02    -0.11   0.00   0.02     0.01  -0.05   0.10
  58   7    -0.04   0.00  -0.01    -0.12   0.00   0.01     0.00   0.03  -0.05
  59   6    -0.08  -0.02  -0.05    -0.10   0.03  -0.02     0.01  -0.07   0.15
  60   6    -0.07  -0.05  -0.05    -0.10   0.04  -0.04     0.01  -0.02   0.06
  61   7    -0.03  -0.07  -0.06    -0.10   0.03  -0.02     0.00   0.05  -0.07
  62   1    -0.03  -0.03  -0.01    -0.03   0.02  -0.03     0.00  -0.03   0.06
  63   1    -0.02  -0.05  -0.01    -0.03   0.01  -0.02     0.00   0.00   0.00
  64   1     0.02  -0.05  -0.01    -0.03  -0.01   0.02    -0.00   0.00   0.00
  65   1     0.03  -0.03  -0.02    -0.03  -0.02   0.02    -0.00  -0.03   0.06
  66   1     0.03  -0.00  -0.02    -0.03  -0.01   0.00    -0.00  -0.04   0.08
  67   1     0.03   0.01   0.01    -0.03   0.01  -0.02    -0.00  -0.04   0.08
  68   1     0.02   0.01   0.03    -0.03   0.01  -0.02    -0.00  -0.01   0.02
  69   1     0.00   0.01   0.03    -0.03  -0.00   0.00    -0.00   0.02  -0.04
  70   1    -0.02   0.01   0.02    -0.03  -0.01   0.02     0.00  -0.01   0.02
  71   1    -0.03   0.01   0.00    -0.03  -0.01   0.02     0.00  -0.04   0.08
  72   1    -0.03  -0.00  -0.02    -0.03   0.01  -0.01     0.00  -0.04   0.08
  73   6    -0.00  -0.11   0.03     0.06  -0.00   0.00     0.00   0.05   0.10
  74   6    -0.00   0.03  -0.04     0.06   0.00   0.00     0.00  -0.00   0.03
  75   6     0.00   0.03   0.04    -0.06  -0.00   0.01     0.00  -0.00  -0.04
  76   6     0.00  -0.11  -0.04    -0.06  -0.00   0.00     0.00   0.06  -0.09
  77  30    -0.00   0.19   0.00     0.00   0.00  -0.00     0.00  -0.06  -0.00
  78   6     0.01   0.08  -0.13    -0.01  -0.01   0.13    -0.00  -0.02  -0.07
  79   6     0.01   0.07  -0.14     0.01   0.00   0.12    -0.00  -0.01  -0.06
  80   6     0.01   0.07  -0.10     0.03  -0.01   0.06    -0.00  -0.02  -0.03
  81   6    -0.00   0.07  -0.08     0.05   0.00   0.00     0.00  -0.02  -0.01
  82   6    -0.01   0.07  -0.10     0.03   0.01  -0.06     0.00  -0.02  -0.03
  83   6    -0.01   0.07  -0.14     0.01   0.01  -0.12     0.00  -0.01  -0.06
  84   6    -0.01   0.07  -0.13    -0.00   0.02  -0.13     0.00  -0.01  -0.07
  85   6    -0.01   0.07  -0.07     0.01   0.03  -0.07     0.00  -0.02  -0.04
  86   7    -0.01   0.08  -0.07     0.03   0.03  -0.04     0.00  -0.02  -0.03
  87   6    -0.00   0.07   0.00     0.00   0.04  -0.00     0.00  -0.02   0.00
  88   6     0.00   0.07   0.07    -0.00   0.03   0.07     0.00  -0.02   0.04
  89   6     0.00   0.07   0.13     0.01   0.01   0.13     0.00  -0.02   0.07
  90   6     0.01   0.07   0.14    -0.01  -0.01   0.13     0.00  -0.02   0.06
  91   6     0.01   0.07   0.10    -0.03   0.01   0.06    -0.00  -0.02   0.03
  92   7     0.01   0.08   0.07    -0.03   0.02   0.04    -0.00  -0.02   0.02
  93   6     0.00   0.07   0.09    -0.05  -0.00   0.00     0.00  -0.02   0.01
  94   6    -0.01   0.07   0.10    -0.03  -0.01  -0.06     0.00  -0.02   0.03
  95   6    -0.01   0.07   0.15    -0.01   0.00  -0.12    -0.00  -0.02   0.06
  96   6    -0.00   0.07   0.14     0.00  -0.01  -0.13    -0.00  -0.02   0.07
  97   6    -0.00   0.07   0.08    -0.01  -0.02  -0.07    -0.00  -0.02   0.04
  98   7    -0.00   0.08   0.07    -0.03  -0.02  -0.04     0.00  -0.02   0.02
  99   6     0.00   0.07   0.01    -0.00  -0.04  -0.00    -0.00  -0.02   0.00
 100   6     0.00   0.07  -0.07     0.00  -0.03   0.06    -0.00  -0.02  -0.04
 101   7     0.01   0.08  -0.07     0.03  -0.02   0.04    -0.00  -0.02  -0.03
 102   1     0.00   0.02  -0.05    -0.01  -0.00   0.05    -0.00  -0.00  -0.03
 103   1     0.00   0.02  -0.05     0.00   0.00   0.04    -0.00  -0.00  -0.02
 104   1    -0.00   0.02  -0.05     0.00  -0.00  -0.04     0.00  -0.00  -0.02
 105   1    -0.00   0.02  -0.05    -0.00   0.01  -0.05     0.00  -0.00  -0.03
 106   1    -0.00   0.02   0.00     0.00   0.01  -0.00     0.00  -0.01   0.00
 107   1     0.00   0.02   0.05     0.01   0.00   0.05     0.00  -0.01   0.03
 108   1     0.00   0.02   0.05    -0.00  -0.01   0.04     0.00  -0.01   0.02
 109   1    -0.00   0.02   0.05    -0.00   0.00  -0.04    -0.00  -0.01   0.02
 110   1    -0.00   0.02   0.05     0.00  -0.00  -0.05    -0.00  -0.01   0.03
 111   1     0.00   0.02   0.00    -0.00  -0.01  -0.00    -0.00  -0.01   0.00
                     16                     17                     18
                        a                      a                      a 
 Frequencies --    70.1614                72.2462                75.8303
 Red. masses --    23.0531                32.7206                28.3704
 Frc consts  --     0.0000                 0.0000                 0.0000
 IR Inten    --     1.3340                 1.1952                 1.0079
 Raman Activ --     0.0000                 0.0000                 0.0000
 Depolar     --     0.0000                 0.0000                 0.0000
 Atom AN      X      Y      Z        X      Y      Z        X      Y      Z
   1  30     0.00   0.21   0.27    -0.00   0.02   0.09     0.00  -0.11  -0.34
   2   6     0.04   0.00  -0.11    -0.02  -0.03  -0.01     0.03   0.08   0.07
   3   6     0.03   0.05  -0.03    -0.01  -0.02   0.02     0.02   0.11   0.11
   4   6     0.01   0.09   0.05    -0.00  -0.01   0.04     0.01   0.06   0.03
   5   6     0.00   0.10   0.07    -0.00  -0.01   0.04     0.00   0.07   0.04
   6   6    -0.01   0.09   0.05     0.00  -0.01   0.04    -0.00   0.06   0.03
   7   6    -0.03   0.05  -0.03     0.01  -0.02   0.02    -0.01   0.11   0.11
   8   6    -0.04   0.00  -0.11     0.01  -0.03  -0.02    -0.02   0.08   0.07
   9   6    -0.03   0.01  -0.06     0.01  -0.02  -0.01    -0.02   0.02  -0.02
  10   7    -0.01   0.07   0.05     0.01  -0.01   0.02    -0.01   0.01  -0.05
  11   6    -0.04  -0.04  -0.13     0.01  -0.03  -0.05    -0.03  -0.00  -0.04
  12   6    -0.04  -0.03  -0.08     0.01  -0.02  -0.03    -0.02  -0.01  -0.04
  13   6    -0.05  -0.08  -0.14     0.02  -0.02  -0.05    -0.03   0.02   0.06
  14   6    -0.03  -0.05  -0.05     0.01   0.00  -0.01    -0.02   0.04   0.11
  15   6    -0.02   0.01   0.06     0.01   0.02   0.02    -0.01   0.01   0.04
  16   7    -0.02   0.03   0.04     0.01   0.00   0.01    -0.01  -0.02  -0.06
  17   6    -0.00   0.02   0.10    -0.00   0.03   0.04     0.00   0.02   0.08
  18   6     0.02   0.01   0.06    -0.01   0.01   0.02     0.01   0.01   0.04
  19   6     0.03  -0.05  -0.05    -0.01   0.00  -0.01     0.02   0.04   0.11
  20   6     0.04  -0.08  -0.14    -0.02  -0.02  -0.05     0.03   0.02   0.06
  21   6     0.03  -0.03  -0.08    -0.01  -0.02  -0.03     0.03  -0.01  -0.04
  22   7     0.02   0.03   0.04    -0.01   0.00   0.01     0.01  -0.02  -0.06
  23   6     0.04  -0.04  -0.12    -0.02  -0.03  -0.04     0.03  -0.00  -0.04
  24   6     0.03   0.01  -0.06    -0.01  -0.02  -0.01     0.02   0.02  -0.02
  25   7     0.01   0.07   0.05    -0.01  -0.01   0.02     0.01   0.01  -0.06
  26   1     0.02  -0.01  -0.05    -0.01  -0.01  -0.01     0.01   0.03   0.03
  27   1     0.01   0.02  -0.01    -0.00  -0.01   0.01     0.00   0.05   0.05
  28   1    -0.01   0.02  -0.01     0.00  -0.01   0.01    -0.00   0.05   0.05
  29   1    -0.02  -0.01  -0.05     0.01  -0.01  -0.01    -0.01   0.03   0.03
  30   1    -0.02  -0.02  -0.06     0.01  -0.01  -0.02    -0.01   0.00  -0.01
  31   1    -0.02  -0.04  -0.07     0.01  -0.01  -0.03    -0.01   0.01   0.03
  32   1    -0.01  -0.02  -0.02     0.00   0.00  -0.00    -0.01   0.02   0.06
  33   1    -0.00   0.00   0.03    -0.00   0.01   0.01     0.00   0.01   0.05
  34   1     0.01  -0.02  -0.02    -0.00   0.00  -0.00     0.01   0.02   0.06
  35   1     0.02  -0.04  -0.07    -0.01  -0.01  -0.03     0.01   0.01   0.03
  36   1     0.02  -0.02  -0.06    -0.01  -0.01  -0.02     0.01   0.00  -0.01
  37  30     0.00  -0.21   0.25     0.00  -0.02   0.09    -0.00   0.13  -0.34
  38   6    -0.04  -0.00  -0.10     0.02   0.03  -0.01    -0.03  -0.09   0.07
  39   6    -0.03  -0.05  -0.04     0.01   0.02   0.02    -0.02  -0.11   0.11
  40   6    -0.01  -0.09   0.04     0.00   0.00   0.04    -0.01  -0.06   0.03
  41   6     0.00  -0.10   0.06     0.00   0.00   0.04    -0.00  -0.07   0.04
  42   6     0.01  -0.09   0.04    -0.00   0.00   0.04     0.00  -0.06   0.03
  43   6     0.03  -0.05  -0.03    -0.01   0.02   0.02     0.01  -0.12   0.11
  44   6     0.04  -0.00  -0.10    -0.01   0.03  -0.01     0.02  -0.09   0.07
  45   6     0.03  -0.01  -0.06    -0.01   0.02  -0.01     0.02  -0.02  -0.02
  46   7     0.01  -0.07   0.04    -0.01   0.01   0.02     0.01  -0.01  -0.06
  47   6     0.04   0.04  -0.12    -0.01   0.03  -0.05     0.03   0.01  -0.04
  48   6     0.03   0.03  -0.07    -0.01   0.02  -0.03     0.02   0.01  -0.03
  49   6     0.04   0.08  -0.13    -0.02   0.03  -0.05     0.03  -0.02   0.06
  50   6     0.03   0.05  -0.04    -0.01  -0.00  -0.01     0.02  -0.04   0.11
  51   6     0.02  -0.01   0.05    -0.01  -0.02   0.02     0.01  -0.01   0.04
  52   7     0.02  -0.03   0.04    -0.01  -0.00   0.01     0.01   0.03  -0.06
  53   6     0.00  -0.02   0.09     0.00  -0.03   0.04    -0.00  -0.02   0.08
  54   6    -0.02  -0.01   0.05     0.01  -0.02   0.02    -0.01  -0.01   0.04
  55   6    -0.03   0.05  -0.04     0.01   0.00  -0.02    -0.02  -0.04   0.11
  56   6    -0.04   0.08  -0.13     0.02   0.03  -0.05    -0.03  -0.02   0.06
  57   6    -0.03   0.03  -0.07     0.01   0.02  -0.03    -0.02   0.01  -0.03
  58   7    -0.02  -0.03   0.04     0.01  -0.00   0.01    -0.01   0.03  -0.06
  59   6    -0.04   0.04  -0.12     0.01   0.03  -0.04    -0.03   0.01  -0.04
  60   6    -0.03  -0.01  -0.06     0.01   0.02  -0.01    -0.02  -0.02  -0.02
  61   7    -0.01  -0.07   0.04     0.01   0.01   0.03    -0.01  -0.01  -0.06
  62   1    -0.02   0.01  -0.05     0.01   0.01  -0.01    -0.01  -0.03   0.03
  63   1    -0.01  -0.02  -0.01     0.00   0.01   0.01    -0.00  -0.05   0.05
  64   1     0.01  -0.02  -0.01    -0.00   0.01   0.01     0.00  -0.05   0.05
  65   1     0.02   0.01  -0.05    -0.01   0.01  -0.01     0.01  -0.03   0.03
  66   1     0.02   0.03  -0.06    -0.01   0.02  -0.02     0.01  -0.00  -0.01
  67   1     0.02   0.04  -0.07    -0.01   0.01  -0.03     0.01  -0.01   0.03
  68   1     0.01   0.02  -0.02    -0.00  -0.00  -0.00     0.01  -0.02   0.06
  69   1     0.00  -0.00   0.03     0.00  -0.01   0.01     0.00  -0.02   0.05
  70   1    -0.01   0.02  -0.02     0.00  -0.00  -0.00    -0.01  -0.02   0.06
  71   1    -0.02   0.04  -0.07     0.01   0.01  -0.03    -0.01  -0.01   0.03
  72   1    -0.02   0.03  -0.06     0.01   0.02  -0.02    -0.01  -0.00  -0.01
  73   6     0.00   0.07   0.05    -0.00  -0.01   0.01     0.00   0.07   0.08
  74   6     0.00  -0.08   0.05    -0.00   0.03  -0.05     0.00  -0.06   0.11
  75   6    -0.00   0.08   0.05     0.00  -0.03  -0.06    -0.00   0.06   0.11
  76   6     0.00  -0.07   0.04     0.00   0.01   0.01    -0.00  -0.07   0.08
  77  30    -0.00  -0.00   0.03     0.00   0.02  -0.62    -0.00   0.01  -0.24
  78   6     0.09  -0.07  -0.02    -0.04   0.01   0.21     0.06  -0.05   0.04
  79   6     0.06  -0.09   0.01    -0.03   0.03   0.10     0.04  -0.08   0.11
  80   6     0.03  -0.08   0.03    -0.01   0.03  -0.08     0.02  -0.06   0.05
  81   6     0.00  -0.09   0.04    -0.00   0.04  -0.11     0.00  -0.07   0.08
  82   6    -0.03  -0.08   0.03     0.01   0.03  -0.08    -0.02  -0.06   0.05
  83   6    -0.06  -0.09   0.01     0.03   0.02   0.10    -0.04  -0.08   0.10
  84   6    -0.09  -0.07  -0.02     0.04   0.01   0.22    -0.06  -0.05   0.03
  85   6    -0.07  -0.03  -0.03     0.03   0.01   0.09    -0.05  -0.02  -0.05
  86   7    -0.03  -0.04   0.00     0.01   0.02  -0.11    -0.02  -0.03  -0.04
  87   6    -0.09   0.00  -0.05     0.03  -0.00   0.17    -0.07   0.00  -0.08
  88   6    -0.07   0.03  -0.02     0.03  -0.01   0.08    -0.05   0.03  -0.04
  89   6    -0.09   0.07  -0.02     0.04  -0.02   0.21    -0.06   0.05   0.04
  90   6    -0.06   0.09   0.02     0.03  -0.03   0.10    -0.04   0.07   0.11
  91   6    -0.03   0.07   0.03     0.01  -0.02  -0.08    -0.02   0.06   0.06
  92   7    -0.04   0.04   0.01     0.01  -0.01  -0.11    -0.03   0.03  -0.03
  93   6    -0.00   0.09   0.04     0.00  -0.03  -0.11    -0.00   0.07   0.09
  94   6     0.03   0.07   0.03    -0.01  -0.02  -0.08     0.02   0.06   0.05
  95   6     0.06   0.09   0.02    -0.03  -0.03   0.10     0.04   0.07   0.10
  96   6     0.09   0.07  -0.02    -0.04  -0.02   0.22     0.06   0.05   0.03
  97   6     0.07   0.03  -0.02    -0.03  -0.01   0.08     0.05   0.03  -0.05
  98   7     0.03   0.04   0.01    -0.01  -0.01  -0.11     0.02   0.03  -0.04
  99   6     0.09   0.00  -0.05    -0.03  -0.00   0.17     0.07   0.00  -0.08
 100   6     0.07  -0.03  -0.03    -0.03   0.01   0.08     0.05  -0.03  -0.04
 101   7     0.03  -0.04   0.01    -0.01   0.02  -0.11     0.03  -0.03  -0.04
 102   1     0.03  -0.02  -0.01    -0.01   0.00   0.11     0.02  -0.02   0.01
 103   1     0.02  -0.04   0.01    -0.01   0.01   0.04     0.01  -0.03   0.05
 104   1    -0.02  -0.04   0.01     0.01   0.01   0.04    -0.01  -0.03   0.05
 105   1    -0.03  -0.02  -0.01     0.01   0.00   0.11    -0.02  -0.02   0.01
 106   1    -0.03   0.00  -0.02     0.01  -0.00   0.10    -0.03   0.00  -0.03
 107   1    -0.03   0.02  -0.01     0.01  -0.01   0.11    -0.02   0.02   0.01
 108   1    -0.02   0.03   0.01     0.01  -0.01   0.04    -0.01   0.03   0.06
 109   1     0.02   0.03   0.01    -0.01  -0.01   0.04     0.01   0.03   0.05
 110   1     0.03   0.02  -0.01    -0.01  -0.01   0.11     0.02   0.02   0.01
 111   1     0.03   0.00  -0.02    -0.01  -0.00   0.10     0.03   0.00  -0.03
                     19                     20                     21
                        a                      a                      a 
 Frequencies --    81.2480                99.7039               104.9844
 Red. masses --    24.2830                16.2360                26.2114
 Frc consts  --     0.0000                 0.0000                 0.0000
 IR Inten    --     0.1127                 0.1946                 4.6107
 Raman Activ --     0.0000                 0.0000                 0.0000
 Depolar     --     0.0000                 0.0000                 0.0000
 Atom AN      X      Y      Z        X      Y      Z        X      Y      Z
   1  30     0.00   0.15   0.32     0.00   0.07   0.08    -0.21   0.00   0.01
   2   6     0.01  -0.05  -0.10     0.02  -0.03  -0.11    -0.07   0.02  -0.01
   3   6     0.01  -0.09  -0.18     0.01  -0.04  -0.15    -0.05  -0.01  -0.01
   4   6     0.00  -0.05  -0.10     0.00  -0.02  -0.08    -0.01   0.01  -0.01
   5   6    -0.00  -0.06  -0.13    -0.00  -0.00  -0.07     0.03  -0.00  -0.00
   6   6    -0.00  -0.05  -0.10    -0.00  -0.02  -0.09    -0.01  -0.01   0.00
   7   6    -0.01  -0.09  -0.18    -0.01  -0.04  -0.15    -0.05   0.01   0.00
   8   6    -0.00  -0.05  -0.11    -0.02  -0.03  -0.11    -0.07  -0.02  -0.00
   9   6    -0.00   0.01   0.02    -0.01   0.01  -0.02    -0.06  -0.06   0.00
  10   7    -0.00   0.01   0.01    -0.00   0.01  -0.03    -0.02  -0.05   0.01
  11   6    -0.00   0.04   0.09    -0.02   0.04   0.08    -0.06  -0.06   0.01
  12   6     0.00   0.03   0.08    -0.01   0.04   0.09    -0.08  -0.03   0.01
  13   6    -0.00  -0.01  -0.01    -0.02   0.03   0.08    -0.07  -0.00   0.02
  14   6    -0.00  -0.06  -0.11    -0.01  -0.03  -0.03    -0.09   0.02   0.02
  15   6     0.00  -0.03  -0.06    -0.01  -0.04  -0.06    -0.11  -0.00   0.01
  16   7     0.00   0.03   0.06    -0.01   0.00   0.01    -0.11  -0.03   0.01
  17   6     0.00  -0.06  -0.13     0.00  -0.08  -0.13    -0.12  -0.00  -0.01
  18   6     0.00  -0.03  -0.06     0.01  -0.04  -0.07    -0.11  -0.00  -0.01
  19   6     0.00  -0.06  -0.11     0.01  -0.03  -0.03    -0.09  -0.02  -0.02
  20   6     0.00  -0.01  -0.01     0.02   0.03   0.08    -0.07   0.00  -0.01
  21   6     0.00   0.03   0.08     0.01   0.04   0.09    -0.08   0.03  -0.00
  22   7     0.00   0.03   0.06     0.01   0.00   0.01    -0.11   0.03  -0.01
  23   6     0.00   0.04   0.09     0.02   0.05   0.08    -0.06   0.06  -0.00
  24   6     0.00   0.01   0.02     0.01   0.01  -0.01    -0.06   0.06  -0.00
  25   7     0.00   0.01   0.02     0.00   0.01  -0.02    -0.02   0.05  -0.01
  26   1     0.00  -0.02  -0.04     0.01  -0.01  -0.04    -0.03   0.00  -0.00
  27   1     0.00  -0.04  -0.08     0.00  -0.02  -0.06    -0.01  -0.01  -0.01
  28   1    -0.00  -0.04  -0.08    -0.00  -0.02  -0.06    -0.01   0.01   0.00
  29   1    -0.00  -0.02  -0.04    -0.01  -0.01  -0.04    -0.03  -0.01  -0.00
  30   1    -0.00   0.01   0.03    -0.01   0.02   0.03    -0.02  -0.02   0.00
  31   1    -0.00  -0.00  -0.00    -0.01   0.02   0.04    -0.02   0.00   0.01
  32   1    -0.00  -0.03  -0.06    -0.00  -0.02  -0.02    -0.02   0.01   0.01
  33   1     0.00  -0.03  -0.07     0.00  -0.03  -0.06    -0.03  -0.00  -0.00
  34   1     0.00  -0.03  -0.06     0.00  -0.02  -0.02    -0.02  -0.01  -0.01
  35   1     0.00  -0.00  -0.00     0.01   0.02   0.04    -0.02   0.00  -0.00
  36   1     0.00   0.01   0.03     0.01   0.02   0.03    -0.02   0.02   0.00
  37  30     0.00   0.16  -0.31     0.00  -0.07   0.08    -0.21   0.00  -0.00
  38   6     0.01  -0.06   0.10    -0.02   0.03  -0.11    -0.07   0.02   0.00
  39   6     0.01  -0.10   0.18    -0.01   0.05  -0.15    -0.05  -0.01   0.01
  40   6     0.00  -0.05   0.10    -0.00   0.02  -0.08    -0.01   0.01   0.01
  41   6    -0.00  -0.06   0.12     0.00   0.01  -0.07     0.03  -0.00   0.00
  42   6    -0.00  -0.05   0.10     0.00   0.02  -0.08    -0.01  -0.01  -0.01
  43   6    -0.01  -0.10   0.18     0.01   0.05  -0.15    -0.05   0.01  -0.01
  44   6    -0.00  -0.06   0.10     0.02   0.04  -0.11    -0.07  -0.02  -0.00
  45   6    -0.00   0.01  -0.02     0.01  -0.01  -0.02    -0.06  -0.06  -0.01
  46   7    -0.00   0.01  -0.01     0.01  -0.01  -0.02    -0.02  -0.05  -0.01
  47   6    -0.00   0.04  -0.08     0.02  -0.05   0.08    -0.06  -0.06  -0.01
  48   6    -0.00   0.04  -0.07     0.01  -0.04   0.09    -0.08  -0.03  -0.01
  49   6    -0.00  -0.01   0.01     0.02  -0.03   0.08    -0.07  -0.00  -0.02
  50   6    -0.00  -0.06   0.11     0.01   0.03  -0.03    -0.09   0.02  -0.02
  51   6     0.00  -0.04   0.06     0.01   0.04  -0.06    -0.11  -0.00  -0.01
  52   7     0.00   0.03  -0.06     0.01  -0.00   0.01    -0.11  -0.03  -0.01
  53   6     0.00  -0.07   0.12     0.00   0.08  -0.13    -0.12  -0.00   0.00
  54   6     0.00  -0.04   0.06    -0.01   0.05  -0.06    -0.11  -0.00   0.01
  55   6     0.00  -0.06   0.11    -0.01   0.03  -0.03    -0.09  -0.02   0.02
  56   6     0.00  -0.01   0.01    -0.02  -0.03   0.08    -0.07   0.00   0.02
  57   6     0.00   0.04  -0.07    -0.01  -0.05   0.09    -0.08   0.03   0.01
  58   7     0.00   0.03  -0.06    -0.01  -0.01   0.01    -0.11   0.03   0.01
  59   6     0.00   0.04  -0.09    -0.02  -0.05   0.08    -0.06   0.06   0.01
  60   6     0.00   0.01  -0.02    -0.01  -0.01  -0.01    -0.06   0.06   0.01
  61   7     0.00   0.01  -0.02    -0.00  -0.01  -0.02    -0.02   0.05   0.01
  62   1     0.00  -0.02   0.04    -0.01   0.01  -0.04    -0.03   0.00   0.00
  63   1     0.00  -0.04   0.08    -0.00   0.02  -0.06    -0.01  -0.01   0.00
  64   1    -0.00  -0.04   0.08     0.00   0.02  -0.06    -0.01   0.01  -0.00
  65   1    -0.00  -0.02   0.04     0.01   0.01  -0.04    -0.03  -0.01  -0.00
  66   1    -0.00   0.01  -0.03     0.01  -0.02   0.03    -0.02  -0.02  -0.00
  67   1    -0.00  -0.00   0.00     0.01  -0.02   0.04    -0.02   0.00  -0.01
  68   1    -0.00  -0.03   0.06     0.00   0.02  -0.02    -0.02   0.01  -0.01
  69   1     0.00  -0.04   0.06     0.00   0.04  -0.06    -0.03  -0.00   0.00
  70   1     0.00  -0.03   0.06    -0.00   0.02  -0.02    -0.02  -0.01   0.01
  71   1     0.00  -0.00   0.00    -0.01  -0.02   0.04    -0.02  -0.00   0.01
  72   1     0.00   0.01  -0.03    -0.01  -0.02   0.03    -0.02   0.02   0.00
  73   6    -0.00  -0.06  -0.14    -0.00   0.02   0.01     0.05   0.00  -0.00
  74   6    -0.00   0.00  -0.05    -0.00   0.01   0.18     0.06   0.00   0.00
  75   6    -0.00  -0.00   0.05    -0.00  -0.02   0.17     0.06   0.00   0.00
  76   6    -0.00  -0.06   0.13    -0.00  -0.02   0.01     0.05  -0.00   0.00
  77  30    -0.01   0.05   0.00    -0.01   0.01  -0.27     0.42   0.00  -0.00
  78   6    -0.00   0.01   0.10    -0.01   0.01   0.03     0.14   0.01   0.00
  79   6    -0.00   0.01   0.09    -0.01   0.00   0.18     0.13  -0.00   0.03
  80   6     0.00   0.01   0.04    -0.00   0.00   0.14     0.11   0.01   0.01
  81   6    -0.00   0.01   0.01    -0.00   0.00   0.19     0.08  -0.00   0.00
  82   6    -0.00   0.01   0.04     0.00   0.00   0.14     0.11  -0.01  -0.01
  83   6    -0.00   0.01   0.09     0.01   0.00   0.18     0.13   0.00  -0.03
  84   6    -0.00   0.01   0.11     0.01   0.01   0.03     0.14  -0.01  -0.01
  85   6    -0.00   0.01   0.06     0.00   0.01  -0.08     0.13  -0.02   0.02
  86   7    -0.00   0.02   0.04    -0.00   0.01  -0.00     0.13  -0.02   0.02
  87   6    -0.00   0.01   0.00     0.00   0.00  -0.16     0.12  -0.00   0.03
  88   6    -0.00   0.02  -0.06     0.00  -0.00  -0.08     0.13   0.02   0.02
  89   6    -0.00   0.02  -0.11     0.01  -0.01   0.03     0.14   0.01  -0.00
  90   6     0.00   0.02  -0.09     0.01  -0.01   0.18     0.13   0.00  -0.03
  91   6     0.00   0.02  -0.04     0.00  -0.01   0.14     0.11   0.01  -0.01
  92   7     0.00   0.02  -0.04    -0.00  -0.01  -0.00     0.13   0.02   0.02
  93   6    -0.00   0.01  -0.01    -0.00  -0.01   0.19     0.08   0.00   0.00
  94   6    -0.00   0.02  -0.04    -0.01  -0.01   0.14     0.11  -0.01   0.01
  95   6    -0.00   0.02  -0.09    -0.01  -0.01   0.18     0.13   0.00   0.03
  96   6    -0.00   0.02  -0.10    -0.01  -0.01   0.03     0.14  -0.01   0.01
  97   6    -0.00   0.02  -0.06    -0.01  -0.00  -0.08     0.13  -0.02  -0.02
  98   7    -0.00   0.02  -0.04    -0.00  -0.01  -0.00     0.13  -0.02  -0.02
  99   6    -0.00   0.01  -0.00    -0.01   0.00  -0.16     0.12   0.00  -0.04
 100   6    -0.00   0.01   0.06    -0.01   0.01  -0.08     0.13   0.02  -0.02
 101   7    -0.00   0.02   0.04    -0.00   0.01  -0.00     0.13   0.02  -0.02
 102   1    -0.00   0.00   0.04    -0.00   0.00   0.00     0.04   0.00   0.00
 103   1    -0.00   0.00   0.03    -0.00  -0.00   0.09     0.04  -0.00   0.02
 104   1    -0.00   0.00   0.03     0.00  -0.00   0.09     0.04   0.00  -0.02
 105   1    -0.00   0.00   0.04     0.00   0.00   0.00     0.04  -0.00  -0.00
 106   1    -0.00   0.00   0.00     0.00   0.00  -0.07     0.03  -0.00   0.01
 107   1    -0.00   0.00  -0.04     0.00  -0.00   0.00     0.04   0.00  -0.00
 108   1     0.00   0.00  -0.03     0.00  -0.00   0.09     0.04  -0.00  -0.02
 109   1    -0.00   0.00  -0.03    -0.00  -0.00   0.09     0.04   0.00   0.02
 110   1    -0.00   0.00  -0.04    -0.00  -0.00   0.00     0.04  -0.00   0.00
 111   1    -0.00   0.00  -0.00    -0.00   0.00  -0.07     0.03   0.00  -0.01
                     22                     23                     24
                        a                      a                      a 
 Frequencies --   120.1056               126.0324               130.1293
 Red. masses --    11.2386                10.7187                10.7174
 Frc consts  --     0.0000                 0.0000                 0.0000
 IR Inten    --     4.3844                 0.1233                 0.2186
 Raman Activ --     0.0000                 0.0000                 0.0000
 Depolar     --     0.0000                 0.0000                 0.0000
 Atom AN      X      Y      Z        X      Y      Z        X      Y      Z
   1  30     0.00   0.02  -0.03     0.01  -0.00  -0.00     0.01   0.00  -0.00
   2   6     0.01  -0.06  -0.14    -0.00   0.02   0.03     0.00  -0.04  -0.06
   3   6     0.01  -0.03  -0.09    -0.00   0.07   0.13     0.01  -0.10  -0.19
   4   6     0.00   0.03   0.04    -0.00   0.02   0.04     0.00  -0.03  -0.06
   5   6    -0.00   0.07   0.10    -0.00   0.00   0.00     0.00  -0.00  -0.00
   6   6    -0.00   0.03   0.04    -0.00  -0.02  -0.03     0.00   0.03   0.06
   7   6    -0.01  -0.02  -0.09    -0.01  -0.06  -0.13     0.01   0.10   0.20
   8   6    -0.01  -0.06  -0.14    -0.00  -0.02  -0.03     0.01   0.04   0.07
   9   6    -0.01  -0.01  -0.04     0.00   0.04   0.09     0.00  -0.06  -0.11
  10   7    -0.00   0.03   0.04     0.00   0.04   0.08     0.00  -0.05  -0.10
  11   6    -0.01   0.02   0.03     0.00   0.07   0.14    -0.00  -0.10  -0.20
  12   6    -0.01   0.03   0.06     0.00   0.04   0.07     0.00  -0.06  -0.11
  13   6    -0.01   0.06   0.14     0.00  -0.02  -0.04     0.00   0.03   0.06
  14   6    -0.01   0.00   0.03     0.00  -0.06  -0.13     0.00   0.09   0.19
  15   6    -0.00  -0.04  -0.08     0.00  -0.02  -0.04     0.00   0.03   0.06
  16   7    -0.01  -0.02  -0.05     0.00   0.03   0.06     0.00  -0.04  -0.09
  17   6     0.00  -0.08  -0.15     0.00   0.00   0.00     0.00   0.00   0.00
  18   6     0.01  -0.04  -0.08     0.00   0.02   0.04     0.00  -0.03  -0.06
  19   6     0.01   0.01   0.03     0.00   0.06   0.13     0.00  -0.09  -0.19
  20   6     0.01   0.06   0.14     0.00   0.02   0.04     0.00  -0.03  -0.06
  21   6     0.01   0.03   0.06     0.00  -0.04  -0.07     0.00   0.06   0.11
  22   7     0.01  -0.02  -0.05     0.00  -0.03  -0.06     0.00   0.05   0.09
  23   6     0.01   0.02   0.03     0.00  -0.07  -0.14     0.00   0.10   0.20
  24   6     0.01  -0.01  -0.04     0.00  -0.04  -0.09     0.00   0.06   0.12
  25   7     0.00   0.03   0.04     0.00  -0.04  -0.08     0.00   0.05   0.11
  26   1     0.01  -0.03  -0.07    -0.00   0.01   0.02     0.00  -0.02  -0.03
  27   1     0.00  -0.01  -0.04    -0.00   0.04   0.07     0.00  -0.05  -0.10
  28   1    -0.00  -0.01  -0.04    -0.00  -0.04  -0.07     0.00   0.05   0.10
  29   1    -0.01  -0.03  -0.07    -0.00  -0.01  -0.02     0.00   0.02   0.03
  30   1    -0.00   0.01   0.01     0.00   0.02   0.05    -0.00  -0.03  -0.07
  31   1    -0.00   0.03   0.07     0.00  -0.01  -0.02     0.00   0.01   0.03
  32   1    -0.00   0.00   0.01     0.00  -0.03  -0.07     0.00   0.05   0.10
  33   1     0.00  -0.03  -0.06     0.00   0.00   0.00     0.00   0.00   0.00
  34   1     0.00   0.00   0.01     0.00   0.03   0.07     0.00  -0.05  -0.10
  35   1     0.01   0.03   0.07     0.00   0.01   0.02     0.00  -0.01  -0.03
  36   1     0.00   0.01   0.01     0.00  -0.02  -0.05     0.00   0.03   0.07
  37  30     0.00   0.01   0.03     0.01  -0.00   0.00    -0.01  -0.00  -0.00
  38   6     0.01  -0.06   0.14    -0.00   0.02  -0.03    -0.00   0.04  -0.06
  39   6     0.01  -0.03   0.08    -0.00   0.07  -0.13    -0.01   0.11  -0.19
  40   6     0.00   0.04  -0.03    -0.00   0.02  -0.03    -0.00   0.03  -0.06
  41   6    -0.00   0.07  -0.10    -0.00   0.00   0.00    -0.00   0.00  -0.00
  42   6    -0.00   0.04  -0.03    -0.00  -0.02   0.03    -0.00  -0.03   0.06
  43   6    -0.01  -0.03   0.08    -0.01  -0.07   0.13    -0.01  -0.11   0.19
  44   6    -0.01  -0.06   0.14    -0.00  -0.02   0.03    -0.01  -0.04   0.07
  45   6    -0.01  -0.01   0.04     0.00   0.05  -0.09    -0.00   0.06  -0.11
  46   7    -0.00   0.04  -0.04     0.00   0.04  -0.08    -0.00   0.05  -0.10
  47   6    -0.01   0.02  -0.03     0.00   0.08  -0.14     0.00   0.11  -0.20
  48   6    -0.01   0.04  -0.06     0.00   0.04  -0.07    -0.00   0.06  -0.11
  49   6    -0.01   0.07  -0.14     0.00  -0.02   0.04    -0.00  -0.03   0.06
  50   6    -0.01   0.01  -0.03     0.00  -0.07   0.13    -0.00  -0.10   0.18
  51   6    -0.00  -0.05   0.08     0.00  -0.02   0.04    -0.00  -0.03   0.06
  52   7    -0.00  -0.02   0.05     0.00   0.03  -0.06    -0.00   0.05  -0.09
  53   6     0.00  -0.09   0.15     0.00   0.00  -0.00    -0.00  -0.00   0.00
  54   6     0.01  -0.05   0.08     0.00   0.02  -0.04    -0.00   0.03  -0.06
  55   6     0.01   0.01  -0.03     0.00   0.07  -0.13    -0.00   0.10  -0.18
  56   6     0.01   0.07  -0.13     0.00   0.02  -0.04    -0.00   0.03  -0.06
  57   6     0.01   0.04  -0.06     0.00  -0.04   0.07    -0.00  -0.06   0.11
  58   7     0.01  -0.02   0.05     0.00  -0.03   0.06    -0.00  -0.05   0.09
  59   6     0.01   0.02  -0.03     0.00  -0.08   0.14     0.00  -0.11   0.20
  60   6     0.01  -0.01   0.04     0.00  -0.05   0.09    -0.00  -0.06   0.11
  61   7     0.00   0.03  -0.04     0.00  -0.04   0.08    -0.00  -0.05   0.10
  62   1     0.01  -0.03   0.07    -0.00   0.01  -0.02    -0.00   0.02  -0.03
  63   1     0.00  -0.01   0.04    -0.00   0.04  -0.07    -0.00   0.06  -0.10
  64   1    -0.00  -0.01   0.04    -0.00  -0.04   0.07    -0.00  -0.06   0.10
  65   1    -0.01  -0.03   0.07    -0.00  -0.01   0.02    -0.00  -0.02   0.03
  66   1    -0.00   0.01  -0.01     0.00   0.03  -0.05     0.00   0.04  -0.07
  67   1    -0.00   0.04  -0.07     0.00  -0.01   0.02    -0.00  -0.01   0.03
  68   1    -0.00   0.00  -0.01     0.00  -0.04   0.07    -0.00  -0.05   0.10
  69   1     0.00  -0.03   0.06     0.00   0.00  -0.00    -0.00  -0.00   0.00
[...]
  95   6     0.00  -0.00   0.00     0.04  -0.00   0.00     0.05  -0.00   0.00
  96   6    -0.00  -0.00  -0.00     0.00  -0.02  -0.00     0.00  -0.03  -0.00
  97   6    -0.00  -0.00  -0.00    -0.00  -0.00  -0.00    -0.00  -0.00  -0.00
  98   7    -0.00   0.00  -0.00    -0.00   0.00  -0.00    -0.00   0.00  -0.00
  99   6     0.00   0.00   0.00     0.00   0.00   0.00     0.00  -0.00  -0.00
 100   6     0.00  -0.00   0.00    -0.00   0.00  -0.00     0.00  -0.00  -0.00
 101   7     0.00  -0.00   0.00    -0.00  -0.00  -0.00     0.00   0.00   0.00
 102   1     0.00   0.00   0.00    -0.03  -0.27  -0.01     0.01   0.10   0.00
 103   1     0.01   0.00   0.00    -0.44  -0.05  -0.02     0.14   0.02   0.01
 104   1     0.01  -0.00  -0.00     0.20  -0.02  -0.01    -0.03   0.00   0.00
 105   1     0.00  -0.00  -0.00     0.01  -0.12  -0.01    -0.00   0.03   0.00
 106   1    -0.00   0.00   0.00    -0.00   0.00   0.00    -0.00   0.01   0.00
 107   1    -0.00  -0.00   0.00     0.01   0.12  -0.00     0.02   0.25  -0.00
 108   1    -0.01  -0.00   0.00     0.22   0.03  -0.01     0.40   0.05  -0.01
 109   1    -0.01   0.00  -0.00    -0.12   0.01  -0.01    -0.17   0.02  -0.01
 110   1    -0.00   0.00  -0.00    -0.01   0.06  -0.00    -0.01   0.10  -0.00
 111   1    -0.00  -0.00  -0.00     0.00  -0.00  -0.00    -0.00   0.00   0.00
                    322                    323                    324
                        a                      a                      a 
 Frequencies --  3167.3329              3167.5959              3167.9369
 Red. masses --     1.9588                 1.9579                 1.9555
 Frc consts  --     0.0000                 0.0000                 0.0000
 IR Inten    --    15.0803                16.8811                25.6121
 Raman Activ --     0.0000                 0.0000                 0.0000
 Depolar     --     0.0000                 0.0000                 0.0000
 Atom AN      X      Y      Z        X      Y      Z        X      Y      Z
   1  30     0.00   0.00  -0.00     0.00   0.00  -0.00    -0.00   0.00  -0.00
   2   6    -0.00   0.04  -0.02     0.00  -0.00   0.00     0.00  -0.07   0.04
   3   6    -0.06   0.00  -0.00     0.01  -0.00   0.00     0.14  -0.01   0.01
   4   6    -0.00  -0.00   0.00     0.00   0.00  -0.00     0.00   0.00  -0.00
   5   6    -0.00  -0.00   0.00    -0.00  -0.00   0.00     0.00  -0.00   0.00
   6   6    -0.00   0.01  -0.00    -0.00   0.00  -0.00    -0.00   0.00  -0.00
   7   6    -0.20  -0.01   0.02    -0.02  -0.00   0.00    -0.04  -0.00   0.00
   8   6    -0.01  -0.11   0.05    -0.00  -0.01   0.00    -0.00  -0.02   0.01
   9   6     0.00  -0.00   0.00     0.00  -0.00   0.00     0.00  -0.00   0.00
  10   7     0.00   0.00  -0.00     0.00   0.00  -0.00     0.00   0.00  -0.00
  11   6    -0.00  -0.00   0.00    -0.00  -0.00   0.00    -0.00  -0.00   0.00
  12   6    -0.00  -0.00   0.00     0.00   0.00   0.00    -0.00  -0.00   0.00
  13   6     0.00  -0.01   0.00    -0.00   0.00  -0.00     0.00  -0.00   0.00
  14   6     0.00  -0.00   0.00    -0.00   0.00  -0.00     0.00  -0.00   0.00
  15   6     0.00   0.00  -0.00    -0.00  -0.00   0.00     0.00   0.00  -0.00
  16   7    -0.00   0.00  -0.00     0.00  -0.00  -0.00    -0.00   0.00  -0.00
  17   6     0.00  -0.00   0.00    -0.00  -0.00   0.00    -0.00  -0.00   0.00
  18   6    -0.00   0.00   0.00    -0.00   0.00  -0.00    -0.00   0.00  -0.00
  19   6    -0.00  -0.00   0.00    -0.00  -0.00   0.00    -0.00  -0.00   0.00
  20   6    -0.00  -0.00   0.00    -0.00  -0.00   0.00    -0.00  -0.00   0.00
  21   6     0.00  -0.00   0.00     0.00  -0.00   0.00     0.00  -0.00   0.00
  22   7    -0.00  -0.00   0.00     0.00   0.00  -0.00     0.00   0.00  -0.00
  23   6    -0.00   0.00  -0.00     0.00  -0.00   0.00     0.00  -0.00   0.00
  24   6     0.00   0.00  -0.00    -0.00  -0.00   0.00    -0.00  -0.00   0.00
  25   7     0.00  -0.00   0.00    -0.00   0.00  -0.00    -0.00   0.00  -0.00
  26   1     0.01  -0.11   0.06    -0.00   0.01  -0.01    -0.03   0.22  -0.11
  27   1     0.20  -0.02   0.02    -0.03   0.00  -0.00    -0.46   0.04  -0.04
  28   1     0.65   0.06  -0.06     0.06   0.00  -0.01     0.13   0.01  -0.01
  29   1     0.04   0.33  -0.17     0.00   0.03  -0.01     0.01   0.05  -0.03
  30   1    -0.00   0.01  -0.00    -0.00   0.00  -0.00    -0.00   0.00  -0.00
  31   1    -0.00   0.02  -0.01     0.00  -0.00   0.00    -0.00   0.01  -0.00
  32   1    -0.01   0.00  -0.00     0.00  -0.00   0.00    -0.01   0.00  -0.00
  33   1    -0.00  -0.00  -0.00     0.00  -0.00  -0.00     0.00  -0.00  -0.00
  34   1     0.01   0.00  -0.00     0.01   0.00  -0.00     0.01   0.00  -0.00
  35   1     0.00   0.00  -0.00     0.00   0.01  -0.00     0.00   0.01  -0.01
  36   1    -0.00  -0.00   0.00    -0.00   0.00  -0.00     0.00   0.00  -0.00
  37  30     0.00  -0.00   0.00     0.00   0.00   0.00     0.00  -0.00  -0.00
  38   6     0.00  -0.00  -0.00    -0.00   0.04   0.02    -0.00   0.04   0.02
  39   6     0.01  -0.00  -0.00    -0.08   0.00   0.01    -0.08   0.00   0.01
  40   6     0.00   0.00   0.00    -0.00  -0.00  -0.00    -0.00  -0.00  -0.00
  41   6    -0.00   0.00   0.00    -0.00  -0.00  -0.00    -0.00   0.00   0.00
  42   6     0.00  -0.00  -0.00    -0.00   0.01   0.00     0.00  -0.00  -0.00
  43   6     0.01   0.00   0.00    -0.19  -0.01  -0.01     0.05   0.00   0.00
  44   6     0.00   0.00   0.00    -0.01  -0.10  -0.05     0.00   0.02   0.01
  45   6    -0.00   0.00   0.00     0.00  -0.00  -0.00    -0.00   0.00   0.00
  46   7    -0.00  -0.00  -0.00     0.00   0.00   0.00    -0.00  -0.00  -0.00
  47   6     0.00   0.00   0.00    -0.00  -0.00  -0.00     0.00   0.00   0.00
  48   6     0.00   0.00   0.00    -0.00   0.00  -0.00     0.00   0.00   0.00
  49   6    -0.00   0.00   0.00     0.00  -0.00  -0.00    -0.00   0.00   0.00
  50   6    -0.00   0.00   0.00     0.00  -0.00  -0.00    -0.00   0.00   0.00
  51   6    -0.00  -0.00  -0.00     0.00   0.00   0.00    -0.00  -0.00  -0.00
  52   7     0.00  -0.00  -0.00    -0.00   0.00   0.00     0.00  -0.00  -0.00
  53   6    -0.00  -0.00  -0.00     0.00  -0.00  -0.00    -0.00   0.00   0.00
  54   6    -0.00   0.00   0.00    -0.00   0.00   0.00     0.00  -0.00  -0.00
  55   6    -0.00  -0.00  -0.00    -0.00  -0.00  -0.00     0.00   0.00   0.00
  56   6    -0.00  -0.00  -0.00    -0.00  -0.00  -0.00     0.00   0.00   0.00
  57   6     0.00  -0.00  -0.00     0.00  -0.00  -0.00    -0.00   0.00   0.00
  58   7     0.00   0.00   0.00    -0.00  -0.00  -0.00    -0.00  -0.00  -0.00
  59   6     0.00  -0.00  -0.00    -0.00   0.00   0.00    -0.00   0.00   0.00
  60   6    -0.00  -0.00  -0.00     0.00   0.00   0.00     0.00   0.00   0.00
  61   7    -0.00   0.00   0.00     0.00  -0.00  -0.00     0.00  -0.00  -0.00
  62   1    -0.00   0.01   0.01     0.02  -0.13  -0.07     0.01  -0.11  -0.06
  63   1    -0.02   0.00   0.00     0.25  -0.02  -0.02     0.25  -0.02  -0.02
  64   1    -0.02  -0.00  -0.00     0.62   0.05   0.06    -0.17  -0.01  -0.02
  65   1    -0.00  -0.01  -0.01     0.04   0.30   0.17    -0.01  -0.08  -0.04
  66   1    -0.00  -0.00  -0.00    -0.00   0.01   0.00     0.00  -0.00  -0.00
  67   1     0.00  -0.01  -0.00    -0.00   0.01   0.01     0.00  -0.01  -0.00
  68   1     0.01  -0.00  -0.00    -0.01   0.00   0.00     0.01  -0.00  -0.00
  69   1     0.00   0.00   0.00    -0.00  -0.00   0.00     0.00   0.00  -0.00
  70   1     0.01   0.00   0.00     0.01   0.00   0.00    -0.01  -0.00  -0.00
  71   1     0.00   0.01   0.00     0.00   0.00   0.00    -0.00  -0.01  -0.00
  72   1    -0.00   0.00   0.00    -0.00  -0.00  -0.00    -0.00  -0.00  -0.00
  73   6    -0.00  -0.00   0.00    -0.00  -0.00   0.00     0.00  -0.00   0.00
  74   6    -0.00   0.00  -0.00     0.00   0.00  -0.00     0.00   0.00  -0.00
  75   6     0.00   0.00  -0.00    -0.00   0.00   0.00    -0.00  -0.00  -0.00
  76   6    -0.00  -0.00   0.00    -0.00   0.00  -0.00    -0.00   0.00   0.00
  77  30    -0.00   0.00   0.00    -0.00   0.00  -0.00    -0.00  -0.00   0.00
  78   6     0.00   0.06   0.00     0.00   0.01   0.00     0.00   0.07   0.00
  79   6     0.09   0.01   0.00     0.01   0.00   0.00     0.13   0.01   0.01
  80   6     0.00  -0.00  -0.00     0.00  -0.00  -0.00     0.00  -0.00  -0.00
  81   6     0.00  -0.00  -0.00     0.00   0.00  -0.00     0.00   0.00   0.00
  82   6     0.00   0.00   0.00    -0.00  -0.00  -0.00    -0.00  -0.00  -0.00
  83   6     0.10  -0.01  -0.00    -0.00   0.00   0.00    -0.11   0.01   0.00
  84   6     0.00  -0.07  -0.00    -0.00   0.00   0.00    -0.00   0.06   0.00
  85   6    -0.00  -0.00   0.00     0.00  -0.00  -0.00     0.00   0.00  -0.00
  86   7    -0.00   0.00   0.00     0.00  -0.00   0.00     0.00  -0.00  -0.00
  87   6     0.00  -0.00  -0.00     0.00   0.00   0.00    -0.00   0.00   0.00
  88   6     0.00   0.00   0.00    -0.00   0.00   0.00     0.00  -0.00  -0.00
  89   6    -0.00  -0.00  -0.00     0.00   0.05   0.00    -0.00  -0.04  -0.00
  90   6    -0.01  -0.00   0.00     0.08   0.01  -0.00    -0.07  -0.01   0.00
  91   6    -0.00   0.00   0.00     0.00  -0.00  -0.00    -0.00   0.00   0.00
  92   7     0.00   0.00   0.00    -0.00  -0.00   0.00     0.00   0.00  -0.00
  93   6     0.00   0.00  -0.00     0.00  -0.00   0.00    -0.00  -0.00  -0.00
  94   6    -0.00  -0.00  -0.00     0.00   0.00   0.00     0.00   0.00   0.00
  95   6    -0.01   0.00  -0.00     0.12  -0.01   0.01     0.04  -0.00   0.00
  96   6    -0.00   0.01  -0.00     0.00  -0.08  -0.00     0.00  -0.02   0.00
  97   6     0.00  -0.00   0.00    -0.00  -0.00  -0.00    -0.00  -0.00  -0.00
  98   7     0.00  -0.00  -0.00    -0.00   0.00  -0.00    -0.00   0.00  -0.00
  99   6     0.00   0.00   0.00     0.00  -0.00  -0.00     0.00   0.00   0.00
 100   6    -0.00   0.00  -0.00    -0.00   0.00   0.00    -0.00   0.00  -0.00
 101   7    -0.00  -0.00  -0.00    -0.00   0.00  -0.00    -0.00  -0.00  -0.00
 102   1    -0.02  -0.18  -0.01    -0.00  -0.02  -0.00    -0.02  -0.23  -0.01
 103   1    -0.30  -0.04  -0.01    -0.03  -0.00  -0.00    -0.44  -0.05  -0.02
 104   1    -0.34   0.04   0.01     0.01  -0.00  -0.00     0.35  -0.04  -0.02
 105   1    -0.02   0.21   0.01     0.00  -0.01  -0.00     0.02  -0.18  -0.01
 106   1     0.00   0.00   0.00     0.00  -0.00  -0.00    -0.00  -0.00  -0.00
 107   1     0.00   0.01  -0.00    -0.02  -0.15   0.00     0.01   0.11  -0.00
 108   1     0.02   0.00  -0.00    -0.25  -0.03   0.01     0.22   0.03  -0.01
 109   1     0.03  -0.00   0.00    -0.40   0.05  -0.02    -0.15   0.02  -0.01
 110   1     0.00  -0.02   0.00    -0.03   0.24  -0.00    -0.01   0.06  -0.00
 111   1     0.00  -0.00  -0.00     0.00   0.00   0.00     0.00  -0.00  -0.00
                    325                    326                    327
                        a                      a                      a 
 Frequencies --  3168.3047              3169.3838              3169.5860
 Red. masses --     1.9562                 1.9549                 1.9543
 Frc consts  --     0.0000                 0.0000                 0.0000
 IR Inten    --    26.6825                44.5901               105.3108
 Raman Activ --     0.0000                 0.0000                 0.0000
 Depolar     --     0.0000                 0.0000                 0.0000
 Atom AN      X      Y      Z        X      Y      Z        X      Y      Z
   1  30     0.00  -0.00   0.00     0.00   0.00  -0.00    -0.00   0.00  -0.00
   2   6    -0.00   0.03  -0.02    -0.00   0.04  -0.02    -0.00   0.01  -0.00
   3   6    -0.06   0.00  -0.00    -0.08   0.00  -0.01    -0.01   0.00  -0.00
   4   6    -0.00  -0.00   0.00    -0.00  -0.00   0.00    -0.00  -0.00   0.00
   5   6    -0.00   0.00  -0.00    -0.00  -0.00   0.00     0.00  -0.00   0.00
   6   6     0.00  -0.00   0.00    -0.00   0.00  -0.00    -0.00   0.00  -0.00
   7   6     0.01   0.00  -0.00    -0.12  -0.01   0.01    -0.02  -0.00   0.00
   8   6     0.00   0.00  -0.00    -0.00  -0.06   0.03    -0.00  -0.01   0.01
   9   6    -0.00  -0.00   0.00     0.00  -0.00   0.00     0.00  -0.00   0.00
  10   7     0.00  -0.00   0.00     0.00   0.00  -0.00     0.00   0.00  -0.00
  11   6     0.00   0.00  -0.00    -0.00  -0.00   0.00    -0.00  -0.00   0.00
  12   6    -0.00  -0.00   0.00    -0.00  -0.00   0.00    -0.00  -0.00   0.00
  13   6    -0.00   0.00  -0.00     0.00  -0.00   0.00     0.00  -0.00   0.00
  14   6     0.00  -0.00   0.00     0.00  -0.00   0.00     0.00  -0.00   0.00
  15   6    -0.00   0.00  -0.00     0.00   0.00  -0.00     0.00   0.00  -0.00
  16   7    -0.00   0.00  -0.00    -0.00   0.00  -0.00    -0.00   0.00  -0.00
  17   6     0.00   0.00  -0.00    -0.00  -0.00   0.00     0.00  -0.00   0.00
  18   6     0.00  -0.00   0.00     0.00  -0.00   0.00     0.00  -0.00   0.00
  19   6     0.00   0.00  -0.00     0.00  -0.00   0.00     0.00   0.00  -0.00
  20   6     0.00   0.00  -0.00     0.00   0.00  -0.00     0.00   0.00  -0.00
  21   6    -0.00   0.00  -0.00    -0.00   0.00  -0.00    -0.00   0.00  -0.00
  22   7    -0.00  -0.00   0.00    -0.00  -0.00   0.00    -0.00  -0.00   0.00
  23   6    -0.00   0.00  -0.00    -0.00   0.00  -0.00    -0.00   0.00  -0.00
  24   6     0.00   0.00  -0.00     0.00   0.00  -0.00     0.00   0.00  -0.00
  25   7     0.00  -0.00   0.00     0.00  -0.00   0.00     0.00  -0.00   0.00
  26   1     0.01  -0.09   0.05     0.01  -0.11   0.06     0.00  -0.02   0.01
  27   1     0.21  -0.02   0.02     0.25  -0.02   0.02     0.04  -0.00   0.00
  28   1    -0.02  -0.00   0.00     0.39   0.03  -0.04     0.08   0.01  -0.01
  29   1    -0.00  -0.00   0.00     0.02   0.17  -0.09     0.00   0.03  -0.02
  30   1    -0.00  -0.00   0.00    -0.00   0.00  -0.00     0.00   0.00  -0.00
  31   1     0.00  -0.00   0.00    -0.00   0.01  -0.00    -0.00   0.01  -0.01
  32   1    -0.00   0.00  -0.00    -0.00   0.00  -0.00    -0.01   0.00  -0.00
  33   1    -0.00   0.00   0.00    -0.00  -0.00  -0.00    -0.00   0.00   0.00
  34   1    -0.01  -0.00   0.00    -0.00  -0.00   0.00    -0.01  -0.00   0.00
  35   1    -0.00  -0.01   0.00    -0.00  -0.00   0.00    -0.00  -0.01   0.01
  36   1    -0.00  -0.00   0.00    -0.00  -0.00   0.00     0.00  -0.00   0.00
  37  30     0.00  -0.00  -0.00    -0.00  -0.00  -0.00     0.00   0.00   0.00
  38   6    -0.00   0.06   0.03     0.00  -0.01  -0.01    -0.00   0.04   0.02
  39   6    -0.12   0.01   0.01     0.02  -0.00  -0.00    -0.08   0.00   0.01
  40   6    -0.00  -0.00  -0.00     0.00   0.00   0.00    -0.00  -0.00  -0.00
  41   6    -0.00   0.00   0.00     0.00   0.00   0.00    -0.00  -0.00  -0.00
  42   6     0.00  -0.00  -0.00     0.00  -0.00  -0.00    -0.00   0.00   0.00
  43   6     0.05   0.00   0.00     0.03   0.00   0.00    -0.13  -0.01  -0.01
  44   6     0.00   0.02   0.01     0.00   0.01   0.01    -0.00  -0.06  -0.03
  45   6    -0.00   0.00   0.00    -0.00   0.00   0.00     0.00  -0.00  -0.00
  46   7    -0.00  -0.00  -0.00    -0.00  -0.00  -0.00     0.00   0.00   0.00
  47   6     0.00   0.00   0.00     0.00   0.00   0.00    -0.00  -0.00  -0.00
  48   6    -0.00  -0.00   0.00    -0.00  -0.00  -0.00    -0.00  -0.00  -0.00
  49   6    -0.00   0.00   0.00     0.00  -0.00  -0.00     0.00  -0.00  -0.00
  50   6    -0.00   0.00   0.00     0.00  -0.00  -0.00     0.00  -0.00  -0.00
  51   6    -0.00  -0.00  -0.00     0.00   0.00   0.00     0.00   0.00   0.00
  52   7     0.00   0.00  -0.00    -0.00   0.00   0.00    -0.00   0.00   0.00
  53   6     0.00   0.00   0.00     0.00   0.00   0.00     0.00  -0.00  -0.00
  54   6     0.00  -0.00  -0.00     0.00  -0.00  -0.00     0.00  -0.00  -0.00
  55   6     0.00   0.00   0.00     0.00   0.00   0.00     0.00   0.00   0.00
  56   6     0.00   0.00   0.00     0.00   0.00   0.00     0.00   0.00   0.00
  57   6    -0.00   0.00   0.00    -0.00   0.00   0.00    -0.00   0.00   0.00
  58   7    -0.00  -0.00  -0.00    -0.00  -0.00  -0.00    -0.00  -0.00  -0.00
  59   6    -0.00   0.00   0.00     0.00  -0.00  -0.00    -0.00   0.00   0.00
  60   6     0.00   0.00   0.00    -0.00  -0.00  -0.00     0.00   0.00   0.00
  61   7     0.00  -0.00  -0.00    -0.00   0.00   0.00     0.00  -0.00  -0.00
  62   1     0.02  -0.17  -0.10    -0.00   0.03   0.02     0.01  -0.11  -0.06
  63   1     0.39  -0.03  -0.03    -0.07   0.01   0.01     0.26  -0.02  -0.02
  64   1    -0.15  -0.01  -0.02    -0.09  -0.01  -0.01     0.42   0.04   0.04
  65   1    -0.01  -0.06  -0.03    -0.00  -0.04  -0.02     0.02   0.17   0.10
  66   1     0.00  -0.00  -0.00     0.00  -0.00  -0.00    -0.00   0.00   0.00
  67   1     0.00  -0.01  -0.00    -0.00   0.01   0.00    -0.00   0.01   0.01
  68   1     0.01  -0.00  -0.00    -0.01   0.00   0.00    -0.01   0.00   0.00
  69   1    -0.00   0.00  -0.00    -0.00   0.00   0.00    -0.00  -0.00   0.00
  70   1    -0.01  -0.00  -0.00    -0.01  -0.00  -0.00    -0.01  -0.00  -0.00
  71   1    -0.00  -0.01  -0.01    -0.00  -0.01  -0.00    -0.00  -0.01  -0.00
  72   1    -0.00  -0.00  -0.00     0.00   0.00   0.00    -0.00  -0.00  -0.00
  73   6    -0.00   0.00   0.00    -0.00  -0.00  -0.00     0.00  -0.00  -0.00
  74   6    -0.00  -0.00   0.00    -0.00   0.00  -0.00    -0.00   0.00  -0.00
  75   6    -0.00  -0.00  -0.00    -0.00  -0.00  -0.00    -0.00   0.00   0.00
  76   6    -0.00   0.00   0.00     0.00   0.00   0.00    -0.00  -0.00  -0.00
  77  30     0.00   0.00   0.00     0.00  -0.00   0.00     0.00  -0.00  -0.00
  78   6    -0.00  -0.05  -0.00    -0.00  -0.05  -0.00    -0.00  -0.01  -0.00
  79   6    -0.09  -0.01  -0.00    -0.09  -0.01  -0.00    -0.02  -0.00  -0.00
  80   6    -0.00   0.00   0.00    -0.00   0.00   0.00    -0.00   0.00   0.00
  81   6    -0.00  -0.00  -0.00    -0.00   0.00   0.00    -0.00   0.00   0.00
  82   6     0.00   0.00   0.00    -0.00  -0.01  -0.00    -0.00  -0.00  -0.00
  83   6     0.05  -0.00  -0.00    -0.18   0.01   0.01    -0.04   0.00   0.00
  84   6     0.00  -0.03  -0.00    -0.01   0.10   0.01    -0.00   0.02   0.00
  85   6    -0.00  -0.00   0.00     0.00   0.00  -0.00     0.00   0.00   0.00
  86   7    -0.00   0.00   0.00     0.00  -0.00  -0.00     0.00  -0.00  -0.00
  87   6    -0.00  -0.00  -0.00    -0.00   0.00   0.00    -0.00  -0.00   0.00
  88   6     0.00  -0.00  -0.00    -0.00   0.00   0.00     0.00  -0.00  -0.00
  89   6    -0.00  -0.09  -0.00     0.00   0.02   0.00    -0.00  -0.06  -0.00
  90   6    -0.15  -0.01   0.01     0.03   0.00  -0.00    -0.10  -0.01   0.00
  91   6    -0.00   0.00   0.00     0.00  -0.00  -0.00    -0.00   0.00   0.00
  92   7     0.00   0.00  -0.00    -0.00  -0.00  -0.00     0.00   0.00  -0.00
  93   6    -0.00  -0.00  -0.00     0.00   0.00  -0.00    -0.00   0.00   0.00
  94   6     0.00   0.00   0.00     0.00   0.00   0.00    -0.00  -0.01  -0.00
  95   6     0.11  -0.01   0.00     0.03  -0.00   0.00    -0.18   0.01  -0.01
  96   6     0.00  -0.06   0.00     0.00  -0.02   0.00    -0.00   0.10  -0.00
  97   6    -0.00  -0.00  -0.00    -0.00  -0.00  -0.00     0.00   0.00   0.00
  98   7    -0.00   0.00  -0.00    -0.00   0.00   0.00     0.00  -0.00   0.00
  99   6     0.00  -0.00  -0.00    -0.00  -0.00  -0.00    -0.00   0.00   0.00
 100   6     0.00  -0.00   0.00     0.00  -0.00   0.00     0.00  -0.00  -0.00
 101   7     0.00   0.00   0.00     0.00   0.00   0.00     0.00  -0.00   0.00
 102   1     0.02   0.16   0.01     0.02   0.16   0.01     0.00   0.03   0.00
 103   1     0.28   0.03   0.01     0.31   0.04   0.01     0.05   0.01   0.00
 104   1    -0.17   0.02   0.01     0.61  -0.07  -0.03     0.14  -0.02  -0.01
 105   1    -0.01   0.10   0.01     0.03  -0.31  -0.02     0.01  -0.08  -0.00
 106   1    -0.00   0.01   0.00    -0.00  -0.01  -0.00    -0.00   0.00   0.00
 107   1     0.03   0.27  -0.00    -0.01  -0.05   0.00     0.02   0.17  -0.00
 108   1     0.50   0.06  -0.02    -0.09  -0.01   0.00     0.32   0.04  -0.01
 109   1    -0.35   0.04  -0.01    -0.10   0.01  -0.00     0.59  -0.07   0.03
 110   1    -0.02   0.18  -0.00    -0.01   0.05  -0.00     0.03  -0.29   0.00
 111   1    -0.00   0.01   0.00    -0.00   0.00   0.00    -0.00  -0.00  -0.00
