      -----------------------------------------------------------      
     |                   =====================                   |     
     |                           x T B                           |     
     |                   =====================                   |     
     |                         S. Grimme                         |     
     |          Mulliken Center for Theoretical Chemistry        |     
     |                    University of Bonn                     |     
      -----------------------------------------------------------      

   * xtb version 6.4.1 (bd6e46d) compiled by 'conda@4901f00b25ba' on 2021-06-10

   xtb is free software: you can redistribute it and/or modify it under
   the terms of the GNU Lesser General Public License as published by
   the Free Software Foundation, either version 3 of the License, or
   (at your option) any later version.
   
   xtb is distributed in the hope that it will be useful,
   but WITHOUT ANY WARRANTY; without even the implied warranty of
   MERCHANTABILITY or FITNESS FOR A PARTICULAR PURPOSE.  See the
   GNU Lesser General Public License for more details.
   
   Cite this work as:
   * C. Bannwarth, E. Caldeweyher, S. Ehlert, A. Hansen, P. Pracht,
     J. Seibert, S. Spicher, S. Grimme, WIREs Comput. Mol. Sci., 2020, 11,
     e01493. DOI: 10.1002/wcms.1493
   
   for GFN2-xTB:
   * C. Bannwarth, S. Ehlert and S. Grimme., J. Chem. Theory Comput., 2019,
     15, 1652-1671. DOI: 10.1021/acs.jctc.8b01176
   for GFN1-xTB:
   * S. Grimme, C. Bannwarth, P. Shushkov, J. Chem. Theory Comput., 2017,
     13, 1989-2009. DOI: 10.1021/acs.jctc.7b00118
   for GFN0-xTB:
   * P. Pracht, E. Caldeweyher, S. Ehlert, S. Grimme, ChemRxiv, 2019, preprint.
     DOI: 10.26434/chemrxiv.8326202.v1
   for GFN-FF:
   * S. Spicher and S. Grimme, Angew. Chem. Int. Ed., 2020, 59, 15665-15673.
     DOI: 10.1002/anie.202004239
   
   for DFT-D4:
   * E. Caldeweyher, C. Bannwarth and S. Grimme, J. Chem. Phys., 2017,
     147, 034112. DOI: 10.1063/1.4993215
   * E. Caldeweyher, S. Ehlert, A. Hansen, H. Neugebauer, S. Spicher,
     C. Bannwarth and S. Grimme, J. Chem. Phys., 2019, 150, 154122.
     DOI: 10.1063/1.5090222
   * E. Caldeweyher, J.-M. Mewes, S. Ehlert and S. Grimme, Phys. Chem. Chem. Phys.
     2020, 22, 8499-8512. DOI: 10.1039/D0CP00502A
   
   for sTDA-xTB:
   * S. Grimme and C. Bannwarth, J. Chem. Phys., 2016, 145, 054103.
     DOI: 10.1063/1.4959605
   
   in the mass-spec context:
   * V. Asgeirsson, C. Bauer and S. Grimme, Chem. Sci., 2017, 8, 4879.
     DOI: 10.1039/c7sc00601b
   * J. Koopman and S. Grimme, ACS Omega 2019, 4, 12, 15120-15133.
     DOI: 10.1021/acsomega.9b02011
   
   for metadynamics refer to:
   * S. Grimme, J. Chem. Theory Comput., 2019, 155, 2847-2862
     DOI: 10.1021/acs.jctc.9b00143
   
   for SPH calculations refer to:
   * S. Spicher and S. Grimme, J. Chem. Theory Comput., 2021, 17, 1701-1714
     DOI: 10.1021/acs.jctc.0c01306
   
   with help from (in alphabetical order)
   P. Atkinson, C. Bannwarth, F. Bohle, G. Brandenburg, E. Caldeweyher
   M. Checinski, S. Dohm, S. Ehlert, S. Ehrlich, I. Gerasimov, J. Koopman
   C. Lavigne, S. Lehtola, F. März, M. Müller, F. Musil, H. Neugebauer
   J. Pisarek, C. Plett, P. Pracht, J. Seibert, P. Shushkov, S. Spicher
   M. Stahn, M. Steiner, T. Strunk, J. Stückrath, T. Rose, and J. Unsleber
   
 * started run on 2021/11/18 at 18:37:10.239     

           -------------------------------------------------
          |                Calculation Setup                |
           -------------------------------------------------

          program call               : /home/jeff/miniconda3/bin/xtb input_structure_1.xyz --gfn 2 --ohess normal --parallel 1 --etemp 300 --chrg 0 --uhf 0 -I det_control.in
          hostname                   : jelfscompute1
          coordinate file            : input_structure_1.xyz
          omp threads                :                     1
          number of atoms            :                   111
          number of electrons        :                   354
          charge                     :                     0
          spin                       :                   0.0
          first test random number   :      0.25051129922702

   ID    Z sym.   atoms
    1   30 Zn     1, 37, 77
    2    6 C      2-9, 11-15, 17-21, 23, 24, 38-45, 47-51, 53-57, 59, 60,
                  73-76, 78-85, 87-91, 93-97, 99, 100
    3    7 N      10, 16, 22, 25, 46, 52, 58, 61, 86, 92, 98, 101
    4    1 H      26-36, 62-72, 102-111

molecular fragmentation (1/2 indicates fragments):
111111111111111111111111111111111111222222222222222222222222222222222222
222222222222222222222222222222222222222
# atoms in fragment 1/2:    36    75
 fragment masses (1/2) :      372.71      792.45
CMA distance (Bohr)    :  33.588
constraining FC (au)   :  0.0500

           -------------------------------------------------
          |                 G F N 2 - x T B                 |
           -------------------------------------------------

        Reference                      10.1021/acs.jctc.8b01176
      * Hamiltonian:
        H0-scaling (s, p, d)           1.850000    2.230000    2.230000
        zeta-weighting                 0.500000
      * Dispersion:
        s8                             2.700000
        a1                             0.520000
        a2                             5.000000
        s9                             5.000000
      * Repulsion:
        kExp                           1.500000    1.000000
        rExp                           1.000000
      * Coulomb:
        alpha                          2.000000
        third order                    shell-resolved
        anisotropic                    true
        a3                             3.000000
        a5                             4.000000
        cn-shift                       1.200000
        cn-exp                         4.000000
        max-rad                        5.000000


          ...................................................
          :                      SETUP                      :
          :.................................................:
          :  # basis functions                 348          :
          :  # atomic orbitals                 348          :
          :  # shells                          190          :
          :  # electrons                       354          :
          :  max. iterations                   250          :
          :  Hamiltonian                  GFN2-xTB          :
          :  restarted?                      false          :
          :  GBSA solvation                  false          :
          :  PC potential                    false          :
          :  electronic temp.          300.0000000     K    :
          :  accuracy                    1.0000000          :
          :  -> integral cutoff          0.2500000E+02      :
          :  -> integral neglect         0.1000000E-07      :
          :  -> SCF convergence          0.1000000E-05 Eh   :
          :  -> wf. convergence          0.1000000E-03 e    :
          :  Broyden damping             0.4000000          :
          ...................................................

 iter      E             dE          RMSdq      gap      omega  full diag
   1   -191.9593185 -0.191959E+03  0.654E+00    0.43       0.0  T
   2   -190.9273421  0.103198E+01  0.374E+00    0.18       1.0  T
   3   -169.7358320  0.211915E+02  0.646E+00    0.14       1.0  T
   4   -173.2508364 -0.351500E+01  0.549E+00    0.27       1.0  T
   5   -188.9909487 -0.157401E+02  0.335E+00    0.11       1.0  T
   6   -189.1929397 -0.201991E+00  0.313E+00    0.13       1.0  T
   7   -192.3751781 -0.318224E+01  0.173E+00    0.10       1.0  T
   8   -192.6600659 -0.284888E+00  0.132E+00    0.64       1.0  T
   9   -192.7428781 -0.828122E-01  0.951E-01    0.13       1.0  T
  10   -192.7075466  0.353315E-01  0.980E-01    0.19       1.0  T
  11   -192.7394067 -0.318601E-01  0.726E-01    0.07       1.0  T
  12   -192.7099539  0.294527E-01  0.691E-01    0.05       1.0  T
  13   -192.7462977 -0.363437E-01  0.573E-01    0.17       1.0  T
  14   -192.7601215 -0.138239E-01  0.380E-01    0.12       1.0  T
  15   -192.7643966 -0.427501E-02  0.322E-01    0.10       1.0  T
  16   -192.7696389 -0.524239E-02  0.267E-01    0.12       1.0  T
  17   -192.7721350 -0.249602E-02  0.193E-01    0.13       1.0  T
  18   -192.7745805 -0.244552E-02  0.989E-02    0.14       1.0  T
  19   -192.7753214 -0.740889E-03  0.412E-02    0.14       1.0  T
  20   -192.7755375 -0.216092E-03  0.269E-02    0.14       1.0  T
  21   -192.7755831 -0.456853E-04  0.204E-02    0.14       1.0  T
  22   -192.7757003 -0.117156E-03  0.156E-02    0.15       1.0  T
  23   -192.7757176 -0.172641E-04  0.126E-02    0.15       1.0  T
  24   -192.7757393 -0.217317E-04  0.887E-03    0.15       1.1  T
  25   -192.7757476 -0.830363E-05  0.460E-03    0.16       2.1  T
  26   -192.7757506 -0.296453E-05  0.191E-03    0.16       5.0  T
  27   -192.7757508 -0.251439E-06  0.143E-03    0.16       6.6  T
  28   -192.7757510 -0.189674E-06  0.789E-04    0.16      12.0  T
  29   -192.7757511 -0.931166E-07  0.357E-04    0.16      26.6  T

   *** convergence criteria satisfied after 29 iterations ***

         #    Occupation            Energy/Eh            Energy/eV
      -------------------------------------------------------------
         1        2.0000           -0.6810667             -18.5328
       ...           ...                  ...                  ...
       171        2.0000           -0.3722870             -10.1304
       172        2.0000           -0.3686828             -10.0324
       173        2.0000           -0.3670968              -9.9892
       174        2.0000           -0.3582010              -9.7471
       175        2.0000           -0.3516403              -9.5686
       176        2.0000           -0.3511007              -9.5539
       177        1.8951           -0.3315494              -9.0219 (HOMO)
       178        0.0782           -0.3257577              -8.8643 (LUMO)
       179        0.0267           -0.3247124              -8.8359
       180        0.0000           -0.3148677              -8.5680
       181        0.0000           -0.3144749              -8.5573
       182                         -0.3002117              -8.1692
       ...                                ...                  ...
       348                          1.2754957              34.7080
      -------------------------------------------------------------
                  HL-Gap            0.0057917 Eh            0.1576 eV
             Fermi-level           -0.3287998 Eh           -8.9471 eV

 SCC (total)                   0 d,  0 h,  0 min,  0.871 sec
 SCC setup                      ...        0 min,  0.002 sec (  0.251%)
 Dispersion                     ...        0 min,  0.005 sec (  0.543%)
 classical contributions        ...        0 min,  0.001 sec (  0.085%)
 integral evaluation            ...        0 min,  0.043 sec (  4.967%)
 iterations                     ...        0 min,  0.682 sec ( 78.281%)
 molecular gradient             ...        0 min,  0.136 sec ( 15.597%)
 printout                       ...        0 min,  0.002 sec (  0.276%)

         :::::::::::::::::::::::::::::::::::::::::::::::::::::
         ::                     SUMMARY                     ::
         :::::::::::::::::::::::::::::::::::::::::::::::::::::
         :: total energy            -189.358702363607 Eh    ::
         :: gradient norm              0.603258592228 Eh/a0 ::
         :: HOMO-LUMO gap              0.157601281358 eV    ::
         ::.................................................::
         :: SCC energy              -192.775751095627 Eh    ::
         :: -> isotropic ES            0.205184898617 Eh    ::
         :: -> anisotropic ES          0.025554460698 Eh    ::
         :: -> anisotropic XC          0.115928604402 Eh    ::
         :: -> dispersion             -0.169960396168 Eh    ::
         :: repulsion energy           3.416268899995 Eh    ::
         :: add. restraining           0.000000000000 Eh    ::
         :: total charge               0.000000000016 e     ::
         :::::::::::::::::::::::::::::::::::::::::::::::::::::

      ----------------------------------------------------------- 
     |                   =====================                   |
     |                        A N C O P T                        |
     |                   =====================                   |
     |               Approximate Normal Coordinate               |
     |                Rational Function Optimizer                |
      ----------------------------------------------------------- 

          ...................................................
          :                      SETUP                      :
          :.................................................:
          :   optimization level            normal          :
          :   max. optcycles                   333          :
          :   ANC micro-cycles                  20          :
          :   degrees of freedom               327          :
          :.................................................:
          :   RF solver                   davidson          :
          :   write xtbopt.log                true          :
          :   linear?                        false          :
          :   energy convergence         0.5000000E-05 Eh   :
          :   grad. convergence          0.1000000E-02 Eh/α :
          :   maximium RF displ.         1.0000000          :
          :   Hlow (freq-cutoff)         0.1000000E-01      :
          :   Hmax (freq-cutoff)         5.0000000          :
          :   S6 in model hess.         20.0000000          :
          ...................................................

generating ANC from model Hessian ...
Using Lindh-Hessian (1995)
 Shifting diagonal of input Hessian by    1.0027402895831258E-002
 Lowest  eigenvalues of input Hessian
    0.010000    0.010007    0.010008    0.010014    0.010018    0.010021
    0.000000    0.000000    0.000000    0.000000    0.000000    0.000000
    0.010035    0.010041    0.010088    0.010103    0.010163    0.010248
 Highest eigenvalues
    2.188935    2.188935    2.203902    2.203904    2.393223    2.512586


........................................................................
.............................. CYCLE    1 ..............................
........................................................................
   1   -192.7757511 -0.192776E+03  0.186E-04    0.16       0.0  T
   2   -192.7757508  0.303512E-06  0.911E-04    0.16      10.4  T
   3   -192.7757511 -0.307805E-06  0.178E-04    0.16      53.2  T
     SCC iter.                  ...        0 min,  0.073 sec
     gradient                   ...        0 min,  0.135 sec
 * total energy  :  -189.3587024 Eh     change       -0.3917253E-07 Eh
   gradient norm :     0.6032516 Eh/α   predicted     0.0000000E+00 (-100.00%)
   displ. norm   :     0.5398351 α      lambda       -0.2342462E+00
   maximum displ.:     0.1907796 α      in ANC's #111, #130, #103, ...

........................................................................
.............................. CYCLE    2 ..............................
........................................................................
   1   -192.7528420 -0.192753E+03  0.422E-01    0.21       0.0  T
   2   -192.3343094  0.418533E+00  0.116E+00    0.08       1.0  T
   3   -192.7453701 -0.411061E+00  0.398E-01    0.18       1.0  T
   4   -192.7627713 -0.174012E-01  0.234E-01    0.26       1.0  T
   5   -192.6633571  0.994142E-01  0.522E-01    0.04       1.0  T
   6   -192.7569608 -0.936036E-01  0.230E-01    0.16       1.0  T
   7   -192.7637257 -0.676487E-02  0.184E-01    0.19       1.0  T
   8   -192.7647512 -0.102554E-02  0.144E-01    0.17       1.0  T
   9   -192.7674917 -0.274051E-02  0.109E-01    0.20       1.0  T
  10   -192.7682541 -0.762356E-03  0.965E-02    0.22       1.0  T
  11   -192.7690436 -0.789510E-03  0.820E-02    0.21       1.0  T
  12   -192.7692076 -0.163982E-03  0.760E-02    0.20       1.0  T
  13   -192.7696781 -0.470516E-03  0.629E-02    0.21       1.0  T
  14   -192.7706179 -0.939760E-03  0.228E-02    0.18       1.0  T
  15   -192.7704729  0.144966E-03  0.225E-02    0.16       1.0  T
  16   -192.7707020 -0.229113E-03  0.631E-03    0.17       1.5  T
  17   -192.7707034 -0.141534E-05  0.414E-03    0.17       2.3  T
  18   -192.7707081 -0.468942E-05  0.212E-03    0.17       4.5  T
  19   -192.7707086 -0.535198E-06  0.140E-03    0.17       6.8  T
  20   -192.7707089 -0.276972E-06  0.855E-04    0.17      11.1  T
  21   -192.7707091 -0.205528E-06  0.240E-04    0.17      39.6  T
     SCC iter.                  ...        0 min,  0.488 sec
     gradient                   ...        0 min,  0.135 sec
 * total energy  :  -189.5417584 Eh     change       -0.1830560E+00 Eh
   gradient norm :     0.3195910 Eh/α   predicted    -0.1513340E+00 ( -17.33%)
   displ. norm   :     0.6358089 α      lambda       -0.1457621E+00
   maximum displ.:     0.2489261 α      in ANC's #111, #130, #112, ...

........................................................................
.............................. CYCLE    3 ..............................
........................................................................
   1   -192.8006898 -0.192801E+03  0.425E-01    0.25       0.0  T
   2   -192.6787775  0.121912E+00  0.690E-01    0.03       1.0  T
   3   -192.7855908 -0.106813E+00  0.398E-01    0.31       1.0  T
   4   -192.8059506 -0.203597E-01  0.227E-01    0.29       1.0  T
   5   -192.8021239  0.382666E-02  0.252E-01    0.18       1.0  T
   6   -192.8118099 -0.968600E-02  0.984E-02    0.21       1.0  T
   7   -192.8119992 -0.189310E-03  0.907E-02    0.20       1.0  T
   8   -192.8128169 -0.817701E-03  0.575E-02    0.20       1.0  T
   9   -192.8129331 -0.116219E-03  0.458E-02    0.22       1.0  T
  10   -192.8130178 -0.846584E-04  0.281E-02    0.20       1.0  T
  11   -192.8129840  0.338203E-04  0.277E-02    0.19       1.0  T
  12   -192.8131911 -0.207132E-03  0.637E-03    0.20       1.5  T
  13   -192.8131971 -0.597863E-05  0.343E-03    0.20       2.8  T
  14   -192.8131975 -0.478110E-06  0.210E-03    0.20       4.5  T
  15   -192.8131984 -0.811335E-06  0.821E-04    0.20      11.6  T
  16   -192.8131985 -0.889677E-07  0.457E-04    0.20      20.8  T
     SCC iter.                  ...        0 min,  0.374 sec
     gradient                   ...        0 min,  0.135 sec
 * total energy  :  -189.6485668 Eh     change       -0.1068084E+00 Eh
   gradient norm :     0.1196548 Eh/α   predicted    -0.1023435E+00 (  -4.18%)
   displ. norm   :     0.7332087 α      lambda       -0.6985174E-01
   maximum displ.:     0.2510827 α      in ANC's #111, #35, #57, ...

........................................................................
.............................. CYCLE    4 ..............................
........................................................................
   1   -192.8592810 -0.192859E+03  0.367E-01    0.35       0.0  T
   2   -192.8535974  0.568368E-02  0.285E-01    0.22       1.0  T
   3   -192.8494889  0.410843E-02  0.273E-01    0.40       1.0  T
   4   -192.8588793 -0.939043E-02  0.155E-01    0.29       1.0  T
   5   -192.8602178 -0.133845E-02  0.114E-01    0.31       1.0  T
   6   -192.8623837 -0.216594E-02  0.142E-02    0.31       1.0  T
   7   -192.8623921 -0.837567E-05  0.103E-02    0.30       1.0  T
   8   -192.8623895  0.263711E-05  0.899E-03    0.30       1.1  T
   9   -192.8623942 -0.474499E-05  0.703E-03    0.30       1.3  T
  10   -192.8624005 -0.623739E-05  0.324E-03    0.30       2.9  T
  11   -192.8624020 -0.150798E-05  0.105E-03    0.30       9.0  T
  12   -192.8624020 -0.518440E-07  0.652E-04    0.31      14.5  T
  13   -192.8624021 -0.672153E-07  0.359E-04    0.30      26.4  T
     SCC iter.                  ...        0 min,  0.303 sec
     gradient                   ...        0 min,  0.135 sec
 * total energy  :  -189.7061464 Eh     change       -0.5757956E-01 Eh
   gradient norm :     0.0766772 Eh/α   predicted    -0.5370195E-01 (  -6.73%)
   displ. norm   :     0.8370203 α      lambda       -0.5323817E-01
   maximum displ.:     0.3033234 α      in ANC's #35, #33, #57, ...

........................................................................
.............................. CYCLE    5 ..............................
........................................................................
   1   -192.8925735 -0.192893E+03  0.419E-01    0.55       0.0  T
   2   -192.8888763  0.369720E-02  0.295E-01    0.52       1.0  T
   3   -192.8758391  0.130372E-01  0.370E-01    0.60       1.0  T
   4   -192.8912460 -0.154069E-01  0.140E-01    0.60       1.0  T
   5   -192.8939705 -0.272448E-02  0.624E-02    0.55       1.0  T
   6   -192.8946712 -0.700695E-03  0.890E-03    0.57       1.1  T
   7   -192.8946760 -0.475037E-05  0.665E-03    0.57       1.4  T
   8   -192.8946763 -0.341163E-06  0.573E-03    0.57       1.7  T
   9   -192.8946801 -0.381599E-05  0.242E-03    0.57       3.9  T
  10   -192.8946809 -0.809365E-06  0.827E-04    0.57      11.5  T
  11   -192.8946810 -0.615861E-07  0.444E-04    0.57      21.4  T
     SCC iter.                  ...        0 min,  0.260 sec
     gradient                   ...        0 min,  0.136 sec
 * total energy  :  -189.7545462 Eh     change       -0.4839979E-01 Eh
   gradient norm :     0.0776651 Eh/α   predicted    -0.4526849E-01 (  -6.47%)
   displ. norm   :     0.9120754 α      lambda       -0.5102888E-01
   maximum displ.:     0.3700858 α      in ANC's #35, #33, #10, ...

........................................................................
.............................. CYCLE    6 ..............................
........................................................................
   1   -192.9138713 -0.192914E+03  0.482E-01    0.86       0.0  T
   2   -192.9108558  0.301557E-02  0.325E-01    0.93       1.0  T
   3   -192.8977933  0.130624E-01  0.389E-01    0.95       1.0  T
   4   -192.9155121 -0.177188E-01  0.779E-02    0.95       1.0  T
   5   -192.9159675 -0.455315E-03  0.467E-02    0.95       1.0  T
   6   -192.9163530 -0.385497E-03  0.110E-02    0.96       1.0  T
   7   -192.9163679 -0.149475E-04  0.581E-03    0.96       1.6  T
   8   -192.9163691 -0.121959E-05  0.368E-03    0.96       2.6  T
   9   -192.9163702 -0.103933E-05  0.218E-03    0.96       4.3  T
  10   -192.9163709 -0.694767E-06  0.964E-04    0.96       9.8  T
  11   -192.9163710 -0.106485E-06  0.351E-04    0.96      27.0  T
     SCC iter.                  ...        0 min,  0.257 sec
     gradient                   ...        0 min,  0.136 sec
 * total energy  :  -189.8042045 Eh     change       -0.4965830E-01 Eh
   gradient norm :     0.0788491 Eh/α   predicted    -0.4673946E-01 (  -5.88%)
   displ. norm   :     0.9560188 α      lambda       -0.5494200E-01
   maximum displ.:     0.4031890 α      in ANC's #35, #33, #10, ...

........................................................................
.............................. CYCLE    7 ..............................
........................................................................
   1   -192.9299807 -0.192930E+03  0.507E-01    1.12       0.0  T
   2   -192.9281885  0.179224E-02  0.335E-01    1.21       1.0  T
   3   -192.9152696  0.129189E-01  0.378E-01    1.24       1.0  T
   4   -192.9319771 -0.167075E-01  0.566E-02    1.24       1.0  T
   5   -192.9322648 -0.287697E-03  0.225E-02    1.24       1.0  T
   6   -192.9323521 -0.873182E-04  0.105E-02    1.24       1.0  T
   7   -192.9323636 -0.115174E-04  0.617E-03    1.24       1.5  T
   8   -192.9323662 -0.263696E-05  0.295E-03    1.24       3.2  T
   9   -192.9323670 -0.740749E-06  0.144E-03    1.24       6.6  T
  10   -192.9323671 -0.146332E-06  0.796E-04    1.24      11.9  T
  11   -192.9323672 -0.652275E-07  0.343E-04    1.24      27.7  T
     SCC iter.                  ...        0 min,  0.257 sec
     gradient                   ...        0 min,  0.136 sec
 * total energy  :  -189.8576901 Eh     change       -0.5348560E-01 Eh
   gradient norm :     0.0776988 Eh/α   predicted    -0.5257879E-01 (  -1.70%)
   displ. norm   :     0.9384469 α      lambda       -0.5614588E-01
   maximum displ.:     0.4000255 α      in ANC's #35, #33, #10, ...

........................................................................
.............................. CYCLE    8 ..............................
........................................................................
   1   -192.9531728 -0.192953E+03  0.461E-01    1.18       0.0  T
   2   -192.9519033  0.126946E-02  0.316E-01    1.19       1.0  T
   3   -192.9415553  0.103480E-01  0.326E-01    1.20       1.0  T
   4   -192.9543573 -0.128019E-01  0.641E-02    1.20       1.0  T
   5   -192.9548855 -0.528229E-03  0.263E-02    1.20       1.0  T
   6   -192.9550296 -0.144130E-03  0.112E-02    1.20       1.0  T
   7   -192.9550424 -0.127937E-04  0.632E-03    1.20       1.5  T
   8   -192.9550444 -0.203013E-05  0.231E-03    1.20       4.1  T
   9   -192.9550448 -0.378902E-06  0.116E-03    1.20       8.2  T
  10   -192.9550449 -0.112295E-06  0.587E-04    1.20      16.2  T
  11   -192.9550450 -0.319408E-07  0.309E-04    1.20      30.7  T
     SCC iter.                  ...        0 min,  0.257 sec
     gradient                   ...        0 min,  0.136 sec
 * total energy  :  -189.9088508 Eh     change       -0.5116070E-01 Eh
   gradient norm :     0.0819270 Eh/α   predicted    -0.5279630E-01 (   3.20%)
   displ. norm   :     0.9160834 α      lambda       -0.4608576E-01
   maximum displ.:     0.4415997 α      in ANC's #10, #35, #33, ...

........................................................................
.............................. CYCLE    9 ..............................
........................................................................
   1   -192.9610846 -0.192961E+03  0.391E-01    1.14       0.0  T
   2   -192.9597101  0.137457E-02  0.272E-01    1.14       1.0  T
   3   -192.9488991  0.108110E-01  0.284E-01    1.14       1.0  T
   4   -192.9617701 -0.128710E-01  0.425E-02    1.14       1.0  T
   5   -192.9620587 -0.288550E-03  0.103E-02    1.14       1.0  T
   6   -192.9620641 -0.538199E-05  0.662E-03    1.14       1.4  T
   7   -192.9620663 -0.222874E-05  0.457E-03    1.14       2.1  T
   8   -192.9620686 -0.231610E-05  0.177E-03    1.14       5.4  T
   9   -192.9620691 -0.485098E-06  0.565E-04    1.14      16.8  T
  10   -192.9620691 -0.379326E-07  0.335E-04    1.14      28.3  T
     SCC iter.                  ...        0 min,  0.234 sec
     gradient                   ...        0 min,  0.136 sec
 * total energy  :  -189.9457313 Eh     change       -0.3688049E-01 Eh
   gradient norm :     0.0761804 Eh/α   predicted    -0.4238083E-01 (  14.91%)
   displ. norm   :     0.7481367 α      lambda       -0.3492050E-01
   maximum displ.:     0.4351926 α      in ANC's #10, #16, #33, ...

........................................................................
.............................. CYCLE   10 ..............................
........................................................................
   1   -193.0277753 -0.193028E+03  0.284E-01    1.07       0.0  T
   2   -193.0274847  0.290566E-03  0.187E-01    1.07       1.0  T
   3   -193.0222629  0.522184E-02  0.186E-01    1.08       1.0  T
   4   -193.0278647 -0.560183E-02  0.519E-02    1.07       1.0  T
   5   -193.0282926 -0.427911E-03  0.112E-02    1.07       1.0  T
   6   -193.0283081 -0.154475E-04  0.550E-03    1.07       1.7  T
   7   -193.0283118 -0.369521E-05  0.325E-03    1.07       2.9  T
   8   -193.0283131 -0.138486E-05  0.134E-03    1.07       7.1  T
   9   -193.0283135 -0.306240E-06  0.419E-04    1.07      22.7  T
  10   -193.0283135 -0.168977E-07  0.215E-04    1.07      44.2  T
     SCC iter.                  ...        0 min,  0.237 sec
     gradient                   ...        0 min,  0.137 sec
 * total energy  :  -189.9726919 Eh     change       -0.2696066E-01 Eh
   gradient norm :     0.0674907 Eh/α   predicted    -0.2723296E-01 (   1.01%)
   displ. norm   :     0.8043882 α      lambda       -0.3462978E-01
   maximum displ.:     0.5000610 α      in ANC's #10, #16, #15, ...

........................................................................
.............................. CYCLE   11 ..............................
........................................................................
   1   -193.0706306 -0.193071E+03  0.310E-01    1.13       0.0  T
   2   -193.0703246  0.305998E-03  0.203E-01    1.13       1.0  T
   3   -193.0647492  0.557538E-02  0.182E-01    1.14       1.0  T
   4   -193.0708936 -0.614435E-02  0.500E-02    1.13       1.0  T
   5   -193.0712898 -0.396263E-03  0.150E-02    1.13       1.0  T
   6   -193.0713188 -0.289356E-04  0.638E-03    1.13       1.5  T
   7   -193.0713225 -0.370064E-05  0.382E-03    1.13       2.5  T
   8   -193.0713239 -0.146220E-05  0.172E-03    1.13       5.5  T
   9   -193.0713244 -0.467356E-06  0.692E-04    1.13      13.7  T
  10   -193.0713244 -0.523555E-07  0.347E-04    1.13      27.3  T
     SCC iter.                  ...        0 min,  0.237 sec
     gradient                   ...        0 min,  0.137 sec
 * total energy  :  -189.9958819 Eh     change       -0.2318996E-01 Eh
   gradient norm :     0.0710783 Eh/α   predicted    -0.2851834E-01 (  22.98%)
   displ. norm   :     0.8082004 α      lambda       -0.2601201E-01
   maximum displ.:     0.6009536 α      in ANC's #10, #16, #15, ...

........................................................................
.............................. CYCLE   12 ..............................
........................................................................
   1   -193.1173032 -0.193117E+03  0.157E-01    1.08       0.0  T
   2   -193.1172552  0.479965E-04  0.103E-01    1.08       1.0  T
   3   -193.1162953  0.959919E-03  0.921E-02    1.09       1.0  T
   4   -193.1173478 -0.105251E-02  0.285E-02    1.08       1.0  T
   5   -193.1174886 -0.140749E-03  0.518E-03    1.08       1.8  T
   6   -193.1174925 -0.391631E-05  0.252E-03    1.08       3.8  T
   7   -193.1174929 -0.473371E-06  0.171E-03    1.08       5.6  T
   8   -193.1174932 -0.246154E-06  0.923E-04    1.08      10.3  T
   9   -193.1174934 -0.186894E-06  0.211E-04    1.08      45.1  T
     SCC iter.                  ...        0 min,  0.211 sec
     gradient                   ...        0 min,  0.138 sec
 * total energy  :  -190.0186505 Eh     change       -0.2276856E-01 Eh
   gradient norm :     0.0496534 Eh/α   predicted    -0.2150138E-01 (  -5.57%)
   displ. norm   :     0.8945801 α      lambda       -0.2433846E-01
   maximum displ.:     0.6611900 α      in ANC's #10, #16, #15, ...

........................................................................
.............................. CYCLE   13 ..............................
........................................................................
   1   -193.1585732 -0.193159E+03  0.157E-01    1.04       0.0  T
   2   -193.1585210  0.521786E-04  0.103E-01    1.04       1.0  T
   3   -193.1571348  0.138614E-02  0.947E-02    1.04       1.0  T
   4   -193.1585664 -0.143158E-02  0.289E-02    1.04       1.0  T
   5   -193.1587170 -0.150624E-03  0.632E-03    1.04       1.5  T
   6   -193.1587227 -0.565157E-05  0.251E-03    1.04       3.8  T
   7   -193.1587233 -0.609663E-06  0.164E-03    1.04       5.8  T
   8   -193.1587237 -0.344310E-06  0.756E-04    1.04      12.6  T
   9   -193.1587238 -0.110006E-06  0.210E-04    1.04      45.1  T
     SCC iter.                  ...        0 min,  0.214 sec
     gradient                   ...        0 min,  0.138 sec
 * total energy  :  -190.0402025 Eh     change       -0.2155201E-01 Eh
   gradient norm :     0.0432912 Eh/α   predicted    -0.2190798E-01 (   1.65%)
   displ. norm   :     0.9239161 α      lambda       -0.2409793E-01
   maximum displ.:     0.6737352 α      in ANC's #10, #16, #15, ...

........................................................................
.............................. CYCLE   14 ..............................
........................................................................
   1   -193.1947491 -0.193195E+03  0.193E-01    1.01       0.0  T
   2   -193.1946742  0.748991E-04  0.122E-01    1.01       1.0  T
   3   -193.1928062  0.186803E-02  0.120E-01    1.02       1.0  T
   4   -193.1948124 -0.200629E-02  0.141E-02    1.01       1.0  T
   5   -193.1948423 -0.298712E-04  0.502E-03    1.01       1.9  T
   6   -193.1948459 -0.360273E-05  0.271E-03    1.01       3.5  T
   7   -193.1948464 -0.532898E-06  0.148E-03    1.01       6.4  T
   8   -193.1948468 -0.319932E-06  0.696E-04    1.01      13.6  T
   9   -193.1948469 -0.103982E-06  0.201E-04    1.01      47.3  T
     SCC iter.                  ...        0 min,  0.213 sec
     gradient                   ...        0 min,  0.138 sec
 * total energy  :  -190.0602729 Eh     change       -0.2007041E-01 Eh
   gradient norm :     0.0407444 Eh/α   predicted    -0.2233422E-01 (  11.28%)
   displ. norm   :     0.9022721 α      lambda       -0.2248917E-01
   maximum displ.:     0.6675309 α      in ANC's #10, #16, #15, ...

........................................................................
.............................. CYCLE   15 ..............................
........................................................................
   1   -193.2320189 -0.193232E+03  0.172E-01    0.98       0.0  T
   2   -193.2319580  0.609756E-04  0.112E-01    0.99       1.0  T
   3   -193.2302473  0.171067E-02  0.107E-01    0.99       1.0  T
   4   -193.2320440 -0.179666E-02  0.237E-02    0.98       1.0  T
   5   -193.2321478 -0.103863E-03  0.694E-03    0.99       1.4  T
   6   -193.2321556 -0.775756E-05  0.289E-03    0.99       3.3  T
   7   -193.2321563 -0.757193E-06  0.179E-03    0.99       5.3  T
   8   -193.2321568 -0.432102E-06  0.852E-04    0.99      11.1  T
   9   -193.2321569 -0.148417E-06  0.203E-04    0.99      46.9  T
     SCC iter.                  ...        0 min,  0.212 sec
     gradient                   ...        0 min,  0.139 sec
 * total energy  :  -190.0790323 Eh     change       -0.1875937E-01 Eh
   gradient norm :     0.0407796 Eh/α   predicted    -0.2039875E-01 (   8.74%)
   displ. norm   :     0.9005057 α      lambda       -0.2029635E-01
   maximum displ.:     0.6804532 α      in ANC's #10, #16, #15, ...

........................................................................
.............................. CYCLE   16 ..............................
........................................................................
   1   -193.2464910 -0.193246E+03  0.139E-01    0.98       0.0  T
   2   -193.2464637  0.272869E-04  0.884E-02    0.98       1.0  T
   3   -193.2456217  0.841986E-03  0.789E-02    0.98       1.0  T
   4   -193.2465170 -0.895347E-03  0.217E-02    0.98       1.0  T
   5   -193.2465995 -0.825058E-04  0.459E-03    0.98       2.1  T
   6   -193.2466006 -0.105748E-05  0.317E-03    0.98       3.0  T
   7   -193.2466016 -0.102007E-05  0.178E-03    0.98       5.3  T
   8   -193.2466023 -0.728513E-06  0.652E-04    0.98      14.6  T
   9   -193.2466024 -0.788333E-07  0.191E-04    0.98      49.6  T
     SCC iter.                  ...        0 min,  0.213 sec
     gradient                   ...        0 min,  0.138 sec
 * total energy  :  -190.0970651 Eh     change       -0.1803281E-01 Eh
   gradient norm :     0.0350187 Eh/α   predicted    -0.1837744E-01 (   1.91%)
   displ. norm   :     0.9233044 α      lambda       -0.1878937E-01
   maximum displ.:     0.7030051 α      in ANC's #10, #16, #15, ...

........................................................................
.............................. CYCLE   17 ..............................
........................................................................
   1   -193.2858140 -0.193286E+03  0.146E-01    0.97       0.0  T
   2   -193.2858277 -0.136868E-04  0.885E-02    0.97       1.0  T
   3   -193.2853981  0.429612E-03  0.433E-02    0.97       1.0  T
   4   -193.2858005 -0.402372E-03  0.155E-02    0.97       1.0  T
   5   -193.2858583 -0.578078E-04  0.357E-03    0.97       2.7  T
   6   -193.2858596 -0.132811E-05  0.186E-03    0.97       5.1  T
   7   -193.2858598 -0.158200E-06  0.123E-03    0.97       7.7  T
   8   -193.2858600 -0.274256E-06  0.386E-04    0.97      24.6  T
   9   -193.2858601 -0.220273E-07  0.150E-04    0.97      63.1  T
     SCC iter.                  ...        0 min,  0.211 sec
     gradient                   ...        0 min,  0.139 sec
 * total energy  :  -190.1148508 Eh     change       -0.1778577E-01 Eh
   gradient norm :     0.0299540 Eh/α   predicted    -0.1740357E-01 (  -2.15%)
   displ. norm   :     0.9468396 α      lambda       -0.1846545E-01
   maximum displ.:     0.7080253 α      in ANC's #10, #15, #16, ...

........................................................................
.............................. CYCLE   18 ..............................
........................................................................
   1   -193.3150402 -0.193315E+03  0.168E-01    0.98       0.0  T
   2   -193.3150283  0.118109E-04  0.102E-01    0.98       1.0  T
   3   -193.3140673  0.961084E-03  0.725E-02    0.98       1.0  T
   4   -193.3150532 -0.985971E-03  0.118E-02    0.98       1.0  T
   5   -193.3150783 -0.251046E-04  0.327E-03    0.98       2.9  T
   6   -193.3150791 -0.751658E-06  0.228E-03    0.98       4.2  T
   7   -193.3150797 -0.641723E-06  0.120E-03    0.98       7.9  T
   8   -193.3150800 -0.257323E-06  0.295E-04    0.98      32.2  T
   9   -193.3150800 -0.118358E-07  0.126E-04    0.98      75.5  T
     SCC iter.                  ...        0 min,  0.211 sec
     gradient                   ...        0 min,  0.139 sec
 * total energy  :  -190.1320973 Eh     change       -0.1724646E-01 Eh
   gradient norm :     0.0257499 Eh/α   predicted    -0.1750989E-01 (   1.53%)
   displ. norm   :     0.9575701 α      lambda       -0.1804938E-01
   maximum displ.:     0.6974047 α      in ANC's #10, #15, #16, ...

........................................................................
.............................. CYCLE   19 ..............................
........................................................................
   1   -193.3399567 -0.193340E+03  0.197E-01    1.01       0.0  T
   2   -193.3399596 -0.287983E-05  0.117E-01    1.00       1.0  T
   3   -193.3395318  0.427826E-03  0.484E-02    1.01       1.0  T
   4   -193.3399591 -0.427330E-03  0.107E-02    1.00       1.0  T
   5   -193.3399803 -0.212185E-04  0.313E-03    1.00       3.0  T
   6   -193.3399803  0.155126E-07  0.244E-03    1.00       3.9  T
   7   -193.3399811 -0.769199E-06  0.116E-03    1.00       8.2  T
   8   -193.3399814 -0.263819E-06  0.262E-04    1.00      36.3  T
   9   -193.3399814 -0.713175E-08  0.136E-04    1.00      70.0  T
     SCC iter.                  ...        0 min,  0.214 sec
     gradient                   ...        0 min,  0.139 sec
 * total energy  :  -190.1482353 Eh     change       -0.1613799E-01 Eh
   gradient norm :     0.0269150 Eh/α   predicted    -0.1729979E-01 (   7.20%)
   displ. norm   :     0.9419966 α      lambda       -0.1674066E-01
   maximum displ.:     0.6947250 α      in ANC's #10, #15, #16, ...

........................................................................
.............................. CYCLE   20 ..............................
........................................................................
   1   -193.3660565 -0.193366E+03  0.167E-01    1.03       0.0  T
   2   -193.3660573 -0.820286E-06  0.992E-02    1.02       1.0  T
   3   -193.3656068  0.450509E-03  0.541E-02    1.03       1.0  T
   4   -193.3660749 -0.468056E-03  0.906E-03    1.03       1.0  T
   5   -193.3660852 -0.103261E-04  0.289E-03    1.03       3.3  T
   6   -193.3660857 -0.498081E-06  0.202E-03    1.03       4.7  T
   7   -193.3660862 -0.522899E-06  0.869E-04    1.03      10.9  T
   8   -193.3660864 -0.129377E-06  0.225E-04    1.03      42.1  T
     SCC iter.                  ...        0 min,  0.189 sec
     gradient                   ...        0 min,  0.140 sec
 * total energy  :  -190.1638823 Eh     change       -0.1564699E-01 Eh
   gradient norm :     0.0232523 Eh/α   predicted    -0.1579780E-01 (   0.96%)
   displ. norm   :     0.9550990 α      lambda       -0.1557905E-01
   maximum displ.:     0.7090098 α      in ANC's #10, #15, #16, ...
 * RMSD in coord.:     1.3019485 α      energy gain  -0.8051799E+00 Eh

generating ANC from model Hessian ...
Using Lindh-Hessian (1995)
 Shifting diagonal of input Hessian by    1.0009259831358547E-002
 Lowest  eigenvalues of input Hessian
    0.010000    0.010001    0.010004    0.010005    0.010007    0.000000
    0.000000    0.000000    0.000000    0.000000    0.000000    0.010022
    0.010232    0.010704    0.011005    0.011105    0.011223    0.011432
 Highest eigenvalues
    2.115537    2.117867    2.118544    2.121865    2.450541    2.462163


........................................................................
.............................. CYCLE   21 ..............................
........................................................................
   1   -193.3942098 -0.193394E+03  0.149E-01    1.04       0.0  T
   2   -193.3942021  0.766912E-05  0.897E-02    1.03       1.0  T
   3   -193.3935420  0.660096E-03  0.547E-02    1.04       1.0  T
   4   -193.3942232 -0.681200E-03  0.913E-03    1.03       1.0  T
   5   -193.3942381 -0.149066E-04  0.238E-03    1.03       4.0  T
   6   -193.3942384 -0.224241E-06  0.153E-03    1.03       6.2  T
   7   -193.3942385 -0.134954E-06  0.720E-04    1.03      13.2  T
   8   -193.3942386 -0.670139E-07  0.194E-04    1.03      48.9  T
     SCC iter.                  ...        0 min,  0.190 sec
     gradient                   ...        0 min,  0.140 sec
 * total energy  :  -190.1785788 Eh     change       -0.1469652E-01 Eh
   gradient norm :     0.0201307 Eh/α   predicted     0.0000000E+00 (-100.00%)
   displ. norm   :     0.6768914 α      lambda       -0.1037460E-01
   maximum displ.:     0.4483235 α      in ANC's #14, #12, #11, ...

........................................................................
.............................. CYCLE   22 ..............................
........................................................................
   1   -193.4176957 -0.193418E+03  0.114E-01    1.04       0.0  T
   2   -193.4176984 -0.274113E-05  0.671E-02    1.04       1.0  T
   3   -193.4176059  0.925371E-04  0.203E-02    1.04       1.0  T
   4   -193.4176979 -0.920015E-04  0.566E-03    1.04       1.7  T
   5   -193.4177045 -0.662526E-05  0.141E-03    1.04       6.8  T
   6   -193.4177045  0.877463E-08  0.106E-03    1.04       9.0  T
   7   -193.4177046 -0.110416E-06  0.397E-04    1.04      23.9  T
   8   -193.4177046 -0.203236E-07  0.115E-04    1.04      82.6  T
     SCC iter.                  ...        0 min,  0.188 sec
     gradient                   ...        0 min,  0.140 sec
 * total energy  :  -190.1886229 Eh     change       -0.1004413E-01 Eh
   gradient norm :     0.0158085 Eh/α   predicted    -0.7594779E-02 ( -24.39%)
   displ. norm   :     0.8854754 α      lambda       -0.1275968E-01
   maximum displ.:     0.5748065 α      in ANC's #14, #12, #11, ...

........................................................................
.............................. CYCLE   23 ..............................
........................................................................
   1   -193.4427531 -0.193443E+03  0.148E-01    1.05       0.0  T
   2   -193.4427545 -0.142488E-05  0.874E-02    1.05       1.0  T
   3   -193.4425555  0.199044E-03  0.292E-02    1.05       1.0  T
   4   -193.4427600 -0.204485E-03  0.568E-03    1.05       1.7  T
   5   -193.4427658 -0.580043E-05  0.200E-03    1.05       4.7  T
   6   -193.4427658 -0.643481E-07  0.140E-03    1.05       6.8  T
   7   -193.4427660 -0.208442E-06  0.490E-04    1.05      19.4  T
   8   -193.4427661 -0.318520E-07  0.146E-04    1.05      64.9  T
     SCC iter.                  ...        0 min,  0.190 sec
     gradient                   ...        0 min,  0.140 sec
 * total energy  :  -190.2008927 Eh     change       -0.1226979E-01 Eh
   gradient norm :     0.0138478 Eh/α   predicted    -0.1138206E-01 (  -7.24%)
   displ. norm   :     0.9261872 α      lambda       -0.1239617E-01
   maximum displ.:     0.6072093 α      in ANC's #14, #12, #11, ...

........................................................................
.............................. CYCLE   24 ..............................
........................................................................
   1   -193.4641029 -0.193464E+03  0.156E-01    1.06       0.0  T
   2   -193.4641036 -0.737704E-06  0.924E-02    1.06       1.0  T
   3   -193.4638997  0.203942E-03  0.288E-02    1.07       1.0  T
   4   -193.4641106 -0.210947E-03  0.524E-03    1.06       1.8  T
   5   -193.4641148 -0.419202E-05  0.203E-03    1.06       4.7  T
   6   -193.4641148 -0.285915E-07  0.139E-03    1.06       6.8  T
   7   -193.4641150 -0.194093E-06  0.476E-04    1.06      20.0  T
   8   -193.4641151 -0.269381E-07  0.121E-04    1.06      78.3  T
     SCC iter.                  ...        0 min,  0.188 sec
     gradient                   ...        0 min,  0.141 sec
 * total energy  :  -190.2127867 Eh     change       -0.1189402E-01 Eh
   gradient norm :     0.0131925 Eh/α   predicted    -0.1151497E-01 (  -3.19%)
   displ. norm   :     0.9373128 α      lambda       -0.1163109E-01
   maximum displ.:     0.6219758 α      in ANC's #14, #12, #11, ...

........................................................................
.............................. CYCLE   25 ..............................
........................................................................
   1   -193.4852509 -0.193485E+03  0.159E-01    1.07       0.0  T
   2   -193.4852519 -0.917731E-06  0.939E-02    1.07       1.0  T
   3   -193.4850574  0.194432E-03  0.275E-02    1.07       1.0  T
   4   -193.4852583 -0.200831E-03  0.533E-03    1.07       1.8  T
   5   -193.4852625 -0.423079E-05  0.197E-03    1.07       4.8  T
   6   -193.4852625 -0.542245E-07  0.127E-03    1.07       7.4  T
   7   -193.4852627 -0.126335E-06  0.513E-04    1.07      18.5  T
   8   -193.4852627 -0.301826E-07  0.108E-04    1.07      88.2  T
     SCC iter.                  ...        0 min,  0.188 sec
     gradient                   ...        0 min,  0.142 sec
 * total energy  :  -190.2238960 Eh     change       -0.1110928E-01 Eh
   gradient norm :     0.0123659 Eh/α   predicted    -0.1092484E-01 (  -1.66%)
   displ. norm   :     0.9395674 α      lambda       -0.1074890E-01
   maximum displ.:     0.6298696 α      in ANC's #14, #12, #11, ...

........................................................................
.............................. CYCLE   26 ..............................
........................................................................
   1   -193.5067459 -0.193507E+03  0.157E-01    1.08       0.0  T
   2   -193.5067471 -0.126072E-05  0.929E-02    1.08       1.0  T
   3   -193.5065684  0.178713E-03  0.262E-02    1.08       1.0  T
   4   -193.5067526 -0.184186E-03  0.536E-03    1.08       1.8  T
   5   -193.5067571 -0.449222E-05  0.191E-03    1.08       5.0  T
   6   -193.5067572 -0.646550E-07  0.120E-03    1.08       7.9  T
   7   -193.5067573 -0.100556E-06  0.497E-04    1.08      19.1  T
   8   -193.5067573 -0.275600E-07  0.104E-04    1.08      91.4  T
     SCC iter.                  ...        0 min,  0.190 sec
     gradient                   ...        0 min,  0.142 sec
 * total energy  :  -190.2341176 Eh     change       -0.1022160E-01 Eh
   gradient norm :     0.0114456 Eh/α   predicted    -0.1011895E-01 (  -1.00%)
   displ. norm   :     0.9351990 α      lambda       -0.9781700E-02
   maximum displ.:     0.6353199 α      in ANC's #14, #12, #11, ...

........................................................................
.............................. CYCLE   27 ..............................
........................................................................
   1   -193.5283772 -0.193528E+03  0.154E-01    1.08       0.0  T
   2   -193.5283791 -0.191900E-05  0.912E-02    1.08       1.0  T
   3   -193.5282287  0.150379E-03  0.240E-02    1.08       1.0  T
   4   -193.5283828 -0.154059E-03  0.544E-03    1.08       1.7  T
   5   -193.5283878 -0.502801E-05  0.176E-03    1.08       5.4  T
   6   -193.5283878 -0.485765E-07  0.113E-03    1.08       8.4  T
   7   -193.5283879 -0.881663E-07  0.456E-04    1.08      20.8  T
   8   -193.5283879 -0.228405E-07  0.101E-04    1.08      94.2  T
     SCC iter.                  ...        0 min,  0.190 sec
     gradient                   ...        0 min,  0.142 sec
 * total energy  :  -190.2433874 Eh     change       -0.9269752E-02 Eh
   gradient norm :     0.0103490 Eh/α   predicted    -0.9168387E-02 (  -1.09%)
   displ. norm   :     0.9299447 α      lambda       -0.8796687E-02
   maximum displ.:     0.6411152 α      in ANC's #14, #12, #11, ...

........................................................................
.............................. CYCLE   28 ..............................
........................................................................
   1   -193.5488290 -0.193549E+03  0.152E-01    1.08       0.0  T
   2   -193.5488311 -0.208592E-05  0.895E-02    1.08       1.0  T
   3   -193.5487028  0.128255E-03  0.223E-02    1.08       1.0  T
   4   -193.5488343 -0.131451E-03  0.509E-03    1.08       1.9  T
   5   -193.5488387 -0.447426E-05  0.167E-03    1.08       5.7  T
   6   -193.5488388 -0.244057E-07  0.110E-03    1.08       8.6  T
   7   -193.5488389 -0.995557E-07  0.380E-04    1.08      24.9  T
   8   -193.5488389 -0.153804E-07  0.976E-05    1.08      97.2  T
     SCC iter.                  ...        0 min,  0.189 sec
     gradient                   ...        0 min,  0.143 sec
 * total energy  :  -190.2516950 Eh     change       -0.8307629E-02 Eh
   gradient norm :     0.0092116 Eh/α   predicted    -0.8202023E-02 (  -1.27%)
   displ. norm   :     0.9227277 α      lambda       -0.7810852E-02
   maximum displ.:     0.6467059 α      in ANC's #14, #12, #11, ...

........................................................................
.............................. CYCLE   29 ..............................
........................................................................
   1   -193.5678345 -0.193568E+03  0.150E-01    1.07       0.0  T
   2   -193.5678367 -0.223470E-05  0.887E-02    1.07       1.0  T
   3   -193.5677282  0.108483E-03  0.206E-02    1.07       1.0  T
   4   -193.5678394 -0.111132E-03  0.480E-03    1.07       2.0  T
   5   -193.5678434 -0.402972E-05  0.157E-03    1.07       6.0  T
   6   -193.5678434 -0.626946E-08  0.107E-03    1.07       8.9  T
   7   -193.5678435 -0.102975E-06  0.328E-04    1.07      29.0  T
   8   -193.5678435 -0.112358E-07  0.954E-05    1.07      99.5  T
     SCC iter.                  ...        0 min,  0.190 sec
     gradient                   ...        0 min,  0.143 sec
 * total energy  :  -190.2590308 Eh     change       -0.7335785E-02 Eh
   gradient norm :     0.0081747 Eh/α   predicted    -0.7230618E-02 (  -1.43%)
   displ. norm   :     0.9137780 α      lambda       -0.6842074E-02
   maximum displ.:     0.6512032 α      in ANC's #14, #12, #11, ...

........................................................................
.............................. CYCLE   30 ..............................
........................................................................
   1   -193.5853643 -0.193585E+03  0.150E-01    1.07       0.0  T
   2   -193.5853665 -0.221110E-05  0.883E-02    1.07       1.0  T
   3   -193.5852726  0.938687E-04  0.194E-02    1.07       1.0  T
   4   -193.5853689 -0.963132E-04  0.448E-03    1.07       2.1  T
   5   -193.5853724 -0.349214E-05  0.151E-03    1.07       6.3  T
   6   -193.5853724  0.495413E-08  0.103E-03    1.07       9.3  T
   7   -193.5853725 -0.101106E-06  0.292E-04    1.07      32.5  T
   8   -193.5853725 -0.894815E-08  0.929E-05    1.07     102.2  T
     SCC iter.                  ...        0 min,  0.190 sec
     gradient                   ...        0 min,  0.143 sec
 * total energy  :  -190.2654031 Eh     change       -0.6372287E-02 Eh
   gradient norm :     0.0072214 Eh/α   predicted    -0.6277572E-02 (  -1.49%)
   displ. norm   :     0.9023677 α      lambda       -0.5898891E-02
   maximum displ.:     0.6544303 α      in ANC's #14, #12, #11, ...

........................................................................
.............................. CYCLE   31 ..............................
........................................................................
   1   -193.6015391 -0.193602E+03  0.150E-01    1.06       0.0  T
   2   -193.6015414 -0.230485E-05  0.880E-02    1.06       1.0  T
   3   -193.6014588  0.826318E-04  0.184E-02    1.06       1.0  T
   4   -193.6015435 -0.846894E-04  0.435E-03    1.06       2.2  T
   5   -193.6015468 -0.332538E-05  0.144E-03    1.06       6.6  T
   6   -193.6015468  0.952309E-08  0.983E-04    1.06       9.7  T
   7   -193.6015469 -0.919451E-07  0.292E-04    1.06      32.5  T
     SCC iter.                  ...        0 min,  0.167 sec
     gradient                   ...        0 min,  0.143 sec
 * total energy  :  -190.2708249 Eh     change       -0.5421773E-02 Eh
   gradient norm :     0.0065133 Eh/α   predicted    -0.5351079E-02 (  -1.30%)
   displ. norm   :     0.8876405 α      lambda       -0.4994710E-02
   maximum displ.:     0.6549910 α      in ANC's #14, #12, #11, ...

........................................................................
.............................. CYCLE   32 ..............................
........................................................................
   1   -193.6164059 -0.193616E+03  0.148E-01    1.06       0.0  T
   2   -193.6164085 -0.254461E-05  0.872E-02    1.06       1.0  T
   3   -193.6163390  0.694952E-04  0.172E-02    1.06       1.0  T
   4   -193.6164099 -0.709247E-04  0.432E-03    1.06       2.2  T
   5   -193.6164133 -0.336402E-05  0.138E-03    1.06       6.9  T
   6   -193.6164132  0.857344E-08  0.925E-04    1.06      10.3  T
   7   -193.6164133 -0.747438E-07  0.295E-04    1.06      32.2  T
     SCC iter.                  ...        0 min,  0.167 sec
     gradient                   ...        0 min,  0.144 sec
 * total energy  :  -190.2753244 Eh     change       -0.4499566E-02 Eh
   gradient norm :     0.0060161 Eh/α   predicted    -0.4465033E-02 (  -0.77%)
   displ. norm   :     0.8658633 α      lambda       -0.4097315E-02
   maximum displ.:     0.6512755 α      in ANC's #14, #12, #11, ...

........................................................................
.............................. CYCLE   33 ..............................
........................................................................
   1   -193.6298789 -0.193630E+03  0.145E-01    1.05       0.0  T
   2   -193.6298816 -0.265696E-05  0.851E-02    1.05       1.0  T
   3   -193.6298218  0.597922E-04  0.162E-02    1.05       1.0  T
   4   -193.6298825 -0.607357E-04  0.427E-03    1.05       2.2  T
   5   -193.6298859 -0.337538E-05  0.131E-03    1.05       7.2  T
   6   -193.6298859  0.719112E-08  0.877E-04    1.05      10.8  T
   7   -193.6298860 -0.627994E-07  0.310E-04    1.05      30.6  T
     SCC iter.                  ...        0 min,  0.167 sec
     gradient                   ...        0 min,  0.144 sec
 * total energy  :  -190.2789475 Eh     change       -0.3623122E-02 Eh
   gradient norm :     0.0052713 Eh/α   predicted    -0.3584573E-02 (  -1.06%)
   displ. norm   :     0.8351404 α      lambda       -0.3188487E-02
   maximum displ.:     0.6422276 α      in ANC's #14, #12, #11, ...

........................................................................
.............................. CYCLE   34 ..............................
........................................................................
   1   -193.6419293 -0.193642E+03  0.138E-01    1.05       0.0  T
   2   -193.6419317 -0.244592E-05  0.811E-02    1.05       1.0  T
   3   -193.6418851  0.466846E-04  0.143E-02    1.05       1.0  T
   4   -193.6419326 -0.475938E-04  0.381E-03    1.05       2.5  T
   5   -193.6419353 -0.264130E-05  0.117E-03    1.05       8.1  T
   6   -193.6419353  0.143779E-07  0.802E-04    1.05      11.8  T
   7   -193.6419353 -0.560749E-07  0.263E-04    1.05      36.1  T
     SCC iter.                  ...        0 min,  0.167 sec
     gradient                   ...        0 min,  0.144 sec
 * total energy  :  -190.2817333 Eh     change       -0.2785793E-02 Eh
   gradient norm :     0.0044090 Eh/α   predicted    -0.2706163E-02 (  -2.86%)
   displ. norm   :     0.7903484 α      lambda       -0.2350543E-02
   maximum displ.:     0.6231407 α      in ANC's #14, #12, #11, ...

........................................................................
.............................. CYCLE   35 ..............................
........................................................................
   1   -193.6525623 -0.193653E+03  0.129E-01    1.04       0.0  T
   2   -193.6525646 -0.228481E-05  0.757E-02    1.04       1.0  T
   3   -193.6525320  0.325688E-04  0.120E-02    1.04       1.0  T
   4   -193.6525653 -0.332562E-04  0.336E-03    1.04       2.8  T
   5   -193.6525673 -0.205796E-05  0.103E-03    1.04       9.2  T
   6   -193.6525673  0.179695E-07  0.725E-04    1.04      13.1  T
   7   -193.6525674 -0.483039E-07  0.234E-04    1.04      40.6  T
     SCC iter.                  ...        0 min,  0.167 sec
     gradient                   ...        0 min,  0.144 sec
 * total energy  :  -190.2837444 Eh     change       -0.2011077E-02 Eh
   gradient norm :     0.0041702 Eh/α   predicted    -0.1909405E-02 (  -5.06%)
   displ. norm   :     0.7247309 α      lambda       -0.1638614E-02
   maximum displ.:     0.5867791 α      in ANC's #14, #12, #11, ...

........................................................................
.............................. CYCLE   36 ..............................
........................................................................
   1   -193.6612493 -0.193661E+03  0.117E-01    1.04       0.0  T
   2   -193.6612513 -0.200862E-05  0.683E-02    1.04       1.0  T
   3   -193.6612292  0.220953E-04  0.101E-02    1.04       1.0  T
   4   -193.6612519 -0.226644E-04  0.290E-03    1.04       3.3  T
   5   -193.6612534 -0.151505E-05  0.914E-04    1.04      10.4  T
   6   -193.6612534  0.151811E-07  0.639E-04    1.04      14.8  T
   7   -193.6612534 -0.391843E-07  0.202E-04    1.04      47.0  T
     SCC iter.                  ...        0 min,  0.165 sec
     gradient                   ...        0 min,  0.145 sec
 * total energy  :  -190.2850939 Eh     change       -0.1349507E-02 Eh
   gradient norm :     0.0046798 Eh/α   predicted    -0.1249636E-02 (  -7.40%)
   displ. norm   :     0.6392486 α      lambda       -0.1096457E-02
   maximum displ.:     0.5310798 α      in ANC's #14, #12, #84, ...

........................................................................
.............................. CYCLE   37 ..............................
........................................................................
   1   -193.6682089 -0.193668E+03  0.101E-01    1.03       0.0  T
   2   -193.6682107 -0.173922E-05  0.590E-02    1.04       1.0  T
   3   -193.6681973  0.134031E-04  0.837E-03    1.03       1.1  T
   4   -193.6682112 -0.139693E-04  0.234E-03    1.03       4.1  T
   5   -193.6682122 -0.950511E-06  0.808E-04    1.03      11.7  T
   6   -193.6682122  0.412442E-08  0.549E-04    1.03      17.3  T
     SCC iter.                  ...        0 min,  0.142 sec
     gradient                   ...        0 min,  0.145 sec
 * total energy  :  -190.2859434 Eh     change       -0.8494411E-03 Eh
   gradient norm :     0.0053546 Eh/α   predicted    -0.7722568E-03 (  -9.09%)
   displ. norm   :     0.5460086 α      lambda       -0.7283347E-03
   maximum displ.:     0.4620909 α      in ANC's #14, #12, #13, ...

........................................................................
.............................. CYCLE   38 ..............................
........................................................................
   1   -193.6731577 -0.193673E+03  0.835E-02    1.03       0.0  T
   2   -193.6731590 -0.127679E-05  0.488E-02    1.03       1.0  T
   3   -193.6731493  0.966541E-05  0.720E-03    1.03       1.3  T
   4   -193.6731596 -0.102238E-04  0.187E-03    1.03       5.1  T
   5   -193.6731601 -0.562051E-06  0.693E-04    1.03      13.7  T
   6   -193.6731601  0.106911E-08  0.461E-04    1.03      20.6  T
     SCC iter.                  ...        0 min,  0.142 sec
     gradient                   ...        0 min,  0.145 sec
 * total energy  :  -190.2864939 Eh     change       -0.5505568E-03 Eh
   gradient norm :     0.0041635 Eh/α   predicted    -0.4727397E-03 ( -14.13%)
   displ. norm   :     0.4855566 α      lambda       -0.5273396E-03
   maximum displ.:     0.4132257 α      in ANC's #14, #12, #11, ...

........................................................................
.............................. CYCLE   39 ..............................
........................................................................
   1   -193.6766674 -0.193677E+03  0.710E-02    1.03       0.0  T
   2   -193.6766686 -0.114603E-05  0.415E-02    1.03       1.0  T
   3   -193.6766647  0.386680E-05  0.514E-03    1.03       1.8  T
   4   -193.6766689 -0.415911E-05  0.153E-03    1.03       6.2  T
   5   -193.6766693 -0.378877E-06  0.612E-04    1.03      15.5  T
   6   -193.6766693 -0.208138E-07  0.343E-04    1.03      27.7  T
     SCC iter.                  ...        0 min,  0.143 sec
     gradient                   ...        0 min,  0.145 sec
 * total energy  :  -190.2869056 Eh     change       -0.4116723E-03 Eh
   gradient norm :     0.0039388 Eh/α   predicted    -0.3258340E-03 ( -20.85%)
   displ. norm   :     0.5376139 α      lambda       -0.5380650E-03
   maximum displ.:     0.4411622 α      in ANC's #14, #11, #4, ...

........................................................................
.............................. CYCLE   40 ..............................
........................................................................
   1   -193.6783604 -0.193678E+03  0.752E-02    1.03       0.0  T
   2   -193.6783617 -0.126832E-05  0.440E-02    1.03       1.0  T
   3   -193.6783584  0.326955E-05  0.494E-03    1.03       1.9  T
   4   -193.6783621 -0.370888E-05  0.142E-03    1.03       6.7  T
   5   -193.6783624 -0.282346E-06  0.628E-04    1.03      15.1  T
   6   -193.6783624 -0.161080E-07  0.352E-04    1.03      26.9  T
     SCC iter.                  ...        0 min,  0.144 sec
     gradient                   ...        0 min,  0.145 sec
 * total energy  :  -190.2873350 Eh     change       -0.4294046E-03 Eh
   gradient norm :     0.0035039 Eh/α   predicted    -0.3467952E-03 ( -19.24%)
   displ. norm   :     0.5607343 α      lambda       -0.5196114E-03
   maximum displ.:     0.4278398 α      in ANC's #14, #11, #4, ...

........................................................................
.............................. CYCLE   41 ..............................
........................................................................
   1   -193.6799106 -0.193680E+03  0.786E-02    1.02       0.0  T
   2   -193.6799118 -0.118202E-05  0.460E-02    1.02       1.0  T
   3   -193.6799023  0.951867E-05  0.696E-03    1.02       1.4  T
   4   -193.6799123 -0.999304E-05  0.185E-03    1.02       5.1  T
   5   -193.6799129 -0.571244E-06  0.638E-04    1.02      14.9  T
   6   -193.6799128  0.681771E-08  0.433E-04    1.02      21.9  T
     SCC iter.                  ...        0 min,  0.142 sec
     gradient                   ...        0 min,  0.145 sec
 * total energy  :  -190.2877494 Eh     change       -0.4143952E-03 Eh
   gradient norm :     0.0038321 Eh/α   predicted    -0.3415092E-03 ( -17.59%)
   displ. norm   :     0.5205343 α      lambda       -0.4741318E-03
   maximum displ.:     0.3448344 α      in ANC's #14, #11, #4, ...

........................................................................
.............................. CYCLE   42 ..............................
........................................................................
   1   -193.6783288 -0.193678E+03  0.760E-02    1.02       0.0  T
   2   -193.6783297 -0.940022E-06  0.446E-02    1.02       1.0  T
   3   -193.6783187  0.110452E-04  0.753E-03    1.02       1.3  T
   4   -193.6783302 -0.115108E-04  0.183E-03    1.02       5.2  T
   5   -193.6783307 -0.527681E-06  0.667E-04    1.02      14.2  T
   6   -193.6783307  0.119420E-07  0.522E-04    1.02      18.2  T
     SCC iter.                  ...        0 min,  0.142 sec
     gradient                   ...        0 min,  0.152 sec
 * total energy  :  -190.2881179 Eh     change       -0.3684889E-03 Eh
   gradient norm :     0.0040021 Eh/α   predicted    -0.3013025E-03 ( -18.23%)
   displ. norm   :     0.4684068 α      lambda       -0.3717943E-03
   maximum displ.:     0.2919263 α      in ANC's #11, #14, #12, ...
 * RMSD in coord.:     1.4514889 α      energy gain  -0.1242356E+00 Eh

generating ANC from model Hessian ...
Using Lindh-Hessian (1995)
 Shifting diagonal of input Hessian by    1.0133422606548528E-002
 Lowest  eigenvalues of input Hessian
    0.010000    0.010048    0.010105    0.010124    0.000000    0.000000
    0.000000    0.000000    0.000000    0.000000    0.010147    0.010165
    0.010353    0.010765    0.011033    0.011205    0.011222    0.011258
 Highest eigenvalues
    2.154226    2.154459    2.155345    2.160246    2.659635    2.671804


........................................................................
.............................. CYCLE   43 ..............................
........................................................................
   1   -193.6763257 -0.193676E+03  0.711E-02    1.02       0.0  T
   2   -193.6763261 -0.435485E-06  0.418E-02    1.02       1.0  T
   3   -193.6763079  0.181885E-04  0.886E-03    1.02       1.1  T
   4   -193.6763268 -0.189164E-04  0.178E-03    1.02       5.3  T
   5   -193.6763273 -0.464235E-06  0.632E-04    1.02      15.0  T
   6   -193.6763273  0.130013E-07  0.463E-04    1.02      20.5  T
     SCC iter.                  ...        0 min,  0.143 sec
     gradient                   ...        0 min,  0.145 sec
 * total energy  :  -190.2883975 Eh     change       -0.2796594E-03 Eh
   gradient norm :     0.0034891 Eh/α   predicted     0.0000000E+00 (-100.00%)
   displ. norm   :     0.0636057 α      lambda       -0.7063886E-04
   maximum displ.:     0.0371107 α      in ANC's #14, #10, #21, ...

........................................................................
.............................. CYCLE   44 ..............................
........................................................................
   1   -193.6752856 -0.193675E+03  0.153E-02    1.02       0.0  T
   2   -193.6752857 -0.654274E-07  0.908E-03    1.02       1.0  T
   3   -193.6752846  0.102990E-05  0.270E-03    1.02       3.5  T
   4   -193.6752857 -0.106867E-05  0.542E-04    1.02      17.5  T
   5   -193.6752857 -0.491497E-07  0.178E-04    1.02      53.2  T
   6   -193.6752857 -0.203659E-08  0.101E-04    1.02      93.7  T
     SCC iter.                  ...        0 min,  0.143 sec
     gradient                   ...        0 min,  0.145 sec
 * total energy  :  -190.2884577 Eh     change       -0.6011838E-04 Eh
   gradient norm :     0.0014562 Eh/α   predicted    -0.3566777E-04 ( -40.67%)
   displ. norm   :     0.3232581 α      lambda       -0.1634855E-03
   maximum displ.:     0.1831454 α      in ANC's #14, #10, #21, ...

........................................................................
.............................. CYCLE   45 ..............................
........................................................................
   1   -193.6710049 -0.193671E+03  0.718E-02    1.02       0.0  T
   2   -193.6710058 -0.867259E-06  0.424E-02    1.02       1.0  T
   3   -193.6709902  0.155330E-04  0.108E-02    1.02       1.0  T
   4   -193.6710064 -0.161821E-04  0.194E-03    1.02       4.9  T
   5   -193.6710070 -0.615675E-06  0.693E-04    1.02      13.7  T
   6   -193.6710071 -0.168811E-07  0.454E-04    1.02      20.9  T
     SCC iter.                  ...        0 min,  0.143 sec
     gradient                   ...        0 min,  0.144 sec
 * total energy  :  -190.2885916 Eh     change       -0.1339639E-03 Eh
   gradient norm :     0.0051711 Eh/α   predicted    -0.8554495E-04 ( -36.14%)
   displ. norm   :     0.0997589 α      lambda       -0.5671367E-04
   maximum displ.:     0.0535280 α      in ANC's #14, #10, #3, ...

........................................................................
.............................. CYCLE   46 ..............................
........................................................................
   1   -193.6709588 -0.193671E+03  0.178E-02    1.02       0.0  T
   2   -193.6709588 -0.197632E-07  0.106E-02    1.02       1.0  T
   3   -193.6709571  0.177124E-05  0.273E-03    1.02       3.5  T
   4   -193.6709589 -0.182653E-05  0.513E-04    1.02      18.5  T
   5   -193.6709589 -0.436591E-07  0.188E-04    1.02      50.5  T
   6   -193.6709589  0.678369E-09  0.127E-04    1.02      74.8  T
     SCC iter.                  ...        0 min,  0.143 sec
     gradient                   ...        0 min,  0.144 sec
 * total energy  :  -190.2886419 Eh     change       -0.5024645E-04 Eh
   gradient norm :     0.0037649 Eh/α   predicted    -0.2864116E-04 ( -43.00%)
   displ. norm   :     0.2431996 α      lambda       -0.1230914E-03
   maximum displ.:     0.1295563 α      in ANC's #10, #14, #3, ...

........................................................................
.............................. CYCLE   47 ..............................
........................................................................
   1   -193.6708937 -0.193671E+03  0.408E-02    1.02       0.0  T
   2   -193.6708939 -0.268454E-06  0.241E-02    1.02       1.0  T
   3   -193.6708894  0.456280E-05  0.465E-03    1.02       2.0  T
   4   -193.6708940 -0.463708E-05  0.128E-03    1.02       7.4  T
   5   -193.6708943 -0.293016E-06  0.393E-04    1.02      24.1  T
   6   -193.6708943  0.126192E-08  0.247E-04    1.02      38.5  T
     SCC iter.                  ...        0 min,  0.142 sec
     gradient                   ...        0 min,  0.145 sec
 * total energy  :  -190.2887280 Eh     change       -0.8617505E-04 Eh
   gradient norm :     0.0011345 Eh/α   predicted    -0.6518600E-04 ( -24.36%)
   displ. norm   :     0.2890062 α      lambda       -0.4960808E-04
   maximum displ.:     0.1594572 α      in ANC's #10, #14, #3, ...

........................................................................
.............................. CYCLE   48 ..............................
........................................................................
   1   -193.6698270 -0.193670E+03  0.438E-02    1.03       0.0  T
   2   -193.6698273 -0.299412E-06  0.257E-02    1.03       1.0  T
   3   -193.6698245  0.277748E-05  0.373E-03    1.03       2.5  T
   4   -193.6698273 -0.279086E-05  0.117E-03    1.03       8.1  T
   5   -193.6698275 -0.267355E-06  0.363E-04    1.03      26.1  T
   6   -193.6698275  0.163692E-08  0.219E-04    1.03      43.4  T
     SCC iter.                  ...        0 min,  0.144 sec
     gradient                   ...        0 min,  0.144 sec
 * total energy  :  -190.2887745 Eh     change       -0.4648364E-04 Eh
   gradient norm :     0.0028214 Eh/α   predicted    -0.2572545E-04 ( -44.66%)
   displ. norm   :     0.0950757 α      lambda       -0.2849435E-04
   maximum displ.:     0.0533120 α      in ANC's #10, #3, #1, ...

........................................................................
.............................. CYCLE   49 ..............................
........................................................................
   1   -193.6695724 -0.193670E+03  0.121E-02    1.03       0.0  T
   2   -193.6695724 -0.238069E-07  0.710E-03    1.03       1.3  T
   3   -193.6695720  0.335880E-06  0.127E-03    1.03       7.5  T
   4   -193.6695724 -0.346565E-06  0.308E-04    1.03      30.8  T
   5   -193.6695724 -0.179927E-07  0.998E-05    1.03      95.1  T
     SCC iter.                  ...        0 min,  0.120 sec
     gradient                   ...        0 min,  0.145 sec
 * total energy  :  -190.2888011 Eh     change       -0.2655828E-04 Eh
   gradient norm :     0.0022084 Eh/α   predicted    -0.1437772E-04 ( -45.86%)
   displ. norm   :     0.2604575 α      lambda       -0.9144429E-04
   maximum displ.:     0.1376343 α      in ANC's #10, #3, #1, ...

........................................................................
.............................. CYCLE   50 ..............................
........................................................................
   1   -193.6689897 -0.193669E+03  0.324E-02    1.03       0.0  T
   2   -193.6689899 -0.212960E-06  0.190E-02    1.03       1.0  T
   3   -193.6689885  0.146977E-05  0.285E-03    1.03       3.3  T
   4   -193.6689900 -0.157790E-05  0.700E-04    1.03      13.6  T
   5   -193.6689901 -0.741346E-07  0.273E-04    1.03      34.8  T
   6   -193.6689901 -0.661402E-09  0.154E-04    1.03      61.5  T
     SCC iter.                  ...        0 min,  0.142 sec
     gradient                   ...        0 min,  0.145 sec
 * total energy  :  -190.2888752 Eh     change       -0.7414964E-04 Eh
   gradient norm :     0.0011905 Eh/α   predicted    -0.4882420E-04 ( -34.15%)
   displ. norm   :     0.5421836 α      lambda       -0.8871694E-04
   maximum displ.:     0.2809209 α      in ANC's #10, #3, #1, ...

........................................................................
.............................. CYCLE   51 ..............................
........................................................................
   1   -193.6669565 -0.193667E+03  0.662E-02    1.03       0.0  T
   2   -193.6669573 -0.787881E-06  0.388E-02    1.03       1.0  T
   3   -193.6669550  0.230674E-05  0.388E-03    1.03       2.4  T
   4   -193.6669576 -0.262251E-05  0.115E-03    1.03       8.3  T
   5   -193.6669578 -0.176282E-06  0.523E-04    1.03      18.1  T
   6   -193.6669578 -0.636896E-08  0.277E-04    1.03      34.3  T
     SCC iter.                  ...        0 min,  0.142 sec
     gradient                   ...        0 min,  0.145 sec
 * total energy  :  -190.2889589 Eh     change       -0.8363278E-04 Eh
   gradient norm :     0.0035617 Eh/α   predicted    -0.5015740E-04 ( -40.03%)
   displ. norm   :     0.1886596 α      lambda       -0.3845839E-04
   maximum displ.:     0.0936501 α      in ANC's #10, #3, #1, ...

........................................................................
.............................. CYCLE   52 ..............................
........................................................................
   1   -193.6674095 -0.193667E+03  0.236E-02    1.03       0.0  T
   2   -193.6674095 -0.816671E-07  0.139E-02    1.03       1.0  T
   3   -193.6674090  0.502236E-06  0.157E-03    1.03       6.1  T
   4   -193.6674096 -0.531970E-06  0.441E-04    1.03      21.5  T
   5   -193.6674096 -0.327061E-07  0.175E-04    1.03      54.3  T
     SCC iter.                  ...        0 min,  0.119 sec
     gradient                   ...        0 min,  0.144 sec
 * total energy  :  -190.2889932 Eh     change       -0.3438529E-04 Eh
   gradient norm :     0.0028511 Eh/α   predicted    -0.1991499E-04 ( -42.08%)
   displ. norm   :     0.3172124 α      lambda       -0.7555410E-04
   maximum displ.:     0.1597992 α      in ANC's #3, #10, #1, ...

........................................................................
.............................. CYCLE   53 ..............................
........................................................................
   1   -193.6690614 -0.193669E+03  0.421E-02    1.03       0.0  T
   2   -193.6690617 -0.277150E-06  0.248E-02    1.03       1.0  T
   3   -193.6690599  0.182991E-05  0.320E-03    1.03       3.0  T
   4   -193.6690618 -0.193406E-05  0.854E-04    1.03      11.1  T
   5   -193.6690619 -0.117713E-06  0.300E-04    1.03      31.6  T
   6   -193.6690619 -0.809678E-09  0.156E-04    1.03      60.8  T
     SCC iter.                  ...        0 min,  0.142 sec
     gradient                   ...        0 min,  0.144 sec
 * total energy  :  -190.2890526 Eh     change       -0.5930706E-04 Eh
   gradient norm :     0.0010161 Eh/α   predicted    -0.4158354E-04 ( -29.88%)
   displ. norm   :     0.4938069 α      lambda       -0.5329059E-04
   maximum displ.:     0.2561622 α      in ANC's #3, #1, #10, ...

........................................................................
.............................. CYCLE   54 ..............................
........................................................................
   1   -193.6703548 -0.193670E+03  0.653E-02    1.03       0.0  T
   2   -193.6703554 -0.533002E-06  0.383E-02    1.03       1.0  T
   3   -193.6703523  0.309439E-05  0.387E-03    1.03       2.5  T
   4   -193.6703556 -0.329727E-05  0.116E-03    1.03       8.2  T
   5   -193.6703558 -0.208485E-06  0.470E-04    1.03      20.2  T
   6   -193.6703558  0.395909E-08  0.292E-04    1.03      32.5  T
     SCC iter.                  ...        0 min,  0.142 sec
     gradient                   ...        0 min,  0.145 sec
 * total energy  :  -190.2891053 Eh     change       -0.5269999E-04 Eh
   gradient norm :     0.0024141 Eh/α   predicted    -0.2953680E-04 ( -43.95%)
   displ. norm   :     0.1429368 α      lambda       -0.2360935E-04
   maximum displ.:     0.0795376 α      in ANC's #3, #2, #1, ...

........................................................................
.............................. CYCLE   55 ..............................
........................................................................
   1   -193.6711543 -0.193671E+03  0.187E-02    1.03       0.0  T
   2   -193.6711544 -0.385085E-07  0.109E-02    1.03       1.0  T
   3   -193.6711541  0.308850E-06  0.129E-03    1.03       7.4  T
   4   -193.6711544 -0.324354E-06  0.350E-04    1.03      27.1  T
   5   -193.6711544 -0.198849E-07  0.138E-04    1.03      68.7  T
     SCC iter.                  ...        0 min,  0.119 sec
     gradient                   ...        0 min,  0.144 sec
 * total energy  :  -190.2891273 Eh     change       -0.2205331E-04 Eh
   gradient norm :     0.0021663 Eh/α   predicted    -0.1205019E-04 ( -45.36%)
   displ. norm   :     0.1895768 α      lambda       -0.5079762E-04
   maximum displ.:     0.1090789 α      in ANC's #3, #2, #1, ...

........................................................................
.............................. CYCLE   56 ..............................
........................................................................
   1   -193.6727238 -0.193673E+03  0.264E-02    1.03       0.0  T
   2   -193.6727239 -0.104243E-06  0.155E-02    1.03       1.0  T
   3   -193.6727225  0.140376E-05  0.292E-03    1.03       3.3  T
   4   -193.6727240 -0.145496E-05  0.661E-04    1.03      14.4  T
   5   -193.6727240 -0.783945E-07  0.225E-04    1.03      42.1  T
   6   -193.6727240  0.887781E-09  0.154E-04    1.03      61.8  T
     SCC iter.                  ...        0 min,  0.144 sec
     gradient                   ...        0 min,  0.144 sec
 * total energy  :  -190.2891711 Eh     change       -0.4379561E-04 Eh
   gradient norm :     0.0012463 Eh/α   predicted    -0.2631350E-04 ( -39.92%)
[...]
eigval :     3146.62  3151.38  3151.52  3151.63  3151.73  3151.78
eigval :     3152.00  3152.41  3152.52  3159.94  3159.98  3160.82
eigval :     3161.01  3166.51  3166.83  3167.33  3167.60  3167.94
eigval :     3168.30  3169.38  3169.59
 reduced masses (amu)
   1: 19.82   2: 19.67   3: 18.95   4: 19.43   5: 20.52   6: 16.42   7: 18.55   8: 16.13
   9: 11.25  10: 11.55  11: 11.53  12: 11.27  13: 15.19  14: 14.46  15: 10.97  16: 11.06
  17: 13.62  18: 12.16  19: 14.91  20: 18.76  21: 25.20  22: 23.05  23: 32.72  24: 28.37
  25: 24.28  26: 16.24  27: 26.21  28: 11.24  29: 10.72  30: 10.72  31: 11.26  32: 11.06
  33: 11.31  34: 26.83  35: 27.47  36: 27.27  37: 12.36  38: 12.27  39: 12.08  40: 13.15
  41: 22.89  42: 41.39  43: 50.26  44: 15.78  45: 53.18  46: 44.69  47: 46.36  48: 49.65
  49: 16.45  50: 15.03  51: 12.61  52: 13.61  53: 13.87  54: 12.38  55: 12.57  56: 17.39
  57: 12.10  58: 10.48  59: 10.47  60: 10.50  61: 11.43  62: 12.27  63: 11.79  64: 12.68
  65: 11.74  66: 11.97  67: 11.89  68: 11.09  69: 11.94  70: 12.05  71: 12.06  72: 11.21
  73: 11.70  74: 11.18  75: 11.59  76: 11.28  77: 12.28  78: 12.82  79: 12.73  80: 12.67
  81: 11.91  82: 11.76  83: 11.74  84:  9.90  85:  9.89  86:  9.86  87: 11.48  88: 10.29
  89: 10.23  90: 10.28  91: 10.33  92:  9.88  93:  9.88  94: 11.96  95: 11.87  96: 11.87
  97: 11.81  98: 11.48  99: 11.66 100: 11.50 101: 11.66 102: 11.79 103: 11.60 104: 10.92
 105: 11.10 106: 11.09 107: 11.22 108: 10.86 109: 10.84 110: 10.79 111: 10.79 112: 11.13
 113: 11.19 114: 11.19 115: 11.19 116: 10.90 117: 10.90 118: 11.23 119: 11.25 120: 11.21
 121: 11.22 122: 11.23 123: 11.23 124: 11.31 125: 11.47 126: 11.31 127: 11.43 128: 11.11
 129: 11.11 130: 10.85 131: 10.85 132: 11.12 133: 11.18 134: 11.16 135: 11.22 136: 11.25
 137: 11.23 138: 11.31 139: 11.19 140: 11.37 141: 11.37 142: 11.04 143: 11.03 144: 11.78
 145: 11.69 146:  3.85 147:  3.85 148:  8.27 149: 11.51 150:  7.04 151:  3.98 152:  3.95
 153:  3.86 154:  4.16 155:  4.19 156:  4.38 157:  4.33 158:  4.35 159:  4.26 160:  3.87
 161:  3.88 162:  3.87 163:  3.89 164:  3.94 165:  3.88 166:  4.09 167:  4.16 168:  3.40
 169:  3.58 170:  3.52 171:  3.60 172:  3.62 173:  3.63 174:  3.62 175:  3.64 176:  3.46
 177:  3.48 178:  3.41 179:  3.43 180: 11.11 181: 11.19 182: 11.43 183: 11.52 184: 11.91
 185: 11.90 186: 11.56 187: 11.63 188: 11.56 189: 11.64 190: 11.14 191:  7.29 192: 10.87
 193:  7.34 194:  7.33 195:  9.51 196:  9.07 197:  9.15 198:  8.97 199:  9.03 200:  9.04
 201: 10.85 202: 10.64 203: 11.38 204:  2.44 205:  2.34 206:  2.13 207:  2.13 208:  1.98
 209:  2.00 210:  2.00 211:  2.14 212:  1.85 213:  1.98 214:  2.08 215:  2.22 216:  8.71
 217:  8.64 218:  5.51 219:  5.66 220:  5.60 221:  5.61 222:  6.45 223:  6.34 224:  6.78
 225:  7.09 226:  7.09 227:  8.01 228:  8.49 229:  8.62 230:  8.74 231:  8.74 232:  8.66
 233:  8.70 234:  8.69 235:  9.64 236:  9.62 237:  9.55 238: 11.19 239: 11.29 240: 10.98
 241: 10.03 242: 10.00 243: 10.91 244: 11.04 245: 11.33 246: 11.26 247: 12.44 248: 11.84
 249: 11.57 250: 11.66 251:  9.59 252:  9.59 253: 12.10 254: 11.48 255:  8.84 256: 12.08
 257: 10.96 258: 10.88 259:  9.49 260:  9.05 261:  9.06 262: 10.26 263: 10.51 264: 11.45
 265: 11.53 266: 11.56 267: 11.48 268: 11.48 269: 11.47 270: 11.65 271: 11.77 272: 11.82
 273: 11.77 274: 11.76 275: 11.76 276: 11.56 277: 11.50 278: 11.49 279: 11.67 280: 11.85
 281: 11.72 282: 11.82 283: 11.89 284: 11.77 285: 11.83 286: 11.66 287: 11.66 288: 11.53
 289: 11.62 290: 11.62 291: 11.63 292: 11.55 293: 11.56 294: 11.58 295: 11.58 296: 11.62
 297: 11.77 298: 11.77 299: 11.77 300: 12.01 301: 12.01 302:  1.81 303:  1.81 304:  1.81
 305:  1.81 306:  1.81 307:  1.81 308:  1.81 309:  1.81 310:  1.81 311:  1.81 312:  1.81
 313:  1.81 314:  1.82 315:  1.82 316:  1.82 317:  1.82 318:  1.82 319:  1.82 320:  1.82
 321:  1.82 322:  1.97 323:  1.97 324:  1.97 325:  1.97 326:  1.96 327:  1.96 328:  1.96
 329:  1.96 330:  1.96 331:  1.96 332:  1.95 333:  1.95
 IR intensities (km·mol⁻¹)
   1:  5.97   2:  0.93   3:  2.56   4:  7.83   5:  1.36   6:  1.61   7:  0.02   8:  2.06
   9:  0.16  10:  0.55  11:  1.67  12:  1.52  13:  4.52  14:  4.14  15:  0.88  16:  9.03
  17:  0.57  18:  1.85  19:  1.46  20:  0.04  21:  1.31  22:  1.33  23:  1.20  24:  1.01
  25:  0.11  26:  0.19  27:  4.61  28:  4.38  29:  0.12  30:  0.22  31:  4.18  32:  1.35
  33:  0.19  34: 61.20  35:  4.40  36:  2.11  37:  1.21  38:  2.20  39:  0.14  40:  0.00
  41:  0.92  42:  0.14  43: 28.95  44:  0.06  45:  5.05  46:  1.62  47:  0.29  48:  2.90
  49:  2.93  50:  1.82  51:  5.27  52:  0.10  53:  0.04  54:  0.05  55: 20.54  56:  3.16
  57:  6.36  58:  0.33  59: 13.13  60:  0.96  61:  8.65  62:  0.00  63:  0.97  64: 10.88
  65:  3.49  66:  1.83  67:  2.42  68: 40.11  69:  0.88  70:  2.65  71:  0.02  72:  3.84
  73: 13.17  74:  0.58  75:  6.96  76: 29.14  77:  6.02  78:  7.44  79:  0.27  80: 13.84
  81:  0.08  82:  2.53  83: 12.06  84:  0.13  85:  0.27  86:  0.05  87:  3.98  88:  3.24
  89:  0.04  90:  0.14  91:  0.01  92: 32.34  93:  1.96  94:  0.22  95:  0.45  96:  0.07
  97:  0.41  98:  2.47  99:  0.15 100: 14.71 101:  0.11 102:  0.02 103: 29.07 104:  9.27
 105:  1.87 106:  0.32 107:  0.75 108:  0.89 109:  3.07 110:  3.50 111:  0.99 112:  0.25
 113:  0.00 114:  0.87 115:  1.67 116:  0.06 117: 12.74 118: 11.94 119:  0.51 120:  0.01
 121:  0.07 122: 23.58 123: 22.94 124:  4.92 125:  0.55 126: 11.20 127:  0.60 128: 10.95
 129:  8.27 130:  1.68 131:  1.41 132:  1.85 133:  0.42 134:  1.45 135:  0.00 136:  1.25
 137:  0.30 138:  0.11 139:  0.00 140:  7.52 141:  1.86 142:  0.01 143:  0.03 144:  0.20
 145:  0.47 146: 27.39 147: 11.81 148:  7.13 149: 29.67 150: 17.36 151:  0.03 152:  0.05
 153:  7.93 154:  7.29 155:  5.56 156:  0.50 157: 15.79 158: 31.61 159:  0.08 160:  5.83
 161:  0.13 162: 12.63 163:  0.28 164: 62.77 165: 11.30 166:219.08 167: 10.92 168:  0.10
 169: 15.88 170: 11.30 171:  0.31 172: 14.45 173:  5.83 174:  0.15 175:  6.26 176:  0.01
 177:  0.63 178:  3.37 179:  2.26 180:  3.19 181:  0.03 182: 18.93 183:  0.05 184: 24.99
 185: 51.50 186: 24.72 187: 17.99 188:  0.05 189: 31.80 190:  1.40 191:  1.21 192:  0.02
 193:  1.20 194:  0.16 195:  4.90 196: 27.60 197: 11.50 198:  0.04 199:  0.03 200: 67.46
 201:  7.65 202: 24.16 203:  0.03 204:  0.56 205:  0.14 206:  0.21 207:  0.03 208:  0.58
 209:  1.22 210: 50.11 211:  0.06 212:  0.81 213: 14.01 214: 12.49 215:  0.01 216:  1.57
 217:  0.03 218: 40.21 219:  0.08 220:  7.22 221:  1.45 222: 20.97 223:  0.08 224:  0.04
 225:  0.92 226:  0.51 227:  5.68 228:  0.00 229:  3.09 230:  0.14 231:  0.19 232: 83.02
 233:  6.29 234: 29.75 235:  0.01 236: 11.53 237:  3.06 238:345.20 239:  7.04 240:  0.03
 241:  2.33 242:  2.72 243:  9.48 244:  0.41 245: 10.30 246:  2.00 247: 21.93 248:  0.00
 249:  9.10 250:  0.63 251:  4.62 252:  4.09 253:  0.03 254: 73.88 255:  0.10 256:  0.01
 257:  9.92 258:  0.01 259:  1.44 260:  2.06 261:  1.46 262:  0.53 263:104.34 264:  0.53
 265:  7.70 266:  0.28 267:  4.79 268: 31.21 269: 47.54 270:  0.14 271:  1.59 272:  0.01
 273:  0.01 274: 38.76 275:  0.02 276:  0.30 277:  3.19 278:  1.28 279:  0.39 280:  0.12
 281: 25.78 282:  1.25 283:  4.48 284:  0.17 285: 41.37 286:103.28 287: 41.26 288:101.64
 289:  0.01 290: 18.67 291:  0.04 292: 22.85 293: 15.50 294:345.32 295:  0.09 296:114.51
 297:  0.29 298:  3.41 299:  1.33 300:  0.00 301:  1.60 302:  1.31 303:  3.17 304:  8.38
 305:  0.97 306:  3.31 307:  0.82 308: 37.23 309:  0.80 310: 25.14 311: 24.40 312: 20.28
 313: 22.40 314: 91.36 315:121.95 316:  3.92 317: 10.15 318:  7.97 319:  8.13 320: 76.06
 321: 28.33 322:154.40 323:227.62 324:553.21 325:  3.36 326: 52.95 327:216.68 328: 15.08
 329: 16.88 330: 25.61 331: 26.68 332: 44.59 333:105.31
 Raman intensities (amu)
   1:  0.00   2:  0.00   3:  0.00   4:  0.00   5:  0.00   6:  0.00   7:  0.00   8:  0.00
   9:  0.00  10:  0.00  11:  0.00  12:  0.00  13:  0.00  14:  0.00  15:  0.00  16:  0.00
  17:  0.00  18:  0.00  19:  0.00  20:  0.00  21:  0.00  22:  0.00  23:  0.00  24:  0.00
  25:  0.00  26:  0.00  27:  0.00  28:  0.00  29:  0.00  30:  0.00  31:  0.00  32:  0.00
  33:  0.00  34:  0.00  35:  0.00  36:  0.00  37:  0.00  38:  0.00  39:  0.00  40:  0.00
  41:  0.00  42:  0.00  43:  0.00  44:  0.00  45:  0.00  46:  0.00  47:  0.00  48:  0.00
  49:  0.00  50:  0.00  51:  0.00  52:  0.00  53:  0.00  54:  0.00  55:  0.00  56:  0.00
  57:  0.00  58:  0.00  59:  0.00  60:  0.00  61:  0.00  62:  0.00  63:  0.00  64:  0.00
  65:  0.00  66:  0.00  67:  0.00  68:  0.00  69:  0.00  70:  0.00  71:  0.00  72:  0.00
  73:  0.00  74:  0.00  75:  0.00  76:  0.00  77:  0.00  78:  0.00  79:  0.00  80:  0.00
  81:  0.00  82:  0.00  83:  0.00  84:  0.00  85:  0.00  86:  0.00  87:  0.00  88:  0.00
  89:  0.00  90:  0.00  91:  0.00  92:  0.00  93:  0.00  94:  0.00  95:  0.00  96:  0.00
  97:  0.00  98:  0.00  99:  0.00 100:  0.00 101:  0.00 102:  0.00 103:  0.00 104:  0.00
 105:  0.00 106:  0.00 107:  0.00 108:  0.00 109:  0.00 110:  0.00 111:  0.00 112:  0.00
 113:  0.00 114:  0.00 115:  0.00 116:  0.00 117:  0.00 118:  0.00 119:  0.00 120:  0.00
 121:  0.00 122:  0.00 123:  0.00 124:  0.00 125:  0.00 126:  0.00 127:  0.00 128:  0.00
 129:  0.00 130:  0.00 131:  0.00 132:  0.00 133:  0.00 134:  0.00 135:  0.00 136:  0.00
 137:  0.00 138:  0.00 139:  0.00 140:  0.00 141:  0.00 142:  0.00 143:  0.00 144:  0.00
Refinement of some symmetry elements was terminated before convergence was reached.
Some symmetry elements may remain unidentified.
Molecule has the following symmetry elements: (C2) 
It seems to be the C2 point group
 145:  0.00 146:  0.00 147:  0.00 148:  0.00 149:  0.00 150:  0.00 151:  0.00 152:  0.00
 153:  0.00 154:  0.00 155:  0.00 156:  0.00 157:  0.00 158:  0.00 159:  0.00 160:  0.00
 161:  0.00 162:  0.00 163:  0.00 164:  0.00 165:  0.00 166:  0.00 167:  0.00 168:  0.00
 169:  0.00 170:  0.00 171:  0.00 172:  0.00 173:  0.00 174:  0.00 175:  0.00 176:  0.00
 177:  0.00 178:  0.00 179:  0.00 180:  0.00 181:  0.00 182:  0.00 183:  0.00 184:  0.00
 185:  0.00 186:  0.00 187:  0.00 188:  0.00 189:  0.00 190:  0.00 191:  0.00 192:  0.00
 193:  0.00 194:  0.00 195:  0.00 196:  0.00 197:  0.00 198:  0.00 199:  0.00 200:  0.00
 201:  0.00 202:  0.00 203:  0.00 204:  0.00 205:  0.00 206:  0.00 207:  0.00 208:  0.00
 209:  0.00 210:  0.00 211:  0.00 212:  0.00 213:  0.00 214:  0.00 215:  0.00 216:  0.00
 217:  0.00 218:  0.00 219:  0.00 220:  0.00 221:  0.00 222:  0.00 223:  0.00 224:  0.00
 225:  0.00 226:  0.00 227:  0.00 228:  0.00 229:  0.00 230:  0.00 231:  0.00 232:  0.00
 233:  0.00 234:  0.00 235:  0.00 236:  0.00 237:  0.00 238:  0.00 239:  0.00 240:  0.00
 241:  0.00 242:  0.00 243:  0.00 244:  0.00 245:  0.00 246:  0.00 247:  0.00 248:  0.00
 249:  0.00 250:  0.00 251:  0.00 252:  0.00 253:  0.00 254:  0.00 255:  0.00 256:  0.00
 257:  0.00 258:  0.00 259:  0.00 260:  0.00 261:  0.00 262:  0.00 263:  0.00 264:  0.00
 265:  0.00 266:  0.00 267:  0.00 268:  0.00 269:  0.00 270:  0.00 271:  0.00 272:  0.00
 273:  0.00 274:  0.00 275:  0.00 276:  0.00 277:  0.00 278:  0.00 279:  0.00 280:  0.00
 281:  0.00 282:  0.00 283:  0.00 284:  0.00 285:  0.00 286:  0.00 287:  0.00 288:  0.00
 289:  0.00 290:  0.00 291:  0.00 292:  0.00 293:  0.00 294:  0.00 295:  0.00 296:  0.00
 297:  0.00 298:  0.00 299:  0.00 300:  0.00 301:  0.00 302:  0.00 303:  0.00 304:  0.00
 305:  0.00 306:  0.00 307:  0.00 308:  0.00 309:  0.00 310:  0.00 311:  0.00 312:  0.00
 313:  0.00 314:  0.00 315:  0.00 316:  0.00 317:  0.00 318:  0.00 319:  0.00 320:  0.00
 321:  0.00 322:  0.00 323:  0.00 324:  0.00 325:  0.00 326:  0.00 327:  0.00 328:  0.00
 329:  0.00 330:  0.00 331:  0.00 332:  0.00 333:  0.00
 output can be read by thermo (or use thermo option).
 writing <g98.out> molden fake output.
 recommended (thermochemical) frequency scaling factor: 1.0
           -------------------------------------------------
          |             Thermodynamic Functions             |
           -------------------------------------------------

c2  symmetry found (for desy threshold:  0.10E+00) used in thermo

          ...................................................
          :                      SETUP                      :
          :.................................................:
          :  # frequencies                         327      :
          :  # imaginary freq.                       0      :
          :  linear?                             false      :
          :  only rotor calc.                    false      :
          :  symmetry                               c2      :
          :  rotational number                       2      :
          :  scaling factor                  1.0000000      :
          :  rotor cutoff                   50.0000000 cm⁻¹ :
          :  imag. cutoff                  -20.0000000 cm⁻¹ :
          :.................................................:

    mode    ω/cm⁻¹     T·S(HO)/kcal·mol⁻¹    T·S(FR)/kcal·mol⁻¹   T·S(vib)
   ------------------------------------------------------------------------
       1      3.55    -3.00164 (  0.00%)    -1.83991 (100.00%)    -1.83994
       2      6.46    -2.64704 (  0.03%)    -1.66262 ( 99.97%)    -1.66289
       3      8.04    -2.51738 (  0.07%)    -1.59778 ( 99.93%)    -1.59839
       4     12.45    -2.25850 (  0.38%)    -1.46832 ( 99.62%)    -1.47135
       5     12.86    -2.23935 (  0.44%)    -1.45874 ( 99.56%)    -1.46214
       6     15.18    -2.14141 (  0.84%)    -1.40975 ( 99.16%)    -1.41591
       7     28.05    -1.77777 (  9.01%)    -1.22777 ( 90.99%)    -1.27735
       8     35.45    -1.63929 ( 20.18%)    -1.15840 ( 79.82%)    -1.25543
       9     40.52    -1.56030 ( 30.14%)    -1.11879 ( 69.86%)    -1.25188
      10     44.83    -1.50067 ( 39.26%)    -1.08888 ( 60.74%)    -1.25054
      11     48.77    -1.45105 ( 47.50%)    -1.06396 ( 52.50%)    -1.24783
      12     49.24    -1.44530 ( 48.47%)    -1.06107 ( 51.53%)    -1.24732
      13     53.14    -1.40039 ( 56.06%)    -1.03850 ( 43.94%)    -1.24139
      14     56.79    -1.36131 ( 62.46%)    -1.01885 ( 37.54%)    -1.23275
      15     68.84    -1.24814 ( 78.23%)    -0.96183 ( 21.77%)    -1.18580
      16     70.16    -1.23697 ( 79.50%)    -0.95619 ( 20.50%)    -1.17940
      17     72.25    -1.21979 ( 81.34%)    -0.94752 ( 18.66%)    -1.16898
      18     75.83    -1.19141 ( 84.10%)    -0.93317 ( 15.90%)    -1.15035
      19     81.25    -1.15101 ( 87.46%)    -0.91273 ( 12.54%)    -1.12112
      20     99.70    -1.03163 ( 94.05%)    -0.85209 (  5.95%)    -1.02095
      21    104.98    -1.00166 ( 95.11%)    -0.83680 (  4.89%)    -0.99360
      22    120.11    -0.92387 ( 97.08%)    -0.79694 (  2.92%)    -0.92017
      23    126.03    -0.89615 ( 97.58%)    -0.78267 (  2.42%)    -0.89341
      24    130.13    -0.87779 ( 97.87%)    -0.77319 (  2.13%)    -0.87556
      25    133.22    -0.86433 ( 98.05%)    -0.76623 (  1.95%)    -0.86242
      26    133.99    -0.86106 ( 98.10%)    -0.76454 (  1.90%)    -0.85922
      27    140.98    -0.83199 ( 98.44%)    -0.74946 (  1.56%)    -0.83070
      28    165.86    -0.73997 ( 99.18%)    -0.70132 (  0.82%)    -0.73965
      29    167.24    -0.73532 ( 99.21%)    -0.69887 (  0.79%)    -0.73503
      30    168.39    -0.73148 ( 99.23%)    -0.69684 (  0.77%)    -0.73121
      31    181.25    -0.69037 ( 99.42%)    -0.67503 (  0.58%)    -0.69028
      32    181.41    -0.68988 ( 99.43%)    -0.67477 (  0.57%)    -0.68979
      33    182.33    -0.68707 ( 99.44%)    -0.67328 (  0.56%)    -0.68699
      34    183.70    -0.68290 ( 99.45%)    -0.67105 (  0.55%)    -0.68283
      35    193.48    -0.65422 ( 99.56%)    -0.65570 (  0.44%)    -0.65423
      36    193.71    -0.65355 ( 99.56%)    -0.65534 (  0.44%)    -0.65356
      37    195.03    -0.64982 ( 99.57%)    -0.65333 (  0.43%)    -0.64983
      38    197.22    -0.64367 ( 99.59%)    -0.65002 (  0.41%)    -0.64370
      39    197.72    -0.64228 ( 99.59%)    -0.64927 (  0.41%)    -0.64231
      40    198.19    -0.64097 ( 99.60%)    -0.64856 (  0.40%)    -0.64100
      41    198.39    -0.64043 ( 99.60%)    -0.64827 (  0.40%)    -0.64046
      42    198.81    -0.63925 ( 99.60%)    -0.64764 (  0.40%)    -0.63928
      43    199.45    -0.63748 ( 99.61%)    -0.64668 (  0.39%)    -0.63752
      44    199.77    -0.63662 ( 99.61%)    -0.64621 (  0.39%)    -0.63665
      45    202.64    -0.62880 ( 99.63%)    -0.64199 (  0.37%)    -0.62885
      46    202.98    -0.62788 ( 99.63%)    -0.64149 (  0.37%)    -0.62793
      47    203.36    -0.62685 ( 99.64%)    -0.64093 (  0.36%)    -0.62690
      48    204.36    -0.62416 ( 99.64%)    -0.63948 (  0.36%)    -0.62422
      49    220.14    -0.58377 ( 99.73%)    -0.61745 (  0.27%)    -0.58385
      50    232.94    -0.55341 ( 99.79%)    -0.60070 (  0.21%)    -0.55351
      51    242.73    -0.53154 ( 99.82%)    -0.58851 (  0.18%)    -0.53164
      52    262.36    -0.49077 ( 99.87%)    -0.56548 (  0.13%)    -0.49087
      53    263.86    -0.48781 ( 99.87%)    -0.56379 (  0.13%)    -0.48791
      54    265.23    -0.48511 ( 99.87%)    -0.56224 (  0.13%)    -0.48521
      55    269.11    -0.47760 ( 99.88%)    -0.55794 (  0.12%)    -0.47770
      56    270.55    -0.47486 ( 99.88%)    -0.55637 (  0.12%)    -0.47496
   ------------------------------------------------------------------------

   temp. (K)  partition function   enthalpy   heat capacity  entropy
                                   cal/mol     cal/K/mol   cal/K/mol   J/K/mol
 298.15  VIB  0.243E+30            37462.810    244.670    234.090
         ROT  0.281E+09              888.752      2.981     41.640
         INT  0.682E+38            38351.563    247.651    275.731
         TR   0.385E+29             1481.254      4.968     47.016
         TOT                       39832.8168   252.6191   322.7464  1350.3710

       T/K    H(0)-H(T)+PV         H(T)/Eh          T*S/Eh         G(T)/Eh
   ------------------------------------------------------------------------
    298.15    0.634776E-01    0.836769E+00    0.153347E+00    0.683422E+00
   ------------------------------------------------------------------------

         :::::::::::::::::::::::::::::::::::::::::::::::::::::
         ::                  THERMODYNAMIC                  ::
         :::::::::::::::::::::::::::::::::::::::::::::::::::::
         :: total free energy        -189.608398276943 Eh   ::
         ::.................................................::
         :: total energy             -190.291820373716 Eh   ::
         :: zero point energy           0.773291694269 Eh   ::
         :: G(RRHO) w/o ZPVE           -0.089869597496 Eh   ::
         :: G(RRHO) contrib.            0.683422096773 Eh   ::
         :::::::::::::::::::::::::::::::::::::::::::::::::::::

optimized geometry written to: xtbopt.xyz


           -------------------------------------------------
          | TOTAL ENERGY             -190.291820373716 Eh   |
          | TOTAL ENTHALPY           -189.455051045423 Eh   |
          | TOTAL FREE ENERGY        -189.608398276943 Eh   |
          | GRADIENT NORM               0.000328399950 Eh/α |
          | HOMO-LUMO GAP               1.071401066586 eV   |
           -------------------------------------------------

------------------------------------------------------------------------
 * finished run on 2021/11/18 at 18:41:55.739     
------------------------------------------------------------------------
 total:
 * wall-time:     0 d,  0 h,  4 min, 45.500 sec
 *  cpu-time:     0 d,  0 h,  4 min, 45.494 sec
 * ratio c/w:     1.000 speedup
 SCF:
 * wall-time:     0 d,  0 h,  0 min,  0.872 sec
 *  cpu-time:     0 d,  0 h,  0 min,  0.872 sec
 * ratio c/w:     1.000 speedup
 ANC optimizer:
 * wall-time:     0 d,  0 h,  0 min, 40.381 sec
 *  cpu-time:     0 d,  0 h,  0 min, 40.372 sec
 * ratio c/w:     1.000 speedup
 analytical hessian:
 * wall-time:     0 d,  0 h,  3 min, 22.646 sec
 *  cpu-time:     0 d,  0 h,  3 min, 22.648 sec
 * ratio c/w:     1.000 speedup

