111
 energy: -189.358702402779 gnorm: 0.603251592703 xtb: 6.4.1 (bd6e46d)
Zn       15.83846300000000    0.03559800000000   -0.00993100000000
C        18.16745400000000   -3.11119500000000    1.31275700000000
C        19.08356100000000   -2.16698800000000    1.26247500000000
C        18.67238100000000   -1.11308400000000    0.34118300000000
C        19.29125200000000    0.01126200000000   -0.00522600000000
C        18.58721000000000    1.23121100000000   -0.36933200000000
C        18.91532000000000    2.19126500000000   -1.21680500000000
C        17.88054000000000    3.20755100000000   -1.23370300000000
C        16.94427200000000    2.83108900000000   -0.38681100000000
N        17.34626300000000    1.59807800000000    0.17700600000000
C        15.68319800000000    3.47608800000000   -0.00766000000000
C        14.58798100000000    2.84130600000000    0.34310000000000
C        13.51435500000000    3.15926200000000    1.31212900000000
C        12.67679200000000    2.16250800000000    1.23496200000000
C        13.11509000000000    1.15882500000000    0.25451000000000
N        14.22002800000000    1.59767800000000   -0.22978200000000
C        12.50425500000000   -0.09444600000000   -0.15903800000000
C        13.16841600000000   -1.19895300000000   -0.41346200000000
C        12.79456700000000   -2.26189400000000   -1.37099000000000
C        13.74331400000000   -3.15565000000000   -1.28197000000000
C        14.72903800000000   -2.71820000000000   -0.29909300000000
N        14.37599200000000   -1.57239500000000    0.19770500000000
C        15.95992600000000   -3.37427100000000    0.14662900000000
C        17.08296700000000   -2.72840900000000    0.41375000000000
N        17.41156700000000   -1.48096800000000   -0.18465400000000
H        18.22771500000000   -4.02097600000000    1.93030400000000
H        19.99988800000000   -2.20693700000000    1.84052400000000
H        19.84268500000000    2.20806100000000   -1.81794900000000
H        17.89743900000000    4.11223900000000   -1.84632500000000
H        15.63547500000000    4.57089100000000   -0.01143700000000
H        13.46153400000000    4.03798700000000    1.93712100000000
H        11.76516200000000    2.12683800000000    1.85228600000000
H        11.40600500000000   -0.09153500000000   -0.25830800000000
H        11.92571100000000   -2.31435900000000   -2.01994000000000
H        13.74046800000000   -4.07195800000000   -1.88073000000000
H        15.92444400000000   -4.47007200000000    0.25855300000000
Zn       40.00276500000000   -0.01177800000000   -0.01436400000000
C        37.67377400000000    2.83501400000000    1.86914000000000
C        36.75766600000000    1.91652400000000    1.64456700000000
C        37.16884600000001    1.05182800000000    0.54375300000000
C        36.54997500000001    0.01126200000000   -0.00522600000000
C        37.25401800000000   -1.11996200000000   -0.58932900000000
C        36.92590700000001   -1.90613400000000   -1.60019600000000
C        37.96068700000000   -2.90164300000000   -1.80533600000000
C        38.89695500000000   -2.68882700000000   -0.90330600000000
N        38.49496500000000   -1.58181500000000   -0.12053500000000
C        40.15802900000000   -3.39296800000000   -0.65039300000000
C        41.25324700000001   -2.83427500000000   -0.18796000000000
C        42.32687200000000   -3.32648100000000    0.70526200000000
C        43.16443500000000   -2.33271400000000    0.81434700000000
C        42.72613700000000   -1.16456500000000    0.03711200000000
N        41.62119900000000   -1.50595700000000   -0.52018700000000
C        43.33697200000000    0.14367000000000   -0.13675700000000
C        42.67281200000000    1.27620400000000   -0.18186400000000
C        43.04666000000001    2.49832900000000   -0.92557900000000
C        42.09791300000000    3.36005700000000   -0.67230000000000
C        41.11218900000000    2.74786200000000    0.21236300000000
N        41.46523500000000    1.52978300000000    0.48797300000000
C        39.88130100000001    3.30985600000000    0.77205800000000
C        38.75826000000000    2.62565200000000    0.91472500000000
N        38.42966000000000    1.51087700000000    0.09529100000000
H        37.61351200000000    3.61443800000000    2.64474400000000
H        35.84133900000000    1.84854400000000    2.21999200000000
H        35.99854200000000   -1.81111700000000   -2.19402100000000
H        37.94378800000000   -3.67697800000000   -2.57515600000000
H        40.20575200000000   -4.46806600000000   -0.85720600000000
H        42.37969400000000   -4.30589700000000    1.15638900000000
H        44.07606500000000   -2.41218600000000    1.42757300000000
H        44.43522300000000    0.15922600000000   -0.23484500000000
H        43.91551600000000    2.67027300000000   -1.55353100000000
H        42.10075900000000    4.37153800000000   -1.09067800000000
H        39.91678400000000    4.36587300000000    1.08532700000000
C        21.90570000000000    0.01126200000000   -0.00522600000000
C        23.12190500000001    0.01126200000000   -0.00522600000000
C        32.71932200000000    0.01126200000000   -0.00522600000000
C        33.93552700000000    0.01126200000000   -0.00522600000000
Zn       27.95211000000000    0.02406400000000    0.00825900000000
C        25.67229900000000   -3.23738300000000   -0.90140700000000
C        24.71609000000000   -2.33803300000000   -1.00343300000000
C        25.10846400000000   -1.17572800000000   -0.20091700000000
C        24.47334700000000   -0.02445600000000    0.01134900000000
C        25.15880400000000    1.25014400000000    0.23757800000000
C        24.82351400000000    2.32874400000000    0.94181900000000
C        25.84805500000000    3.34806100000000    0.85123700000000
C        26.79865300000000    2.85113600000000    0.07787200000000
N        26.42165800000000    1.53453100000000   -0.33827100000000
C        28.04579200000000    3.46283800000000   -0.33899300000000
C        29.14734400000000    2.79558000000000   -0.67076500000000
C        30.14089000000000    3.04756500000000   -1.70493500000000
C        31.03477300000000    2.08670600000000   -1.60345100000000
C        30.65507500000000    1.17482200000000   -0.49947400000000
N        29.56016000000000    1.62414100000000    0.00789300000000
C        31.31228200000000   -0.02445600000000    0.01134900000000
C        30.68887100000000   -1.09363800000000    0.47286600000000
C        31.06758300000000   -2.02575300000000    1.54834100000000
C        30.12691500000000   -2.93989900000000    1.63420700000000
C        29.11861300000000   -2.64412000000000    0.63678000000000
N        29.45638800000000   -1.59074300000000   -0.01251500000000
C        27.86622000000000   -3.35112700000000    0.30558700000000
C        26.75234400000000   -2.75443100000000   -0.04175400000000
N        26.37023100000000   -1.47167400000000    0.37592800000000
H        25.67264300000000   -4.22845700000000   -1.39264100000000
H        23.80755500000000   -2.45972700000000   -1.58458100000000
H        23.89866200000000    2.44709500000000    1.51874400000000
H        25.87535000000000    4.33722500000000    1.30788700000000
H        28.13173200000000    4.56021500000000   -0.40101600000000
H        30.17356300000001    3.85378100000000   -2.43175900000000
H        31.92783500000001    1.97373800000000   -2.23722500000000
H        31.98233400000001   -1.95134700000000    2.15851100000000
H        30.14596100000000   -3.75350700000000    2.34247500000000
H        27.90470500000000   -4.45108700000000    0.36462300000000
111
 energy: -189.541758435847 gnorm: 0.319590988914 xtb: 6.4.1 (bd6e46d)
Zn       15.85608354250848    0.03498800233817   -0.00789863647040
C        18.17018915551546   -3.12134799561912    1.29961116163315
C        19.10486747363169   -2.16822899522202    1.25457599562202
C        18.67467383831256   -1.11398267633458    0.35039595239279
C        19.28317054586593    0.03693933830582   -0.00162698361538
C        18.57563138240015    1.22950448006486   -0.36282611088284
C        18.93099321472061    2.22270237392791   -1.23533522705388
C        17.91463376406205    3.21062844989737   -1.24709768113084
C        16.93955259979914    2.80279026140148   -0.38246137495001
N        17.32163886002101    1.57238233957178    0.17578345233007
C        15.70713047090273    3.46976758935419   -0.00729420898582
C        14.57858528854413    2.82120111511379    0.34455436455090
C        13.51251725735246    3.16795873844446    1.28814565511066
C        12.64437048838571    2.15500657038933    1.23609131063700
C        13.10818978547067    1.15831236999557    0.27669729557753
N        14.26070515843341    1.56821065921756   -0.20007269675960
C        12.49092486530652   -0.06847510924469   -0.15043438386343
C        13.17170108034747   -1.20098627211975   -0.42092076846999
C        12.78478159460435   -2.26417394931228   -1.35146306277495
C        13.75026607213176   -3.18337392729142   -1.27475649009151
C        14.74094450395350   -2.72873419186287   -0.31178567605136
N        14.39043345245682   -1.54293258025892    0.15922027871457
C        15.93982530995129   -3.37903184299605    0.13687914496012
C        17.08921716516805   -2.71076924115963    0.41867867445796
N        17.40708874818757   -1.47347592264487   -0.14407879692624
H        18.21534037179121   -4.01468225658821    1.91818450598903
H        20.00882780797556   -2.19393139759262    1.83646067666983
H        19.84177900611741    2.22180011809815   -1.82103891883778
H        17.90829932560448    4.10857731923728   -1.84772540908122
H        15.66044068550052    4.56212546331465   -0.00149512309181
H        13.47219077835197    4.03586525566152    1.92599453937780
H        11.75628175915062    2.11359000046987    1.85101681765533
H        11.40725929377175   -0.07769076141859   -0.26576990804533
H        11.92782632476943   -2.30101513544008   -2.00789890911675
H        13.75656196240992   -4.08001563250318   -1.87518374242798
H        15.91655238133544   -4.46343734617674    0.25836526387446
Zn       39.98524982172400   -0.01153335729429   -0.01227838225092
C        37.67106634654451    2.84748529618441    1.85811263566840
C        36.73648933007110    1.91920889978895    1.63708387234058
C        37.16710218188534    1.05089900214834    0.55330444933405
C        36.55965210808230   -0.01515492542495   -0.00553974232002
C        37.26611274121768   -1.11946399044188   -0.58252734956395
C        36.91037979190246   -1.93354441278496   -1.62418187392705
C        37.92656714621318   -2.90217253433235   -1.81907875957649
C        38.90172558212397   -2.66190471278452   -0.89376430511706
N        38.51979836980175   -1.55672094461547   -0.11680964141393
C        40.13413416951339   -3.38689271347107   -0.64889058980956
C        41.26264776903846   -2.81478366768572   -0.18278654792734
C        42.32869891920927   -3.33055574069634    0.68009574163414
C        43.19689208332253   -2.32554324790481    0.81679490013964
C        42.73308215716419   -1.16815433703758    0.05899534157785
N        41.58048126827680   -1.48253948482458   -0.48553834098411
C        43.35031160904883    0.11651853804035   -0.13309690960231
C        42.66952592505749    1.27959900711680   -0.18884948574414
C        43.05643300684259    2.49690474293214   -0.90598858484930
C        42.09092153980082    3.38595105140817   -0.66008811957186
C        41.10028854485824    2.76058263079698    0.20179452719824
N        41.45080964810746    1.50799721645272    0.44468923499794
C        39.90138188694777    3.31642495463231    0.76338126982683
C        38.75204214825725    2.60755677905730    0.91626574654407
N        38.43437684102820    1.49605892888636    0.13377890203938
H        37.62588141940899    3.61053291530373    2.63168114946443
H        35.83246861108984    1.83651071364889    2.21356898877102
H        35.99951961446685   -1.82401655040578   -2.19957959256720
H        37.93290416647785   -3.67311219703463   -2.57588655024656
H        40.18082107524385   -4.46132876797681   -0.84588562605279
H        42.36903955687391   -4.30174364779388    1.14584330390689
H        44.08495604685945   -2.39892850075732    1.42876831931539
H        44.43397764966276    0.14699622637674   -0.24469884836681
H        43.91340486442157    2.65491698092151   -1.54416892648710
H        42.08465995651870    4.37843123398000   -1.08372384373786
H        39.92469267790297    4.35942651132581    1.08398248859902
C        21.86039744685797    0.01000940385589   -0.00267346851524
C        23.08286424454972    0.02307801888811   -0.01045809361559
C        32.75436550921404    0.02126872548011   -0.00014825790426
C        33.97422815692390    0.01248647431272   -0.00436542219936
Zn       27.93795956121957    0.02768847180970    0.00656944274667
C        25.67141209154071   -3.25871464430582   -0.88945893037047
C        24.70699257468538   -2.33898381282077   -0.98880940629121
C        25.13115401645513   -1.18556153672503   -0.20799030401865
C        24.47899647390615   -0.00044283589232    0.00561398891157
C        25.18871386528278    1.25443826679446    0.23603628097243
C        24.81193193224035    2.35830333530747    0.95371134623579
C        25.81948013865587    3.34954446866966    0.85774616559054
C        26.80967828511937    2.82615977397472    0.07621448266229
N        26.44990048266094    1.51806273760886   -0.32100470882546
C        28.02832296769648    3.45726839145049   -0.34099977683610
C        29.15700209475280    2.77866248980088   -0.67164268816628
C        30.15249761876323    3.05567188960586   -1.68553619808306
C        31.06217327884479    2.07336996259370   -1.60045861121471
C        30.66161886040401    1.16849049944489   -0.52233397289838
N        29.52278376332667    1.59492060788009   -0.01970355433887
C        31.33313465980665   -0.00468007439244    0.00020498342456
C        30.68065512841119   -1.10223356170155    0.48105768744281
C        31.08315640425669   -2.02710544504550    1.53300596928803
C        30.12398303788206   -2.95971841343736    1.63017180522311
C        29.10684367014440   -2.64765054774789    0.64937448695831
N        29.43911801881926   -1.54633419512275    0.00834524804954
C        27.88908203676818   -3.35588851366630    0.31670300812387
C        26.74041773125384   -2.74009982753003   -0.05102263155793
N        26.38666704689673   -1.45616578905142    0.33270720138595
H        25.68007449511667   -4.22552124079740   -1.38665305756579
H        23.80754748297348   -2.44503924013643   -1.57682439406124
H        23.89618573826992    2.45437539675302    1.51994343249130
H        25.85860190050699    4.32971643648931    1.31073625580018
H        28.10518246101164    4.54926457061304   -0.41001133086625
H        30.16351295627437    3.85143245091031   -2.41826413244035
H        31.93203749280739    1.96340671449868   -2.23309354289349
H        31.97665232187930   -1.94404919756843    2.14596446442661
H        30.13480713057761   -3.76261570039108    2.34200065645778
H        27.91534503346587   -4.44602561716189    0.36003474430358
111
 energy: -189.648566837655 gnorm: 0.119654786616 xtb: 6.4.1 (bd6e46d)
Zn       15.86702943391865    0.03545231051891   -0.00480957799112
C        18.17072037074728   -3.12539856751919    1.28499526526225
C        19.12458607916488   -2.16876008505644    1.24495448781422
C        18.67632151190016   -1.11465451513405    0.36244116161581
C        19.27711168571581    0.05943071078816   -0.00776789382601
C        18.56981287234211    1.22181483263471   -0.35987010387939
C        18.94445042841910    2.25523990628459   -1.24363495120699
C        17.95222480955769    3.20870696500253   -1.24594546202538
C        16.93681701919874    2.76913760363495   -0.37341905672340
N        17.30113818718004    1.54080580663587    0.15265996877700
C        15.73606151551907    3.45168479825581   -0.00575612208474
C        14.58140895913154    2.78789839335638    0.35587332739277
C        13.51889945628416    3.16742279663738    1.25858085845220
C        12.61717336733630    2.15233788213602    1.22493177557533
C        13.10360726883883    1.15531630668184    0.30081907681568
N        14.30941802375577    1.53327741602379   -0.15629272036784
C        12.48614843572465   -0.04426749200637   -0.14069017466477
C        13.18420445539062   -1.19513348622309   -0.43937193411356
C        12.78235595154028   -2.26259644484131   -1.32881144897583
C        13.75262317422563   -3.20573618191066   -1.25800452074581
C        14.75415823646584   -2.73366997392344   -0.32535201491737
N        14.41022101401134   -1.50025224003190    0.10715055216483
C        15.92309656616405   -3.37305789050700    0.12558810768516
C        17.09255230122547   -2.68225566348581    0.42874130918607
N        17.40027410106284   -1.45940242770254   -0.09522310307719
H        18.20228179715728   -4.00906827110326    1.89960540494981
H        20.02260090249843   -2.18117372711457    1.82636431183815
H        19.84284521352679    2.23463512159427   -1.82103999202327
H        17.91441271357513    4.10248560354718   -1.84102293067000
H        15.68666120747957    4.54132487071127   -0.00069211992838
H        13.48318364391081    4.03006178767423    1.90453278523867
H        11.74635960737549    2.10137737227861    1.84119029198164
H        11.41217699993260   -0.06924344772545   -0.26334394625338
H        11.93128949031184   -2.28832300598841   -1.98829763731765
H        13.77156970840599   -4.08943230578735   -1.86126200248626
H        15.91716690279081   -4.45047713337876    0.24928595009695
Zn       39.97438734669065   -0.01253636846489   -0.00933049008333
C        37.67065516408555    2.85415535840184    1.84454579913845
C        36.71710099364606    1.92129894046123    1.62763257686897
C        37.16625228330681    1.04977225341046    0.56465079006983
C        36.56755563439721   -0.03479546084689   -0.01834335883542
C        37.27251766063738   -1.11223011642379   -0.57871022731351
C        36.89716402513960   -1.96401750232286   -1.63855766808133
C        37.88902822340672   -2.90060668434660   -1.81759850294961
C        38.90456194812326   -2.63074859099554   -0.87855320739799
N        38.54058842179467   -1.52159729433336   -0.13372025217252
C        40.10526207924394   -3.36954186026678   -0.64404811559905
C        41.25985276913433   -2.78417587470185   -0.16546991887413
C        42.32232282367845   -3.32453725664516    0.65114495595296
C        43.22409404056651   -2.32083032923089    0.80631117426974
C        42.73768245151187   -1.16968979306486    0.08323964607652
N        41.53178342338470   -1.45638016931867   -0.43605632647776
C        43.35508008168076    0.09091769363302   -0.12803355550860
C        42.65701895613840    1.27727885782531   -0.20810849550762
C        43.05885748375984    2.49114602042357   -0.88405908520541
C        42.08860291332412    3.40483919226845   -0.63948207537756
C        41.08714503047764    2.76803224248906    0.18941096721986
N        41.43105573991198    1.47574510822586    0.38561613378070
C        39.91834479662960    3.31288127753788    0.75126939218309
C        38.74896267114079    2.57793243535261    0.92097810792662
N        38.44193440919566    1.47375384328910    0.17915775452485
H        37.63888449690677    3.60850535872772    2.61236041213844
H        35.81885488177097    1.82574674180474    2.20103269096449
H        35.99866894175454   -1.83658134238231   -2.20200444354436
H        37.92682236047777   -3.66844089284407   -2.56818822197943
H        40.15468884695220   -4.44113583709178   -0.84131811279694
H        42.35805572833745   -4.29205422762021    1.12582907590065
H        44.09489323181605   -2.38509435265083    1.42135592244319
H        44.42906107335080    0.13825932992131   -0.24387448320114
H        43.90993597303635    2.63880551031593   -1.52730762461181
H        42.06966761081591    4.38510592992027   -1.06833672623315
H        39.92421319539888    4.34858087011808    1.07265188163202
C        21.81644841454383    0.01972501381597   -0.00816032622500
C        23.04030668780529    0.03868900414008   -0.00250041196173
C        32.79875561382110    0.02297856829611    0.01086578738428
C        34.02151788066419   -0.00439856774832   -0.00498092723448
Zn       27.93178683296845    0.03104909979542    0.00366456771933
C        25.67467141776104   -3.27278471463218   -0.87534199181912
C        24.70142860358384   -2.33440337270036   -0.97090802597045
C        25.14974559162511   -1.18700423895574   -0.21722389356186
C        24.47648357299909    0.02535398023323    0.00625639849110
C        25.21556175546619    1.25083943275484    0.23416940545210
C        24.80114073092022    2.38803432046766    0.95493066759663
C        25.78782345868490    3.34455822253622    0.85330324813647
C        26.82071363839194    2.79467881809736    0.07289337158596
N        26.47695436333474    1.49401728005398   -0.27942485266525
C        28.00708026156828    3.44028642596910   -0.34295242406133
C        29.15865337320929    2.74546347927294   -0.68025190284769
C        30.15952905762487    3.05453707195829   -1.66238386239005
C        31.08824240815387    2.06184459206751   -1.58552022514182
C        30.67374685766070    1.15710532840973   -0.54429880163828
N        29.48153148190044    1.55663064460884   -0.05813954094271
C        31.36013295631268    0.01357434492423   -0.01016185242708
C        30.67097369993301   -1.09970344794295    0.49571017560064
C        31.09228583631345   -2.02350093762925    1.51324537592963
C        30.12324542221288   -2.97474882680186    1.61404807064794
C        29.09457708180727   -2.64351405838384    0.66096111771522
N        29.42292509393447   -1.48585967559255    0.04182650554632
C        27.91085246595586   -3.34664044248225    0.32690888690535
C        26.73632152287144   -2.71779564377448   -0.06890536629069
N        26.40324271261173   -1.43498007248743    0.27668362457508
H        25.68715008709850   -4.22355057805775   -1.37272997050370
H        23.80652084720348   -2.42837781524628   -1.56065746321234
H        23.89240556978190    2.45899403797313    1.51651269227019
H        25.84281348894888    4.31838129928259    1.30726543627763
H        28.07673506918389    4.52745843037821   -0.41024010138048
H        30.15329099545994    3.84791173998566   -2.39437005288678
H        31.93971880335037    1.95449347607420   -2.22255893954132
H        31.97145987436019   -1.93964561271880    2.12705121699304
H        30.12285591694449   -3.77124147343840    2.33154287458450
H        27.91929942961944   -4.43096376803512    0.36363719838218
111
 energy: -189.706146400220 gnorm: 0.076677207556 xtb: 6.4.1 (bd6e46d)
Zn       15.87588754571267    0.03588438268537   -0.00043766257698
C        18.17892675971482   -3.12340428023222    1.27153345982522
C        19.14581939315339   -2.17034155931568    1.23586765721295
C        18.68729539489011   -1.10516365349863    0.38295759687849
C        19.29215833821570    0.07338814677292   -0.00306276920900
C        18.58247436252483    1.21242006611225   -0.36613386523015
C        18.96851667751505    2.27648399986804   -1.24252074353119
C        17.98214541301486    3.21001919520757   -1.23744674005194
C        16.94462117892994    2.73832380767650   -0.37074068142609
N        17.29962007343746    1.50620668889206    0.11676881973319
C        15.76534444716078    3.42027567785119    0.00187615797111
C        14.60303466318850    2.74933989770939    0.37871825471673
C        13.52377965369747    3.16295594625156    1.23434166445020
C        12.60084622913890    2.15684832418535    1.20639264798836
C        13.10884008586130    1.14200185386251    0.32661980283060
N        14.35325456756380    1.49065736914430   -0.09846875855019
C        12.48942282893994   -0.03221856917084   -0.13454629135654
C        13.20052882302887   -1.18161921441319   -0.46408030998712
C        12.78153152504296   -2.26524720730488   -1.31090742001640
C        13.74892607626822   -3.21956325983952   -1.23784246880900
C        14.77007292865303   -2.72234702702199   -0.34740212251245
N        14.43913070167786   -1.45744209444721    0.04694384735528
C        15.92306785144674   -3.35497842685251    0.11748476788714
C        17.09684895012233   -2.65427402008035    0.44293848723479
N        17.40072289657643   -1.42774109850685   -0.04715365230675
H        18.19337832317552   -4.01116236261653    1.87573803854819
H        20.04870904844773   -2.17464190427554    1.80924762325189
H        19.86549249742207    2.25210531434188   -1.82081908981518
H        17.92197768768755    4.10599594733998   -1.82733811080975
H        15.72089821498760    4.50763474447139   -0.00447829430626
H        13.49115359009936    4.03089361516035    1.87046360478077
H        11.72632434831291    2.09684221979580    1.81933257363548
H        11.41583235381460   -0.06173713701661   -0.25257131867137
H        11.92592946548742   -2.28287919184920   -1.96113776677963
H        13.78192648960769   -4.10868307049169   -1.83404397486797
H        15.92534346496409   -4.43239223035240    0.23145894058698
Zn       39.96572933937428   -0.01357525734446   -0.00519342367871
C        37.66261416374009    2.85497574723588    1.83100394088678
C        36.69625847479019    1.92461181551979    1.61939839103797
C        37.15578773576730    1.03612362543474    0.58417179392918
C        36.55315443583591   -0.05066983007277   -0.01364904197427
C        37.26038761183852   -1.10232071651579   -0.58256317071192
C        36.87341665999396   -1.98499750203715   -1.64127962217554
C        37.85931207294555   -2.90358267715751   -1.80962018501446
C        38.89715086156589   -2.60124499959971   -0.87048416773703
N        38.54305101454410   -1.48107820021033   -0.16288685528235
C        40.07626036365598   -3.34038746609378   -0.63086441050810
C        41.23838705917870   -2.75067145010308   -0.13594717041678
C        42.31753391309115   -3.31569956827925    0.62817654744189
C        43.24043199466865   -2.32181022331929    0.78734583910391
C        42.73243504046987   -1.16141568266514    0.11111695178027
N        41.48802025252549   -1.42528510433864   -0.37134336309501
C        43.35181561511158    0.07797795409217   -0.12424301440930
C        42.64075718653613    1.26860836362540   -0.23486926939793
C        43.05976908391485    2.49045552136380   -0.86599700649989
C        42.09240365639420    3.41470897186430   -0.61716594351427
C        41.07134462724321    2.76109174921519    0.16566545462493
N        41.40221505143024    1.44495171916970    0.31859104053733
C        39.91858047615578    3.29685983052291    0.73993225718432
C        38.74482835110334    2.54810782233938    0.92967047449814
N        38.44145828771725    1.43396029341178    0.22049467910905
H        37.64789265005749    3.61523419452074    2.58935598323392
H        35.79309232152067    1.82256543610778    2.18320121324461
H        35.97620454629044   -1.85359166791152   -2.20462922983011
H        37.91921753536501   -3.67460031418631   -2.55543456138508
H        40.12068618048233   -4.40764079270465   -0.83874471833953
H        42.35015350681137   -4.28657564821904    1.09224710573675
H        44.11495902896465   -2.37656067565875    1.40076617448964
H        44.42541256894720    0.12889586074175   -0.23472658916883
H        43.91534998559365    2.62840759566470   -1.50168865071941
H        42.05937849021969    4.39898646114300   -1.03808414220875
H        39.91628307029441    4.33433658855098    1.05186409396495
C        21.76679585604557    0.03610574078339   -0.00337388934108
C        22.99332461026866    0.05137371143826   -0.00417398055845
C        32.85618826112715    0.01608566171136    0.00257893822899
C        34.08166831233086   -0.01307472065073   -0.00902270938748
Zn       27.93596931548803    0.03410902632399   -0.00097722841532
C        25.67232426445398   -3.27361753098629   -0.85962352008788
C        24.69273286555030   -2.33092073298774   -0.95375533239948
C        25.14916031559953   -1.17240247478198   -0.23595261812453
C        24.45331216092080    0.04496845809714    0.00101666249269
C        25.21352861564279    1.24185415402143    0.23841382207451
C        24.78124774349427    2.40498221247522    0.94829106726231
C        25.76294000626072    3.34138420752641    0.84388100723265
C        26.82372414948570    2.76297987242356    0.08086543298626
N        26.48837344581512    1.46105244895204   -0.22694028039188
C        27.99090369795768    3.40419809842550   -0.34530024496159
C        29.15084482626601    2.69975382157059   -0.69547562857217
C        30.16796258887366    3.04544698165548   -1.64165188665401
C        31.11415421210611    2.05966497445967   -1.56764627583235
C        30.69357001383836    1.13541394930309   -0.56288433995198
N        29.45814257920437    1.50391224458950   -0.10426387682670
C        31.40245455338504    0.02239770706200   -0.01493222568414
C        30.67875718102006   -1.08430524121737    0.51053127806657
C        31.10352036038282   -2.02576141581566    1.49622762355534
C        30.12939504593510   -2.98078339842767    1.59394831667958
C        29.08734394504461   -2.61724573941075    0.67566843207313
N        29.41456679050496   -1.42353323331125    0.08415160317314
C        27.92240545144530   -3.32026262855445    0.32845047928561
C        26.74095265757575   -2.69173481886538   -0.09199666799943
N        26.41825866330970   -1.40017774563678    0.21564157377117
H        25.69034048285583   -4.22693684030720   -1.34967126274819
H        23.79445156862527   -2.41717220942922   -1.53510445088070
H        23.87170168365340    2.46678256744083    1.50761919887161
H        25.82426994291949    4.31478709893779    1.29535520321057
H        28.04542882254540    4.48986832728531   -0.40831105642443
H        30.14798906149436    3.84883235121124   -2.35938995952144
H        31.96446267778579    1.95403033771280   -2.20687129558991
H        31.98150053017471   -1.94440231866821    2.10580135801595
H        30.11454090522074   -3.78414699485103    2.30656969377589