      -----------------------------------------------------------      
     |                   =====================                   |     
     |                           x T B                           |     
     |                   =====================                   |     
     |                         S. Grimme                         |     
     |          Mulliken Center for Theoretical Chemistry        |     
     |                    University of Bonn                     |     
      -----------------------------------------------------------      

   * xtb version 6.4.1 (bd6e46d) compiled by 'conda@4901f00b25ba' on 2021-06-10

   xtb is free software: you can redistribute it and/or modify it under
   the terms of the GNU Lesser General Public License as published by
   the Free Software Foundation, either version 3 of the License, or
   (at your option) any later version.
   
   xtb is distributed in the hope that it will be useful,
   but WITHOUT ANY WARRANTY; without even the implied warranty of
   MERCHANTABILITY or FITNESS FOR A PARTICULAR PURPOSE.  See the
   GNU Lesser General Public License for more details.
   
   Cite this work as:
   * C. Bannwarth, E. Caldeweyher, S. Ehlert, A. Hansen, P. Pracht,
     J. Seibert, S. Spicher, S. Grimme, WIREs Comput. Mol. Sci., 2020, 11,
     e01493. DOI: 10.1002/wcms.1493
   
   for GFN2-xTB:
   * C. Bannwarth, S. Ehlert and S. Grimme., J. Chem. Theory Comput., 2019,
     15, 1652-1671. DOI: 10.1021/acs.jctc.8b01176
   for GFN1-xTB:
   * S. Grimme, C. Bannwarth, P. Shushkov, J. Chem. Theory Comput., 2017,
     13, 1989-2009. DOI: 10.1021/acs.jctc.7b00118
   for GFN0-xTB:
   * P. Pracht, E. Caldeweyher, S. Ehlert, S. Grimme, ChemRxiv, 2019, preprint.
     DOI: 10.26434/chemrxiv.8326202.v1
   for GFN-FF:
   * S. Spicher and S. Grimme, Angew. Chem. Int. Ed., 2020, 59, 15665-15673.
     DOI: 10.1002/anie.202004239
   
   for DFT-D4:
   * E. Caldeweyher, C. Bannwarth and S. Grimme, J. Chem. Phys., 2017,
     147, 034112. DOI: 10.1063/1.4993215
   * E. Caldeweyher, S. Ehlert, A. Hansen, H. Neugebauer, S. Spicher,
     C. Bannwarth and S. Grimme, J. Chem. Phys., 2019, 150, 154122.
     DOI: 10.1063/1.5090222
   * E. Caldeweyher, J.-M. Mewes, S. Ehlert and S. Grimme, Phys. Chem. Chem. Phys.
     2020, 22, 8499-8512. DOI: 10.1039/D0CP00502A
   
   for sTDA-xTB:
   * S. Grimme and C. Bannwarth, J. Chem. Phys., 2016, 145, 054103.
     DOI: 10.1063/1.4959605
   
   in the mass-spec context:
   * V. Asgeirsson, C. Bauer and S. Grimme, Chem. Sci., 2017, 8, 4879.
     DOI: 10.1039/c7sc00601b
   * J. Koopman and S. Grimme, ACS Omega 2019, 4, 12, 15120-15133.
     DOI: 10.1021/acsomega.9b02011
   
   for metadynamics refer to:
   * S. Grimme, J. Chem. Theory Comput., 2019, 155, 2847-2862
     DOI: 10.1021/acs.jctc.9b00143
   
   for SPH calculations refer to:
   * S. Spicher and S. Grimme, J. Chem. Theory Comput., 2021, 17, 1701-1714
     DOI: 10.1021/acs.jctc.0c01306
   
   with help from (in alphabetical order)
   P. Atkinson, C. Bannwarth, F. Bohle, G. Brandenburg, E. Caldeweyher
   M. Checinski, S. Dohm, S. Ehlert, S. Ehrlich, I. Gerasimov, J. Koopman
   C. Lavigne, S. Lehtola, F. März, M. Müller, F. Musil, H. Neugebauer
   J. Pisarek, C. Plett, P. Pracht, J. Seibert, P. Shushkov, S. Spicher
   M. Stahn, M. Steiner, T. Strunk, J. Stückrath, T. Rose, and J. Unsleber
   
 * started run on 2021/11/18 at 21:46:42.173     

           -------------------------------------------------
          |                Calculation Setup                |
           -------------------------------------------------

          program call               : /home/jeff/miniconda3/bin/xtb input_structure_1.xyz --gfn 2 --ohess normal --parallel 1 --etemp 300 --chrg 0 --uhf 0 -I det_control.in
          hostname                   : jelfscompute1
          coordinate file            : input_structure_1.xyz
          omp threads                :                     1
          number of atoms            :                   259
          number of electrons        :                   834
          charge                     :                     0
          spin                       :                   0.0
          first test random number   :      0.58410437596633

   ID    Z sym.   atoms
    1   30 Zn     1, 37, 85, 120, 155, 190, 225
    2    6 C      2-9, 11-15, 17-21, 23, 24, 38-45, 47-51, 53-57, 59, 60,
                  73-84, 86-93, 95-99, 101-105, 107, 108, 121-128, 130-134,
                  136-140, 142, 143, 156-163, 165-169, 171-175, 177, 178,
                  191-198, 200-204, 206-210, 212, 213, 226-233, 235-239,
                  241-245, 247, 248
    3    7 N      10, 16, 22, 25, 46, 52, 58, 61, 94, 100, 106, 109, 129,
                  135, 141, 144, 164, 170, 176, 179, 199, 205, 211, 214, 234,
                  240, 246, 249
    4    1 H      26-36, 62-72, 110-119, 145-154, 180-189, 215-224, 250-259

molecular fragmentation (1/2 indicates fragments):
111111111111111111111111111111111111222222222222222222222222222222222222
222222222222222222222222222222222222222222222222222222222222222222222222
222222222222222222222222222222222222222222222222222222222222222222222222
2222222222222222222222222222222222222222222
# atoms in fragment 1/2:    36   223
 fragment masses (1/2) :      372.71     2375.33
CMA distance (Bohr)    :  73.723
constraining FC (au)   :  0.0500

           -------------------------------------------------
          |                 G F N 2 - x T B                 |
           -------------------------------------------------

        Reference                      10.1021/acs.jctc.8b01176
      * Hamiltonian:
        H0-scaling (s, p, d)           1.850000    2.230000    2.230000
        zeta-weighting                 0.500000
      * Dispersion:
        s8                             2.700000
        a1                             0.520000
        a2                             5.000000
        s9                             5.000000
      * Repulsion:
        kExp                           1.500000    1.000000
        rExp                           1.000000
      * Coulomb:
        alpha                          2.000000
        third order                    shell-resolved
        anisotropic                    true
        a3                             3.000000
        a5                             4.000000
        cn-shift                       1.200000
        cn-exp                         4.000000
        max-rad                        5.000000


          ...................................................
          :                      SETUP                      :
          :.................................................:
          :  # basis functions                 820          :
          :  # atomic orbitals                 820          :
          :  # shells                          446          :
          :  # electrons                       834          :
          :  max. iterations                   250          :
          :  Hamiltonian                  GFN2-xTB          :
          :  restarted?                      false          :
          :  GBSA solvation                  false          :
          :  PC potential                    false          :
          :  electronic temp.          300.0000000     K    :
          :  accuracy                    1.0000000          :
          :  -> integral cutoff          0.2500000E+02      :
          :  -> integral neglect         0.1000000E-07      :
          :  -> SCF convergence          0.1000000E-05 Eh   :
          :  -> wf. convergence          0.1000000E-03 e    :
          :  Broyden damping             0.4000000          :
          ...................................................

 iter      E             dE          RMSdq      gap      omega  full diag
   1   -453.0733165 -0.453073E+03  0.658E+00    0.28       0.0  T
   2   -452.1693855  0.903931E+00  0.350E+00    0.23       1.0  T
   3   -378.8452748  0.733241E+02  0.595E+00    0.04       1.0  T
   4   -145.8247736  0.233021E+03  0.147E+01    0.04       1.0  T
   5   -405.7095254 -0.259885E+03  0.509E+00    0.04       1.0  T
   6   -373.5792293  0.321303E+02  0.544E+00    0.01       1.0  T
   7   -443.6992144 -0.701200E+02  0.305E+00    0.03       1.0  T
   8   -452.7257362 -0.902652E+01  0.211E+00    0.10       1.0  T
   9   -453.1885102 -0.462774E+00  0.166E+00    0.14       1.0  T
  10   -453.6051362 -0.416626E+00  0.152E+00    0.14       1.0  T
  11   -454.2884377 -0.683302E+00  0.110E+00    0.09       1.0  T
  12   -454.4710490 -0.182611E+00  0.100E+00    0.05       1.0  T
  13   -454.5621127 -0.910636E-01  0.847E-01    0.10       1.0  T
  14   -454.6113852 -0.492726E-01  0.794E-01    0.01       1.0  T
  15   -454.8064883 -0.195103E+00  0.710E-01    0.12       1.0  T
  16   -454.4761155  0.330373E+00  0.748E-01    0.05       1.0  T
  17   -454.8121925 -0.336077E+00  0.611E-01    0.09       1.0  T
  18   -454.8531857 -0.409932E-01  0.440E-01    0.05       1.0  T
  19   -454.7984200  0.547657E-01  0.376E-01    0.02       1.0  T
  20   -454.8632666 -0.648465E-01  0.315E-01    0.08       1.0  T
  21   -454.8914089 -0.281423E-01  0.247E-01    0.10       1.0  T
  22   -454.8953319 -0.392302E-02  0.194E-01    0.11       1.0  T
  23   -454.8966087 -0.127683E-02  0.179E-01    0.12       1.0  T
  24   -454.8976654 -0.105666E-02  0.155E-01    0.13       1.0  T
  25   -454.8973116  0.353841E-03  0.134E-01    0.14       1.0  T
  26   -454.8985172 -0.120565E-02  0.103E-01    0.14       1.0  T
  27   -454.8979449  0.572311E-03  0.993E-02    0.13       1.0  T
  28   -454.8977245  0.220410E-03  0.948E-02    0.13       1.0  T
  29   -454.8977618 -0.373117E-04  0.827E-02    0.12       1.0  T
  30   -454.8990103 -0.124853E-02  0.689E-02    0.13       1.0  T
  31   -454.8995654 -0.555105E-03  0.642E-02    0.13       1.0  T
  32   -454.8997120 -0.146517E-03  0.626E-02    0.13       1.0  T
  33   -454.9000951 -0.383130E-03  0.585E-02    0.13       1.0  T
  34   -454.9006644 -0.569325E-03  0.509E-02    0.13       1.0  T
  35   -454.9011079 -0.443497E-03  0.446E-02    0.13       1.0  T
  36   -454.9012748 -0.166853E-03  0.407E-02    0.13       1.0  T
  37   -454.9015981 -0.323307E-03  0.306E-02    0.13       1.0  T
  38   -454.9017137 -0.115636E-03  0.236E-02    0.13       1.0  T
  39   -454.9018044 -0.906428E-04  0.189E-02    0.13       1.0  T
  40   -454.9018782 -0.738416E-04  0.134E-02    0.13       1.0  T
  41   -454.9019333 -0.550887E-04  0.762E-03    0.13       1.0  T
  42   -454.9019391 -0.584047E-05  0.586E-03    0.13       1.1  T
  43   -454.9019447 -0.557079E-05  0.461E-03    0.13       1.3  T
  44   -454.9019480 -0.330727E-05  0.257E-03    0.13       2.4  T
  45   -454.9019489 -0.935169E-06  0.197E-03    0.13       3.2  T
  46   -454.9019494 -0.510875E-06  0.133E-03    0.13       4.7  T
  47   -454.9019496 -0.150014E-06  0.117E-03    0.13       5.3  T
  48   -454.9019497 -0.884136E-07  0.110E-03    0.13       5.6  T
  49   -454.9019498 -0.144665E-06  0.819E-04    0.13       7.6  T
  50   -454.9019499 -0.109578E-06  0.492E-04    0.13      12.6  T

   *** convergence criteria satisfied after 50 iterations ***

         #    Occupation            Energy/Eh            Energy/eV
      -------------------------------------------------------------
         1        2.0000           -0.6834182             -18.5968
       ...           ...                  ...                  ...
       411        2.0000           -0.3544473              -9.6450
       412        2.0000           -0.3541952              -9.6381
       413        2.0000           -0.3540984              -9.6355
       414        2.0000           -0.3501020              -9.5268
       415        2.0000           -0.3447273              -9.3805
       416        1.9993           -0.3390766              -9.2267
       417        1.8144           -0.3337007              -9.0805 (HOMO)
       418        0.1417           -0.3290898              -8.9550 (LUMO)
       419        0.0446           -0.3279439              -8.9238
       420        0.0000           -0.3196110              -8.6971
       421        0.0000           -0.3175132              -8.6400
       422        0.0000           -0.3171324              -8.6296
       ...           ...                  ...                  ...
       820                          1.4391331              39.1608
      -------------------------------------------------------------
                  HL-Gap            0.0046110 Eh            0.1255 eV
             Fermi-level           -0.3315349 Eh           -9.0215 eV

 SCC (total)                   0 d,  0 h,  0 min, 10.321 sec
 SCC setup                      ...        0 min,  0.013 sec (  0.130%)
 Dispersion                     ...        0 min,  0.028 sec (  0.271%)
 classical contributions        ...        0 min,  0.002 sec (  0.023%)
 integral evaluation            ...        0 min,  0.171 sec (  1.660%)
 iterations                     ...        0 min,  9.591 sec ( 92.929%)
 molecular gradient             ...        0 min,  0.490 sec (  4.746%)
 printout                       ...        0 min,  0.025 sec (  0.240%)

         :::::::::::::::::::::::::::::::::::::::::::::::::::::
         ::                     SUMMARY                     ::
         :::::::::::::::::::::::::::::::::::::::::::::::::::::
         :: total energy            -446.680905371469 Eh    ::
         :: gradient norm              0.938887455902 Eh/a0 ::
         :: HOMO-LUMO gap              0.125470933666 eV    ::
         ::.................................................::
         :: SCC energy              -454.901949938189 Eh    ::
         :: -> isotropic ES            0.475845162526 Eh    ::
         :: -> anisotropic ES          0.054632081354 Eh    ::
         :: -> anisotropic XC          0.271399578128 Eh    ::
         :: -> dispersion             -0.419752671527 Eh    ::
         :: repulsion energy           8.220401374582 Eh    ::
         :: add. restraining           0.000000000000 Eh    ::
         :: total charge               0.000000000001 e     ::
         :::::::::::::::::::::::::::::::::::::::::::::::::::::

      ----------------------------------------------------------- 
     |                   =====================                   |
     |                        A N C O P T                        |
     |                   =====================                   |
     |               Approximate Normal Coordinate               |
     |                Rational Function Optimizer                |
      ----------------------------------------------------------- 

          ...................................................
          :                      SETUP                      :
          :.................................................:
          :   optimization level            normal          :
          :   max. optcycles                   777          :
          :   ANC micro-cycles                  20          :
          :   degrees of freedom               771          :
          :.................................................:
          :   RF solver                   davidson          :
          :   write xtbopt.log                true          :
          :   linear?                        false          :
          :   energy convergence         0.5000000E-05 Eh   :
          :   grad. convergence          0.1000000E-02 Eh/α :
          :   maximium RF displ.         1.0000000          :
          :   Hlow (freq-cutoff)         0.1000000E-01      :
          :   Hmax (freq-cutoff)         5.0000000          :
          :   S6 in model hess.         20.0000000          :
          ...................................................

generating ANC from model Hessian ...
Using Lindh-Hessian (1995)
 Shifting diagonal of input Hessian by    1.0026646016540502E-002
 Lowest  eigenvalues of input Hessian
    0.010000    0.010001    0.010001    0.010002    0.010004    0.010005
    0.010011    0.010012    0.010014    0.010017    0.010018    0.010021
    0.010023    0.010024    0.010025    0.000000    0.000000    0.000000
 Highest eigenvalues
    2.393223    2.512585    2.732932    2.732932    2.732932    2.732932


........................................................................
.............................. CYCLE    1 ..............................
........................................................................
   1   -454.9019500 -0.454902E+03  0.268E-04    0.13       0.0  T
   2   -454.9019497  0.237082E-06  0.536E-04    0.13      11.6  T
   3   -454.9019498 -0.256858E-07  0.470E-04    0.13      13.2  T
     SCC iter.                  ...        0 min,  0.583 sec
     gradient                   ...        0 min,  0.495 sec
 * total energy  :  -446.6809052 Eh     change        0.1794570E-06 Eh
   gradient norm :     0.9388919 Eh/α   predicted     0.0000000E+00 (-100.00%)
   displ. norm   :     0.5768140 α      lambda       -0.4506260E+00
   maximum displ.:     0.1977450 α      in ANC's #753, #262, #752, ...

........................................................................
.............................. CYCLE    2 ..............................
........................................................................
   1   -454.8624076 -0.454862E+03  0.356E-01    0.12       0.0  T
   2   -454.1874254  0.674982E+00  0.791E-01    0.13       1.0  T
   3   -454.4314577 -0.244032E+00  0.664E-01    0.05       1.0  T
   4   -454.7988161 -0.367358E+00  0.411E-01    0.41       1.0  T
   5   -454.8686839 -0.698679E-01  0.197E-01    0.27       1.0  T
   6   -454.5805966  0.288087E+00  0.495E-01    0.06       1.0  T
   7   -454.8681932 -0.287597E+00  0.163E-01    0.33       1.0  T
   8   -454.8798163 -0.116231E-01  0.145E-01    0.23       1.0  T
   9   -454.8840458 -0.422949E-02  0.868E-02    0.20       1.0  T
  10   -454.8846678 -0.622021E-03  0.830E-02    0.16       1.0  T
  11   -454.8849900 -0.322174E-03  0.674E-02    0.16       1.0  T
  12   -454.8867814 -0.179139E-02  0.527E-02    0.16       1.0  T
  13   -454.8876529 -0.871552E-03  0.399E-02    0.16       1.0  T
  14   -454.8882661 -0.613142E-03  0.313E-02    0.15       1.0  T
  15   -454.8889749 -0.708833E-03  0.190E-02    0.15       1.0  T
  16   -454.8892802 -0.305350E-03  0.800E-03    0.14       1.0  T
  17   -454.8893012 -0.209162E-04  0.502E-03    0.13       1.2  T
  18   -454.8893001  0.105736E-05  0.443E-03    0.13       1.4  T
  19   -454.8893130 -0.129063E-04  0.279E-03    0.13       2.2  T
  20   -454.8893175 -0.451568E-05  0.134E-03    0.13       4.6  T
  21   -454.8893187 -0.122251E-05  0.558E-04    0.13      11.1  T
  22   -454.8893187  0.659325E-07  0.481E-04    0.13      12.9  T
  23   -454.8893189 -0.192533E-06  0.220E-04    0.13      28.2  T
     SCC iter.                  ...        0 min,  4.427 sec
     gradient                   ...        0 min,  0.490 sec
 * total energy  :  -447.0426765 Eh     change       -0.3617713E+00 Eh
   gradient norm :     0.5460152 Eh/α   predicted    -0.3003095E+00 ( -16.99%)
   displ. norm   :     0.6630985 α      lambda       -0.3036639E+00
   maximum displ.:     0.2067487 α      in ANC's #262, #753, #263, ...

........................................................................
.............................. CYCLE    3 ..............................
........................................................................
   1   -454.9186475 -0.454919E+03  0.356E-01    0.13       0.0  T
   2   -454.5591448  0.359503E+00  0.602E-01    0.06       1.0  T
   3   -454.5008235  0.583213E-01  0.643E-01    0.04       1.0  T
   4   -454.8545101 -0.353687E+00  0.396E-01    0.39       1.0  T
   5   -454.9199806 -0.654705E-01  0.194E-01    0.23       1.0  T
   6   -454.5993206  0.320660E+00  0.503E-01    0.07       1.0  T
   7   -454.9169239 -0.317603E+00  0.171E-01    0.35       1.0  T
   8   -454.9308812 -0.139573E-01  0.146E-01    0.21       1.0  T
   9   -454.9355552 -0.467406E-02  0.849E-02    0.17       1.0  T
  10   -454.9357716 -0.216335E-03  0.840E-02    0.14       1.0  T
  11   -454.9362498 -0.478236E-03  0.653E-02    0.16       1.0  T
  12   -454.9373888 -0.113901E-02  0.558E-02    0.15       1.0  T
  13   -454.9381058 -0.716939E-03  0.451E-02    0.16       1.0  T
  14   -454.9385961 -0.490334E-03  0.375E-02    0.15       1.0  T
  15   -454.9395317 -0.935560E-03  0.256E-02    0.15       1.0  T
  16   -454.9401093 -0.577657E-03  0.127E-02    0.14       1.0  T
  17   -454.9402224 -0.113109E-03  0.604E-03    0.13       1.0  T
  18   -454.9402290 -0.658989E-05  0.344E-03    0.13       1.8  T
  19   -454.9402307 -0.172354E-05  0.280E-03    0.13       2.2  T
  20   -454.9402344 -0.370437E-05  0.144E-03    0.13       4.3  T
  21   -454.9402354 -0.979896E-06  0.664E-04    0.13       9.4  T
  22   -454.9402355 -0.303191E-07  0.421E-04    0.13      14.7  T
     SCC iter.                  ...        0 min,  4.244 sec
     gradient                   ...        0 min,  0.500 sec
 * total energy  :  -447.2692145 Eh     change       -0.2265380E+00 Eh
   gradient norm :     0.2371312 Eh/α   predicted    -0.2185924E+00 (  -3.51%)
   displ. norm   :     0.7435563 α      lambda       -0.1481454E+00
   maximum displ.:     0.2620200 α      in ANC's #262, #257, #263, ...

........................................................................
.............................. CYCLE    4 ..............................
........................................................................
   1   -455.0374583 -0.455037E+03  0.254E-01    0.18       0.0  T
   2   -454.8256983  0.211760E+00  0.460E-01    0.04       1.0  T
   3   -454.9995036 -0.173805E+00  0.270E-01    0.23       1.0  T
   4   -455.0329009 -0.333973E-01  0.174E-01    0.25       1.0  T
   5   -455.0189699  0.139310E-01  0.198E-01    0.17       1.0  T
   6   -455.0353531 -0.163832E-01  0.125E-01    0.20       1.0  T
   7   -455.0403474 -0.499428E-02  0.772E-02    0.22       1.0  T
   8   -455.0419706 -0.162320E-02  0.541E-02    0.17       1.0  T
   9   -455.0423024 -0.331742E-03  0.487E-02    0.18       1.0  T
  10   -455.0425354 -0.233070E-03  0.460E-02    0.18       1.0  T
  11   -455.0413135  0.122198E-02  0.449E-02    0.11       1.0  T
  12   -455.0414012 -0.876967E-04  0.456E-02    0.12       1.0  T
  13   -455.0437062 -0.230500E-02  0.179E-02    0.16       1.0  T
  14   -455.0440665 -0.360316E-03  0.348E-03    0.14       1.8  T
  15   -455.0440699 -0.338189E-05  0.268E-03    0.14       2.3  T
  16   -455.0440653  0.457110E-05  0.260E-03    0.14       2.4  T
  17   -455.0440718 -0.647833E-05  0.918E-04    0.14       6.8  T
  18   -455.0440717  0.213897E-07  0.617E-04    0.14      10.1  T
  19   -455.0440720 -0.269744E-06  0.322E-04    0.14      19.3  T
     SCC iter.                  ...        0 min,  3.629 sec
     gradient                   ...        0 min,  0.490 sec
 * total energy  :  -447.3891094 Eh     change       -0.1198949E+00 Eh
   gradient norm :     0.1317693 Eh/α   predicted    -0.1150258E+00 (  -4.06%)
   displ. norm   :     0.8123899 α      lambda       -0.1000813E+00
   maximum displ.:     0.2670819 α      in ANC's #262, #131, #257, ...

........................................................................
.............................. CYCLE    5 ..............................
........................................................................
   1   -455.1378163 -0.455138E+03  0.236E-01    0.26       0.0  T
   2   -455.0024761  0.135340E+00  0.357E-01    0.00       1.0  T
   3   -455.1070875 -0.104611E+00  0.243E-01    0.18       1.0  T
   4   -455.1287011 -0.216136E-01  0.161E-01    0.32       1.0  T
   5   -455.1103993  0.183018E-01  0.176E-01    0.10       1.0  T
   6   -455.1307320 -0.203327E-01  0.115E-01    0.37       1.0  T
   7   -455.1363336 -0.560166E-02  0.770E-02    0.31       1.0  T
   8   -455.1379484 -0.161477E-02  0.621E-02    0.24       1.0  T
   9   -455.1382824 -0.333965E-03  0.557E-02    0.24       1.0  T
  10   -455.1387533 -0.470925E-03  0.526E-02    0.21       1.0  T
  11   -455.1392709 -0.517627E-03  0.438E-02    0.21       1.0  T
  12   -455.1397430 -0.472099E-03  0.375E-02    0.21       1.0  T
  13   -455.1402567 -0.513711E-03  0.278E-02    0.21       1.0  T
  14   -455.1406037 -0.346966E-03  0.194E-02    0.21       1.0  T
  15   -455.1408885 -0.284842E-03  0.813E-03    0.19       1.0  T
  16   -455.1409304 -0.418816E-04  0.352E-03    0.17       1.8  T
  17   -455.1409231  0.732412E-05  0.429E-03    0.19       1.4  T
  18   -455.1409173  0.583410E-05  0.453E-03    0.17       1.4  T
  19   -455.1409433 -0.260363E-04  0.129E-03    0.18       4.8  T
  20   -455.1409419  0.138319E-05  0.154E-03    0.17       4.0  T
  21   -455.1409449 -0.294258E-05  0.467E-04    0.18      13.3  T
  22   -455.1409451 -0.200084E-06  0.236E-04    0.18      26.4  T
  23   -455.1409451 -0.433846E-07  0.124E-04    0.18      50.3  T
     SCC iter.                  ...        0 min,  4.442 sec
     gradient                   ...        0 min,  0.490 sec
 * total energy  :  -447.4759089 Eh     change       -0.8679956E-01 Eh
   gradient norm :     0.1062317 Eh/α   predicted    -0.8306730E-01 (  -4.30%)
   displ. norm   :     0.8594781 α      lambda       -0.7997528E-01
   maximum displ.:     0.2478053 α      in ANC's #262, #131, #83, ...

........................................................................
.............................. CYCLE    6 ..............................
........................................................................
   1   -455.2249306 -0.455225E+03  0.254E-01    0.37       0.0  T
   2   -455.2198901  0.504043E-02  0.184E-01    0.20       1.0  T
   3   -455.2041177  0.157724E-01  0.248E-01    0.41       1.0  T
   4   -455.2220001 -0.178824E-01  0.111E-01    0.36       1.0  T
   5   -455.2260624 -0.406229E-02  0.512E-02    0.30       1.0  T
   6   -455.2270730 -0.101060E-02  0.750E-03    0.31       1.0  T
   7   -455.2270811 -0.813070E-05  0.724E-03    0.29       1.0  T
   8   -455.2270825 -0.136924E-05  0.623E-03    0.29       1.0  T
   9   -455.2270846 -0.212812E-05  0.485E-03    0.28       1.3  T
  10   -455.2270896 -0.499899E-05  0.271E-03    0.28       2.3  T
  11   -455.2270909 -0.132722E-05  0.148E-03    0.29       4.2  T
  12   -455.2270919 -0.985019E-06  0.641E-04    0.28       9.7  T
  13   -455.2270920 -0.112504E-06  0.335E-04    0.28      18.5  T
     SCC iter.                  ...        0 min,  2.488 sec
     gradient                   ...        0 min,  0.490 sec
 * total energy  :  -447.5477118 Eh     change       -0.7180288E-01 Eh
   gradient norm :     0.0893736 Eh/α   predicted    -0.6952662E-01 (  -3.17%)
   displ. norm   :     0.9001974 α      lambda       -0.6839448E-01
   maximum displ.:     0.2644991 α      in ANC's #131, #83, #28, ...

........................................................................
.............................. CYCLE    7 ..............................
........................................................................
   1   -455.2984177 -0.455298E+03  0.280E-01    0.57       0.0  T
   2   -455.2946450  0.377261E-02  0.194E-01    0.53       1.0  T
   3   -455.2799407  0.147044E-01  0.257E-01    0.63       1.0  T
   4   -455.2982338 -0.182931E-01  0.760E-02    0.62       1.0  T
   5   -455.2999550 -0.172115E-02  0.368E-02    0.58       1.0  T
   6   -455.3005244 -0.569452E-03  0.637E-03    0.60       1.0  T
   7   -455.3005328 -0.836433E-05  0.425E-03    0.59       1.5  T
   8   -455.3005337 -0.941536E-06  0.340E-03    0.59       1.8  T
   9   -455.3005366 -0.286095E-05  0.155E-03    0.59       4.0  T
  10   -455.3005374 -0.851152E-06  0.549E-04    0.59      11.3  T
  11   -455.3005375 -0.368926E-07  0.354E-04    0.59      17.5  T
     SCC iter.                  ...        0 min,  2.103 sec
     gradient                   ...        0 min,  0.491 sec
 * total energy  :  -447.6113972 Eh     change       -0.6368541E-01 Eh
   gradient norm :     0.0776255 Eh/α   predicted    -0.6190918E-01 (  -2.79%)
   displ. norm   :     0.9410415 α      lambda       -0.6366879E-01
   maximum displ.:     0.3051307 α      in ANC's #28, #83, #131, ...

........................................................................
.............................. CYCLE    8 ..............................
........................................................................
   1   -455.3541755 -0.455354E+03  0.300E-01    0.74       0.0  T
   2   -455.3518562  0.231936E-02  0.198E-01    0.74       1.0  T
   3   -455.3403439  0.115123E-01  0.239E-01    0.74       1.0  T
   4   -455.3558598 -0.155160E-01  0.431E-02    0.74       1.0  T
   5   -455.3561702 -0.310362E-03  0.214E-02    0.74       1.0  T
   6   -455.3563402 -0.170032E-03  0.659E-03    0.74       1.0  T
   7   -455.3563527 -0.125097E-04  0.345E-03    0.74       1.8  T
   8   -455.3563544 -0.167415E-05  0.180E-03    0.74       3.4  T
   9   -455.3563552 -0.747098E-06  0.876E-04    0.74       7.1  T
  10   -455.3563553 -0.135312E-06  0.601E-04    0.74      10.3  T
     SCC iter.                  ...        0 min,  1.910 sec
     gradient                   ...        0 min,  0.491 sec
 * total energy  :  -447.6734278 Eh     change       -0.6203060E-01 Eh
   gradient norm :     0.0753910 Eh/α   predicted    -0.6002567E-01 (  -3.23%)
   displ. norm   :     0.9730268 α      lambda       -0.6482774E-01
   maximum displ.:     0.3482479 α      in ANC's #28, #83, #131, ...

........................................................................
.............................. CYCLE    9 ..............................
........................................................................
   1   -455.3980751 -0.455398E+03  0.303E-01    0.80       0.0  T
   2   -455.3966865  0.138866E-02  0.199E-01    0.80       1.0  T
   3   -455.3858119  0.108746E-01  0.224E-01    0.80       1.0  T
   4   -455.3995369 -0.137250E-01  0.372E-02    0.80       1.0  T
   5   -455.3998366 -0.299700E-03  0.162E-02    0.80       1.0  T
   6   -455.3999586 -0.122043E-03  0.635E-03    0.80       1.0  T
   7   -455.3999686 -0.995928E-05  0.336E-03    0.80       1.8  T
   8   -455.3999693 -0.704723E-06  0.181E-03    0.80       3.4  T
   9   -455.3999702 -0.934002E-06  0.799E-04    0.80       7.8  T
  10   -455.3999703 -0.130757E-06  0.423E-04    0.80      14.7  T
     SCC iter.                  ...        0 min,  1.911 sec
     gradient                   ...        0 min,  0.491 sec
 * total energy  :  -447.7371001 Eh     change       -0.6367225E-01 Eh
   gradient norm :     0.0761476 Eh/α   predicted    -0.6310279E-01 (  -0.89%)
   displ. norm   :     0.9726067 α      lambda       -0.6558751E-01
   maximum displ.:     0.3723865 α      in ANC's #28, #83, #20, ...

........................................................................
.............................. CYCLE   10 ..............................
........................................................................
   1   -455.4378401 -0.455438E+03  0.278E-01    0.85       0.0  T
   2   -455.4365496  0.129044E-02  0.192E-01    0.85       1.0  T
   3   -455.4263378  0.102118E-01  0.201E-01    0.85       1.0  T
   4   -455.4386846 -0.123468E-01  0.380E-02    0.85       1.0  T
   5   -455.4391893 -0.504721E-03  0.142E-02    0.85       1.0  T
   6   -455.4392757 -0.864220E-04  0.583E-03    0.85       1.1  T
   7   -455.4392821 -0.638587E-05  0.352E-03    0.85       1.8  T
   8   -455.4392834 -0.132346E-05  0.143E-03    0.85       4.4  T
   9   -455.4392840 -0.583384E-06  0.639E-04    0.85       9.7  T
  10   -455.4392842 -0.125578E-06  0.315E-04    0.85      19.7  T
     SCC iter.                  ...        0 min,  1.928 sec
     gradient                   ...        0 min,  0.491 sec
 * total energy  :  -447.7983972 Eh     change       -0.6129713E-01 Eh
   gradient norm :     0.0703035 Eh/α   predicted    -0.6381547E-01 (   4.11%)
   displ. norm   :     0.9277871 α      lambda       -0.5423781E-01
   maximum displ.:     0.4123833 α      in ANC's #28, #83, #20, ...

........................................................................
.............................. CYCLE   11 ..............................
........................................................................
   1   -455.4599849 -0.455460E+03  0.228E-01    0.88       0.0  T
   2   -455.4588628  0.112212E-02  0.159E-01    0.88       1.0  T
   3   -455.4502126  0.865017E-02  0.166E-01    0.88       1.0  T
   4   -455.4605144 -0.103018E-01  0.248E-02    0.88       1.0  T
   5   -455.4607528 -0.238386E-03  0.642E-03    0.88       1.0  T
   6   -455.4607609 -0.812811E-05  0.375E-03    0.88       1.7  T
   7   -455.4607630 -0.209823E-05  0.241E-03    0.88       2.6  T
   8   -455.4607644 -0.130775E-05  0.991E-04    0.88       6.3  T
   9   -455.4607648 -0.443157E-06  0.346E-04    0.88      18.0  T
  10   -455.4607648 -0.393290E-07  0.186E-04    0.88      33.3  T
     SCC iter.                  ...        0 min,  1.929 sec
     gradient                   ...        0 min,  0.492 sec
 * total energy  :  -447.8449256 Eh     change       -0.4652841E-01 Eh
   gradient norm :     0.0667524 Eh/α   predicted    -0.5046257E-01 (   8.46%)
   displ. norm   :     0.8471196 α      lambda       -0.4208160E-01
   maximum displ.:     0.4115140 α      in ANC's #28, #20, #40, ...

........................................................................
.............................. CYCLE   12 ..............................
........................................................................
   1   -455.5009053 -0.455501E+03  0.188E-01    0.89       0.0  T
   2   -455.5005698  0.335544E-03  0.120E-01    0.89       1.0  T
   3   -455.4924820  0.808775E-02  0.126E-01    0.90       1.0  T
   4   -455.5010420 -0.856002E-02  0.191E-02    0.89       1.0  T
   5   -455.5011836 -0.141537E-03  0.446E-03    0.89       1.4  T
   6   -455.5011875 -0.394793E-05  0.279E-03    0.89       2.2  T
   7   -455.5011888 -0.126300E-05  0.179E-03    0.89       3.5  T
   8   -455.5011899 -0.111519E-05  0.730E-04    0.89       8.5  T
   9   -455.5011901 -0.182549E-06  0.262E-04    0.89      23.7  T
  10   -455.5011901 -0.756006E-08  0.150E-04    0.89      41.5  T
     SCC iter.                  ...        0 min,  1.930 sec
     gradient                   ...        0 min,  0.492 sec
 * total energy  :  -447.8826406 Eh     change       -0.3771500E-01 Eh
   gradient norm :     0.0566636 Eh/α   predicted    -0.3613992E-01 (  -4.18%)
   displ. norm   :     0.8785049 α      lambda       -0.3871458E-01
   maximum displ.:     0.4552057 α      in ANC's #28, #20, #40, ...

........................................................................
.............................. CYCLE   13 ..............................
........................................................................
   1   -455.5796314 -0.455580E+03  0.165E-01    0.90       0.0  T
   2   -455.5793947  0.236690E-03  0.104E-01    0.90       1.0  T
   3   -455.5726436  0.675108E-02  0.107E-01    0.90       1.0  T
   4   -455.5797076 -0.706399E-02  0.171E-02    0.90       1.0  T
   5   -455.5798403 -0.132742E-03  0.423E-03    0.90       1.5  T
   6   -455.5798453 -0.493695E-05  0.249E-03    0.90       2.5  T
   7   -455.5798466 -0.136434E-05  0.147E-03    0.90       4.2  T
   8   -455.5798471 -0.512046E-06  0.613E-04    0.90      10.1  T
   9   -455.5798472 -0.107254E-06  0.238E-04    0.90      26.1  T
     SCC iter.                  ...        0 min,  1.755 sec
     gradient                   ...        0 min,  0.492 sec
 * total energy  :  -447.9174208 Eh     change       -0.3478019E-01 Eh
   gradient norm :     0.0495069 Eh/α   predicted    -0.3429668E-01 (  -1.39%)
   displ. norm   :     0.9201971 α      lambda       -0.3425623E-01
   maximum displ.:     0.4881099 α      in ANC's #28, #20, #40, ...

........................................................................
.............................. CYCLE   14 ..............................
........................................................................
   1   -455.6379364 -0.455638E+03  0.136E-01    0.90       0.0  T
   2   -455.6377263  0.210064E-03  0.888E-02    0.90       1.0  T
   3   -455.6331636  0.456266E-02  0.928E-02    0.90       1.0  T
   4   -455.6379961 -0.483242E-02  0.132E-02    0.90       1.0  T
   5   -455.6380894 -0.933808E-04  0.355E-03    0.90       1.8  T
   6   -455.6380932 -0.378984E-05  0.194E-03    0.90       3.2  T
   7   -455.6380939 -0.712911E-06  0.112E-03    0.90       5.6  T
   8   -455.6380943 -0.328176E-06  0.479E-04    0.90      13.0  T
   9   -455.6380943 -0.783155E-07  0.164E-04    0.90      37.8  T
     SCC iter.                  ...        0 min,  1.740 sec
     gradient                   ...        0 min,  0.492 sec
 * total energy  :  -447.9489521 Eh     change       -0.3153132E-01 Eh
   gradient norm :     0.0460501 Eh/α   predicted    -0.3163159E-01 (   0.32%)
   displ. norm   :     0.9359741 α      lambda       -0.3156441E-01
   maximum displ.:     0.4914076 α      in ANC's #28, #40, #20, ...

........................................................................
.............................. CYCLE   15 ..............................
........................................................................
   1   -455.6790657 -0.455679E+03  0.124E-01    0.91       0.0  T
   2   -455.6788761  0.189572E-03  0.821E-02    0.91       1.0  T
   3   -455.6753060  0.357005E-02  0.847E-02    0.91       1.0  T
   4   -455.6791127 -0.380670E-02  0.130E-02    0.91       1.0  T
   5   -455.6792060 -0.932470E-04  0.337E-03    0.91       1.8  T
   6   -455.6792095 -0.348459E-05  0.173E-03    0.91       3.6  T
   7   -455.6792100 -0.548259E-06  0.956E-04    0.91       6.5  T
   8   -455.6792102 -0.161673E-06  0.467E-04    0.91      13.3  T
     SCC iter.                  ...        0 min,  1.545 sec
     gradient                   ...        0 min,  0.492 sec
 * total energy  :  -447.9779101 Eh     change       -0.2895803E-01 Eh
   gradient norm :     0.0407710 Eh/α   predicted    -0.2960818E-01 (   2.25%)
   displ. norm   :     0.9407628 α      lambda       -0.2920576E-01
   maximum displ.:     0.4907785 α      in ANC's #28, #40, #20, ...

........................................................................
.............................. CYCLE   16 ..............................
........................................................................
   1   -455.7389896 -0.455739E+03  0.116E-01    0.89       0.0  T
   2   -455.7389591  0.304603E-04  0.724E-02    0.89       1.0  T
   3   -455.7369213  0.203780E-02  0.631E-02    0.89       1.0  T
   4   -455.7389583 -0.203693E-02  0.165E-02    0.89       1.0  T
   5   -455.7391098 -0.151532E-03  0.306E-03    0.89       2.0  T
   6   -455.7391120 -0.215705E-05  0.183E-03    0.89       3.4  T
   7   -455.7391126 -0.604404E-06  0.111E-03    0.89       5.6  T
   8   -455.7391129 -0.352576E-06  0.384E-04    0.89      16.2  T
   9   -455.7391130 -0.523252E-07  0.136E-04    0.89      45.8  T
     SCC iter.                  ...        0 min,  1.719 sec
     gradient                   ...        0 min,  0.493 sec
 * total energy  :  -448.0041406 Eh     change       -0.2623044E-01 Eh
   gradient norm :     0.0368817 Eh/α   predicted    -0.2752697E-01 (   4.94%)
   displ. norm   :     0.9381486 α      lambda       -0.2697674E-01
   maximum displ.:     0.4680169 α      in ANC's #28, #40, #20, ...

........................................................................
.............................. CYCLE   17 ..............................
........................................................................
   1   -455.7643678 -0.455764E+03  0.119E-01    0.90       0.0  T
   2   -455.7642532  0.114625E-03  0.755E-02    0.90       1.0  T
   3   -455.7616150  0.263817E-02  0.762E-02    0.90       1.0  T
   4   -455.7644050 -0.278997E-02  0.113E-02    0.90       1.0  T
   5   -455.7644689 -0.638929E-04  0.337E-03    0.90       1.8  T
   6   -455.7644715 -0.265386E-05  0.182E-03    0.90       3.4  T
   7   -455.7644722 -0.626314E-06  0.949E-04    0.90       6.6  T
   8   -455.7644724 -0.289201E-06  0.366E-04    0.90      17.0  T
     SCC iter.                  ...        0 min,  1.547 sec
     gradient                   ...        0 min,  0.493 sec
 * total energy  :  -448.0284332 Eh     change       -0.2429262E-01 Eh
   gradient norm :     0.0370170 Eh/α   predicted    -0.2535981E-01 (   4.39%)
   displ. norm   :     0.9350422 α      lambda       -0.2452868E-01
   maximum displ.:     0.4615856 α      in ANC's #28, #40, #20, ...

........................................................................
.............................. CYCLE   18 ..............................
........................................................................
   1   -455.7910194 -0.455791E+03  0.111E-01    0.90       0.0  T
   2   -455.7909465  0.729323E-04  0.700E-02    0.90       1.0  T
   3   -455.7888264  0.212010E-02  0.669E-02    0.90       1.0  T
   4   -455.7910549 -0.222859E-02  0.860E-03    0.90       1.0  T
   5   -455.7910898 -0.348289E-04  0.270E-03    0.90       2.3  T
   6   -455.7910918 -0.200309E-05  0.150E-03    0.90       4.2  T
   7   -455.7910923 -0.495391E-06  0.771E-04    0.90       8.1  T
   8   -455.7910925 -0.193796E-06  0.303E-04    0.90      20.5  T
     SCC iter.                  ...        0 min,  1.549 sec
     gradient                   ...        0 min,  0.493 sec
 * total energy  :  -448.0513022 Eh     change       -0.2286898E-01 Eh
   gradient norm :     0.0369941 Eh/α   predicted    -0.2298712E-01 (   0.52%)
   displ. norm   :     0.9500873 α      lambda       -0.2383647E-01
   maximum displ.:     0.4483418 α      in ANC's #40, #28, #20, ...

........................................................................
.............................. CYCLE   19 ..............................
........................................................................
   1   -455.8428487 -0.455843E+03  0.127E-01    0.89       0.0  T
   2   -455.8428562 -0.744965E-05  0.766E-02    0.89       1.0  T
   3   -455.8416702  0.118600E-02  0.514E-02    0.89       1.0  T
   4   -455.8428493 -0.117916E-02  0.132E-02    0.89       1.0  T
   5   -455.8429366 -0.872308E-04  0.261E-03    0.89       2.4  T
   6   -455.8429378 -0.119494E-05  0.164E-03    0.89       3.8  T
   7   -455.8429382 -0.446416E-06  0.986E-04    0.89       6.3  T
   8   -455.8429386 -0.392456E-06  0.279E-04    0.89      22.2  T
     SCC iter.                  ...        0 min,  1.549 sec
     gradient                   ...        0 min,  0.493 sec
 * total energy  :  -448.0730227 Eh     change       -0.2172047E-01 Eh
   gradient norm :     0.0372594 Eh/α   predicted    -0.2267642E-01 (   4.40%)
   displ. norm   :     0.9439033 α      lambda       -0.2334451E-01
   maximum displ.:     0.4574035 α      in ANC's #40, #28, #20, ...

........................................................................
.............................. CYCLE   20 ..............................
........................................................................
   1   -455.8809846 -0.455881E+03  0.140E-01    0.89       0.0  T
   2   -455.8809511  0.334492E-04  0.848E-02    0.89       1.0  T
   3   -455.8791922  0.175891E-02  0.674E-02    0.89       1.0  T
   4   -455.8810114 -0.181911E-02  0.115E-02    0.89       1.0  T
   5   -455.8810701 -0.587300E-04  0.294E-03    0.89       2.1  T
   6   -455.8810715 -0.138700E-05  0.186E-03    0.89       3.3  T
   7   -455.8810723 -0.812324E-06  0.964E-04    0.89       6.4  T
   8   -455.8810726 -0.331175E-06  0.388E-04    0.89      16.0  T
     SCC iter.                  ...        0 min,  1.530 sec
     gradient                   ...        0 min,  0.493 sec
 * total energy  :  -448.0936766 Eh     change       -0.2065399E-01 Eh
   gradient norm :     0.0355675 Eh/α   predicted    -0.2207170E-01 (   6.86%)
   displ. norm   :     0.9375239 α      lambda       -0.2128979E-01
   maximum displ.:     0.4760709 α      in ANC's #40, #28, #20, ...
 * RMSD in coord.:     0.8775067 α      energy gain  -0.1412771E+01 Eh

generating ANC from model Hessian ...
Using Lindh-Hessian (1995)
 Shifting diagonal of input Hessian by    1.0024792567101837E-002
 Lowest  eigenvalues of input Hessian
    0.010000    0.010001    0.010007    0.010013    0.010015    0.010015
    0.010016    0.010017    0.010018    0.010019    0.010021    0.010023
    0.010023    0.010024    0.000000    0.000000    0.000000    0.000000
 Highest eigenvalues
    2.487262    2.498526    2.573689    2.577320    2.641965    2.642398


........................................................................
.............................. CYCLE   21 ..............................
........................................................................
   1   -455.8992321 -0.455899E+03  0.112E-01    0.89       0.0  T
   2   -455.8992027  0.293775E-04  0.688E-02    0.89       1.0  T
   3   -455.8979967  0.120593E-02  0.572E-02    0.89       1.0  T
   4   -455.8992661 -0.126936E-02  0.708E-03    0.89       1.0  T
   5   -455.8992874 -0.213106E-04  0.220E-03    0.89       2.8  T
   6   -455.8992882 -0.749794E-06  0.144E-03    0.89       4.3  T
   7   -455.8992887 -0.526100E-06  0.739E-04    0.89       8.4  T
   8   -455.8992889 -0.245211E-06  0.258E-04    0.89      24.1  T
     SCC iter.                  ...        0 min,  1.613 sec
     gradient                   ...        0 min,  0.523 sec
 * total energy  :  -448.1135215 Eh     change       -0.1984489E-01 Eh
   gradient norm :     0.0266973 Eh/α   predicted     0.0000000E+00 (-100.00%)
   displ. norm   :     0.7389781 α      lambda       -0.1538773E-01
   maximum displ.:     0.5758817 α      in ANC's #39, #46, #33, ...

........................................................................
.............................. CYCLE   22 ..............................
........................................................................
   1   -455.9305753 -0.455931E+03  0.937E-02    0.89       0.0  T
   2   -455.9305765 -0.124480E-05  0.552E-02    0.89       1.0  T
   3   -455.9301867  0.389770E-03  0.260E-02    0.89       1.0  T
   4   -455.9305691 -0.382338E-03  0.693E-03    0.89       1.0  T
   5   -455.9305968 -0.277482E-04  0.129E-03    0.89       4.8  T
   6   -455.9305971 -0.241860E-06  0.863E-04    0.89       7.2  T
   7   -455.9305973 -0.189136E-06  0.388E-04    0.89      16.0  T
     SCC iter.                  ...        0 min,  1.357 sec
     gradient                   ...        0 min,  0.498 sec
 * total energy  :  -448.1284198 Eh     change       -0.1489829E-01 Eh
   gradient norm :     0.0211708 Eh/α   predicted    -0.1189541E-01 ( -20.16%)
   displ. norm   :     0.9030627 α      lambda       -0.1769516E-01
   maximum displ.:     0.6673993 α      in ANC's #39, #46, #33, ...

........................................................................
.............................. CYCLE   23 ..............................
........................................................................
   1   -455.9619834 -0.455962E+03  0.115E-01    0.89       0.0  T
   2   -455.9619832  0.138009E-06  0.680E-02    0.89       1.0  T
   3   -455.9614278  0.555421E-03  0.301E-02    0.89       1.0  T
   4   -455.9619837 -0.555950E-03  0.699E-03    0.89       1.0  T
   5   -455.9620108 -0.270890E-04  0.160E-03    0.89       3.9  T
   6   -455.9620112 -0.382654E-06  0.105E-03    0.89       5.9  T
   7   -455.9620115 -0.256781E-06  0.495E-04    0.89      12.6  T
   8   -455.9620116 -0.869872E-07  0.167E-04    0.89      37.3  T
     SCC iter.                  ...        0 min,  1.531 sec
     gradient                   ...        0 min,  0.494 sec
 * total energy  :  -448.1455412 Eh     change       -0.1712139E-01 Eh
   gradient norm :     0.0190487 Eh/α   predicted    -0.1606298E-01 (  -6.18%)
   displ. norm   :     0.9248276 α      lambda       -0.1703710E-01
   maximum displ.:     0.6875341 α      in ANC's #39, #46, #33, ...

........................................................................
.............................. CYCLE   24 ..............................
........................................................................
   1   -455.9874426 -0.455987E+03  0.117E-01    0.89       0.0  T
   2   -455.9874439 -0.129541E-05  0.689E-02    0.89       1.0  T
   3   -455.9870435  0.400314E-03  0.249E-02    0.89       1.0  T
   4   -455.9874467 -0.403213E-03  0.573E-03    0.89       1.1  T
   5   -455.9874638 -0.170533E-04  0.152E-03    0.89       4.1  T
   6   -455.9874640 -0.192381E-06  0.103E-03    0.89       6.1  T
   7   -455.9874642 -0.231120E-06  0.510E-04    0.89      12.2  T
   8   -455.9874643 -0.112344E-06  0.149E-04    0.89      41.7  T
     SCC iter.                  ...        0 min,  1.585 sec
     gradient                   ...        0 min,  0.494 sec
 * total energy  :  -448.1620334 Eh     change       -0.1649222E-01 Eh
   gradient norm :     0.0184427 Eh/α   predicted    -0.1580459E-01 (  -4.17%)
   displ. norm   :     0.9260518 α      lambda       -0.1610605E-01
   maximum displ.:     0.6964077 α      in ANC's #39, #46, #33, ...

........................................................................
.............................. CYCLE   25 ..............................
........................................................................
   1   -456.0116068 -0.456012E+03  0.115E-01    0.88       0.0  T
   2   -456.0116096 -0.278288E-05  0.680E-02    0.88       1.0  T
   3   -456.0113145  0.295084E-03  0.214E-02    0.88       1.0  T
   4   -456.0116114 -0.296834E-03  0.528E-03    0.88       1.2  T
   5   -456.0116252 -0.138666E-04  0.142E-03    0.88       4.4  T
   6   -456.0116253 -0.632884E-07  0.960E-04    0.88       6.5  T
   7   -456.0116255 -0.166953E-06  0.513E-04    0.88      12.1  T
     SCC iter.                  ...        0 min,  1.378 sec
     gradient                   ...        0 min,  0.494 sec
 * total energy  :  -448.1775771 Eh     change       -0.1554367E-01 Eh
   gradient norm :     0.0173924 Eh/α   predicted    -0.1495910E-01 (  -3.76%)
   displ. norm   :     0.9239275 α      lambda       -0.1515446E-01
   maximum displ.:     0.7021931 α      in ANC's #39, #46, #33, ...

........................................................................
.............................. CYCLE   26 ..............................
........................................................................
   1   -456.0356713 -0.456036E+03  0.113E-01    0.88       0.0  T
   2   -456.0356753 -0.401694E-05  0.664E-02    0.88       1.0  T
   3   -456.0354504  0.224946E-03  0.189E-02    0.88       1.0  T
   4   -456.0356751 -0.224652E-03  0.512E-03    0.88       1.2  T
   5   -456.0356882 -0.131889E-04  0.133E-03    0.88       4.7  T
   6   -456.0356883 -0.188069E-07  0.894E-04    0.88       6.9  T
   7   -456.0356884 -0.127318E-06  0.479E-04    0.88      13.0  T
     SCC iter.                  ...        0 min,  1.341 sec
     gradient                   ...        0 min,  0.499 sec
 * total energy  :  -448.1921656 Eh     change       -0.1458848E-01 Eh
   gradient norm :     0.0162107 Eh/α   predicted    -0.1404549E-01 (  -3.72%)
   displ. norm   :     0.9203218 α      lambda       -0.1417134E-01
   maximum displ.:     0.7075600 α      in ANC's #39, #46, #33, ...

........................................................................
.............................. CYCLE   27 ..............................
........................................................................
   1   -456.0602551 -0.456060E+03  0.108E-01    0.88       0.0  T
   2   -456.0602593 -0.425650E-05  0.638E-02    0.88       1.0  T
   3   -456.0600683  0.191024E-03  0.175E-02    0.88       1.0  T
   4   -456.0602584 -0.190065E-03  0.488E-03    0.88       1.3  T
   5   -456.0602706 -0.122761E-04  0.121E-03    0.88       5.1  T
   6   -456.0602706  0.508328E-08  0.844E-04    0.88       7.4  T
   7   -456.0602708 -0.129956E-06  0.419E-04    0.88      14.8  T
     SCC iter.                  ...        0 min,  1.356 sec
     gradient                   ...        0 min,  0.499 sec
 * total energy  :  -448.2058259 Eh     change       -0.1366035E-01 Eh
   gradient norm :     0.0151502 Eh/α   predicted    -0.1308720E-01 (  -4.20%)
   displ. norm   :     0.9176464 α      lambda       -0.1322399E-01
   maximum displ.:     0.7124262 α      in ANC's #39, #46, #33, ...

........................................................................
.............................. CYCLE   28 ..............................
........................................................................
   1   -456.0842761 -0.456084E+03  0.105E-01    0.88       0.0  T
   2   -456.0842807 -0.460792E-05  0.616E-02    0.88       1.0  T
   3   -456.0841237  0.157002E-03  0.160E-02    0.88       1.0  T
   4   -456.0842796 -0.155910E-03  0.459E-03    0.88       1.4  T
   5   -456.0842906 -0.109581E-04  0.112E-03    0.88       5.6  T
   6   -456.0842906  0.335280E-07  0.815E-04    0.88       7.6  T
   7   -456.0842907 -0.151549E-06  0.347E-04    0.88      17.9  T
     SCC iter.                  ...        0 min,  1.357 sec
     gradient                   ...        0 min,  0.495 sec
 * total energy  :  -448.2185865 Eh     change       -0.1276057E-01 Eh
   gradient norm :     0.0141739 Eh/α   predicted    -0.1217979E-01 (  -4.55%)
   displ. norm   :     0.9156666 α      lambda       -0.1234923E-01
   maximum displ.:     0.7172318 α      in ANC's #39, #33, #35, ...

........................................................................
.............................. CYCLE   29 ..............................
........................................................................
   1   -456.1071989 -0.456107E+03  0.103E-01    0.87       0.0  T
   2   -456.1072039 -0.502046E-05  0.603E-02    0.87       1.0  T
   3   -456.1070777  0.126136E-03  0.146E-02    0.87       1.0  T
   4   -456.1072026 -0.124877E-03  0.433E-03    0.87       1.4  T
   5   -456.1072124 -0.981816E-05  0.104E-03    0.87       6.0  T
   6   -456.1072124  0.591420E-07  0.782E-04    0.87       8.0  T
   7   -456.1072125 -0.155093E-06  0.291E-04    0.87      21.4  T
     SCC iter.                  ...        0 min,  1.357 sec
     gradient                   ...        0 min,  0.495 sec
 * total energy  :  -448.2304858 Eh     change       -0.1189929E-01 Eh
   gradient norm :     0.0131867 Eh/α   predicted    -0.1135172E-01 (  -4.60%)
   displ. norm   :     0.9157768 α      lambda       -0.1154452E-01
   maximum displ.:     0.7216086 α      in ANC's #39, #33, #35, ...

........................................................................
.............................. CYCLE   30 ..............................
........................................................................
   1   -456.1287683 -0.456129E+03  0.102E-01    0.87       0.0  T
   2   -456.1287737 -0.535581E-05  0.598E-02    0.87       1.0  T
   3   -456.1286703  0.103369E-03  0.134E-02    0.87       1.0  T
   4   -456.1287723 -0.101985E-03  0.413E-03    0.87       1.5  T
   5   -456.1287813 -0.898337E-05  0.990E-04    0.87       6.3  T
   6   -456.1287812  0.630322E-07  0.751E-04    0.87       8.3  T
   7   -456.1287813 -0.142999E-06  0.258E-04    0.87      24.1  T
     SCC iter.                  ...        0 min,  1.357 sec
     gradient                   ...        0 min,  0.495 sec
 * total energy  :  -448.2415678 Eh     change       -0.1108195E-01 Eh
   gradient norm :     0.0122481 Eh/α   predicted    -0.1061315E-01 (  -4.23%)
   displ. norm   :     0.9156699 α      lambda       -0.1077146E-01
   maximum displ.:     0.7261698 α      in ANC's #39, #33, #35, ...

........................................................................
.............................. CYCLE   31 ..............................
........................................................................
   1   -456.1490964 -0.456149E+03  0.101E-01    0.87       0.0  T
   2   -456.1491021 -0.561695E-05  0.593E-02    0.87       1.0  T
   3   -456.1490189  0.831423E-04  0.122E-02    0.87       1.0  T
   4   -456.1491008 -0.818469E-04  0.392E-03    0.87       1.6  T
   5   -456.1491088 -0.801874E-05  0.953E-04    0.87       6.5  T
   6   -456.1491087  0.496180E-07  0.700E-04    0.87       8.9  T
   7   -456.1491088 -0.114659E-06  0.234E-04    0.87      26.6  T
     SCC iter.                  ...        0 min,  1.358 sec
     gradient                   ...        0 min,  0.496 sec
 * total energy  :  -448.2518629 Eh     change       -0.1029517E-01 Eh
   gradient norm :     0.0113433 Eh/α   predicted    -0.9901406E-02 (  -3.82%)
   displ. norm   :     0.9165614 α      lambda       -0.9997295E-02
   maximum displ.:     0.7303055 α      in ANC's #39, #33, #35, ...

........................................................................
.............................. CYCLE   32 ..............................
........................................................................
   1   -456.1684527 -0.456168E+03  0.992E-02    0.86       0.0  T
   2   -456.1684584 -0.567675E-05  0.582E-02    0.86       1.0  T
   3   -456.1683906  0.678059E-04  0.112E-02    0.86       1.0  T
   4   -456.1684573 -0.667257E-04  0.368E-03    0.86       1.7  T
   5   -456.1684644 -0.705537E-05  0.898E-04    0.86       6.9  T
   6   -456.1684643  0.405519E-07  0.656E-04    0.86       9.5  T
   7   -456.1684644 -0.966974E-07  0.213E-04    0.86      29.2  T
     SCC iter.                  ...        0 min,  1.343 sec
     gradient                   ...        0 min,  0.495 sec
 * total energy  :  -448.2614146 Eh     change       -0.9551709E-02 Eh
   gradient norm :     0.0103675 Eh/α   predicted    -0.9197938E-02 (  -3.70%)
   displ. norm   :     0.9179607 α      lambda       -0.9215219E-02
   maximum displ.:     0.7357312 α      in ANC's #39, #35, #33, ...

........................................................................
.............................. CYCLE   33 ..............................
........................................................................
   1   -456.1869964 -0.456187E+03  0.968E-02    0.86       0.0  T
   2   -456.1870021 -0.567575E-05  0.567E-02    0.86       1.0  T
   3   -456.1869486  0.535047E-04  0.101E-02    0.86       1.0  T
   4   -456.1870013 -0.526924E-04  0.341E-03    0.86       1.8  T
   5   -456.1870073 -0.607383E-05  0.839E-04    0.86       7.4  T
   6   -456.1870073  0.344504E-07  0.604E-04    0.86      10.3  T
   7   -456.1870074 -0.811978E-07  0.192E-04    0.86      32.3  T
     SCC iter.                  ...        0 min,  1.428 sec
     gradient                   ...        0 min,  0.498 sec
 * total energy  :  -448.2702252 Eh     change       -0.8810583E-02 Eh
   gradient norm :     0.0095032 Eh/α   predicted    -0.8490223E-02 (  -3.64%)
   displ. norm   :     0.9217113 α      lambda       -0.8491378E-02
   maximum displ.:     0.7413353 α      in ANC's #39, #35, #33, ...

........................................................................
.............................. CYCLE   34 ..............................
........................................................................
   1   -456.2046786 -0.456205E+03  0.955E-02    0.85       0.0  T
   2   -456.2046843 -0.571101E-05  0.559E-02    0.85       1.0  T
   3   -456.2046419  0.423842E-04  0.920E-03    0.85       1.0  T
   4   -456.2046838 -0.419113E-04  0.314E-03    0.85       2.0  T
   5   -456.2046890 -0.516433E-05  0.805E-04    0.85       7.7  T
   6   -456.2046890  0.279480E-07  0.574E-04    0.85      10.8  T
   7   -456.2046890 -0.737675E-07  0.183E-04    0.85      34.0  T
     SCC iter.                  ...        0 min,  1.343 sec
     gradient                   ...        0 min,  0.496 sec
 * total energy  :  -448.2783217 Eh     change       -0.8096428E-02 Eh
   gradient norm :     0.0087450 Eh/α   predicted    -0.7852624E-02 (  -3.01%)
   displ. norm   :     0.9273122 α      lambda       -0.7805740E-02
   maximum displ.:     0.7473856 α      in ANC's #39, #35, #33, ...

........................................................................
.............................. CYCLE   35 ..............................
........................................................................
   1   -456.2213979 -0.456221E+03  0.950E-02    0.85       0.0  T
   2   -456.2214035 -0.567200E-05  0.556E-02    0.85       1.0  T
   3   -456.2213681  0.354830E-04  0.858E-03    0.85       1.0  T
   4   -456.2214034 -0.353046E-04  0.294E-03    0.85       2.1  T
   5   -456.2214079 -0.449526E-05  0.787E-04    0.85       7.9  T
   6   -456.2214078  0.209861E-07  0.545E-04    0.85      11.4  T
   7   -456.2214079 -0.675280E-07  0.180E-04    0.85      34.5  T
     SCC iter.                  ...        0 min,  1.359 sec
     gradient                   ...        0 min,  0.497 sec
 * total energy  :  -448.2857241 Eh     change       -0.7402420E-02 Eh
   gradient norm :     0.0080678 Eh/α   predicted    -0.7258980E-02 (  -1.94%)
   displ. norm   :     0.9348492 α      lambda       -0.7146260E-02
   maximum displ.:     0.7541085 α      in ANC's #39, #35, #33, ...

........................................................................
.............................. CYCLE   36 ..............................
........................................................................
   1   -456.2370749 -0.456237E+03  0.951E-02    0.84       0.0  T
   2   -456.2370806 -0.565758E-05  0.556E-02    0.84       1.0  T
   3   -456.2370513  0.292874E-04  0.802E-03    0.84       1.0  T
   4   -456.2370809 -0.295416E-04  0.270E-03    0.84       2.3  T
   5   -456.2370846 -0.373409E-05  0.794E-04    0.84       7.8  T
   6   -456.2370846  0.779050E-08  0.531E-04    0.84      11.7  T
   7   -456.2370846 -0.653752E-07  0.181E-04    0.84      34.3  T
     SCC iter.                  ...        0 min,  1.358 sec
     gradient                   ...        0 min,  0.497 sec
 * total energy  :  -448.2924448 Eh     change       -0.6720739E-02 Eh
   gradient norm :     0.0074843 Eh/α   predicted    -0.6695878E-02 (  -0.37%)
   displ. norm   :     0.9378632 α      lambda       -0.6450811E-02
   maximum displ.:     0.7546381 α      in ANC's #39, #35, #33, ...

........................................................................
.............................. CYCLE   37 ..............................
........................................................................
   1   -456.2519049 -0.456252E+03  0.945E-02    0.84       0.0  T
   2   -456.2519104 -0.548572E-05  0.553E-02    0.84       1.0  T
   3   -456.2518853  0.250722E-04  0.756E-03    0.84       1.0  T
   4   -456.2519109 -0.255672E-04  0.252E-03    0.84       2.5  T
   5   -456.2519141 -0.319672E-05  0.781E-04    0.84       8.0  T
   6   -456.2519141 -0.276026E-08  0.501E-04    0.84      12.4  T
   7   -456.2519141 -0.592464E-07  0.176E-04    0.84      35.4  T
     SCC iter.                  ...        0 min,  1.343 sec
     gradient                   ...        0 min,  0.497 sec
 * total energy  :  -448.2984624 Eh     change       -0.6017564E-02 Eh
   gradient norm :     0.0068155 Eh/α   predicted    -0.6062436E-02 (   0.75%)
   displ. norm   :     0.9302384 α      lambda       -0.5671560E-02
   maximum displ.:     0.7429616 α      in ANC's #39, #35, #33, ...

........................................................................
.............................. CYCLE   38 ..............................
........................................................................
   1   -456.2659134 -0.456266E+03  0.918E-02    0.83       0.0  T
   2   -456.2659185 -0.512044E-05  0.536E-02    0.83       1.0  T
   3   -456.2658992  0.192907E-04  0.687E-03    0.83       1.0  T
   4   -456.2659194 -0.202132E-04  0.218E-03    0.83       2.9  T
   5   -456.2659217 -0.231674E-05  0.755E-04    0.83       8.2  T
   6   -456.2659217 -0.199151E-07  0.467E-04    0.83      13.3  T
   7   -456.2659218 -0.551440E-07  0.164E-04    0.83      37.9  T
     SCC iter.                  ...        0 min,  1.358 sec
     gradient                   ...        0 min,  0.498 sec
 * total energy  :  -448.3037291 Eh     change       -0.5266673E-02 Eh
   gradient norm :     0.0060818 Eh/α   predicted    -0.5289706E-02 (   0.44%)
   displ. norm   :     0.9214129 α      lambda       -0.4909460E-02
   maximum displ.:     0.7270012 α      in ANC's #39, #35, #33, ...

........................................................................
.............................. CYCLE   39 ..............................
........................................................................
   1   -456.2796166 -0.456280E+03  0.888E-02    0.83       0.0  T
   2   -456.2796213 -0.470910E-05  0.519E-02    0.83       1.0  T
   3   -456.2796067  0.145534E-04  0.616E-03    0.83       1.0  T
   4   -456.2796224 -0.156665E-04  0.189E-03    0.83       3.3  T
   5   -456.2796241 -0.167847E-05  0.721E-04    0.83       8.6  T
   6   -456.2796241 -0.367053E-07  0.423E-04    0.83      14.7  T
   7   -456.2796241 -0.478118E-07  0.147E-04    0.83      42.2  T
     SCC iter.                  ...        0 min,  1.358 sec
     gradient                   ...        0 min,  0.505 sec
 * total energy  :  -448.3082631 Eh     change       -0.4534050E-02 Eh
   gradient norm :     0.0054602 Eh/α   predicted    -0.4538803E-02 (   0.10%)
   displ. norm   :     0.9118359 α      lambda       -0.4202936E-02
   maximum displ.:     0.7070122 α      in ANC's #39, #35, #33, ...

........................................................................
.............................. CYCLE   40 ..............................
........................................................................
   1   -456.2921072 -0.456292E+03  0.868E-02    0.82       0.0  T
   2   -456.2921115 -0.432604E-05  0.507E-02    0.82       1.0  T
   3   -456.2920990  0.125282E-04  0.591E-03    0.82       1.1  T
   4   -456.2921128 -0.138351E-04  0.171E-03    0.82       3.6  T
   5   -456.2921140 -0.122887E-05  0.728E-04    0.82       8.5  T
   6   -456.2921141 -0.512662E-07  0.411E-04    0.82      15.1  T
   7   -456.2921141 -0.469410E-07  0.148E-04    0.82      41.9  T
     SCC iter.                  ...        0 min,  1.357 sec
     gradient                   ...        0 min,  0.497 sec
 * total energy  :  -448.3120886 Eh     change       -0.3825481E-02 Eh
   gradient norm :     0.0055839 Eh/α   predicted    -0.3848727E-02 (   0.61%)
   displ. norm   :     0.9011630 α      lambda       -0.3581971E-02
   maximum displ.:     0.6849353 α      in ANC's #39, #35, #33, ...

........................................................................
.............................. CYCLE   41 ..............................
........................................................................
   1   -456.3043442 -0.456304E+03  0.856E-02    0.82       0.0  T
   2   -456.3043484 -0.412274E-05  0.501E-02    0.82       1.0  T
   3   -456.3043354  0.129880E-04  0.605E-03    0.82       1.0  T
   4   -456.3043498 -0.143871E-04  0.168E-03    0.82       3.7  T
   5   -456.3043508 -0.107835E-05  0.766E-04    0.82       8.1  T
   6   -456.3043509 -0.627108E-07  0.416E-04    0.82      14.9  T
   7   -456.3043510 -0.444172E-07  0.172E-04    0.82      36.1  T
     SCC iter.                  ...        0 min,  1.343 sec
     gradient                   ...        0 min,  0.497 sec
 * total energy  :  -448.3152332 Eh     change       -0.3144614E-02 Eh
   gradient norm :     0.0072824 Eh/α   predicted    -0.3245437E-02 (   3.21%)
   displ. norm   :     0.8803233 α      lambda       -0.2996955E-02
   maximum displ.:     0.6530437 α      in ANC's #39, #35, #33, ...

........................................................................
.............................. CYCLE   42 ..............................
........................................................................
   1   -456.3139715 -0.456314E+03  0.827E-02    0.81       0.0  T
   2   -456.3139753 -0.373262E-05  0.484E-02    0.82       1.0  T
   3   -456.3139572  0.180381E-04  0.685E-03    0.81       1.0  T
   4   -456.3139767 -0.194136E-04  0.185E-03    0.81       3.4  T
   5   -456.3139780 -0.129839E-05  0.758E-04    0.81       8.2  T
   6   -456.3139780 -0.428766E-07  0.410E-04    0.81      15.2  T
   7   -456.3139780 -0.348409E-07  0.169E-04    0.81      36.8  T
     SCC iter.                  ...        0 min,  1.344 sec
     gradient                   ...        0 min,  0.497 sec
 * total energy  :  -448.3177696 Eh     change       -0.2536407E-02 Eh
   gradient norm :     0.0072314 Eh/α   predicted    -0.2659755E-02 (   4.86%)
   displ. norm   :     0.8522882 α      lambda       -0.2355448E-02
   maximum displ.:     0.6187212 α      in ANC's #39, #35, #33, ...
 * RMSD in coord.:     1.2056205 α      energy gain  -0.2240930E+00 Eh

generating ANC from model Hessian ...
Using Lindh-Hessian (1995)
 Shifting diagonal of input Hessian by    1.0075502539139435E-002
 Lowest  eigenvalues of input Hessian
    0.010000    0.010023    0.010026    0.010030    0.010036    0.010053
    0.010062    0.010064    0.010070    0.010071    0.010073    0.010074
    0.000000    0.000000    0.000000    0.000000    0.000000    0.000000
 Highest eigenvalues
    2.641195    2.641345    2.648340    2.649769    2.655355    2.662673


........................................................................
.............................. CYCLE   43 ..............................
........................................................................
   1   -456.3240652 -0.456324E+03  0.796E-02    0.81       0.0  T
   2   -456.3240686 -0.338239E-05  0.466E-02    0.81       1.0  T
   3   -456.3240566  0.120244E-04  0.599E-03    0.81       1.0  T
   4   -456.3240700 -0.133873E-04  0.154E-03    0.81       4.0  T
   5   -456.3240708 -0.796257E-06  0.741E-04    0.81       8.4  T
   6   -456.3240708 -0.653815E-07  0.369E-04    0.81      16.8  T
     SCC iter.                  ...        0 min,  1.153 sec
     gradient                   ...        0 min,  0.497 sec
 * total energy  :  -448.3197172 Eh     change       -0.1947580E-02 Eh
   gradient norm :     0.0057845 Eh/α   predicted     0.0000000E+00 (-100.00%)
   displ. norm   :     0.1797096 α      lambda       -0.4391185E-03
   maximum displ.:     0.1277633 α      in ANC's #34, #32, #21, ...

........................................................................
.............................. CYCLE   44 ..............................
........................................................................
   1   -456.3306931 -0.456331E+03  0.171E-02    0.81       0.0  T
   2   -456.3306933 -0.225024E-06  0.101E-02    0.81       1.0  T
   3   -456.3306901  0.319092E-05  0.265E-03    0.81       2.3  T
   4   -456.3306932 -0.311504E-05  0.789E-04    0.81       7.9  T
   5   -456.3306935 -0.315530E-06  0.227E-04    0.81      27.4  T
   6   -456.3306935 -0.899155E-08  0.135E-04    0.81      46.2  T
     SCC iter.                  ...        0 min,  1.154 sec
     gradient                   ...        0 min,  0.497 sec
 * total energy  :  -448.3201185 Eh     change       -0.4012876E-03 Eh
   gradient norm :     0.0028806 Eh/α   predicted    -0.2269730E-03 ( -43.44%)
   displ. norm   :     0.5058868 α      lambda       -0.1016854E-02
   maximum displ.:     0.3149090 α      in ANC's #34, #32, #29, ...

........................................................................
.............................. CYCLE   45 ..............................
........................................................................
   1   -456.3422340 -0.456342E+03  0.455E-02    0.81       0.0  T
   2   -456.3422351 -0.113976E-05  0.267E-02    0.81       1.0  T
   3   -456.3422263  0.885240E-05  0.465E-03    0.81       1.3  T
   4   -456.3422352 -0.892840E-05  0.136E-03    0.81       4.6  T
   5   -456.3422360 -0.829365E-06  0.464E-04    0.81      13.4  T
   6   -456.3422361 -0.253942E-07  0.289E-04    0.81      21.5  T
     SCC iter.                  ...        0 min,  1.155 sec
     gradient                   ...        0 min,  0.497 sec
 * total energy  :  -448.3210038 Eh     change       -0.8853068E-03 Eh
   gradient norm :     0.0051382 Eh/α   predicted    -0.6385450E-03 ( -27.87%)
   displ. norm   :     0.6527576 α      lambda       -0.1052152E-02
   maximum displ.:     0.3921129 α      in ANC's #34, #32, #29, ...

........................................................................
.............................. CYCLE   46 ..............................
........................................................................
   1   -456.3482388 -0.456348E+03  0.579E-02    0.81       0.0  T
   2   -456.3482400 -0.128784E-05  0.339E-02    0.81       1.0  T
   3   -456.3482324  0.761315E-05  0.414E-03    0.81       1.5  T
   4   -456.3482405 -0.805597E-05  0.118E-03    0.81       5.3  T
   5   -456.3482410 -0.553325E-06  0.485E-04    0.81      12.8  T
   6   -456.3482410 -0.576318E-08  0.294E-04    0.81      21.1  T
     SCC iter.                  ...        0 min,  1.155 sec
     gradient                   ...        0 min,  0.498 sec
 * total energy  :  -448.3219257 Eh     change       -0.9219224E-03 Eh
   gradient norm :     0.0065493 Eh/α   predicted    -0.7502333E-03 ( -18.62%)
   displ. norm   :     0.6966388 α      lambda       -0.9212272E-03
   maximum displ.:     0.4136073 α      in ANC's #34, #32, #29, ...

........................................................................
.............................. CYCLE   47 ..............................
........................................................................
   1   -456.3500930 -0.456350E+03  0.619E-02    0.81       0.0  T
   2   -456.3500946 -0.158167E-05  0.363E-02    0.81       1.0  T
   3   -456.3500877  0.691059E-05  0.399E-03    0.81       1.6  T
   4   -456.3500950 -0.730668E-05  0.127E-03    0.81       4.9  T
   5   -456.3500957 -0.676013E-06  0.503E-04    0.81      12.4  T
   6   -456.3500957 -0.781165E-08  0.319E-04    0.81      19.5  T
     SCC iter.                  ...        0 min,  1.154 sec
     gradient                   ...        0 min,  0.498 sec
 * total energy  :  -448.3227044 Eh     change       -0.7787332E-03 Eh
   gradient norm :     0.0044508 Eh/α   predicted    -0.6841536E-03 ( -12.15%)
   displ. norm   :     0.6807317 α      lambda       -0.6528394E-03
   maximum displ.:     0.4014436 α      in ANC's #34, #32, #29, ...

........................................................................
.............................. CYCLE   48 ..............................
........................................................................
   1   -456.3513445 -0.456351E+03  0.603E-02    0.80       0.0  T
   2   -456.3513462 -0.170303E-05  0.353E-02    0.80       1.0  T
   3   -456.3513389  0.730607E-05  0.421E-03    0.80       1.5  T
   4   -456.3513464 -0.758152E-05  0.135E-03    0.80       4.6  T
   5   -456.3513473 -0.840522E-06  0.496E-04    0.80      12.5  T
   6   -456.3513473 -0.201037E-07  0.304E-04    0.80      20.4  T
     SCC iter.                  ...        0 min,  1.170 sec
     gradient                   ...        0 min,  0.498 sec
 * total energy  :  -448.3232199 Eh     change       -0.5154752E-03 Eh
   gradient norm :     0.0024642 Eh/α   predicted    -0.4776823E-03 (  -7.33%)
   displ. norm   :     0.5919095 α      lambda       -0.3565084E-03
   maximum displ.:     0.3447264 α      in ANC's #34, #32, #21, ...

........................................................................
.............................. CYCLE   49 ..............................
........................................................................
   1   -456.3542845 -0.456354E+03  0.518E-02    0.80       0.0  T
   2   -456.3542857 -0.121619E-05  0.303E-02    0.80       1.0  T
   3   -456.3542806  0.514800E-05  0.354E-03    0.80       1.8  T
   4   -456.3542859 -0.528073E-05  0.115E-03    0.80       5.4  T
   5   -456.3542865 -0.662861E-06  0.407E-04    0.80      15.3  T
   6   -456.3542865 -0.130252E-07  0.239E-04    0.80      26.0  T
     SCC iter.                  ...        0 min,  1.155 sec
     gradient                   ...        0 min,  0.498 sec
 * total energy  :  -448.3234841 Eh     change       -0.2641591E-03 Eh
   gradient norm :     0.0027936 Eh/α   predicted    -0.2407071E-03 (  -8.88%)
   displ. norm   :     0.4402162 α      lambda       -0.1646491E-03
   maximum displ.:     0.2486452 α      in ANC's #34, #32, #21, ...

........................................................................
.............................. CYCLE   50 ..............................
........................................................................
   1   -456.3590037 -0.456359E+03  0.380E-02    0.80       0.0  T
   2   -456.3590043 -0.594165E-06  0.223E-02    0.80       1.0  T
   3   -456.3590021  0.215367E-05  0.230E-03    0.80       2.7  T
   4   -456.3590043 -0.221328E-05  0.788E-04    0.80       7.9  T
   5   -456.3590047 -0.310168E-06  0.288E-04    0.80      21.6  T
   6   -456.3590047 -0.587670E-08  0.158E-04    0.80      39.3  T
     SCC iter.                  ...        0 min,  1.154 sec
     gradient                   ...        0 min,  0.572 sec
 * total energy  :  -448.3236033 Eh     change       -0.1191889E-03 Eh
   gradient norm :     0.0026191 Eh/α   predicted    -0.9827932E-04 ( -17.54%)
   displ. norm   :     0.2989796 α      lambda       -0.8477516E-04
   maximum displ.:     0.1549436 α      in ANC's #34, #32, #21, ...

........................................................................
.............................. CYCLE   51 ..............................
........................................................................
   1   -456.3644681 -0.456364E+03  0.260E-02    0.80       0.0  T
   2   -456.3644684 -0.285371E-06  0.153E-02    0.80       1.0  T
   3   -456.3644674  0.924664E-06  0.152E-03    0.80       4.1  T
   4   -456.3644683 -0.900196E-06  0.593E-04    0.80      10.5  T
   5   -456.3644685 -0.180861E-06  0.211E-04    0.80      29.4  T
     SCC iter.                  ...        0 min,  0.966 sec
     gradient                   ...        0 min,  0.499 sec
 * total energy  :  -448.3236657 Eh     change       -0.6239540E-04 Eh
   gradient norm :     0.0018363 Eh/α   predicted    -0.4617664E-04 ( -25.99%)
   displ. norm   :     0.3281712 α      lambda       -0.5829398E-04
   maximum displ.:     0.1337514 α      in ANC's #32, #34, #21, ...

........................................................................
.............................. CYCLE   52 ..............................
........................................................................
   1   -456.3715778 -0.456372E+03  0.301E-02    0.80       0.0  T
   2   -456.3715783 -0.446202E-06  0.176E-02    0.80       1.0  T
   3   -456.3715765  0.181932E-05  0.227E-03    0.80       2.7  T
   4   -456.3715784 -0.190526E-05  0.660E-04    0.80       9.4  T
   5   -456.3715785 -0.169620E-06  0.291E-04    0.80      21.4  T
   6   -456.3715786 -0.179012E-07  0.180E-04    0.80      34.5  T
     SCC iter.                  ...        0 min,  1.166 sec
     gradient                   ...        0 min,  0.647 sec
 * total energy  :  -448.3237198 Eh     change       -0.5410223E-04 Eh
   gradient norm :     0.0016577 Eh/α   predicted    -0.3054242E-04 ( -43.55%)
   displ. norm   :     0.1316754 α      lambda       -0.2914294E-04
   maximum displ.:     0.0667725 α      in ANC's #5, #36, #32, ...

........................................................................
.............................. CYCLE   53 ..............................
........................................................................
   1   -456.3723707 -0.456372E+03  0.136E-02    0.80       0.0  T
   2   -456.3723708 -0.839748E-07  0.800E-03    0.80       1.0  T
   3   -456.3723698  0.938924E-06  0.146E-03    0.80       4.2  T
[...]
 329:  0.00 330:  0.00 331:  0.00 332:  0.00 333:  0.00 334:  0.00 335:  0.00 336:  0.00
 337:  0.00 338:  0.00 339:  0.00 340:  0.00 341:  0.00 342:  0.00 343:  0.00 344:  0.00
 345:  0.00 346:  0.00 347:  0.00 348:  0.00 349:  0.00 350:  0.00 351:  0.00 352:  0.00
 353:  0.00 354:  0.00 355:  0.00 356:  0.00 357:  0.00 358:  0.00 359:  0.00 360:  0.00
 361:  0.00 362:  0.00 363:  0.00 364:  0.00 365:  0.00 366:  0.00 367:  0.00 368:  0.00
 369:  0.00 370:  0.00 371:  0.00 372:  0.00 373:  0.00 374:  0.00 375:  0.00 376:  0.00
 377:  0.00 378:  0.00 379:  0.00 380:  0.00 381:  0.00 382:  0.00 383:  0.00 384:  0.00
 385:  0.00 386:  0.00 387:  0.00 388:  0.00 389:  0.00 390:  0.00 391:  0.00 392:  0.00
 393:  0.00 394:  0.00 395:  0.00 396:  0.00 397:  0.00 398:  0.00 399:  0.00 400:  0.00
 401:  0.00 402:  0.00 403:  0.00 404:  0.00 405:  0.00 406:  0.00 407:  0.00 408:  0.00
 409:  0.00 410:  0.00 411:  0.00 412:  0.00 413:  0.00 414:  0.00 415:  0.00 416:  0.00
 417:  0.00 418:  0.00 419:  0.00 420:  0.00 421:  0.00 422:  0.00 423:  0.00 424:  0.00
 425:  0.00 426:  0.00 427:  0.00 428:  0.00 429:  0.00 430:  0.00 431:  0.00 432:  0.00
 433:  0.00 434:  0.00 435:  0.00 436:  0.00 437:  0.00 438:  0.00 439:  0.00 440:  0.00
 441:  0.00 442:  0.00 443:  0.00 444:  0.00 445:  0.00 446:  0.00 447:  0.00 448:  0.00
 449:  0.00 450:  0.00 451:  0.00 452:  0.00 453:  0.00 454:  0.00 455:  0.00 456:  0.00
 457:  0.00 458:  0.00 459:  0.00 460:  0.00 461:  0.00 462:  0.00 463:  0.00 464:  0.00
 465:  0.00 466:  0.00 467:  0.00 468:  0.00 469:  0.00 470:  0.00 471:  0.00 472:  0.00
 473:  0.00 474:  0.00 475:  0.00 476:  0.00 477:  0.00 478:  0.00 479:  0.00 480:  0.00
 481:  0.00 482:  0.00 483:  0.00 484:  0.00 485:  0.00 486:  0.00 487:  0.00 488:  0.00
 489:  0.00 490:  0.00 491:  0.00 492:  0.00 493:  0.00 494:  0.00 495:  0.00 496:  0.00
 497:  0.00 498:  0.00 499:  0.00 500:  0.00 501:  0.00 502:  0.00 503:  0.00 504:  0.00
 505:  0.00 506:  0.00 507:  0.00 508:  0.00 509:  0.00 510:  0.00 511:  0.00 512:  0.00
 513:  0.00 514:  0.00 515:  0.00 516:  0.00 517:  0.00 518:  0.00 519:  0.00 520:  0.00
 521:  0.00 522:  0.00 523:  0.00 524:  0.00 525:  0.00 526:  0.00 527:  0.00 528:  0.00
 529:  0.00 530:  0.00 531:  0.00 532:  0.00 533:  0.00 534:  0.00 535:  0.00 536:  0.00
 537:  0.00 538:  0.00 539:  0.00 540:  0.00 541:  0.00 542:  0.00 543:  0.00 544:  0.00
 545:  0.00 546:  0.00 547:  0.00 548:  0.00 549:  0.00 550:  0.00 551:  0.00 552:  0.00
 553:  0.00 554:  0.00 555:  0.00 556:  0.00 557:  0.00 558:  0.00 559:  0.00 560:  0.00
 561:  0.00 562:  0.00 563:  0.00 564:  0.00 565:  0.00 566:  0.00 567:  0.00 568:  0.00
 569:  0.00 570:  0.00 571:  0.00 572:  0.00 573:  0.00 574:  0.00 575:  0.00 576:  0.00
 577:  0.00 578:  0.00 579:  0.00 580:  0.00 581:  0.00 582:  0.00 583:  0.00 584:  0.00
 585:  0.00 586:  0.00 587:  0.00 588:  0.00 589:  0.00 590:  0.00 591:  0.00 592:  0.00
 593:  0.00 594:  0.00 595:  0.00 596:  0.00 597:  0.00 598:  0.00 599:  0.00 600:  0.00
 601:  0.00 602:  0.00 603:  0.00 604:  0.00 605:  0.00 606:  0.00 607:  0.00 608:  0.00
 609:  0.00 610:  0.00 611:  0.00 612:  0.00 613:  0.00 614:  0.00 615:  0.00 616:  0.00
 617:  0.00 618:  0.00 619:  0.00 620:  0.00 621:  0.00 622:  0.00 623:  0.00 624:  0.00
 625:  0.00 626:  0.00 627:  0.00 628:  0.00 629:  0.00 630:  0.00 631:  0.00 632:  0.00
 633:  0.00 634:  0.00 635:  0.00 636:  0.00 637:  0.00 638:  0.00 639:  0.00 640:  0.00
 641:  0.00 642:  0.00 643:  0.00 644:  0.00 645:  0.00 646:  0.00 647:  0.00 648:  0.00
 649:  0.00 650:  0.00 651:  0.00 652:  0.00 653:  0.00 654:  0.00 655:  0.00 656:  0.00
 657:  0.00 658:  0.00 659:  0.00 660:  0.00 661:  0.00 662:  0.00 663:  0.00 664:  0.00
 665:  0.00 666:  0.00 667:  0.00 668:  0.00 669:  0.00 670:  0.00 671:  0.00 672:  0.00
 673:  0.00 674:  0.00 675:  0.00 676:  0.00 677:  0.00 678:  0.00 679:  0.00 680:  0.00
 681:  0.00 682:  0.00 683:  0.00 684:  0.00 685:  0.00 686:  0.00 687:  0.00 688:  0.00
 689:  0.00 690:  0.00 691:  0.00 692:  0.00 693:  0.00 694:  0.00 695:  0.00 696:  0.00
 697:  0.00 698:  0.00 699:  0.00 700:  0.00 701:  0.00 702:  0.00 703:  0.00 704:  0.00
 705:  0.00 706:  0.00 707:  0.00 708:  0.00 709:  0.00 710:  0.00 711:  0.00 712:  0.00
 713:  0.00 714:  0.00 715:  0.00 716:  0.00 717:  0.00 718:  0.00 719:  0.00 720:  0.00
 721:  0.00 722:  0.00 723:  0.00 724:  0.00 725:  0.00 726:  0.00 727:  0.00 728:  0.00
 729:  0.00 730:  0.00 731:  0.00 732:  0.00 733:  0.00 734:  0.00 735:  0.00 736:  0.00
 737:  0.00 738:  0.00 739:  0.00 740:  0.00 741:  0.00 742:  0.00 743:  0.00 744:  0.00
 745:  0.00 746:  0.00 747:  0.00 748:  0.00 749:  0.00 750:  0.00 751:  0.00 752:  0.00
 753:  0.00 754:  0.00 755:  0.00 756:  0.00 757:  0.00 758:  0.00 759:  0.00 760:  0.00
 761:  0.00 762:  0.00 763:  0.00 764:  0.00 765:  0.00 766:  0.00 767:  0.00 768:  0.00
 769:  0.00 770:  0.00 771:  0.00 772:  0.00 773:  0.00 774:  0.00 775:  0.00 776:  0.00
 777:  0.00
 output can be read by thermo (or use thermo option).
 writing <g98.out> molden fake output.
 recommended (thermochemical) frequency scaling factor: 1.0
           -------------------------------------------------
          |             Thermodynamic Functions             |
           -------------------------------------------------
 symmetry recognition skipped because # atoms >         200
 inverting freq            1   6.1651695866200580     
 inverting freq            2   4.5133529123638887     
 inverting freq            3   2.9130036490937012     
 inverting freq            4   1.2261280402209034     

          ...................................................
          :                      SETUP                      :
          :.................................................:
          :  # frequencies                         771      :
          :  # imaginary freq.                       0      :
          :  linear?                             false      :
          :  only rotor calc.                    false      :
          :  symmetry                               C1      :
          :  rotational number                       1      :
          :  scaling factor                  1.0000000      :
          :  rotor cutoff                   50.0000000 cm⁻¹ :
          :  imag. cutoff                  -20.0000000 cm⁻¹ :
          :.................................................:

    mode    ω/cm⁻¹     T·S(HO)/kcal·mol⁻¹    T·S(FR)/kcal·mol⁻¹   T·S(vib)
   ------------------------------------------------------------------------
       1      6.17    -2.67502 (  0.02%)    -1.67662 ( 99.98%)    -1.67685
       2      4.51    -2.85979 (  0.01%)    -1.76901 ( 99.99%)    -1.76908
       3      2.91    -3.11921 (  0.00%)    -1.89872 (100.00%)    -1.89873
       4      1.23    -3.63190 (  0.00%)    -2.15506 (100.00%)    -2.15506
       5      1.99    -3.34625 (  0.00%)    -2.01224 (100.00%)    -2.01224
       6      4.40    -2.87523 (  0.01%)    -1.77673 ( 99.99%)    -1.77679
       7      6.40    -2.65311 (  0.03%)    -1.66566 ( 99.97%)    -1.66592
       8      6.91    -2.60709 (  0.04%)    -1.64265 ( 99.96%)    -1.64300
       9      7.79    -2.53606 (  0.06%)    -1.60713 ( 99.94%)    -1.60768
      10      8.34    -2.49606 (  0.08%)    -1.58712 ( 99.92%)    -1.58783
      11     10.58    -2.35515 (  0.20%)    -1.51666 ( 99.80%)    -1.51834
      12     11.51    -2.30509 (  0.28%)    -1.49162 ( 99.72%)    -1.49390
      13     12.52    -2.25557 (  0.39%)    -1.46686 ( 99.61%)    -1.46994
      14     13.98    -2.19012 (  0.61%)    -1.43412 ( 99.39%)    -1.43871
      15     14.31    -2.17603 (  0.67%)    -1.42708 ( 99.33%)    -1.43207
      16     15.25    -2.13870 (  0.86%)    -1.40840 ( 99.14%)    -1.41466
      17     17.21    -2.06690 (  1.38%)    -1.37248 ( 98.62%)    -1.38210
      18     19.15    -2.00365 (  2.11%)    -1.34083 ( 97.89%)    -1.35480
      19     21.08    -1.94694 (  3.06%)    -1.31246 ( 96.94%)    -1.33188
      20     23.83    -1.87418 (  4.91%)    -1.27604 ( 95.09%)    -1.30541
      21     26.35    -1.81489 (  7.16%)    -1.24636 ( 92.84%)    -1.28705
      22     28.58    -1.76663 (  9.65%)    -1.22220 ( 90.35%)    -1.27474
      23     34.76    -1.65090 ( 18.94%)    -1.16422 ( 81.06%)    -1.25641
      24     38.40    -1.59216 ( 25.80%)    -1.13477 ( 74.20%)    -1.25280
      25     40.12    -1.56622 ( 29.31%)    -1.12177 ( 70.69%)    -1.25202
      26     41.52    -1.54604 ( 32.22%)    -1.11164 ( 67.78%)    -1.25159
      27     41.97    -1.53957 ( 33.18%)    -1.10840 ( 66.82%)    -1.25146
      28     43.41    -1.51969 ( 36.23%)    -1.09842 ( 63.77%)    -1.25105
      29     44.07    -1.51082 ( 37.63%)    -1.09397 ( 62.37%)    -1.25083
      30     45.78    -1.48834 ( 41.27%)    -1.08268 ( 58.73%)    -1.25009
      31     46.82    -1.47500 ( 43.48%)    -1.07599 ( 56.52%)    -1.24946
      32     48.56    -1.45359 ( 47.07%)    -1.06524 ( 52.93%)    -1.24804
      33     48.84    -1.45015 ( 47.65%)    -1.06351 ( 52.35%)    -1.24776
      34     53.07    -1.40120 ( 55.93%)    -1.03891 ( 44.07%)    -1.24153
      35     53.54    -1.39595 ( 56.80%)    -1.03627 ( 43.20%)    -1.24058
      36     54.39    -1.38666 ( 58.34%)    -1.03160 ( 41.66%)    -1.23876
      37     57.18    -1.35726 ( 63.10%)    -1.01681 ( 36.90%)    -1.23164
      38     60.01    -1.32877 ( 67.49%)    -1.00247 ( 32.51%)    -1.22268
      39     62.27    -1.30711 ( 70.63%)    -0.99156 ( 29.37%)    -1.21444
      40     68.43    -1.25168 ( 77.81%)    -0.96361 ( 22.19%)    -1.18777
      41     69.74    -1.24048 ( 79.10%)    -0.95796 ( 20.90%)    -1.18144
      42     70.49    -1.23419 ( 79.80%)    -0.95479 ( 20.20%)    -1.17776
      43     71.77    -1.22366 ( 80.94%)    -0.94947 ( 19.06%)    -1.17139
      44     72.11    -1.22088 ( 81.23%)    -0.94807 ( 18.77%)    -1.16967
      45     72.47    -1.21794 ( 81.53%)    -0.94658 ( 18.47%)    -1.16782
      46     73.00    -1.21374 ( 81.96%)    -0.94446 ( 18.04%)    -1.16515
      47     73.47    -1.20992 ( 82.34%)    -0.94253 ( 17.66%)    -1.16270
      48     76.61    -1.18542 ( 84.64%)    -0.93014 ( 15.36%)    -1.14621
      49     77.57    -1.17811 ( 85.28%)    -0.92645 ( 14.72%)    -1.14106
      50     81.42    -1.14980 ( 87.55%)    -0.91212 ( 12.45%)    -1.12020
      51     86.98    -1.11113 ( 90.16%)    -0.89252 (  9.84%)    -1.08962
      52     93.28    -1.07037 ( 92.37%)    -0.87181 (  7.63%)    -1.05523
      53     93.83    -1.06697 ( 92.54%)    -0.87008 (  7.46%)    -1.05228
      54    101.07    -1.02374 ( 94.35%)    -0.84807 (  5.65%)    -1.01381
      55    109.17    -0.97903 ( 95.78%)    -0.82523 (  4.22%)    -0.97254
      56    115.41    -0.94687 ( 96.60%)    -0.80875 (  3.40%)    -0.94217
      57    117.63    -0.93589 ( 96.84%)    -0.80312 (  3.16%)    -0.93169
      58    123.89    -0.90601 ( 97.42%)    -0.78775 (  2.58%)    -0.90295
      59    124.69    -0.90231 ( 97.48%)    -0.78584 (  2.52%)    -0.89938
      60    126.21    -0.89534 ( 97.60%)    -0.78225 (  2.40%)    -0.89262
      61    127.99    -0.88729 ( 97.72%)    -0.77810 (  2.28%)    -0.88481
      62    128.93    -0.88308 ( 97.79%)    -0.77593 (  2.21%)    -0.88071
      63    129.47    -0.88071 ( 97.82%)    -0.77470 (  2.18%)    -0.87840
      64    130.25    -0.87724 ( 97.87%)    -0.77291 (  2.13%)    -0.87502
      65    132.18    -0.86884 ( 97.99%)    -0.76857 (  2.01%)    -0.86683
      66    133.72    -0.86219 ( 98.08%)    -0.76512 (  1.92%)    -0.86033
      67    133.79    -0.86188 ( 98.09%)    -0.76497 (  1.91%)    -0.86003
      68    137.97    -0.84432 ( 98.30%)    -0.75587 (  1.70%)    -0.84282
      69    138.49    -0.84214 ( 98.33%)    -0.75474 (  1.67%)    -0.84068
      70    140.99    -0.83194 ( 98.44%)    -0.74944 (  1.56%)    -0.83066
      71    143.13    -0.82339 ( 98.53%)    -0.74499 (  1.47%)    -0.82224
      72    164.85    -0.74340 ( 99.16%)    -0.70312 (  0.84%)    -0.74306
      73    165.77    -0.74029 ( 99.18%)    -0.70149 (  0.82%)    -0.73997
      74    166.53    -0.73770 ( 99.19%)    -0.70012 (  0.81%)    -0.73740
      75    167.21    -0.73543 ( 99.21%)    -0.69892 (  0.79%)    -0.73514
      76    167.81    -0.73342 ( 99.22%)    -0.69786 (  0.78%)    -0.73314
      77    168.39    -0.73147 ( 99.23%)    -0.69683 (  0.77%)    -0.73120
      78    168.80    -0.73010 ( 99.24%)    -0.69611 (  0.76%)    -0.72984
      79    181.65    -0.68913 ( 99.43%)    -0.67437 (  0.57%)    -0.68904
      80    182.18    -0.68752 ( 99.44%)    -0.67352 (  0.56%)    -0.68744
      81    182.38    -0.68692 ( 99.44%)    -0.67320 (  0.56%)    -0.68684
      82    182.82    -0.68558 ( 99.44%)    -0.67248 (  0.56%)    -0.68550
      83    182.91    -0.68529 ( 99.44%)    -0.67233 (  0.56%)    -0.68522
      84    183.11    -0.68469 ( 99.45%)    -0.67201 (  0.55%)    -0.68462
      85    183.42    -0.68376 ( 99.45%)    -0.67151 (  0.55%)    -0.68370
      86    184.08    -0.68176 ( 99.46%)    -0.67044 (  0.54%)    -0.68170
      87    186.61    -0.67419 ( 99.49%)    -0.66640 (  0.51%)    -0.67415
      88    190.05    -0.66408 ( 99.52%)    -0.66099 (  0.48%)    -0.66406
      89    192.21    -0.65785 ( 99.54%)    -0.65765 (  0.46%)    -0.65785
      90    192.25    -0.65771 ( 99.54%)    -0.65757 (  0.46%)    -0.65771
      91    193.01    -0.65555 ( 99.55%)    -0.65641 (  0.45%)    -0.65555
      92    193.18    -0.65507 ( 99.55%)    -0.65615 (  0.45%)    -0.65508
      93    193.97    -0.65283 ( 99.56%)    -0.65495 (  0.44%)    -0.65284
      94    194.24    -0.65205 ( 99.56%)    -0.65453 (  0.44%)    -0.65206
      95    194.45    -0.65144 ( 99.56%)    -0.65420 (  0.44%)    -0.65145
      96    194.99    -0.64994 ( 99.57%)    -0.65339 (  0.43%)    -0.64995
      97    195.61    -0.64817 ( 99.57%)    -0.65244 (  0.43%)    -0.64819
      98    196.10    -0.64681 ( 99.58%)    -0.65171 (  0.42%)    -0.64683
      99    196.27    -0.64631 ( 99.58%)    -0.65144 (  0.42%)    -0.64633
     100    196.36    -0.64607 ( 99.58%)    -0.65131 (  0.42%)    -0.64609
     101    196.75    -0.64497 ( 99.58%)    -0.65072 (  0.42%)    -0.64499
     102    197.13    -0.64393 ( 99.59%)    -0.65016 (  0.41%)    -0.64396
     103    197.39    -0.64318 ( 99.59%)    -0.64976 (  0.41%)    -0.64321
     104    197.81    -0.64201 ( 99.59%)    -0.64913 (  0.41%)    -0.64204
     105    198.46    -0.64024 ( 99.60%)    -0.64817 (  0.40%)    -0.64027
     106    198.49    -0.64014 ( 99.60%)    -0.64812 (  0.40%)    -0.64017
     107    198.79    -0.63930 ( 99.60%)    -0.64766 (  0.40%)    -0.63934
     108    199.63    -0.63700 ( 99.61%)    -0.64642 (  0.39%)    -0.63704
     109    199.96    -0.63608 ( 99.61%)    -0.64593 (  0.39%)    -0.63612
     110    199.97    -0.63606 ( 99.61%)    -0.64592 (  0.39%)    -0.63610
     111    203.21    -0.62725 ( 99.63%)    -0.64115 (  0.37%)    -0.62731
     112    203.40    -0.62674 ( 99.64%)    -0.64087 (  0.36%)    -0.62679
     113    203.42    -0.62668 ( 99.64%)    -0.64084 (  0.36%)    -0.62673
     114    203.87    -0.62549 ( 99.64%)    -0.64020 (  0.36%)    -0.62554
     115    204.07    -0.62496 ( 99.64%)    -0.63991 (  0.36%)    -0.62501
     116    204.36    -0.62417 ( 99.64%)    -0.63948 (  0.36%)    -0.62422
     117    204.76    -0.62309 ( 99.65%)    -0.63890 (  0.35%)    -0.62315
     118    204.90    -0.62273 ( 99.65%)    -0.63870 (  0.35%)    -0.62278
     119    209.03    -0.61184 ( 99.67%)    -0.63279 (  0.33%)    -0.61191
     120    216.30    -0.59326 ( 99.72%)    -0.62266 (  0.28%)    -0.59335
     121    216.98    -0.59158 ( 99.72%)    -0.62174 (  0.28%)    -0.59167
     122    225.42    -0.57100 ( 99.76%)    -0.61043 (  0.24%)    -0.57109
     123    226.57    -0.56825 ( 99.76%)    -0.60892 (  0.24%)    -0.56835
     124    233.48    -0.55217 ( 99.79%)    -0.60002 (  0.21%)    -0.55228
     125    242.03    -0.53307 ( 99.82%)    -0.58937 (  0.18%)    -0.53317
     126    244.10    -0.52856 ( 99.82%)    -0.58684 (  0.18%)    -0.52866
     127    254.40    -0.50681 ( 99.85%)    -0.57459 (  0.15%)    -0.50691
     128    258.37    -0.49873 ( 99.86%)    -0.57001 (  0.14%)    -0.49883
     129    262.39    -0.49070 ( 99.87%)    -0.56544 (  0.13%)    -0.49080
     130    262.82    -0.48985 ( 99.87%)    -0.56495 (  0.13%)    -0.48994
     131    263.50    -0.48850 ( 99.87%)    -0.56418 (  0.13%)    -0.48860
     132    264.20    -0.48713 ( 99.87%)    -0.56340 (  0.13%)    -0.48723
     133    264.91    -0.48575 ( 99.87%)    -0.56261 (  0.13%)    -0.48585
     134    264.96    -0.48565 ( 99.87%)    -0.56255 (  0.13%)    -0.48575
     135    265.57    -0.48446 ( 99.87%)    -0.56187 (  0.13%)    -0.48456
     136    266.17    -0.48328 ( 99.88%)    -0.56120 (  0.12%)    -0.48337
     137    274.32    -0.46775 ( 99.89%)    -0.55227 (  0.11%)    -0.46784
     138    275.25    -0.46601 ( 99.89%)    -0.55126 (  0.11%)    -0.46610
     139    284.19    -0.44971 ( 99.90%)    -0.54180 (  0.10%)    -0.44979
     140    288.55    -0.44200 ( 99.91%)    -0.53729 (  0.09%)    -0.44208
   ------------------------------------------------------------------------

   temp. (K)  partition function   enthalpy   heat capacity  entropy
                                   cal/mol     cal/K/mol   cal/K/mol   J/K/mol
 298.15  VIB  0.206E+79            92391.875    591.320    588.907
         ROT  0.114E+11              888.752      2.981     49.002
         INT  0.235E+89            93280.628    594.301    637.909
         TR   0.139E+30             1481.254      4.968     49.572
         TOT                       94761.8816   599.2688   687.4813  2876.4218

       T/K    H(0)-H(T)+PV         H(T)/Eh          T*S/Eh         G(T)/Eh
   ------------------------------------------------------------------------
    298.15    0.151013E+00    0.194121E+01    0.326645E+00    0.161457E+01
   ------------------------------------------------------------------------

         :::::::::::::::::::::::::::::::::::::::::::::::::::::
         ::                  THERMODYNAMIC                  ::
         :::::::::::::::::::::::::::::::::::::::::::::::::::::
         :: total free energy        -446.719055123754 Eh   ::
         ::.................................................::
         :: total energy             -448.333620550427 Eh   ::
         :: zero point energy           1.790197311926 Eh   ::
         :: G(RRHO) w/o ZPVE           -0.175631885253 Eh   ::
         :: G(RRHO) contrib.            1.614565426673 Eh   ::
         :::::::::::::::::::::::::::::::::::::::::::::::::::::
imag cut-off (cm-1) :    5.00
 found            1  significant imaginary frequency
 writing imag mode distorted coords to xtbhess.xyz
 for further optimization.

optimized geometry written to: xtbopt.xyz


           -------------------------------------------------
          | TOTAL ENERGY             -448.333620550427 Eh   |
          | TOTAL ENTHALPY           -446.392410567798 Eh   |
          | TOTAL FREE ENERGY        -446.719055123754 Eh   |
          | GRADIENT NORM               0.000418563368 Eh/α |
          | HOMO-LUMO GAP               0.861043181281 eV   |
           -------------------------------------------------

------------------------------------------------------------------------
 * finished run on 2021/11/18 at 22:32:47.583     
------------------------------------------------------------------------
 total:
 * wall-time:     0 d,  0 h, 46 min,  5.410 sec
 *  cpu-time:     0 d,  0 h, 46 min,  5.403 sec
 * ratio c/w:     1.000 speedup
 SCF:
 * wall-time:     0 d,  0 h,  0 min, 10.326 sec
 *  cpu-time:     0 d,  0 h,  0 min, 10.326 sec
 * ratio c/w:     1.000 speedup
 ANC optimizer:
 * wall-time:     0 d,  0 h,  7 min, 14.493 sec
 *  cpu-time:     0 d,  0 h,  7 min, 14.459 sec
 * ratio c/w:     1.000 speedup
 analytical hessian:
 * wall-time:     0 d,  0 h, 38 min, 40.198 sec
 *  cpu-time:     0 d,  0 h, 38 min, 40.225 sec
 * ratio c/w:     1.000 speedup

