259
 energy: -446.680905192012 gnorm: 0.938891871055 xtb: 6.4.1 (bd6e46d)
Zn       50.04493300000000    0.04847000000000   -0.01590500000000
C        52.37392400000000   -3.09832400000000    1.30678400000000
C        53.29003100000000   -2.15411600000000    1.25650200000000
C        52.87885200000001   -1.10021200000000    0.33521000000000
C        53.49772200000000    0.02413400000000   -0.01120000000000
C        52.79368000000000    1.24408200000000   -0.37530500000000
C        53.12179000000000    2.20413700000000   -1.22277800000000
C        52.08701100000000    3.22042200000000   -1.23967600000000
C        51.15074300000001    2.84396000000000   -0.39278500000000
N        51.55273300000000    1.61094900000000    0.17103200000000
C        49.88966800000000    3.48896000000000   -0.01363300000000
C        48.79445100000000    2.85417700000000    0.33712700000000
C        47.72082600000001    3.17213300000000    1.30615500000000
C        46.88326300000000    2.17537900000000    1.22898900000000
C        47.32156000000000    1.17169600000000    0.24853700000000
N        48.42649800000000    1.61054900000000   -0.23575500000000
C        46.71072500000000   -0.08157500000000   -0.16501100000000
C        47.37488600000000   -1.18608100000000   -0.41943500000000
C        47.00103700000000   -2.24902300000000   -1.37696300000000
C        47.94978400000001   -3.14277900000000   -1.28794300000000
C        48.93550800000000   -2.70532900000000   -0.30506600000000
N        48.58246200000000   -1.55952400000000    0.19173200000000
C        50.16639600000000   -3.36139900000000    0.14065600000000
C        51.28943800000000   -2.71553800000000    0.40777600000000
N        51.61803800000001   -1.46809700000000   -0.19062700000000
H        52.43418600000000   -4.00810400000000    1.92433100000000
H        54.20635800000000   -2.19406500000000    1.83455000000000
H        54.04915600000000    2.22093300000000   -1.82392200000000
H        52.10391000000000    4.12511100000000   -1.85229800000000
H        49.84194600000000    4.58376300000000   -0.01741000000000
H        47.66800400000000    4.05085800000000    1.93114800000000
H        45.97163200000000    2.13971000000000    1.84631300000000
H        45.61247500000001   -0.07866400000000   -0.26428200000000
H        46.13218100000001   -2.30148800000000   -2.02591300000000
H        47.94693800000000   -4.05908700000000   -1.88670300000000
H        50.13091400000000   -4.45720100000000    0.25258000000000
Zn      117.46372200000002    0.00109300000000   -0.02033800000000
C       115.13473100000000    2.84788500000000    1.86316700000000
C       114.21862400000001    1.92939600000000    1.63859400000000
C       114.62980399999999    1.06469900000000    0.53778000000000
C       114.01093300000001    0.02413400000000   -0.01120000000000
C       114.71497500000000   -1.10709100000000   -0.59530300000000
C       114.38686500000001   -1.89326200000000   -1.60616900000000
C       115.42164400000000   -2.88877200000000   -1.81131000000000
C       116.35791300000000   -2.67595500000000   -0.90927900000000
N       115.95592200000000   -1.56894400000000   -0.12650800000000
C       117.61898700000002   -3.38009700000000   -0.65636600000000
C       118.71420400000000   -2.82140400000000   -0.19393300000000
C       119.78783000000000   -3.31360900000000    0.69928900000000
C       120.62539300000000   -2.31984200000000    0.80837400000000
C       120.18709500000000   -1.15169400000000    0.03113900000000
N       119.08215700000000   -1.49308600000000   -0.52616000000000
C       120.79793000000001    0.15654200000000   -0.14273000000000
C       120.13376900000000    1.28907500000000   -0.18783700000000
C       120.50761799999999    2.51120100000000   -0.93155200000000
C       119.55887100000001    3.37292800000000   -0.67827300000000
C       118.57314700000001    2.76073300000000    0.20639000000000
N       118.92619300000000    1.54265500000000    0.48200000000000
C       117.34225900000000    3.32272800000000    0.76608500000000
C       116.21921800000000    2.63852300000000    0.90875200000000
N       115.89061700000001    1.52374800000000    0.08931800000000
H       115.07446900000001    3.62731000000000    2.63877100000000
H       113.30229700000000    1.86141500000000    2.21401900000000
H       113.45950000000002   -1.79824600000000   -2.19999400000000
H       115.40474500000001   -3.66410600000000   -2.58112900000000
H       117.66671000000001   -4.45519500000000   -0.86317900000000
H       119.84065099999999   -4.29302600000000    1.15041600000000
H       121.53702300000000   -2.39931400000000    1.42160000000000
H       121.89618000000002    0.17209800000000   -0.24081800000000
H       121.37647400000002    2.68314500000000   -1.55950400000000
H       119.56171700000000    4.38440900000000   -1.09665100000000
H       117.37774100000000    4.37874400000000    1.07935400000000
C        56.11217000000001    0.02413400000000   -0.01120000000000
C        57.32837600000000    0.02413400000000   -0.01120000000000
C        66.92579200000000    0.02413400000000   -0.01120000000000
C        68.14199700000000    0.02413400000000   -0.01120000000000
C        77.73941400000000    0.02413400000000   -0.01120000000000
C        78.95561900000000    0.02413400000000   -0.01120000000000
C        88.55303600000002    0.02413400000000   -0.01120000000000
C        89.76924099999999    0.02413400000000   -0.01120000000000
C        99.36665800000002    0.02413400000000   -0.01120000000000
C       100.58286300000000    0.02413400000000   -0.01120000000000
C       110.18028000000000    0.02413400000000   -0.01120000000000
C       111.39648500000000    0.02413400000000   -0.01120000000000
Zn       62.15858000000001    0.03693500000000    0.00228600000000
C        59.87876900000001   -3.22451200000000   -0.90738000000000
C        58.92256000000000   -2.32516200000000   -1.00940600000000
C        59.31493400000000   -1.16285700000000   -0.20689000000000
C        58.67981700000001   -0.01158400000000    0.00537600000000
C        59.36527400000000    1.26301500000000    0.23160500000000
C        59.02998400000000    2.34161500000000    0.93584500000000
C        60.05452500000000    3.36093200000000    0.84526400000000
C        61.00512300000000    2.86400700000000    0.07189900000000
N        60.62812900000000    1.54740200000000   -0.34424400000000
C        62.25226200000000    3.47570900000000   -0.34496600000000
C        63.35381400000000    2.80845200000000   -0.67673800000000
C        64.34735999999999    3.06043600000000   -1.71090800000000
C        65.24124399999999    2.09957700000000   -1.60942400000000
C        64.86154600000000    1.18769300000000   -0.50544700000000
N        63.76663000000000    1.63701200000000    0.00192000000000
C        65.51875200000001   -0.01158400000000    0.00537600000000
C        64.89534100000000   -1.08076600000000    0.46689300000000
C        65.27405400000001   -2.01288200000000    1.54236800000000
C        64.33338500000001   -2.92702800000000    1.62823400000000
C        63.32508400000000   -2.63124900000000    0.63080700000000
N        63.66285900000000   -1.57787100000000   -0.01848800000000
C        62.07269000000001   -3.33825600000000    0.29961400000000
C        60.95881400000000   -2.74155900000000   -0.04772700000000
N        60.57670200000000   -1.45880200000000    0.36995500000000
H        59.87911400000000   -4.21558600000000   -1.39861400000000
H        58.01402500000000   -2.44685600000000   -1.59055400000000
H        58.10513200000000    2.45996700000000    1.51277100000000
H        60.08182000000000    4.35009600000000    1.30191400000000
H        62.33820200000001    4.57308700000000   -0.40698900000000
H        64.38003300000000    3.86665200000000   -2.43773200000000
H        66.13430500000000    1.98660900000000   -2.24319800000000
H        66.18880400000000   -1.93847500000000    2.15253800000000
H        64.35243199999999   -3.74063600000000    2.33650200000000
H        62.11117500000000   -4.43821500000000    0.35865000000000
Zn       72.97220200000000    0.03693500000000    0.00228600000000
C        70.69239100000000   -3.22451200000000   -0.90738000000000
C        69.73618200000000   -2.32516200000000   -1.00940600000000
C        70.12855600000000   -1.16285700000000   -0.20689000000000
C        69.49343900000000   -0.01158400000000    0.00537600000000
C        70.17889600000001    1.26301500000000    0.23160500000000
C        69.84360599999999    2.34161500000000    0.93584500000000
C        70.86814699999999    3.36093200000000    0.84526400000000
C        71.81874500000002    2.86400700000000    0.07189900000000
N        71.44175100000001    1.54740200000000   -0.34424400000000
C        73.06588400000001    3.47570900000000   -0.34496600000000
C        74.16743600000001    2.80845200000000   -0.67673800000000
C        75.16098200000000    3.06043600000000   -1.71090800000000
C        76.05486600000000    2.09957700000000   -1.60942400000000
C        75.67516700000000    1.18769300000000   -0.50544700000000
N        74.58025200000000    1.63701200000000    0.00192000000000
C        76.33237400000002   -0.01158400000000    0.00537600000000
C        75.70896300000000   -1.08076600000000    0.46689300000000
C        76.08767600000000   -2.01288200000000    1.54236800000000
C        75.14700700000000   -2.92702800000000    1.62823400000000
C        74.13870600000001   -2.63124900000000    0.63080700000000
N        74.47648000000001   -1.57787100000000   -0.01848800000000
C        72.88631200000000   -3.33825600000000    0.29961400000000
C        71.77243600000000   -2.74155900000000   -0.04772700000000
N        71.39032300000000   -1.45880200000000    0.36995500000000
H        70.69273600000001   -4.21558600000000   -1.39861400000000
H        68.82764700000001   -2.44685600000000   -1.59055400000000
H        68.91875400000001    2.45996700000000    1.51277100000000
H        70.89544200000000    4.35009600000000    1.30191400000000
H        73.15182400000000    4.57308700000000   -0.40698900000000
H        75.19365500000001    3.86665200000000   -2.43773200000000
H        76.94792700000001    1.98660900000000   -2.24319800000000
H        77.00242600000000   -1.93847500000000    2.15253800000000
H        75.16605300000002   -3.74063600000000    2.33650200000000
H        72.92479700000000   -4.43821500000000    0.35865000000000
Zn       83.78582400000001    0.03693500000000    0.00228600000000
C        81.50601300000001   -3.22451200000000   -0.90738000000000
C        80.54980399999999   -2.32516200000000   -1.00940600000000
C        80.94217800000000   -1.16285700000000   -0.20689000000000
C        80.30706100000000   -0.01158400000000    0.00537600000000
C        80.99251800000002    1.26301500000000    0.23160500000000
C        80.65722800000000    2.34161500000000    0.93584500000000
C        81.68176900000000    3.36093200000000    0.84526400000000
C        82.63236700000000    2.86400700000000    0.07189900000000
N        82.25537199999999    1.54740200000000   -0.34424400000000
C        83.87950600000002    3.47570900000000   -0.34496600000000
C        84.98105800000000    2.80845200000000   -0.67673800000000
C        85.97460400000001    3.06043600000000   -1.71090800000000
C        86.86848700000000    2.09957700000000   -1.60942400000000
C        86.48878900000001    1.18769300000000   -0.50544700000000
N        85.39387400000000    1.63701200000000    0.00192000000000
C        87.14599600000000   -0.01158400000000    0.00537600000000
C        86.52258500000001   -1.08076600000000    0.46689300000000
C        86.90129700000000   -2.01288200000000    1.54236800000000
C        85.96062900000000   -2.92702800000000    1.62823400000000
C        84.95232700000000   -2.63124900000000    0.63080700000000
N        85.29010200000002   -1.57787100000000   -0.01848800000000
C        83.69993400000000   -3.33825600000000    0.29961400000000
C        82.58605799999999   -2.74155900000000   -0.04772700000000
N        82.20394500000000   -1.45880200000000    0.36995500000000
H        81.50635699999999   -4.21558600000000   -1.39861400000000
H        79.64126899999999   -2.44685600000000   -1.59055400000000
H        79.73237600000000    2.45996700000000    1.51277100000000
H        81.70906400000000    4.35009600000000    1.30191400000000
H        83.96544600000000    4.57308700000000   -0.40698900000000
H        86.00727700000000    3.86665200000000   -2.43773200000000
H        87.76154900000000    1.98660900000000   -2.24319800000000
H        87.81604799999999   -1.93847500000000    2.15253800000000
H        85.97967500000001   -3.74063600000000    2.33650200000000
H        83.73841899999999   -4.43821500000000    0.35865000000000
Zn       94.59944500000000    0.03693500000000    0.00228600000000
C        92.31963500000002   -3.22451200000000   -0.90738000000000
C        91.36342500000001   -2.32516200000000   -1.00940600000000
C        91.75579900000000   -1.16285700000000   -0.20689000000000
C        91.12068300000000   -0.01158400000000    0.00537600000000
C        91.80614000000000    1.26301500000000    0.23160500000000
C        91.47085000000000    2.34161500000000    0.93584500000000
C        92.49539100000000    3.36093200000000    0.84526400000000
C        93.44598800000000    2.86400700000000    0.07189900000000
N        93.06899400000000    1.54740200000000   -0.34424400000000
C        94.69312800000000    3.47570900000000   -0.34496600000000
C        95.79468000000000    2.80845200000000   -0.67673800000000
C        96.78822600000001    3.06043600000000   -1.71090800000000
C        97.68210900000000    2.09957700000000   -1.60942400000000
C        97.30241100000002    1.18769300000000   -0.50544700000000
N        96.20749600000001    1.63701200000000    0.00192000000000
C        97.95961800000001   -0.01158400000000    0.00537600000000
C        97.33620700000000   -1.08076600000000    0.46689300000000
C        97.71491899999999   -2.01288200000000    1.54236800000000
C        96.77425100000001   -2.92702800000000    1.62823400000000
C        95.76594900000001   -2.63124900000000    0.63080700000000
N        96.10372400000000   -1.57787100000000   -0.01848800000000
C        94.51355599999999   -3.33825600000000    0.29961400000000
C        93.39967900000001   -2.74155900000000   -0.04772700000000
N        93.01756700000000   -1.45880200000000    0.36995500000000
H        92.31997900000000   -4.21558600000000   -1.39861400000000
H        90.45489100000000   -2.44685600000000   -1.59055400000000
H        90.54599800000000    2.45996700000000    1.51277100000000
H        92.52268599999999    4.35009600000000    1.30191400000000
H        94.77906800000000    4.57308700000000   -0.40698900000000
H        96.82089800000001    3.86665200000000   -2.43773200000000
H        98.57517100000000    1.98660900000000   -2.24319800000000
H        98.62967000000000   -1.93847500000000    2.15253800000000
H        96.79329700000000   -3.74063600000000    2.33650200000000
H        94.55204100000000   -4.43821500000000    0.35865000000000
Zn      105.41306700000000    0.03693500000000    0.00228600000000
C       103.13325700000000   -3.22451200000000   -0.90738000000000
C       102.17704700000000   -2.32516200000000   -1.00940600000000
C       102.56942100000001   -1.16285700000000   -0.20689000000000
C       101.93430499999999   -0.01158400000000    0.00537600000000
C       102.61976199999999    1.26301500000000    0.23160500000000
C       102.28447199999999    2.34161500000000    0.93584500000000
C       103.30901299999999    3.36093200000000    0.84526400000000
C       104.25961000000000    2.86400700000000    0.07189900000000
N       103.88261600000000    1.54740200000000   -0.34424400000000
C       105.50675000000000    3.47570900000000   -0.34496600000000
C       106.60830199999999    2.80845200000000   -0.67673800000000
C       107.60184800000002    3.06043600000000   -1.71090800000000
C       108.49573100000001    2.09957700000000   -1.60942400000000
C       108.11603300000002    1.18769300000000   -0.50544700000000
N       107.02111800000000    1.63701200000000    0.00192000000000
C       108.77324000000000   -0.01158400000000    0.00537600000000
C       108.14982900000000   -1.08076600000000    0.46689300000000
C       108.52854100000000   -2.01288200000000    1.54236800000000
C       107.58787200000002   -2.92702800000000    1.62823400000000
C       106.57957100000000   -2.63124900000000    0.63080700000000
N       106.91734599999999   -1.57787100000000   -0.01848800000000
C       105.32717800000000   -3.33825600000000    0.29961400000000
C       104.21330100000002   -2.74155900000000   -0.04772700000000
N       103.83118899999999   -1.45880200000000    0.36995500000000
H       103.13360100000000   -4.21558600000000   -1.39861400000000
H       101.26851300000000   -2.44685600000000   -1.59055400000000
H       101.35962000000001    2.45996700000000    1.51277100000000
H       103.33630800000000    4.35009600000000    1.30191400000000
H       105.59269000000000    4.57308700000000   -0.40698900000000
H       107.63452000000001    3.86665200000000   -2.43773200000000
H       109.38879300000001    1.98660900000000   -2.24319800000000
H       109.44329100000002   -1.93847500000000    2.15253800000000
H       107.60691900000000   -3.74063600000000    2.33650200000000
H       105.36566200000001   -4.43821500000000    0.35865000000000
259
 energy: -447.042676501122 gnorm: 0.546015207799 xtb: 6.4.1 (bd6e46d)
Zn       50.05551280130007    0.04870763628638   -0.01471840374725
C        52.37347233497641   -3.10674875961124    1.29910993363579
C        53.30467066775776   -2.15384175580285    1.25248390072631
C        52.87900263765865   -1.10351126337772    0.34077627017149
C        53.49133799307903    0.04289822931840   -0.01067685618527
C        52.78452554877892    1.24006152508683   -0.36782462046462
C        53.13303186753996    2.22958067886099   -1.23954697764644
C        52.11440458530842    3.22299308874594   -1.25209126096465
C        51.14466582586651    2.82319401230682   -0.38604680295619
N        51.53419175110217    1.59352898873617    0.17280015513023
C        49.90783380460928    3.48780557365960   -0.01473651874302
C        48.78388662066223    2.83929529579548    0.33835127188148
C        47.72305476701904    3.17936228937750    1.29054454160698
C        46.85877098974551    2.16766005312706    1.23147540809587
C        47.31425468157948    1.17249732165873    0.26377710119243
N        48.45602203718708    1.59351947119361   -0.22053048769753
C        46.69979335212854   -0.06029381958063   -0.15830531989868
C        47.37849266229696   -1.19056483588091   -0.42474910597628
C        46.99348457413529   -2.24762400300136   -1.36450003096505
C        47.95696414419510   -3.16350145503314   -1.28435675605244
C        48.94477764274730   -2.71590347814061   -0.31265861473626
N        48.58979932694157   -1.53868210159287    0.16896588538545
C        50.14854353616398   -3.36686326430582    0.13312733358993
C        51.29622457622207   -2.70080926041479    0.41037801543463
N        51.61535439514360   -1.46579968649425   -0.16456215307989
H        52.42646081400913   -4.00302541374100    1.91681154499942
H        54.21069275142001   -2.18582465223368    1.83197691743430
H        54.04674238150705    2.22844714807370   -1.82492793809982
H        52.10969134817737    4.12214241016521   -1.85282472761036
H        49.85580516986430    4.57953897764901   -0.01193149352924
H        47.67443720318958    4.04925032505184    1.92546932134127
H        45.96785532924721    2.13144570006880    1.84489694037374
H        45.61433467109655   -0.07142938588907   -0.26848842198873
H        46.13413636321519   -2.29292263124476   -2.01899349895510
H        47.95673123408248   -4.06256084383958   -1.88314949014769
H        50.12664310030147   -4.45265898851907    0.25249774377913
Zn      117.45322283828135    0.00067442370458   -0.01923868923069
C       115.13517914159559    2.85761448333010    1.85717634729836
C       114.20409096121871    1.92983638128947    1.63463552937371
C       114.63017663492136    1.06679987018854    0.54410395979517
C       114.01926388360232    0.00534944737108   -0.01368191169940
C       114.72457552528745   -1.10440821738766   -0.58714080803127
C       114.37572975592958   -1.91511896769069   -1.62733740387617
C       115.39418829401632   -2.88895848765039   -1.82398359264858
C       116.36401705152969   -2.65682382301840   -0.89874784214392
N       115.97459750060516   -1.55252676478282   -0.12139626574243
C       117.60083190891353   -3.37881641789730   -0.65725284423024
C       118.72477480512556   -2.80698515410718   -0.18993796680993
C       119.78557239183090   -3.31778928042658    0.68261829183022
C       120.64992149137345   -2.31269116627485    0.81219158906715
C       120.19447353773921   -1.15527728965410    0.04596536212690
N       119.05257657769938   -1.47922225581268   -0.50806319590005
C       120.80887822250240    0.13433638879628   -0.14005735928833
C       120.13016849635625    1.29449424704896   -0.19226975896344
C       120.51516331608946    2.50745230687690   -0.91957595986890
C       119.55163104536285    3.39261025564233   -0.67091507692169
C       118.56389364743893    2.77254517697919    0.20082304016173
N       118.91887599557209    1.52643300448571    0.45576959518862
C       117.36005870687382    3.32956581732049    0.75973091648113
C       116.21245613059352    2.62372207408973    0.90850879191872
N       115.89349005177948    1.51677590620018    0.11443653226765
H       115.08218674049658    3.62373263745506    2.63044556591679
H       113.29800360462872    1.85377878781762    2.20994481378588
H       113.46194912596729   -1.80542596514491   -2.20238192497610
H       115.39895158588178   -3.66108707622030   -2.58111761179797
H       117.65287402089595   -4.45207757944176   -0.85708862973073
H       119.83421675406446   -4.29039010098774    1.14512566517747
H       121.54081081242352   -2.39092646983455    1.42173106814340
H       121.89433351741755    0.16576066590012   -0.24625234732372
H       121.37452532191566    2.67343565198951   -1.55428577023048
H       119.55191934484515    4.38716951042474   -1.09250267571757
H       117.38203177387172    4.37431466047009    1.07852376519436
C        56.08127805517235    0.02286517895844   -0.01012780444475
C        57.30102667920686    0.03151931924968   -0.01454872334935
C        66.92159952476949    0.03011465251222   -0.00967401086249
C        68.13581292874531    0.03092080725738   -0.01297161944478
C        77.73512639278988    0.03012299268147   -0.00953273624646
C        78.94950313947747    0.03092251232642   -0.01298121012645
C        88.54872848946910    0.03013070649891   -0.00946663001082
C        89.76313586881234    0.03092428518317   -0.01298674262301
C        99.36238880838680    0.03013815321420   -0.00940776841808
C       100.57670593652779    0.03093618392232   -0.01297511308588
C       110.20066151280018    0.03028146902041   -0.00786860526354
C       111.42025064446599    0.02412650262485   -0.01150153018862
Zn       62.14970976133117    0.03920785261987    0.00130478194371
C        59.88034831140888   -3.24087672693712   -0.90131638459937
C        58.91556937376184   -2.32410840844758   -1.00068693139869
C        59.33471941523306   -1.17512163394711   -0.21033246974505
C        58.68731727767884    0.00669026833593    0.00343805648111
C        59.38985013174933    1.26502310049248    0.22817738091947
C        59.02131475241382    2.36588685387735    0.94668563566035
C        60.03161320869261    3.36219720803256    0.85216842969260
C        61.01518606107275    2.84477509246705    0.06710588166657
N        60.64779509893584    1.53678892380625   -0.33449137650930
C        62.23861321835118    3.47499998927438   -0.34563054342581
C        63.36259046459715    2.79676209648113   -0.67774022929219
C        64.35257531431830    3.06750407146185   -1.69901218259324
C        65.26092933965234    2.08789971516934   -1.60763582563700
C        64.86569187833368    1.18794007539831   -0.51979704414336
N        63.73783787276410    1.62153349735790   -0.01301582961637
C        65.52823648169172    0.00590490918000   -0.00348032895508
C        64.88300635345142   -1.09384718794233    0.47406970620674
C        65.28553656609363   -2.01035827784366    1.53283349020440
C        64.32922108221847   -2.94297706245245    1.62634111555004
C        63.31513296330177   -2.63949511762315    0.63971402647664
N        63.65253473595916   -1.54628112910751   -0.00831620775616
C        62.09291761642572   -3.34407490694709    0.30924603179023
C        60.94612498139021   -2.72885000315527   -0.05475335372141
N        60.58626262208224   -1.45017622899655    0.34275209816652
H        59.88375214102072   -4.21204928512901   -1.39482381895969
H        58.01456772288422   -2.43776952169186   -1.58616258179085
H        58.10478564727834    2.46362814391492    1.51321921527133
H        60.07236152001211    4.34462853945612    1.30353748632389
H        62.32294405861120    4.56703746406224   -0.41181246555048
H        64.37334460049901    3.86499282921761   -2.43025018078883
H        66.13462384766208    1.98064696326400   -2.23974637910942
H        66.18361592836627   -1.93362165875141    2.14469104231649
H        64.34552297631973   -3.74608560738172    2.33665452860576
H        62.11656075021331   -4.43488133347011    0.35658248006809
Zn       72.96309514529737    0.03943744598666    0.00130454539091
C        70.69366529935142   -3.24164007849614   -0.90105095196604
C        69.72981951968404   -2.32435666786552   -1.00068699423302
C        70.15089679721046   -1.17740613060531   -0.20778918558147
C        69.50454427606950    0.00635691928030    0.00426605066167
C        70.20556841849630    1.26666919271632    0.22740727497261
C        69.83556398243526    2.36566596744438    0.94660665909120
C        70.84552606592587    3.36278506247305    0.85183912153112
C        71.82916086539043    2.84560292620479    0.06712762551350
N        71.46172864086964    1.53697579136336   -0.33434439203974
C        73.05214041262710    3.47512784362694   -0.34539481724669
C        74.17631162585718    2.79674275976600   -0.67775102399151
C        75.16605955471366    3.06746550453987   -1.69904197363598
C        76.07451704819928    2.08778271795724   -1.60769950329962
C        75.67923933734582    1.18807852393136   -0.51993071099970
N        74.55153050061475    1.62157424618464   -0.01307877464220
C        76.34200320283529    0.00578977262771   -0.00333867758630
C        75.69693099743088   -1.09389736883265    0.47410967872017
C        76.09943929925009   -2.01031709964854    1.53267657899253
C        75.14257326330556   -2.94257039258778    1.62671246070698
C        74.12913006177443   -2.63899133397525    0.64006063599559
N        74.46599134709537   -1.54672362238830   -0.00835691571158
C        72.90584687191442   -3.34427712213201    0.30854159541796
C        71.76040188865615   -2.72980941205786   -0.05471781524058
N        71.40008930747700   -1.44994433874683    0.34255008463728
H        70.69725094327418   -4.21228409465116   -1.39490181277438
H        68.82843306258138   -2.43769809095414   -1.58612159183965
H        68.91856217581497    2.46345091335390    1.51306605419283
H        70.88600520235399    4.34482648186477    1.30354947874454
H        73.13665205701514    4.56710504437154   -0.41164956944907
H        75.18696123459317    3.86498819845281   -2.43022553350849
H        76.94824961711790    1.98064424183797   -2.23972049270216
H        76.99732269923808   -1.93363766675646    2.14464831864526
H        75.15911964320107   -3.74602579738641    2.33663164675924
H        72.93023900271244   -4.43498309699936    0.35593673201493
Zn       83.77665179803678    0.03942010389000    0.00131322337654
C        81.50714946373908   -3.24172838108242   -0.90099136840653
C        80.54350906188866   -2.32446371255836   -1.00073923086512
C        80.96457726349358   -1.17738268949304   -0.20763832686174
C        80.31809405989989    0.00630250111873    0.00423195264579
C        81.01922961522814    1.26675461781669    0.22736185597728
C        80.64925298379399    2.36565933122119    0.94665726170306
C        81.65914319149542    3.36284657234970    0.85179875400321
C        82.64281656626031    2.84565984152547    0.06712221510094
N        82.27527817528141    1.53693018922763   -0.33433771716517
C        83.86571936143471    3.47511229297279   -0.34533907868131
C        84.98996107898448    2.79673917380307   -0.67774282151000
C        85.97965500661678    3.06746357373215   -1.69905427255857
C        86.88812485115540    2.08776037176721   -1.60772595201533
C        86.49281075703179    1.18809793338894   -0.51998454384632
N        85.36518172395971    1.62157697593786   -0.01308359198433
C        87.15564426860715    0.00573797380695   -0.00327683225086
C        86.51065387311965   -1.09388131611407    0.47411333159155
C        86.91315814592302   -2.01033668372569    1.53262418895510
C        85.95615212282220   -2.94245072368757    1.62681299100229
C        84.94283753370698   -2.63883213374737    0.64012418829134
N        85.27954913944981   -1.54686282635747   -0.00836900813481
C        83.71926761990450   -3.34429408335147    0.30838748767767
C        82.57412364377338   -2.72990974860527   -0.05463079899443
N        82.21366823300325   -1.44977639198636    0.34252121731667
H        81.51084673887284   -4.21230286082331   -1.39491617214136
H        79.64207954422888   -2.43771914753438   -1.58614915221769
H        79.73219417791221    2.46346345737277    1.51306071470311
H        81.69962487817175    4.34484542204206    1.30354885615307
H        83.95027060820456    4.56709645300037   -0.41163099887597
H        86.00058164346912    3.86498943887474   -2.43022255529293
H        87.76186980089479    1.98064324936337   -2.23971370088356