      -----------------------------------------------------------      
     |                   =====================                   |     
     |                           x T B                           |     
     |                   =====================                   |     
     |                         S. Grimme                         |     
     |          Mulliken Center for Theoretical Chemistry        |     
     |                    University of Bonn                     |     
      -----------------------------------------------------------      

   * xtb version 6.4.1 (bd6e46d) compiled by 'conda@4901f00b25ba' on 2021-06-10

   xtb is free software: you can redistribute it and/or modify it under
   the terms of the GNU Lesser General Public License as published by
   the Free Software Foundation, either version 3 of the License, or
   (at your option) any later version.
   
   xtb is distributed in the hope that it will be useful,
   but WITHOUT ANY WARRANTY; without even the implied warranty of
   MERCHANTABILITY or FITNESS FOR A PARTICULAR PURPOSE.  See the
   GNU Lesser General Public License for more details.
   
   Cite this work as:
   * C. Bannwarth, E. Caldeweyher, S. Ehlert, A. Hansen, P. Pracht,
     J. Seibert, S. Spicher, S. Grimme, WIREs Comput. Mol. Sci., 2020, 11,
     e01493. DOI: 10.1002/wcms.1493
   
   for GFN2-xTB:
   * C. Bannwarth, S. Ehlert and S. Grimme., J. Chem. Theory Comput., 2019,
     15, 1652-1671. DOI: 10.1021/acs.jctc.8b01176
   for GFN1-xTB:
   * S. Grimme, C. Bannwarth, P. Shushkov, J. Chem. Theory Comput., 2017,
     13, 1989-2009. DOI: 10.1021/acs.jctc.7b00118
   for GFN0-xTB:
   * P. Pracht, E. Caldeweyher, S. Ehlert, S. Grimme, ChemRxiv, 2019, preprint.
     DOI: 10.26434/chemrxiv.8326202.v1
   for GFN-FF:
   * S. Spicher and S. Grimme, Angew. Chem. Int. Ed., 2020, 59, 15665-15673.
     DOI: 10.1002/anie.202004239
   
   for DFT-D4:
   * E. Caldeweyher, C. Bannwarth and S. Grimme, J. Chem. Phys., 2017,
     147, 034112. DOI: 10.1063/1.4993215
   * E. Caldeweyher, S. Ehlert, A. Hansen, H. Neugebauer, S. Spicher,
     C. Bannwarth and S. Grimme, J. Chem. Phys., 2019, 150, 154122.
     DOI: 10.1063/1.5090222
   * E. Caldeweyher, J.-M. Mewes, S. Ehlert and S. Grimme, Phys. Chem. Chem. Phys.
     2020, 22, 8499-8512. DOI: 10.1039/D0CP00502A
   
   for sTDA-xTB:
   * S. Grimme and C. Bannwarth, J. Chem. Phys., 2016, 145, 054103.
     DOI: 10.1063/1.4959605
   
   in the mass-spec context:
   * V. Asgeirsson, C. Bauer and S. Grimme, Chem. Sci., 2017, 8, 4879.
     DOI: 10.1039/c7sc00601b
   * J. Koopman and S. Grimme, ACS Omega 2019, 4, 12, 15120-15133.
     DOI: 10.1021/acsomega.9b02011
   
   for metadynamics refer to:
   * S. Grimme, J. Chem. Theory Comput., 2019, 155, 2847-2862
     DOI: 10.1021/acs.jctc.9b00143
   
   for SPH calculations refer to:
   * S. Spicher and S. Grimme, J. Chem. Theory Comput., 2021, 17, 1701-1714
     DOI: 10.1021/acs.jctc.0c01306
   
   with help from (in alphabetical order)
   P. Atkinson, C. Bannwarth, F. Bohle, G. Brandenburg, E. Caldeweyher
   M. Checinski, S. Dohm, S. Ehlert, S. Ehrlich, I. Gerasimov, J. Koopman
   C. Lavigne, S. Lehtola, F. März, M. Müller, F. Musil, H. Neugebauer
   J. Pisarek, C. Plett, P. Pracht, J. Seibert, P. Shushkov, S. Spicher
   M. Stahn, M. Steiner, T. Strunk, J. Stückrath, T. Rose, and J. Unsleber
   
 * started run on 2021/11/21 at 21:26:13.702     

           -------------------------------------------------
          |                Calculation Setup                |
           -------------------------------------------------

          program call               : /home/jeff/miniconda3/bin/xtb /home/jeff/chem/final-year-proejct/Zn+2_6_8_outenergy/input_structure.xyz --gfn 2 --parallel 1 --etemp 300 --chrg 0 --uhf 0 -I det_control.in
          coordinate file            : /home/jeff/chem/final-year-proejct/Zn+2_6_8_outenergy/input_structure.xyz
          omp threads                :                     1
          number of atoms            :                   324
          number of electrons        :                  1066
          charge                     :                     0
          spin                       :                   0.0
          first test random number   :      0.56137347419461

   ID    Z sym.   atoms
    1   30 Zn     1, 37, 115, 150, 185, 220, 255, 290
    2    6 C      2-9, 11-15, 17-21, 23, 24, 38-45, 47-51, 53-57, 59, 60,
                  73-114, 116-123, 125-129, 131-135, 137, 138, 151-158,
                  160-164, 166-170, 172, 173, 186-193, 195-199, 201-205, 207,
                  208, 221-228, 230-234, 236-240, 242, 243, 256-263, 265-269,
                  271-275, 277, 278, 291-298, 300-304, 306-310, 312, 313
    3    7 N      10, 16, 22, 25, 46, 52, 58, 61, 124, 130, 136, 139, 159,
                  165, 171, 174, 194, 200, 206, 209, 229, 235, 241, 244, 264,
                  270, 276, 279, 299, 305, 311, 314
    4    1 H      26-36, 62-72, 140-149, 175-184, 210-219, 245-254, 280-289,
                  315-324

           -------------------------------------------------
          |                 G F N 2 - x T B                 |
           -------------------------------------------------

        Reference                      10.1021/acs.jctc.8b01176
      * Hamiltonian:
        H0-scaling (s, p, d)           1.850000    2.230000    2.230000
        zeta-weighting                 0.500000
      * Dispersion:
        s8                             2.700000
        a1                             0.520000
        a2                             5.000000
        s9                             5.000000
      * Repulsion:
        kExp                           1.500000    1.000000
        rExp                           1.000000
      * Coulomb:
        alpha                          2.000000
        third order                    shell-resolved
        anisotropic                    true
        a3                             3.000000
        a5                             4.000000
        cn-shift                       1.200000
        cn-exp                         4.000000
        max-rad                        5.000000


          ...................................................
          :                      SETUP                      :
          :.................................................:
          :  # basis functions                1050          :
          :  # atomic orbitals                1050          :
          :  # shells                          566          :
          :  # electrons                      1066          :
          :  max. iterations                   250          :
          :  Hamiltonian                  GFN2-xTB          :
          :  restarted?                      false          :
          :  GBSA solvation                  false          :
          :  PC potential                    false          :
          :  electronic temp.          300.0000000     K    :
          :  accuracy                    1.0000000          :
          :  -> integral cutoff          0.2500000E+02      :
          :  -> integral neglect         0.1000000E-07      :
          :  -> SCF convergence          0.1000000E-05 Eh   :
          :  -> wf. convergence          0.1000000E-03 e    :
          :  Broyden damping             0.4000000          :
          ...................................................

 iter      E             dE          RMSdq      gap      omega  full diag
   1   -581.2397053 -0.581240E+03  0.746E+00    0.84       0.0  T
   2   -582.3320748 -0.109237E+01  0.400E+00    0.80       1.0  T
   3   -581.8352716  0.496803E+00  0.251E+00    0.92       1.0  T
   4   -583.2094432 -0.137417E+01  0.405E-01    0.83       1.0  T
   5   -583.2179005 -0.845725E-02  0.279E-01    0.86       1.0  T
   6   -583.2200654 -0.216490E-02  0.173E-01    0.86       1.0  T
   7   -583.2198027  0.262644E-03  0.113E-01    0.85       1.0  T
   8   -583.2248453 -0.504256E-02  0.373E-02    0.85       1.0  T
   9   -583.2252949 -0.449627E-03  0.147E-02    0.85       1.0  T
  10   -583.2253289 -0.340185E-04  0.751E-03    0.85       1.0  T
  11   -583.2253388 -0.991201E-05  0.285E-03    0.85       2.0  T
  12   -583.2253401 -0.121780E-05  0.113E-03    0.85       4.9  T
  13   -583.2253401 -0.348605E-07  0.784E-04    0.85       7.1  T
  14   -583.2253402 -0.148117E-06  0.348E-04    0.85      16.0  T

   *** convergence criteria satisfied after 14 iterations ***

         #    Occupation            Energy/Eh            Energy/eV
      -------------------------------------------------------------
         1        2.0000           -0.6694294             -18.2161
       ...           ...                  ...                  ...
       527        2.0000           -0.3673856              -9.9971
       528        2.0000           -0.3642591              -9.9120
       529        2.0000           -0.3607086              -9.8154
       530        2.0000           -0.3571071              -9.7174
       531        2.0000           -0.3537527              -9.6261
       532        2.0000           -0.3509887              -9.5509
       533        2.0000           -0.3493116              -9.5053 (HOMO)
       534        0.0000           -0.3179333              -8.6514 (LUMO)
       535                         -0.3156521              -8.5893
       536                         -0.3125772              -8.5057
       537                         -0.3090193              -8.4088
       538                         -0.3052755              -8.3070
       ...                                ...                  ...
      1050                          1.7148304              46.6629
      -------------------------------------------------------------
                  HL-Gap            0.0313783 Eh            0.8538 eV
             Fermi-level           -0.3335863 Eh           -9.0773 eV

 SCC (total)                   0 d,  0 h,  0 min,  6.535 sec
 SCC setup                      ...        0 min,  0.019 sec (  0.288%)
 Dispersion                     ...        0 min,  0.037 sec (  0.565%)
 classical contributions        ...        0 min,  0.003 sec (  0.042%)
 integral evaluation            ...        0 min,  0.277 sec (  4.234%)
 iterations                     ...        0 min,  5.519 sec ( 84.458%)
 molecular gradient             ...        0 min,  0.628 sec (  9.611%)
 printout                       ...        0 min,  0.052 sec (  0.801%)

         :::::::::::::::::::::::::::::::::::::::::::::::::::::
         ::                     SUMMARY                     ::
         :::::::::::::::::::::::::::::::::::::::::::::::::::::
         :: total energy            -572.002855971234 Eh    ::
         :: gradient norm              0.000260736312 Eh/a0 ::
         :: HOMO-LUMO gap              0.853845673773 eV    ::
         ::.................................................::
         :: SCC energy              -583.225340248568 Eh    ::
         :: -> isotropic ES            0.520513124915 Eh    ::
         :: -> anisotropic ES          0.068238099608 Eh    ::
         :: -> anisotropic XC          0.362181856205 Eh    ::
         :: -> dispersion             -0.516501830582 Eh    ::
         :: repulsion energy          11.231478672146 Eh    ::
         :: add. restraining           0.000000000000 Eh    ::
         :: total charge               0.000000000006 e     ::
         :::::::::::::::::::::::::::::::::::::::::::::::::::::

           -------------------------------------------------
          |                Property Printout                |
           -------------------------------------------------

    * Orbital Energies and Occupations

         #    Occupation            Energy/Eh            Energy/eV
      -------------------------------------------------------------
         1        2.0000           -0.6694294             -18.2161
       ...           ...                  ...                  ...
       521        2.0000           -0.3716713             -10.1137
       522        2.0000           -0.3713423             -10.1047
       523        2.0000           -0.3713340             -10.1045
       524        2.0000           -0.3697766             -10.0621
       525        2.0000           -0.3697661             -10.0618
       526        2.0000           -0.3696557             -10.0588
       527        2.0000           -0.3673856              -9.9971
       528        2.0000           -0.3642591              -9.9120
       529        2.0000           -0.3607086              -9.8154
       530        2.0000           -0.3571071              -9.7174
       531        2.0000           -0.3537527              -9.6261
       532        2.0000           -0.3509887              -9.5509
       533        2.0000           -0.3493116              -9.5053 (HOMO)
       534        0.0000           -0.3179333              -8.6514 (LUMO)
       535                         -0.3156521              -8.5893
       536                         -0.3125772              -8.5057
       537                         -0.3090193              -8.4088
       538                         -0.3052755              -8.3070
       539                         -0.3016593              -8.2086
       540                         -0.3009798              -8.1901
       541                         -0.3009776              -8.1900
       542                         -0.3008674              -8.1870
       543                         -0.3008646              -8.1869
       544                         -0.3005339              -8.1779
       ...                                ...                  ...
      1050                          1.7148304              46.6629
      -------------------------------------------------------------
                  HL-Gap            0.0313783 Eh            0.8538 eV
             Fermi-level           -0.3335863 Eh           -9.0773 eV

     #   Z          covCN         q      C6AA      α(0)
     1  30 Zn       3.042     0.245   122.297    21.603
     2   6 C        3.020    -0.052    29.264     8.874
     3   6 C        3.018    -0.050    29.230     8.869
     4   6 C        3.166     0.077    25.938     8.322
     5   6 C        2.953     0.016    27.642     8.623
     6   6 C        3.166     0.077    25.938     8.322
     7   6 C        3.018    -0.050    29.230     8.868
     8   6 C        3.020    -0.052    29.264     8.874
     9   6 C        3.149     0.076    26.049     8.349
    10   7 N        2.632    -0.177    24.839     7.402
    11   6 C        2.901    -0.050    29.232     8.865
    12   6 C        3.145     0.077    26.036     8.348
    13   6 C        3.017    -0.051    29.243     8.870
    14   6 C        3.018    -0.051    29.246     8.871
    15   6 C        3.145     0.077    26.027     8.347
    16   7 N        2.635    -0.175    24.790     7.395
    17   6 C        2.901    -0.051    29.276     8.872
    18   6 C        3.145     0.077    26.027     8.347
    19   6 C        3.018    -0.051    29.246     8.871
    20   6 C        3.017    -0.051    29.243     8.870
    21   6 C        3.145     0.077    26.036     8.348
    22   7 N        2.635    -0.175    24.790     7.395
    23   6 C        2.901    -0.050    29.232     8.865
    24   6 C        3.149     0.076    26.049     8.349
    25   7 N        2.632    -0.177    24.839     7.402
    26   1 H        0.926     0.034     2.533     2.489
    27   1 H        0.926     0.036     2.505     2.475
    28   1 H        0.926     0.036     2.505     2.475
    29   1 H        0.926     0.034     2.533     2.489
    30   1 H        0.926     0.049     2.328     2.386
    31   1 H        0.926     0.034     2.524     2.485
    32   1 H        0.926     0.034     2.526     2.485
    33   1 H        0.926     0.049     2.336     2.390
    34   1 H        0.926     0.034     2.526     2.485
    35   1 H        0.926     0.034     2.524     2.485
    36   1 H        0.926     0.049     2.328     2.386
    37  30 Zn       3.042     0.245   122.297    21.603
    38   6 C        3.020    -0.052    29.264     8.874
    39   6 C        3.018    -0.050    29.230     8.869
    40   6 C        3.166     0.077    25.938     8.322
    41   6 C        2.953     0.016    27.642     8.623
    42   6 C        3.166     0.077    25.938     8.322
    43   6 C        3.018    -0.050    29.229     8.868
    44   6 C        3.020    -0.052    29.264     8.874
    45   6 C        3.149     0.076    26.049     8.349
    46   7 N        2.632    -0.177    24.840     7.402
    47   6 C        2.901    -0.050    29.233     8.865
    48   6 C        3.145     0.077    26.036     8.348
    49   6 C        3.017    -0.051    29.243     8.870
    50   6 C        3.018    -0.051    29.246     8.871
    51   6 C        3.145     0.077    26.027     8.347
    52   7 N        2.635    -0.175    24.790     7.395
    53   6 C        2.901    -0.051    29.276     8.872
    54   6 C        3.145     0.077    26.027     8.347
    55   6 C        3.018    -0.051    29.246     8.871
    56   6 C        3.017    -0.051    29.243     8.870
    57   6 C        3.145     0.077    26.036     8.348
    58   7 N        2.635    -0.175    24.790     7.395
    59   6 C        2.901    -0.050    29.233     8.865
    60   6 C        3.149     0.076    26.049     8.349
    61   7 N        2.632    -0.177    24.839     7.402
    62   1 H        0.926     0.034     2.533     2.489
    63   1 H        0.926     0.036     2.505     2.475
    64   1 H        0.926     0.036     2.505     2.475
    65   1 H        0.926     0.034     2.533     2.489
    66   1 H        0.926     0.049     2.328     2.386
    67   1 H        0.926     0.034     2.524     2.485
    68   1 H        0.926     0.034     2.526     2.485
    69   1 H        0.926     0.049     2.336     2.390
    70   1 H        0.926     0.034     2.526     2.485
    71   1 H        0.926     0.034     2.524     2.485
    72   1 H        0.926     0.049     2.328     2.386
    73   6 C        1.997    -0.019    31.544     9.070
    74   6 C        1.963    -0.011    31.355     9.043
    75   6 C        1.964    -0.002    31.120     9.009
    76   6 C        1.964    -0.003    31.140     9.012
    77   6 C        1.963    -0.010    31.336     9.040
    78   6 C        1.997    -0.020    31.567     9.073
    79   6 C        1.997    -0.019    31.549     9.071
    80   6 C        1.963    -0.010    31.343     9.041
    81   6 C        1.965    -0.002    31.122     9.009
    82   6 C        1.965    -0.002    31.128     9.010
    83   6 C        1.963    -0.010    31.337     9.040
    84   6 C        1.997    -0.019    31.555     9.072
    85   6 C        1.997    -0.019    31.550     9.071
    86   6 C        1.963    -0.010    31.340     9.040
    87   6 C        1.965    -0.002    31.123     9.009
    88   6 C        1.965    -0.002    31.125     9.009
    89   6 C        1.963    -0.010    31.337     9.040
    90   6 C        1.997    -0.019    31.552     9.071
    91   6 C        1.997    -0.019    31.551     9.071
    92   6 C        1.963    -0.010    31.338     9.040
    93   6 C        1.965    -0.002    31.123     9.009
    94   6 C        1.965    -0.002    31.123     9.009
    95   6 C        1.963    -0.010    31.338     9.040
    96   6 C        1.997    -0.019    31.551     9.071
    97   6 C        1.997    -0.019    31.552     9.071
    98   6 C        1.963    -0.010    31.337     9.040
    99   6 C        1.965    -0.002    31.125     9.009
   100   6 C        1.965    -0.002    31.123     9.009
   101   6 C        1.963    -0.010    31.340     9.040
   102   6 C        1.997    -0.019    31.550     9.071
   103   6 C        1.997    -0.019    31.556     9.072
   104   6 C        1.963    -0.010    31.337     9.040
   105   6 C        1.965    -0.002    31.128     9.010
   106   6 C        1.965    -0.002    31.122     9.009
   107   6 C        1.963    -0.010    31.343     9.041
   108   6 C        1.997    -0.019    31.549     9.071
   109   6 C        1.997    -0.020    31.566     9.073
   110   6 C        1.963    -0.010    31.335     9.040
   111   6 C        1.964    -0.003    31.140     9.012
   112   6 C        1.964    -0.002    31.119     9.009
   113   6 C        1.963    -0.011    31.355     9.043
   114   6 C        1.997    -0.019    31.543     9.070
   115  30 Zn       3.038     0.247   122.272    21.600
   116   6 C        3.021    -0.052    29.259     8.873
   117   6 C        3.019    -0.050    29.229     8.868
   118   6 C        3.168     0.078    25.928     8.320
   119   6 C        2.953     0.017    27.631     8.622
   120   6 C        3.167     0.078    25.928     8.320
   121   6 C        3.019    -0.050    29.228     8.868
   122   6 C        3.021    -0.052    29.259     8.873
   123   6 C        3.151     0.075    26.052     8.348
   124   7 N        2.632    -0.177    24.841     7.402
   125   6 C        2.901    -0.047    29.178     8.857
   126   6 C        3.151     0.075    26.053     8.348
   127   6 C        3.021    -0.052    29.258     8.873
   128   6 C        3.018    -0.051    29.231     8.869
   129   6 C        3.168     0.078    25.926     8.320
   130   7 N        2.632    -0.177    24.842     7.402
   131   6 C        2.953     0.017    27.640     8.623
   132   6 C        3.168     0.078    25.925     8.320
   133   6 C        3.019    -0.051    29.231     8.869
   134   6 C        3.021    -0.052    29.258     8.873
   135   6 C        3.151     0.075    26.053     8.348
   136   7 N        2.632    -0.177    24.842     7.402
   137   6 C        2.901    -0.047    29.178     8.857
   138   6 C        3.151     0.075    26.052     8.348
   139   7 N        2.632    -0.177    24.840     7.402
   140   1 H        0.926     0.034     2.530     2.487
   141   1 H        0.926     0.036     2.503     2.474
   142   1 H        0.926     0.036     2.503     2.474
   143   1 H        0.926     0.034     2.530     2.487
   144   1 H        0.925     0.050     2.318     2.381
   145   1 H        0.926     0.034     2.530     2.487
   146   1 H        0.926     0.036     2.505     2.475
   147   1 H        0.926     0.036     2.505     2.475
   148   1 H        0.926     0.034     2.530     2.487
   149   1 H        0.925     0.050     2.318     2.381
   150  30 Zn       3.038     0.247   122.272    21.600
   151   6 C        3.021    -0.052    29.258     8.873
   152   6 C        3.019    -0.050    29.229     8.868
   153   6 C        3.168     0.078    25.926     8.320
   154   6 C        2.953     0.017    27.633     8.622
   155   6 C        3.168     0.078    25.926     8.320
   156   6 C        3.019    -0.050    29.229     8.868
   157   6 C        3.021    -0.052    29.258     8.873
   158   6 C        3.151     0.075    26.052     8.348
   159   7 N        2.632    -0.177    24.840     7.402
   160   6 C        2.901    -0.047    29.176     8.857
   161   6 C        3.151     0.075    26.052     8.348
   162   6 C        3.021    -0.052    29.257     8.873
   163   6 C        3.019    -0.050    29.230     8.868
   164   6 C        3.168     0.078    25.925     8.319
   165   7 N        2.632    -0.177    24.840     7.402
   166   6 C        2.953     0.017    27.636     8.622
   167   6 C        3.168     0.078    25.925     8.320
   168   6 C        3.019    -0.050    29.230     8.868
   169   6 C        3.021    -0.052    29.257     8.873
   170   6 C        3.151     0.075    26.052     8.348
   171   7 N        2.632    -0.177    24.840     7.402
   172   6 C        2.901    -0.047    29.176     8.857
   173   6 C        3.151     0.075    26.052     8.348
   174   7 N        2.632    -0.177    24.840     7.402
   175   1 H        0.926     0.034     2.529     2.487
   176   1 H        0.926     0.036     2.503     2.474
   177   1 H        0.926     0.036     2.503     2.474
   178   1 H        0.926     0.034     2.529     2.487
   179   1 H        0.925     0.050     2.317     2.380
   180   1 H        0.926     0.034     2.529     2.487
   181   1 H        0.926     0.036     2.504     2.474
   182   1 H        0.926     0.036     2.504     2.474
   183   1 H        0.926     0.034     2.529     2.487
   184   1 H        0.925     0.050     2.317     2.380
   185  30 Zn       3.038     0.247   122.272    21.600
   186   6 C        3.021    -0.052    29.257     8.873
   187   6 C        3.019    -0.050    29.230     8.868
   188   6 C        3.168     0.078    25.925     8.319
   189   6 C        2.953     0.017    27.634     8.622
   190   6 C        3.168     0.078    25.925     8.320
   191   6 C        3.019    -0.050    29.229     8.868
   192   6 C        3.021    -0.052    29.257     8.873
   193   6 C        3.151     0.075    26.051     8.348
   194   7 N        2.632    -0.177    24.840     7.402
   195   6 C        2.901    -0.047    29.176     8.856
   196   6 C        3.151     0.075    26.051     8.348
   197   6 C        3.021    -0.052    29.257     8.873
   198   6 C        3.019    -0.050    29.230     8.868
   199   6 C        3.168     0.078    25.925     8.319
   200   7 N        2.632    -0.177    24.840     7.402
   201   6 C        2.953     0.017    27.635     8.622
   202   6 C        3.168     0.078    25.925     8.319
   203   6 C        3.019    -0.050    29.229     8.868
   204   6 C        3.021    -0.052    29.257     8.873
   205   6 C        3.151     0.075    26.051     8.348
   206   7 N        2.632    -0.177    24.840     7.402
   207   6 C        2.901    -0.047    29.176     8.856
   208   6 C        3.151     0.075    26.051     8.348
   209   7 N        2.632    -0.177    24.839     7.402
   210   1 H        0.926     0.034     2.528     2.487
   211   1 H        0.926     0.036     2.503     2.474
   212   1 H        0.926     0.036     2.503     2.474
   213   1 H        0.926     0.034     2.528     2.487
   214   1 H        0.925     0.050     2.317     2.380
   215   1 H        0.926     0.034     2.528     2.487
   216   1 H        0.926     0.036     2.503     2.474
   217   1 H        0.926     0.036     2.503     2.474
   218   1 H        0.926     0.034     2.528     2.487
   219   1 H        0.925     0.050     2.317     2.380
   220  30 Zn       3.038     0.247   122.272    21.600
   221   6 C        3.021    -0.052    29.257     8.873
   222   6 C        3.019    -0.050    29.230     8.868
   223   6 C        3.168     0.078    25.925     8.319
   224   6 C        2.953     0.017    27.635     8.622
   225   6 C        3.168     0.078    25.924     8.319
   226   6 C        3.019    -0.050    29.229     8.868
   227   6 C        3.021    -0.052    29.257     8.873
   228   6 C        3.151     0.075    26.051     8.348
   229   7 N        2.632    -0.177    24.840     7.402
   230   6 C        2.901    -0.047    29.176     8.856
   231   6 C        3.151     0.075    26.051     8.348
   232   6 C        3.021    -0.052    29.257     8.873
   233   6 C        3.019    -0.050    29.230     8.868
   234   6 C        3.168     0.078    25.925     8.319
   235   7 N        2.632    -0.177    24.839     7.402
   236   6 C        2.953     0.017    27.634     8.622
   237   6 C        3.168     0.078    25.925     8.320
   238   6 C        3.019    -0.050    29.229     8.868
   239   6 C        3.021    -0.052    29.257     8.873
   240   6 C        3.151     0.075    26.051     8.348
   241   7 N        2.632    -0.177    24.840     7.402
   242   6 C        2.901    -0.047    29.176     8.856
   243   6 C        3.151     0.075    26.051     8.348
   244   7 N        2.632    -0.177    24.839     7.402
   245   1 H        0.926     0.034     2.528     2.487
   246   1 H        0.926     0.036     2.503     2.474
   247   1 H        0.926     0.036     2.503     2.474
   248   1 H        0.926     0.034     2.528     2.487
   249   1 H        0.925     0.050     2.317     2.380
   250   1 H        0.926     0.034     2.528     2.487
   251   1 H        0.926     0.036     2.503     2.474
   252   1 H        0.926     0.036     2.503     2.474
   253   1 H        0.926     0.034     2.528     2.487
   254   1 H        0.925     0.050     2.317     2.380
   255  30 Zn       3.038     0.247   122.272    21.600
   256   6 C        3.021    -0.052    29.257     8.873
   257   6 C        3.019    -0.050    29.230     8.869
   258   6 C        3.168     0.078    25.925     8.319
   259   6 C        2.953     0.017    27.636     8.622
   260   6 C        3.168     0.078    25.925     8.320
   261   6 C        3.019    -0.050    29.230     8.868
   262   6 C        3.021    -0.052    29.257     8.873
   263   6 C        3.151     0.075    26.052     8.348
   264   7 N        2.632    -0.177    24.840     7.402
   265   6 C        2.901    -0.047    29.176     8.857
   266   6 C        3.151     0.075    26.052     8.348
   267   6 C        3.021    -0.052    29.258     8.873
   268   6 C        3.019    -0.050    29.229     8.868
   269   6 C        3.168     0.078    25.926     8.320
   270   7 N        2.632    -0.177    24.840     7.402
   271   6 C        2.953     0.017    27.633     8.622
   272   6 C        3.168     0.078    25.926     8.320
   273   6 C        3.019    -0.050    29.230     8.868
   274   6 C        3.021    -0.052    29.258     8.873
   275   6 C        3.151     0.075    26.052     8.348
   276   7 N        2.632    -0.177    24.840     7.402
   277   6 C        2.901    -0.047    29.176     8.857
   278   6 C        3.151     0.075    26.052     8.348
   279   7 N        2.632    -0.177    24.840     7.402
   280   1 H        0.926     0.034     2.529     2.487
   281   1 H        0.926     0.036     2.504     2.474
   282   1 H        0.926     0.036     2.504     2.474
   283   1 H        0.926     0.034     2.529     2.487
   284   1 H        0.925     0.050     2.317     2.380
   285   1 H        0.926     0.034     2.529     2.487
   286   1 H        0.926     0.036     2.503     2.474
   287   1 H        0.926     0.036     2.503     2.474
   288   1 H        0.926     0.034     2.529     2.487
   289   1 H        0.925     0.050     2.317     2.380
   290  30 Zn       3.038     0.247   122.273    21.600
   291   6 C        3.021    -0.052    29.258     8.873
   292   6 C        3.018    -0.051    29.231     8.869
   293   6 C        3.168     0.078    25.926     8.320
   294   6 C        2.953     0.017    27.640     8.623
   295   6 C        3.168     0.078    25.926     8.320
   296   6 C        3.019    -0.051    29.230     8.869
   297   6 C        3.021    -0.052    29.258     8.873
   298   6 C        3.151     0.075    26.053     8.348
   299   7 N        2.632    -0.177    24.842     7.402
   300   6 C        2.901    -0.048    29.179     8.857
   301   6 C        3.151     0.075    26.052     8.348
   302   6 C        3.021    -0.052    29.259     8.873
   303   6 C        3.019    -0.050    29.229     8.868
   304   6 C        3.168     0.078    25.928     8.320
   305   7 N        2.632    -0.177    24.841     7.402
   306   6 C        2.953     0.017    27.630     8.622
   307   6 C        3.168     0.078    25.928     8.320
   308   6 C        3.019    -0.050    29.228     8.868
   309   6 C        3.021    -0.052    29.259     8.873
   310   6 C        3.151     0.075    26.051     8.348
   311   7 N        2.632    -0.177    24.841     7.402
   312   6 C        2.901    -0.048    29.179     8.857
   313   6 C        3.151     0.075    26.053     8.348
   314   7 N        2.632    -0.177    24.842     7.402
   315   1 H        0.926     0.034     2.530     2.487
   316   1 H        0.926     0.036     2.505     2.475
   317   1 H        0.926     0.036     2.505     2.475
   318   1 H        0.926     0.034     2.530     2.487
   319   1 H        0.925     0.050     2.318     2.381
   320   1 H        0.926     0.034     2.530     2.487
   321   1 H        0.926     0.036     2.503     2.474
   322   1 H        0.926     0.036     2.503     2.474
   323   1 H        0.926     0.034     2.530     2.487
   324   1 H        0.925     0.050     2.318     2.381

 Mol. C6AA /au·bohr⁶  :    2110938.098906
 Mol. C8AA /au·bohr⁸  :   60236233.766273
 Mol. α(0) /au        :       2372.450331


Wiberg/Mayer (AO) data.
largest (>0.10) Wiberg bond orders for each atom

 ---------------------------------------------------------------------------
     #   Z sym  total        # sym  WBO       # sym  WBO       # sym  WBO
 ---------------------------------------------------------------------------
     1  30 Zn   2.081 --    16 N    0.491    22 N    0.491    10 N    0.489
                            25 N    0.489
     2   6 C    3.953 --     3 C    1.650    24 C    1.171    26 H    0.972
     3   6 C    3.957 --     2 C    1.650     4 C    1.179    27 H    0.971
     4   6 C    3.910 --    25 N    1.286     5 C    1.250     3 C    1.179
     5   6 C    3.942 --     6 C    1.251     4 C    1.250    73 C    1.188
     6   6 C    3.910 --    10 N    1.286     5 C    1.251     7 C    1.179
     7   6 C    3.957 --     8 C    1.650     6 C    1.179    28 H    0.971
     8   6 C    3.953 --     7 C    1.650     9 C    1.171    29 H    0.972
     9   6 C    3.924 --    11 C    1.358    10 N    1.247     8 C    1.171
    10   7 N    3.467 --     6 C    1.286     9 C    1.247     1 Zn   0.489
    11   6 C    3.931 --     9 C    1.358    12 C    1.354    30 H    0.964
    12   6 C    3.929 --    11 C    1.354    16 N    1.261    13 C    1.163
    13   6 C    3.957 --    14 C    1.666    12 C    1.163    31 H    0.972
    14   6 C    3.955 --    13 C    1.666    15 C    1.162    32 H    0.972
    15   6 C    3.932 --    17 C    1.354    16 N    1.263    14 C    1.162
    16   7 N    3.464 --    15 C    1.263    12 C    1.261     1 Zn   0.491
    17   6 C    3.926 --    15 C    1.354    18 C    1.354    33 H    0.964
    18   6 C    3.932 --    17 C    1.354    22 N    1.263    19 C    1.162
    19   6 C    3.955 --    20 C    1.666    18 C    1.162    34 H    0.972
    20   6 C    3.957 --    19 C    1.666    21 C    1.163    35 H    0.972
    21   6 C    3.929 --    23 C    1.354    22 N    1.261    20 C    1.163
    22   7 N    3.464 --    18 C    1.263    21 C    1.261     1 Zn   0.491
    23   6 C    3.931 --    24 C    1.358    21 C    1.354    36 H    0.964
    24   6 C    3.924 --    23 C    1.358    25 N    1.247     2 C    1.171
    25   7 N    3.467 --     4 C    1.286    24 C    1.247     1 Zn   0.489
    26   1 H    0.998 --     2 C    0.972
    27   1 H    0.998 --     3 C    0.971
    28   1 H    0.998 --     7 C    0.971
    29   1 H    0.998 --     8 C    0.972
    30   1 H    0.996 --    11 C    0.964
    31   1 H    0.998 --    13 C    0.972
    32   1 H    0.998 --    14 C    0.972
    33   1 H    0.996 --    17 C    0.964
    34   1 H    0.998 --    19 C    0.972
    35   1 H    0.998 --    20 C    0.972
    36   1 H    0.996 --    23 C    0.964
    37  30 Zn   2.081 --    52 N    0.491    58 N    0.491    46 N    0.489
                            61 N    0.489
    38   6 C    3.953 --    39 C    1.650    60 C    1.171    62 H    0.972
    39   6 C    3.957 --    38 C    1.650    40 C    1.179    63 H    0.971
    40   6 C    3.910 --    61 N    1.286    41 C    1.251    39 C    1.179
    41   6 C    3.942 --    42 C    1.251    40 C    1.251   114 C    1.187
    42   6 C    3.911 --    46 N    1.286    41 C    1.251    43 C    1.179
    43   6 C    3.957 --    44 C    1.650    42 C    1.179    64 H    0.971
    44   6 C    3.953 --    43 C    1.650    45 C    1.171    65 H    0.972
    45   6 C    3.924 --    47 C    1.358    46 N    1.247    44 C    1.171
    46   7 N    3.467 --    42 C    1.286    45 C    1.247    37 Zn   0.489
    47   6 C    3.931 --    45 C    1.358    48 C    1.354    66 H    0.964
    48   6 C    3.929 --    47 C    1.354    52 N    1.261    49 C    1.163
    49   6 C    3.957 --    50 C    1.666    48 C    1.163    67 H    0.972
    50   6 C    3.955 --    49 C    1.666    51 C    1.162    68 H    0.972
    51   6 C    3.932 --    53 C    1.354    52 N    1.263    50 C    1.162
    52   7 N    3.464 --    51 C    1.263    48 C    1.261    37 Zn   0.491
    53   6 C    3.926 --    51 C    1.354    54 C    1.354    69 H    0.964
    54   6 C    3.932 --    53 C    1.354    58 N    1.263    55 C    1.162
    55   6 C    3.955 --    56 C    1.666    54 C    1.162    70 H    0.972
    56   6 C    3.957 --    55 C    1.666    57 C    1.163    71 H    0.972
    57   6 C    3.929 --    59 C    1.354    58 N    1.261    56 C    1.163
    58   7 N    3.464 --    54 C    1.263    57 C    1.261    37 Zn   0.491
    59   6 C    3.931 --    60 C    1.358    57 C    1.354    72 H    0.964
    60   6 C    3.924 --    59 C    1.358    61 N    1.247    38 C    1.171
    61   7 N    3.467 --    40 C    1.286    60 C    1.247    37 Zn   0.489
    62   1 H    0.998 --    38 C    0.972
    63   1 H    0.998 --    39 C    0.971
    64   1 H    0.998 --    43 C    0.971
    65   1 H    0.998 --    44 C    0.972
    66   1 H    0.996 --    47 C    0.964
    67   1 H    0.998 --    49 C    0.972
    68   1 H    0.998 --    50 C    0.972
    69   1 H    0.996 --    53 C    0.964
    70   1 H    0.998 --    55 C    0.972
    71   1 H    0.998 --    56 C    0.972
    72   1 H    0.996 --    59 C    0.964
    73   6 C    3.883 --    74 C    2.442     5 C    1.188    76 C    0.193
    74   6 C    3.927 --    73 C    2.442    75 C    1.333
    75   6 C    3.918 --    76 C    2.356    74 C    1.333    78 C    0.192
    76   6 C    3.920 --    75 C    2.356    77 C    1.333    73 C    0.193
    77   6 C    3.924 --    78 C    2.440    76 C    1.333
    78   6 C    3.884 --    77 C    2.440   119 C    1.190    75 C    0.192
    79   6 C    3.882 --    80 C    2.438   131 C    1.191    82 C    0.192
    80   6 C    3.924 --    79 C    2.438    81 C    1.335
    81   6 C    3.918 --    82 C    2.353    80 C    1.335    84 C    0.192
    82   6 C    3.918 --    81 C    2.353    83 C    1.335    79 C    0.192
    83   6 C    3.924 --    84 C    2.438    82 C    1.335
    84   6 C    3.883 --    83 C    2.438   154 C    1.191    81 C    0.192
    85   6 C    3.882 --    86 C    2.438   166 C    1.191    88 C    0.192
    86   6 C    3.924 --    85 C    2.438    87 C    1.335
    87   6 C    3.918 --    88 C    2.353    86 C    1.335    90 C    0.192
    88   6 C    3.918 --    87 C    2.353    89 C    1.335    85 C    0.192
    89   6 C    3.924 --    90 C    2.438    88 C    1.335
    90   6 C    3.882 --    89 C    2.438   189 C    1.191    87 C    0.192
    91   6 C    3.882 --    92 C    2.438   201 C    1.191    94 C    0.192
    92   6 C    3.924 --    91 C    2.438    93 C    1.335
    93   6 C    3.918 --    94 C    2.353    92 C    1.335    96 C    0.192
    94   6 C    3.918 --    93 C    2.353    95 C    1.335    91 C    0.192
    95   6 C    3.924 --    96 C    2.438    94 C    1.335
    96   6 C    3.882 --    95 C    2.438   224 C    1.191    93 C    0.192
    97   6 C    3.882 --    98 C    2.438   236 C    1.191   100 C    0.192
    98   6 C    3.924 --    97 C    2.438    99 C    1.335
    99   6 C    3.918 --   100 C    2.353    98 C    1.335   102 C    0.192
   100   6 C    3.918 --    99 C    2.353   101 C    1.335    97 C    0.192
   101   6 C    3.924 --   102 C    2.438   100 C    1.335
   102   6 C    3.882 --   101 C    2.438   259 C    1.191    99 C    0.192
   103   6 C    3.883 --   104 C    2.438   271 C    1.191   106 C    0.192
   104   6 C    3.924 --   103 C    2.438   105 C    1.335
   105   6 C    3.918 --   106 C    2.353   104 C    1.335   108 C    0.192
   106   6 C    3.918 --   105 C    2.353   107 C    1.335   103 C    0.192
   107   6 C    3.924 --   108 C    2.438   106 C    1.335
   108   6 C    3.882 --   107 C    2.438   294 C    1.191   105 C    0.192
   109   6 C    3.884 --   110 C    2.440   306 C    1.190   112 C    0.192
   110   6 C    3.924 --   109 C    2.440   111 C    1.333
   111   6 C    3.920 --   112 C    2.357   110 C    1.333   114 C    0.193
   112   6 C    3.918 --   111 C    2.357   113 C    1.332   109 C    0.192
   113   6 C    3.927 --   114 C    2.443   112 C    1.332
   114   6 C    3.883 --   113 C    2.443    41 C    1.187   111 C    0.193
   115  30 Zn   2.076 --   130 N    0.489   139 N    0.489   124 N    0.489
                           136 N    0.489
   116   6 C    3.954 --   117 C    1.648   138 C    1.173   140 H    0.972
   117   6 C    3.955 --   116 C    1.648   118 C    1.181   141 H    0.971
   118   6 C    3.911 --   139 N    1.287   119 C    1.248   117 C    1.181
   119   6 C    3.930 --   120 C    1.248   118 C    1.248    78 C    1.190
   120   6 C    3.911 --   124 N    1.287   119 C    1.248   121 C    1.181
   121   6 C    3.955 --   122 C    1.648   120 C    1.181   142 H    0.971
   122   6 C    3.954 --   121 C    1.648   123 C    1.173   143 H    0.972
   123   6 C    3.923 --   125 C    1.356   124 N    1.245   122 C    1.173
   124   7 N    3.460 --   120 C    1.287   123 C    1.245   115 Zn   0.489
   125   6 C    3.926 --   126 C    1.357   123 C    1.356   144 H    0.964
   126   6 C    3.923 --   125 C    1.357   130 N    1.244   127 C    1.173
   127   6 C    3.954 --   128 C    1.648   126 C    1.173   145 H    0.972
   128   6 C    3.955 --   127 C    1.648   129 C    1.181   146 H    0.971
   129   6 C    3.911 --   130 N    1.288   131 C    1.248   128 C    1.181
   130   7 N    3.460 --   129 C    1.288   126 C    1.244   115 Zn   0.489
   131   6 C    3.930 --   132 C    1.248   129 C    1.248    79 C    1.191
   132   6 C    3.911 --   136 N    1.288   131 C    1.248   133 C    1.181
   133   6 C    3.955 --   134 C    1.648   132 C    1.181   147 H    0.971
   134   6 C    3.954 --   133 C    1.648   135 C    1.173   148 H    0.972
   135   6 C    3.923 --   137 C    1.357   136 N    1.244   134 C    1.173
   136   7 N    3.460 --   132 C    1.288   135 C    1.244   115 Zn   0.489
   137   6 C    3.926 --   135 C    1.357   138 C    1.356   149 H    0.964
   138   6 C    3.923 --   137 C    1.356   139 N    1.245   116 C    1.173
   139   7 N    3.460 --   118 C    1.287   138 C    1.245   115 Zn   0.489
   140   1 H    0.998 --   116 C    0.972
   141   1 H    0.998 --   117 C    0.971
   142   1 H    0.998 --   121 C    0.971
   143   1 H    0.998 --   122 C    0.972
   144   1 H    0.996 --   125 C    0.964
   145   1 H    0.998 --   127 C    0.972
   146   1 H    0.998 --   128 C    0.971
   147   1 H    0.998 --   133 C    0.971
   148   1 H    0.998 --   134 C    0.972
   149   1 H    0.996 --   137 C    0.964
   150  30 Zn   2.076 --   174 N    0.489   171 N    0.489   165 N    0.489
                           159 N    0.489
   151   6 C    3.953 --   152 C    1.648   173 C    1.173   175 H    0.972
   152   6 C    3.955 --   151 C    1.648   153 C    1.181   176 H    0.971
   153   6 C    3.911 --   174 N    1.288   154 C    1.248   152 C    1.181
   154   6 C    3.930 --   153 C    1.248   155 C    1.247    84 C    1.191
   155   6 C    3.911 --   159 N    1.288   154 C    1.247   156 C    1.181
   156   6 C    3.955 --   157 C    1.648   155 C    1.181   177 H    0.971
   157   6 C    3.953 --   156 C    1.648   158 C    1.173   178 H    0.972
   158   6 C    3.922 --   160 C    1.356   159 N    1.244   157 C    1.173
   159   7 N    3.460 --   155 C    1.288   158 C    1.244   150 Zn   0.489
   160   6 C    3.925 --   161 C    1.356   158 C    1.356   179 H    0.964
   161   6 C    3.923 --   160 C    1.356   165 N    1.244   162 C    1.173
   162   6 C    3.954 --   163 C    1.648   161 C    1.173   180 H    0.972
   163   6 C    3.955 --   162 C    1.648   164 C    1.181   181 H    0.971
   164   6 C    3.911 --   165 N    1.288   166 C    1.247   163 C    1.181
   165   7 N    3.460 --   164 C    1.288   161 C    1.244   150 Zn   0.489
   166   6 C    3.930 --   167 C    1.248   164 C    1.247    85 C    1.191
   167   6 C    3.911 --   171 N    1.288   166 C    1.248   168 C    1.181
   168   6 C    3.955 --   169 C    1.648   167 C    1.181   182 H    0.971
   169   6 C    3.953 --   168 C    1.648   170 C    1.173   183 H    0.972
   170   6 C    3.923 --   172 C    1.356   171 N    1.244   169 C    1.173
   171   7 N    3.460 --   167 C    1.288   170 C    1.244   150 Zn   0.489
   172   6 C    3.925 --   170 C    1.356   173 C    1.356   184 H    0.964
   173   6 C    3.923 --   172 C    1.356   174 N    1.244   151 C    1.173
   174   7 N    3.460 --   153 C    1.288   173 C    1.244   150 Zn   0.489
   175   1 H    0.998 --   151 C    0.972
   176   1 H    0.998 --   152 C    0.971
   177   1 H    0.998 --   156 C    0.971
   178   1 H    0.998 --   157 C    0.972
   179   1 H    0.996 --   160 C    0.964
   180   1 H    0.998 --   162 C    0.972
   181   1 H    0.998 --   163 C    0.971
   182   1 H    0.998 --   168 C    0.971
   183   1 H    0.998 --   169 C    0.972
   184   1 H    0.996 --   172 C    0.964
   185  30 Zn   2.076 --   200 N    0.489   209 N    0.489   194 N    0.489
                           206 N    0.489
   186   6 C    3.953 --   187 C    1.648   208 C    1.173   210 H    0.972
   187   6 C    3.955 --   186 C    1.648   188 C    1.181   211 H    0.971
   188   6 C    3.911 --   209 N    1.288   189 C    1.247   187 C    1.181
   189   6 C    3.930 --   190 C    1.248   188 C    1.247    90 C    1.191
   190   6 C    3.911 --   194 N    1.288   189 C    1.248   191 C    1.181
   191   6 C    3.955 --   192 C    1.648   190 C    1.181   212 H    0.971
   192   6 C    3.953 --   191 C    1.648   193 C    1.173   213 H    0.972
   193   6 C    3.923 --   195 C    1.356   194 N    1.244   192 C    1.173
   194   7 N    3.460 --   190 C    1.288   193 C    1.244   185 Zn   0.489
   195   6 C    3.925 --   196 C    1.356   193 C    1.356   214 H    0.964
   196   6 C    3.923 --   195 C    1.356   200 N    1.244   197 C    1.173
   197   6 C    3.953 --   198 C    1.648   196 C    1.173   215 H    0.972
   198   6 C    3.955 --   197 C    1.648   199 C    1.181   216 H    0.971
   199   6 C    3.911 --   200 N    1.288   201 C    1.247   198 C    1.181
   200   7 N    3.460 --   199 C    1.288   196 C    1.244   185 Zn   0.489
   201   6 C    3.930 --   202 C    1.247   199 C    1.247    91 C    1.191
   202   6 C    3.911 --   206 N    1.288   201 C    1.247   203 C    1.181
   203   6 C    3.955 --   204 C    1.648   202 C    1.181   217 H    0.971
   204   6 C    3.953 --   203 C    1.648   205 C    1.173   218 H    0.972
   205   6 C    3.923 --   207 C    1.356   206 N    1.244   204 C    1.173
   206   7 N    3.460 --   202 C    1.288   205 C    1.244   185 Zn   0.489
   207   6 C    3.925 --   205 C    1.356   208 C    1.356   219 H    0.964
   208   6 C    3.922 --   207 C    1.356   209 N    1.244   186 C    1.173
   209   7 N    3.460 --   188 C    1.288   208 C    1.244   185 Zn   0.489
   210   1 H    0.998 --   186 C    0.972
   211   1 H    0.998 --   187 C    0.971
   212   1 H    0.998 --   191 C    0.971
   213   1 H    0.998 --   192 C    0.972
   214   1 H    0.996 --   195 C    0.964
   215   1 H    0.998 --   197 C    0.972
   216   1 H    0.998 --   198 C    0.971
   217   1 H    0.998 --   203 C    0.971
   218   1 H    0.998 --   204 C    0.972
   219   1 H    0.996 --   207 C    0.964
   220  30 Zn   2.076 --   241 N    0.489   244 N    0.489   235 N    0.489
                           229 N    0.489
   221   6 C    3.953 --   222 C    1.648   243 C    1.173   245 H    0.972
   222   6 C    3.955 --   221 C    1.648   223 C    1.181   246 H    0.971
   223   6 C    3.911 --   244 N    1.288   224 C    1.247   222 C    1.181
   224   6 C    3.930 --   225 C    1.247   223 C    1.247    96 C    1.191
   225   6 C    3.911 --   229 N    1.288   224 C    1.247   226 C    1.181
   226   6 C    3.955 --   227 C    1.648   225 C    1.181   247 H    0.971
   227   6 C    3.953 --   226 C    1.648   228 C    1.173   248 H    0.972
   228   6 C    3.923 --   230 C    1.356   229 N    1.244   227 C    1.173
   229   7 N    3.460 --   225 C    1.288   228 C    1.244   220 Zn   0.489
   230   6 C    3.925 --   228 C    1.356   231 C    1.356   249 H    0.964
   231   6 C    3.922 --   230 C    1.356   235 N    1.244   232 C    1.173
   232   6 C    3.953 --   233 C    1.648   231 C    1.173   250 H    0.972
   233   6 C    3.955 --   232 C    1.648   234 C    1.181   251 H    0.971
   234   6 C    3.911 --   235 N    1.288   236 C    1.247   233 C    1.181
   235   7 N    3.460 --   234 C    1.288   231 C    1.244   220 Zn   0.489
   236   6 C    3.930 --   237 C    1.248   234 C    1.247    97 C    1.191
   237   6 C    3.911 --   241 N    1.288   236 C    1.248   238 C    1.181
   238   6 C    3.955 --   239 C    1.648   237 C    1.181   252 H    0.971
   239   6 C    3.953 --   238 C    1.648   240 C    1.173   253 H    0.972
   240   6 C    3.923 --   242 C    1.356   241 N    1.244   239 C    1.173
   241   7 N    3.460 --   237 C    1.288   240 C    1.244   220 Zn   0.489
   242   6 C    3.925 --   243 C    1.356   240 C    1.356   254 H    0.964
   243   6 C    3.923 --   242 C    1.356   244 N    1.244   221 C    1.173
   244   7 N    3.460 --   223 C    1.288   243 C    1.244   220 Zn   0.489
   245   1 H    0.998 --   221 C    0.972
   246   1 H    0.998 --   222 C    0.971
   247   1 H    0.998 --   226 C    0.971
   248   1 H    0.998 --   227 C    0.972
   249   1 H    0.996 --   230 C    0.964
   250   1 H    0.998 --   232 C    0.972
   251   1 H    0.998 --   233 C    0.971
   252   1 H    0.998 --   238 C    0.971
   253   1 H    0.998 --   239 C    0.972
   254   1 H    0.996 --   242 C    0.964
   255  30 Zn   2.076 --   270 N    0.489   264 N    0.489   279 N    0.489
                           276 N    0.489
   256   6 C    3.954 --   257 C    1.648   278 C    1.173   280 H    0.972
   257   6 C    3.955 --   256 C    1.648   258 C    1.181   281 H    0.971
   258   6 C    3.911 --   279 N    1.288   259 C    1.247   257 C    1.181
   259   6 C    3.930 --   260 C    1.248   258 C    1.247   102 C    1.191
   260   6 C    3.911 --   264 N    1.288   259 C    1.248   261 C    1.181
   261   6 C    3.955 --   262 C    1.648   260 C    1.181   282 H    0.971
   262   6 C    3.954 --   261 C    1.648   263 C    1.173   283 H    0.972
   263   6 C    3.923 --   265 C    1.356   264 N    1.244   262 C    1.173
   264   7 N    3.460 --   260 C    1.288   263 C    1.244   255 Zn   0.489
   265   6 C    3.925 --   263 C    1.356   266 C    1.356   284 H    0.964
   266   6 C    3.923 --   265 C    1.356   270 N    1.244   267 C    1.173
   267   6 C    3.953 --   268 C    1.648   266 C    1.173   285 H    0.972
   268   6 C    3.955 --   267 C    1.648   269 C    1.181   286 H    0.971
   269   6 C    3.911 --   270 N    1.288   271 C    1.248   268 C    1.181
   270   7 N    3.460 --   269 C    1.288   266 C    1.244   255 Zn   0.489
   271   6 C    3.930 --   269 C    1.248   272 C    1.247   103 C    1.191
   272   6 C    3.911 --   276 N    1.288   271 C    1.247   273 C    1.181
   273   6 C    3.955 --   274 C    1.648   272 C    1.181   287 H    0.971
   274   6 C    3.953 --   273 C    1.648   275 C    1.173   288 H    0.972
   275   6 C    3.923 --   277 C    1.356   276 N    1.244   274 C    1.173
   276   7 N    3.460 --   272 C    1.288   275 C    1.244   255 Zn   0.489
   277   6 C    3.925 --   278 C    1.356   275 C    1.356   289 H    0.964
   278   6 C    3.923 --   277 C    1.356   279 N    1.244   256 C    1.173
   279   7 N    3.460 --   258 C    1.288   278 C    1.244   255 Zn   0.489
   280   1 H    0.998 --   256 C    0.972
   281   1 H    0.998 --   257 C    0.971
   282   1 H    0.998 --   261 C    0.971
   283   1 H    0.998 --   262 C    0.972
   284   1 H    0.996 --   265 C    0.964
   285   1 H    0.998 --   267 C    0.972
   286   1 H    0.998 --   268 C    0.971
   287   1 H    0.998 --   273 C    0.971
   288   1 H    0.998 --   274 C    0.972
   289   1 H    0.996 --   277 C    0.964
   290  30 Zn   2.076 --   299 N    0.489   314 N    0.489   311 N    0.489
                           305 N    0.489
   291   6 C    3.954 --   292 C    1.648   313 C    1.173   315 H    0.972
   292   6 C    3.955 --   291 C    1.648   293 C    1.181   316 H    0.971
   293   6 C    3.911 --   314 N    1.288   294 C    1.248   292 C    1.181
   294   6 C    3.930 --   295 C    1.248   293 C    1.248   108 C    1.191
   295   6 C    3.911 --   299 N    1.288   294 C    1.248   296 C    1.181
   296   6 C    3.955 --   297 C    1.648   295 C    1.181   317 H    0.971
   297   6 C    3.954 --   296 C    1.648   298 C    1.173   318 H    0.972
   298   6 C    3.923 --   300 C    1.357   299 N    1.244   297 C    1.173
   299   7 N    3.460 --   295 C    1.288   298 C    1.244   290 Zn   0.489
   300   6 C    3.926 --   298 C    1.357   301 C    1.356   319 H    0.964
   301   6 C    3.923 --   300 C    1.356   305 N    1.245   302 C    1.173
   302   6 C    3.954 --   303 C    1.648   301 C    1.173   320 H    0.972
   303   6 C    3.955 --   302 C    1.648   304 C    1.181   321 H    0.971
   304   6 C    3.911 --   305 N    1.287   306 C    1.248   303 C    1.181
   305   7 N    3.460 --   304 C    1.287   301 C    1.245   290 Zn   0.489
   306   6 C    3.930 --   307 C    1.248   304 C    1.248   109 C    1.190
   307   6 C    3.911 --   311 N    1.287   306 C    1.248   308 C    1.181
   308   6 C    3.955 --   309 C    1.648   307 C    1.181   322 H    0.971
   309   6 C    3.954 --   308 C    1.648   310 C    1.173   323 H    0.972
   310   6 C    3.923 --   312 C    1.356   311 N    1.245   309 C    1.173
   311   7 N    3.460 --   307 C    1.287   310 C    1.245   290 Zn   0.489
   312   6 C    3.926 --   313 C    1.357   310 C    1.356   324 H    0.964
   313   6 C    3.923 --   312 C    1.357   314 N    1.244   291 C    1.173
   314   7 N    3.460 --   293 C    1.288   313 C    1.244   290 Zn   0.489
   315   1 H    0.998 --   291 C    0.972
   316   1 H    0.998 --   292 C    0.971
   317   1 H    0.998 --   296 C    0.971
   318   1 H    0.998 --   297 C    0.972
   319   1 H    0.996 --   300 C    0.964
   320   1 H    0.998 --   302 C    0.972
   321   1 H    0.998 --   303 C    0.971
   322   1 H    0.998 --   308 C    0.971
   323   1 H    0.998 --   309 C    0.972
   324   1 H    0.996 --   312 C    0.964
 ---------------------------------------------------------------------------

Topologies differ in total number of bonds
Writing topology from bond orders to xtbtopo.mol

molecular dipole:
                 x           y           z       tot (Debye)
 q only:       -0.001      -0.001      -0.001
   full:       -0.001      -0.001      -0.001       0.006
molecular quadrupole (traceless):
                xx          xy          yy          xz          yz          zz
 q only:      183.435       0.653     -43.719      -0.179      -6.463    -139.716
  q+dip:      317.646       0.991     -36.914      -0.314     -16.240    -280.733
   full:      235.020       0.928     -51.054      -0.342      -8.931    -183.967


           -------------------------------------------------
          | TOTAL ENERGY             -572.002855971234 Eh   |
          | GRADIENT NORM               0.000260736312 Eh/α |
          | HOMO-LUMO GAP               0.853845673773 eV   |
           -------------------------------------------------

------------------------------------------------------------------------
 * finished run on 2021/11/21 at 21:26:20.438     
------------------------------------------------------------------------
 total:
 * wall-time:     0 d,  0 h,  0 min,  6.736 sec
 *  cpu-time:     0 d,  0 h,  0 min,  6.736 sec
 * ratio c/w:     1.000 speedup
 SCF:
 * wall-time:     0 d,  0 h,  0 min,  6.540 sec
 *  cpu-time:     0 d,  0 h,  0 min,  6.540 sec
 * ratio c/w:     1.000 speedup

