      -----------------------------------------------------------      
     |                   =====================                   |     
     |                           x T B                           |     
     |                   =====================                   |     
     |                         S. Grimme                         |     
     |          Mulliken Center for Theoretical Chemistry        |     
     |                    University of Bonn                     |     
      -----------------------------------------------------------      

   * xtb version 6.4.1 (bd6e46d) compiled by 'conda@4901f00b25ba' on 2021-06-10

   xtb is free software: you can redistribute it and/or modify it under
   the terms of the GNU Lesser General Public License as published by
   the Free Software Foundation, either version 3 of the License, or
   (at your option) any later version.
   
   xtb is distributed in the hope that it will be useful,
   but WITHOUT ANY WARRANTY; without even the implied warranty of
   MERCHANTABILITY or FITNESS FOR A PARTICULAR PURPOSE.  See the
   GNU Lesser General Public License for more details.
   
   Cite this work as:
   * C. Bannwarth, E. Caldeweyher, S. Ehlert, A. Hansen, P. Pracht,
     J. Seibert, S. Spicher, S. Grimme, WIREs Comput. Mol. Sci., 2020, 11,
     e01493. DOI: 10.1002/wcms.1493
   
   for GFN2-xTB:
   * C. Bannwarth, S. Ehlert and S. Grimme., J. Chem. Theory Comput., 2019,
     15, 1652-1671. DOI: 10.1021/acs.jctc.8b01176
   for GFN1-xTB:
   * S. Grimme, C. Bannwarth, P. Shushkov, J. Chem. Theory Comput., 2017,
     13, 1989-2009. DOI: 10.1021/acs.jctc.7b00118
   for GFN0-xTB:
   * P. Pracht, E. Caldeweyher, S. Ehlert, S. Grimme, ChemRxiv, 2019, preprint.
     DOI: 10.26434/chemrxiv.8326202.v1
   for GFN-FF:
   * S. Spicher and S. Grimme, Angew. Chem. Int. Ed., 2020, 59, 15665-15673.
     DOI: 10.1002/anie.202004239
   
   for DFT-D4:
   * E. Caldeweyher, C. Bannwarth and S. Grimme, J. Chem. Phys., 2017,
     147, 034112. DOI: 10.1063/1.4993215
   * E. Caldeweyher, S. Ehlert, A. Hansen, H. Neugebauer, S. Spicher,
     C. Bannwarth and S. Grimme, J. Chem. Phys., 2019, 150, 154122.
     DOI: 10.1063/1.5090222
   * E. Caldeweyher, J.-M. Mewes, S. Ehlert and S. Grimme, Phys. Chem. Chem. Phys.
     2020, 22, 8499-8512. DOI: 10.1039/D0CP00502A
   
   for sTDA-xTB:
   * S. Grimme and C. Bannwarth, J. Chem. Phys., 2016, 145, 054103.
     DOI: 10.1063/1.4959605
   
   in the mass-spec context:
   * V. Asgeirsson, C. Bauer and S. Grimme, Chem. Sci., 2017, 8, 4879.
     DOI: 10.1039/c7sc00601b
   * J. Koopman and S. Grimme, ACS Omega 2019, 4, 12, 15120-15133.
     DOI: 10.1021/acsomega.9b02011
   
   for metadynamics refer to:
   * S. Grimme, J. Chem. Theory Comput., 2019, 155, 2847-2862
     DOI: 10.1021/acs.jctc.9b00143
   
   for SPH calculations refer to:
   * S. Spicher and S. Grimme, J. Chem. Theory Comput., 2021, 17, 1701-1714
     DOI: 10.1021/acs.jctc.0c01306
   
   with help from (in alphabetical order)
   P. Atkinson, C. Bannwarth, F. Bohle, G. Brandenburg, E. Caldeweyher
   M. Checinski, S. Dohm, S. Ehlert, S. Ehrlich, I. Gerasimov, J. Koopman
   C. Lavigne, S. Lehtola, F. März, M. Müller, F. Musil, H. Neugebauer
   J. Pisarek, C. Plett, P. Pracht, J. Seibert, P. Shushkov, S. Spicher
   M. Stahn, M. Steiner, T. Strunk, J. Stückrath, T. Rose, and J. Unsleber
   
 * started run on 2021/11/21 at 19:23:29.118     

           -------------------------------------------------
          |                Calculation Setup                |
           -------------------------------------------------

          program call               : /home/jeff/miniconda3/bin/xtb /home/jeff/chem/final-year-proejct/Fe+2_4_8_outenergy/input_structure.xyz --gfn 2 --parallel 1 --etemp 300 --chrg 0 --uhf 0 -I det_control.in
          coordinate file            : /home/jeff/chem/final-year-proejct/Fe+2_4_8_outenergy/input_structure.xyz
          omp threads                :                     1
          number of atoms            :                   310
          number of electrons        :                  1058
          charge                     :                     0
          spin                       :                   0.0
          first test random number   :      0.81378387629621

   ID    Z sym.   atoms
    1   26 Fe     1, 37, 101, 136, 171, 206, 241, 276
    2    6 C      2-9, 11-15, 17-21, 23, 24, 38-45, 47-51, 53-57, 59, 60,
                  73-100, 102-109, 111-115, 117-121, 123, 124, 137-144,
                  146-150, 152-156, 158, 159, 172-179, 181-185, 187-191, 193,
                  194, 207-214, 216-220, 222-226, 228, 229, 242-249, 251-255,
                  257-261, 263, 264, 277-284, 286-290, 292-296, 298, 299
    3    7 N      10, 16, 22, 25, 46, 52, 58, 61, 110, 116, 122, 125, 145,
                  151, 157, 160, 180, 186, 192, 195, 215, 221, 227, 230, 250,
                  256, 262, 265, 285, 291, 297, 300
    4    1 H      26-36, 62-72, 126-135, 161-170, 196-205, 231-240, 266-275,
                  301-310

           -------------------------------------------------
          |                 G F N 2 - x T B                 |
           -------------------------------------------------

        Reference                      10.1021/acs.jctc.8b01176
      * Hamiltonian:
        H0-scaling (s, p, d)           1.850000    2.230000    2.230000
        zeta-weighting                 0.500000
      * Dispersion:
        s8                             2.700000
        a1                             0.520000
        a2                             5.000000
        s9                             5.000000
      * Repulsion:
        kExp                           1.500000    1.000000
        rExp                           1.000000
      * Coulomb:
        alpha                          2.000000
        third order                    shell-resolved
        anisotropic                    true
        a3                             3.000000
        a5                             4.000000
        cn-shift                       1.200000
        cn-exp                         4.000000
        max-rad                        5.000000


          ...................................................
          :                      SETUP                      :
          :.................................................:
          :  # basis functions                1042          :
          :  # atomic orbitals                1034          :
          :  # shells                          546          :
          :  # electrons                      1058          :
          :  max. iterations                   250          :
          :  Hamiltonian                  GFN2-xTB          :
          :  restarted?                      false          :
          :  GBSA solvation                  false          :
          :  PC potential                    false          :
          :  electronic temp.          300.0000000     K    :
          :  accuracy                    1.0000000          :
          :  -> integral cutoff          0.2500000E+02      :
          :  -> integral neglect         0.1000000E-07      :
          :  -> SCF convergence          0.1000000E-05 Eh   :
          :  -> wf. convergence          0.1000000E-03 e    :
          :  Broyden damping             0.4000000          :
          ...................................................

 iter      E             dE          RMSdq      gap      omega  full diag
   1   -570.9834128 -0.570983E+03  0.839E+00    0.00       0.0  T
   2   -551.9536839  0.190297E+02  0.829E+00    0.00       1.0  T
   3   -523.8136763  0.281400E+02  0.868E+00    0.02       1.0  T
   4   -386.7821701  0.137032E+03  0.963E+00    0.01       1.0  T
   5   -485.3475236 -0.985654E+02  0.829E+00    0.02       1.0  T
   6   -502.6955214 -0.173480E+02  0.814E+00    0.03       1.0  T
   7   -497.2736699  0.542185E+01  0.738E+00    0.01       1.0  T
   8   -303.3901983  0.193883E+03  0.987E+00    0.02       1.0  T
   9   -538.5741569 -0.235184E+03  0.716E+00    0.03       1.0  T
  10   -558.4634818 -0.198893E+02  0.634E+00    0.04       1.0  T
  11   -554.7365377  0.372694E+01  0.622E+00    0.00       1.0  T
  12   -544.2535423  0.104830E+02  0.661E+00    0.03       1.0  T
  13   -539.0473680  0.520617E+01  0.650E+00    0.07       1.0  T
  14   -535.9085780  0.313879E+01  0.532E+00    0.00       1.0  T
  15   -539.1832340 -0.327466E+01  0.517E+00    0.01       1.0  T
  16   -538.0458110  0.113742E+01  0.520E+00    0.00       1.0  T
  17   -537.6089137  0.436897E+00  0.528E+00    0.04       1.0  T
  18   -538.6061825 -0.997269E+00  0.518E+00    0.04       1.0  T
  19   -546.4221256 -0.781594E+01  0.489E+00    0.17       1.0  T
  20   -546.3152961  0.106829E+00  0.484E+00    0.15       1.0  T
  21   -530.8311230  0.154842E+02  0.520E+00    0.04       1.0  T
  22   -549.6680256 -0.188369E+02  0.486E+00    0.01       1.0  T
  23   -553.1126992 -0.344467E+01  0.466E+00    0.00       1.0  T
  24   -560.8951064 -0.778241E+01  0.503E+00    0.05       1.0  T
  25   -559.2840957  0.161101E+01  0.536E+00    0.03       1.0  T
  26   -556.7786141  0.250548E+01  0.620E+00    0.02       1.0  T
  27   -560.1487310 -0.337012E+01  0.550E+00    0.04       1.0  T
  28   -561.7890113 -0.164028E+01  0.524E+00    0.04       1.0  T
  29   -562.6680510 -0.879040E+00  0.517E+00    0.04       1.0  T
  30   -561.3970037  0.127105E+01  0.520E+00    0.01       1.0  T
  31   -561.7447936 -0.347790E+00  0.535E+00    0.04       1.0  T
  32   -561.3736107  0.371183E+00  0.515E+00    0.01       1.0  T
  33   -558.0882618  0.328535E+01  0.580E+00    0.02       1.0  T
  34   -562.0411523 -0.395289E+01  0.536E+00    0.05       1.0  T
  35   -560.8523317  0.118882E+01  0.534E+00    0.04       1.0  T
  36   -558.3521915  0.250014E+01  0.555E+00    0.00       1.0  T
  37   -559.2244374 -0.872246E+00  0.548E+00    0.00       1.0  T
  38   -560.9336458 -0.170921E+01  0.542E+00    0.02       1.0  T
  39   -561.3564837 -0.422838E+00  0.521E+00    0.03       1.0  T
  40   -559.1634770  0.219301E+01  0.558E+00    0.08       1.0  T
  41   -560.1360866 -0.972610E+00  0.539E+00    0.07       1.0  T
  42   -559.6699815  0.466105E+00  0.536E+00    0.05       1.0  T
  43   -561.8609242 -0.219094E+01  0.525E+00    0.04       1.0  T
  44   -559.6885561  0.217237E+01  0.544E+00    0.02       1.0  T
  45   -559.6544379  0.341182E-01  0.541E+00    0.02       1.0  T
  46   -560.9061668 -0.125173E+01  0.536E+00    0.02       1.0  T
  47   -562.4959443 -0.158978E+01  0.498E+00    0.01       1.0  T
  48   -563.4649523 -0.969008E+00  0.478E+00    0.01       1.0  T
  49   -559.7970551  0.366790E+01  0.512E+00    0.00       1.0  T
  50   -559.7648087  0.322463E-01  0.524E+00    0.01       1.0  T
  51   -562.3878852 -0.262308E+01  0.496E+00    0.05       1.0  T
  52   -563.7768198 -0.138893E+01  0.470E+00    0.00       1.0  T
  53   -563.7522169  0.246029E-01  0.470E+00    0.00       1.0  T
  54   -560.1960861  0.355613E+01  0.520E+00    0.04       1.0  T
  55   -559.3720802  0.824006E+00  0.531E+00    0.00       1.0  T
  56   -559.5384355 -0.166355E+00  0.527E+00    0.02       1.0  T
  57   -562.5852823 -0.304685E+01  0.472E+00    0.00       1.0  T
  58   -563.9147079 -0.132943E+01  0.470E+00    0.01       1.0  T
  59   -565.1217309 -0.120702E+01  0.471E+00    0.00       1.0  T
  60   -564.2313272  0.890404E+00  0.456E+00    0.01       1.0  T
  61   -564.5270530 -0.295726E+00  0.451E+00    0.01       1.0  T
  62   -565.7900247 -0.126297E+01  0.455E+00    0.03       1.0  T
  63   -565.7573232  0.327015E-01  0.455E+00    0.02       1.0  T
  64   -565.6381484  0.119175E+00  0.459E+00    0.05       1.0  T
  65   -565.4586453  0.179503E+00  0.460E+00    0.04       1.0  T
  66   -563.7195950  0.173905E+01  0.510E+00    0.00       1.0  T
  67   -564.5666116 -0.847017E+00  0.518E+00    0.00       1.0  T
  68   -562.8554261  0.171119E+01  0.550E+00    0.01       1.0  T
  69   -566.8142046 -0.395878E+01  0.498E+00    0.01       1.0  T
  70   -562.8982057  0.391600E+01  0.541E+00    0.01       1.0  T
  71   -565.5426275 -0.264442E+01  0.497E+00    0.00       1.0  T
  72   -566.5336094 -0.990982E+00  0.477E+00    0.00       1.0  T
  73   -566.6032067 -0.695973E-01  0.469E+00    0.04       1.0  T
  74   -565.8787437  0.724463E+00  0.482E+00    0.02       1.0  T
  75   -565.4872291  0.391515E+00  0.495E+00    0.01       1.0  T
  76   -561.2242051  0.426302E+01  0.606E+00    0.00       1.0  T
  77   -561.1139927  0.110212E+00  0.604E+00    0.00       1.0  T
  78   -561.0614925  0.525002E-01  0.604E+00    0.00       1.0  T
  79   -561.2087786 -0.147286E+00  0.602E+00    0.00       1.0  T
  80   -563.7145942 -0.250582E+01  0.590E+00    0.02       1.0  T
  81   -562.5170050  0.119759E+01  0.573E+00    0.01       1.0  T
  82   -562.5490801 -0.320750E-01  0.573E+00    0.01       1.0  T
  83   -563.1321055 -0.583025E+00  0.556E+00    0.03       1.0  T
  84   -563.1020432  0.300623E-01  0.564E+00    0.00       1.0  T
  85   -563.8444035 -0.742360E+00  0.535E+00    0.01       1.0  T
  86   -564.6094253 -0.765022E+00  0.508E+00    0.02       1.0  T
  87   -568.1401139 -0.353069E+01  0.460E+00    0.01       1.0  T
  88   -565.4543624  0.268575E+01  0.545E+00    0.01       1.0  T
  89   -564.9269509  0.527412E+00  0.516E+00    0.02       1.0  T
  90   -567.8357109 -0.290876E+01  0.442E+00    0.01       1.0  T
  91   -565.6061625  0.222955E+01  0.481E+00    0.01       1.0  T
  92   -567.4485422 -0.184238E+01  0.441E+00    0.03       1.0  T
  93   -567.4156825  0.328597E-01  0.442E+00    0.03       1.0  T
  94   -567.3209957  0.946868E-01  0.444E+00    0.03       1.0  T
  95   -567.1128035  0.208192E+00  0.452E+00    0.00       1.0  T
  96   -569.3315817 -0.221878E+01  0.417E+00    0.02       1.0  T
  97   -570.7192906 -0.138771E+01  0.372E+00    0.01       1.0  T
  98   -569.3389397  0.138035E+01  0.423E+00    0.02       1.0  T
  99   -569.3617609 -0.228213E-01  0.420E+00    0.00       1.0  T
 100   -569.9712489 -0.609488E+00  0.402E+00    0.01       1.0  T
 101   -570.6247445 -0.653496E+00  0.408E+00    0.05       1.0  T
 102   -569.5462366  0.107851E+01  0.417E+00    0.02       1.0  T
 103   -569.7604225 -0.214186E+00  0.410E+00    0.00       1.0  T
 104   -569.6452018  0.115221E+00  0.419E+00    0.02       1.0  T
 105   -569.6089185  0.362833E-01  0.419E+00    0.01       1.0  T
 106   -569.5828150  0.261034E-01  0.421E+00    0.02       1.0  T
 107   -569.5262277  0.565873E-01  0.421E+00    0.01       1.0  T
 108   -569.4298091  0.964186E-01  0.431E+00    0.00       1.0  T
 109   -569.4335973 -0.378820E-02  0.432E+00    0.00       1.0  T
 110   -569.4167111  0.168863E-01  0.431E+00    0.00       1.0  T
 111   -569.2790802  0.137631E+00  0.429E+00    0.00       1.0  T
 112   -570.3372377 -0.105816E+01  0.423E+00    0.00       1.0  T
 113   -570.3827638 -0.455261E-01  0.422E+00    0.00       1.0  T
 114   -570.4252314 -0.424676E-01  0.424E+00    0.01       1.0  T
 115   -570.6231156 -0.197884E+00  0.418E+00    0.01       1.0  T
 116   -570.3004872  0.322628E+00  0.395E+00    0.02       1.0  T
 117   -570.0302931  0.270194E+00  0.408E+00    0.00       1.0  T
 118   -570.3309684 -0.300675E+00  0.388E+00    0.01       1.0  T
 119   -569.8980675  0.432901E+00  0.341E+00    0.01       1.0  T
 120   -569.8831229  0.149446E-01  0.366E+00    0.01       1.0  T
 121   -570.1467600 -0.263637E+00  0.371E+00    0.03       1.0  T
 122   -570.4450509 -0.298291E+00  0.360E+00    0.06       1.0  T
 123   -570.4600119 -0.149610E-01  0.352E+00    0.01       1.0  T
 124   -571.3847326 -0.924721E+00  0.295E+00    0.00       1.0  T
 125   -571.7921377 -0.407405E+00  0.281E+00    0.00       1.0  T
 126   -571.7015983  0.905394E-01  0.246E+00    0.01       1.0  T
 127   -572.0628378 -0.361239E+00  0.214E+00    0.01       1.0  T
 128   -572.0050953  0.577425E-01  0.218E+00    0.01       1.0  T
 129   -571.8596482  0.145447E+00  0.248E+00    0.02       1.0  T
 130   -571.7298879  0.129760E+00  0.257E+00    0.03       1.0  T
 131   -572.0644981 -0.334610E+00  0.230E+00    0.02       1.0  T
 132   -571.6124784  0.452020E+00  0.248E+00    0.03       1.0  T
 133   -572.0141903 -0.401712E+00  0.224E+00    0.02       1.0  T
 134   -572.2265746 -0.212384E+00  0.216E+00    0.00       1.0  T
 135   -572.0779408  0.148634E+00  0.224E+00    0.01       1.0  T
 136   -571.7756992  0.302242E+00  0.241E+00    0.01       1.0  T
 137   -571.9111181 -0.135419E+00  0.234E+00    0.00       1.0  T
 138   -571.6565121  0.254606E+00  0.248E+00    0.02       1.0  T
 139   -571.9646181 -0.308106E+00  0.237E+00    0.01       1.0  T
 140   -572.5770139 -0.612396E+00  0.210E+00    0.01       1.0  T
 141   -572.7943465 -0.217333E+00  0.199E+00    0.03       1.0  T
 142   -572.8571760 -0.628295E-01  0.199E+00    0.03       1.0  T
 143   -572.7181382  0.139038E+00  0.207E+00    0.01       1.0  T
 144   -572.9365576 -0.218419E+00  0.183E+00    0.04       1.0  T
 145   -573.0271163 -0.905586E-01  0.164E+00    0.05       1.0  T
 146   -572.9952588  0.318574E-01  0.156E+00    0.04       1.0  T
 147   -573.1130593 -0.117800E+00  0.140E+00    0.06       1.0  T
 148   -573.1497771 -0.367178E-01  0.122E+00    0.09       1.0  T
 149   -573.1463380  0.343917E-02  0.115E+00    0.08       1.0  T
 150   -573.1666130 -0.202751E-01  0.108E+00    0.08       1.0  T
 151   -573.1629720  0.364100E-02  0.101E+00    0.07       1.0  T
 152   -573.1876018 -0.246298E-01  0.851E-01    0.09       1.0  T
 153   -573.1659459  0.216559E-01  0.700E-01    0.07       1.0  T
 154   -573.1729209 -0.697500E-02  0.707E-01    0.08       1.0  T
 155   -573.1818867 -0.896572E-02  0.678E-01    0.08       1.0  T
 156   -573.1936955 -0.118089E-01  0.680E-01    0.08       1.0  T
 157   -573.1990444 -0.534885E-02  0.648E-01    0.09       1.0  T
 158   -573.2092318 -0.101875E-01  0.611E-01    0.10       1.0  T
 159   -573.2004271  0.880480E-02  0.594E-01    0.09       1.0  T
 160   -573.2177078 -0.172807E-01  0.557E-01    0.11       1.0  T
 161   -573.2068851  0.108227E-01  0.546E-01    0.10       1.0  T
 162   -573.2116499 -0.476476E-02  0.539E-01    0.10       1.0  T
 163   -573.2076046  0.404526E-02  0.537E-01    0.09       1.0  T
 164   -573.2123314 -0.472675E-02  0.510E-01    0.10       1.0  T
 165   -573.2173317 -0.500035E-02  0.496E-01    0.10       1.0  T
 166   -573.2291355 -0.118037E-01  0.473E-01    0.12       1.0  T
 167   -573.2327384 -0.360297E-02  0.471E-01    0.13       1.0  T
 168   -573.2363674 -0.362896E-02  0.464E-01    0.13       1.0  T
 169   -573.2381821 -0.181475E-02  0.458E-01    0.14       1.0  T
 170   -573.2394304 -0.124829E-02  0.449E-01    0.14       1.0  T
 171   -573.2406622 -0.123179E-02  0.416E-01    0.15       1.0  T
 172   -573.2413375 -0.675304E-03  0.369E-01    0.15       1.0  T
 173   -573.2411894  0.148077E-03  0.338E-01    0.15       1.0  T
 174   -573.2414894 -0.299942E-03  0.323E-01    0.15       1.0  T
 175   -573.2424832 -0.993849E-03  0.309E-01    0.15       1.0  T
 176   -573.2451275 -0.264426E-02  0.283E-01    0.15       1.0  T
 177   -573.2476830 -0.255546E-02  0.260E-01    0.17       1.0  T
 178   -573.2487389 -0.105596E-02  0.246E-01    0.17       1.0  T
 179   -573.2495534 -0.814512E-03  0.229E-01    0.17       1.0  T
 180   -573.2503163 -0.762887E-03  0.208E-01    0.18       1.0  T
 181   -573.2509781 -0.661812E-03  0.185E-01    0.19       1.0  T
 182   -573.2516785 -0.700324E-03  0.158E-01    0.20       1.0  T
 183   -573.2520522 -0.373783E-03  0.134E-01    0.20       1.0  T
 184   -573.2522509 -0.198646E-03  0.110E-01    0.20       1.0  T
 185   -573.2522238  0.270868E-04  0.901E-02    0.21       1.0  T
 186   -573.2521844  0.394125E-04  0.797E-02    0.21       1.0  T
 187   -573.2521938 -0.937140E-05  0.726E-02    0.20       1.0  T
 188   -573.2522135 -0.197180E-04  0.675E-02    0.20       1.0  T
 189   -573.2522683 -0.548128E-04  0.650E-02    0.20       1.0  T
 190   -573.2523687 -0.100433E-03  0.625E-02    0.20       1.0  T
 191   -573.2525041 -0.135431E-03  0.594E-02    0.20       1.0  T
 192   -573.2526827 -0.178510E-03  0.560E-02    0.21       1.0  T
 193   -573.2528328 -0.150145E-03  0.520E-02    0.21       1.0  T
 194   -573.2529887 -0.155931E-03  0.469E-02    0.22       1.0  T
 195   -573.2531032 -0.114453E-03  0.412E-02    0.22       1.0  T
 196   -573.2531780 -0.748071E-04  0.353E-02    0.23       1.0  T
 197   -573.2532336 -0.556200E-04  0.300E-02    0.23       1.0  T
 198   -573.2532871 -0.534877E-04  0.250E-02    0.23       1.0  T
 199   -573.2533429 -0.558044E-04  0.199E-02    0.23       1.0  T
 200   -573.2533742 -0.313009E-04  0.172E-02    0.23       1.0  T
 201   -573.2533944 -0.201735E-04  0.155E-02    0.23       1.0  T
 202   -573.2534106 -0.162205E-04  0.136E-02    0.23       1.0  T
 203   -573.2534225 -0.118503E-04  0.120E-02    0.23       1.0  T
 204   -573.2534323 -0.988519E-05  0.103E-02    0.23       1.0  T
 205   -573.2534400 -0.762162E-05  0.917E-03    0.23       1.0  T
 206   -573.2534462 -0.624683E-05  0.794E-03    0.23       1.0  T
 207   -573.2534516 -0.536662E-05  0.667E-03    0.23       1.0  T
 208   -573.2534549 -0.336721E-05  0.561E-03    0.23       1.0  T
 209   -573.2534572 -0.221653E-05  0.476E-03    0.23       1.2  T
 210   -573.2534586 -0.143672E-05  0.418E-03    0.23       1.4  T
 211   -573.2534599 -0.126788E-05  0.358E-03    0.24       1.6  T
 212   -573.2534610 -0.114359E-05  0.301E-03    0.24       1.9  T
 213   -573.2534616 -0.582161E-06  0.264E-03    0.24       2.1  T
 214   -573.2534621 -0.499353E-06  0.237E-03    0.24       2.4  T
 215   -573.2534624 -0.344200E-06  0.215E-03    0.24       2.6  T
 216   -573.2534628 -0.336230E-06  0.185E-03    0.24       3.1  T
 217   -573.2534631 -0.291400E-06  0.152E-03    0.24       3.7  T
 218   -573.2534632 -0.183367E-06  0.123E-03    0.24       4.6  T
 219   -573.2534633 -0.784281E-07  0.107E-03    0.24       5.3  T
 220   -573.2534634 -0.679033E-07  0.927E-04    0.24       6.1  T
 221   -573.2534634 -0.556513E-07  0.787E-04    0.24       7.2  T

   *** convergence criteria satisfied after 221 iterations ***

         #    Occupation            Energy/Eh            Energy/eV
      -------------------------------------------------------------
         1        2.0000           -0.6681080             -18.1801
       ...           ...                  ...                  ...
       523        1.9867           -0.3307593              -9.0004
       524        1.9864           -0.3307331              -8.9997
       525        1.9862           -0.3307222              -8.9994
       526        1.9856           -0.3306843              -8.9984
       527        1.9853           -0.3306633              -8.9978
       528        1.9772           -0.3302420              -8.9863
       529        1.9772           -0.3302400              -8.9863 (HOMO)
       530        0.0179           -0.3215310              -8.7493 (LUMO)
       531        0.0176           -0.3215117              -8.7488
       532        0.0166           -0.3214582              -8.7473
       533        0.0162           -0.3214352              -8.7467
       534        0.0156           -0.3213979              -8.7457
       ...           ...                  ...                  ...
      1034                          1.6402874              44.6345
      -------------------------------------------------------------
                  HL-Gap            0.0087090 Eh            0.2370 eV
             Fermi-level           -0.3260008 Eh           -8.8709 eV

 SCC (total)                   0 d,  0 h,  1 min, 24.574 sec
 SCC setup                      ...        0 min,  0.018 sec (  0.021%)
 Dispersion                     ...        0 min,  0.044 sec (  0.052%)
 classical contributions        ...        0 min,  0.003 sec (  0.003%)
 integral evaluation            ...        0 min,  0.269 sec (  0.318%)
 iterations                     ...        1 min, 23.551 sec ( 98.789%)
 molecular gradient             ...        0 min,  0.638 sec (  0.754%)
 printout                       ...        0 min,  0.053 sec (  0.062%)

         :::::::::::::::::::::::::::::::::::::::::::::::::::::
         ::                     SUMMARY                     ::
         :::::::::::::::::::::::::::::::::::::::::::::::::::::
         :: total energy            -562.974455204123 Eh    ::
         :: gradient norm              0.000828106678 Eh/a0 ::
         :: HOMO-LUMO gap              0.236983920734 eV    ::
         ::.................................................::
         :: SCC energy              -573.253463442298 Eh    ::
         :: -> isotropic ES           -0.059531637718 Eh    ::
         :: -> anisotropic ES          0.080480534155 Eh    ::
         :: -> anisotropic XC          0.341267368430 Eh    ::
         :: -> dispersion             -0.450123528116 Eh    ::
         :: repulsion energy          10.287105583273 Eh    ::
         :: add. restraining           0.000000000000 Eh    ::
         :: total charge              -0.000000000043 e     ::
         :::::::::::::::::::::::::::::::::::::::::::::::::::::

           -------------------------------------------------
          |                Property Printout                |
           -------------------------------------------------

    * Orbital Energies and Occupations

         #    Occupation            Energy/Eh            Energy/eV
      -------------------------------------------------------------
         1        2.0000           -0.6681080             -18.1801
       ...           ...                  ...                  ...
       517        2.0000           -0.3383487              -9.2069
       518        2.0000           -0.3383466              -9.2069
       519        2.0000           -0.3383368              -9.2066
       520        2.0000           -0.3380997              -9.2002
       521        2.0000           -0.3380879              -9.1998
       522        1.9869           -0.3307728              -9.0008
       523        1.9867           -0.3307593              -9.0004
       524        1.9864           -0.3307331              -8.9997
       525        1.9862           -0.3307222              -8.9994
       526        1.9856           -0.3306843              -8.9984
       527        1.9853           -0.3306633              -8.9978
       528        1.9772           -0.3302420              -8.9863
       529        1.9772           -0.3302400              -8.9863 (HOMO)
       530        0.0179           -0.3215310              -8.7493 (LUMO)
       531        0.0176           -0.3215117              -8.7488
       532        0.0166           -0.3214582              -8.7473
       533        0.0162           -0.3214352              -8.7467
       534        0.0156           -0.3213979              -8.7457
       535        0.0151           -0.3213664              -8.7448
       536        0.0148           -0.3213494              -8.7444
       537        0.0145           -0.3213267              -8.7437
       538        0.0000           -0.3106937              -8.4544
       539                         -0.3082493              -8.3879
       540                         -0.3046860              -8.2909
       ...                                ...                  ...
      1034                          1.6402874              44.6345
      -------------------------------------------------------------
                  HL-Gap            0.0087090 Eh            0.2370 eV
             Fermi-level           -0.3260008 Eh           -8.8709 eV

     #   Z          covCN         q      C6AA      α(0)
     1  26 Fe       3.082     0.562     5.146     7.318
     2   6 C        3.027    -0.054    29.317     8.881
     3   6 C        3.013    -0.054    29.327     8.883
     4   6 C        3.184     0.070    26.001     8.322
     5   6 C        2.955     0.010    27.783     8.645
     6   6 C        3.183     0.070    26.003     8.322
     7   6 C        3.013    -0.054    29.326     8.883
     8   6 C        3.027    -0.054    29.317     8.881
     9   6 C        3.159     0.064    26.258     8.377
    10   7 N        2.636    -0.214    25.677     7.526
    11   6 C        2.903    -0.060    29.500     8.906
    12   6 C        3.155     0.065    26.249     8.378
    13   6 C        3.023    -0.053    29.299     8.879
    14   6 C        3.013    -0.055    29.348     8.886
    15   6 C        3.166     0.070    26.093     8.348
    16   7 N        2.638    -0.213    25.641     7.521
    17   6 C        2.903    -0.059    29.467     8.901
    18   6 C        3.166     0.070    26.093     8.348
    19   6 C        3.013    -0.055    29.348     8.886
    20   6 C        3.023    -0.053    29.299     8.879
    21   6 C        3.155     0.065    26.248     8.378
    22   7 N        2.638    -0.213    25.641     7.521
    23   6 C        2.903    -0.060    29.499     8.906
    24   6 C        3.159     0.064    26.257     8.377
    25   7 N        2.637    -0.214    25.676     7.526
    26   1 H        0.926     0.030     2.580     2.512
    27   1 H        0.926     0.033     2.546     2.495
    28   1 H        0.926     0.033     2.546     2.495
    29   1 H        0.926     0.030     2.580     2.512
    30   1 H        0.926     0.049     2.327     2.385
    31   1 H        0.926     0.031     2.574     2.509
    32   1 H        0.926     0.031     2.570     2.507
    33   1 H        0.926     0.047     2.352     2.398
    34   1 H        0.926     0.031     2.570     2.507
    35   1 H        0.926     0.031     2.574     2.509
    36   1 H        0.926     0.049     2.326     2.385
    37  26 Fe       3.082     0.562     5.146     7.318
    38   6 C        3.027    -0.054    29.317     8.881
    39   6 C        3.013    -0.054    29.327     8.883
    40   6 C        3.184     0.070    26.001     8.322
    41   6 C        2.955     0.010    27.783     8.645
    42   6 C        3.184     0.070    26.002     8.322
    43   6 C        3.013    -0.054    29.326     8.883
    44   6 C        3.027    -0.054    29.317     8.881
    45   6 C        3.159     0.064    26.257     8.377
    46   7 N        2.636    -0.214    25.678     7.526
    47   6 C        2.903    -0.060    29.500     8.906
    48   6 C        3.155     0.065    26.249     8.378
    49   6 C        3.023    -0.053    29.299     8.879
    50   6 C        3.013    -0.055    29.348     8.886
    51   6 C        3.165     0.070    26.093     8.348
    52   7 N        2.638    -0.213    25.641     7.520
    53   6 C        2.903    -0.059    29.468     8.901
    54   6 C        3.166     0.070    26.093     8.348
    55   6 C        3.013    -0.055    29.348     8.886
    56   6 C        3.023    -0.053    29.299     8.879
    57   6 C        3.155     0.065    26.248     8.378
    58   7 N        2.638    -0.213    25.641     7.521
    59   6 C        2.903    -0.060    29.500     8.906
    60   6 C        3.159     0.064    26.257     8.377
    61   7 N        2.637    -0.214    25.676     7.526
    62   1 H        0.926     0.030     2.580     2.512
    63   1 H        0.926     0.033     2.545     2.495
    64   1 H        0.926     0.033     2.545     2.495
    65   1 H        0.926     0.030     2.580     2.512
    66   1 H        0.926     0.049     2.327     2.385
    67   1 H        0.926     0.031     2.574     2.509
    68   1 H        0.926     0.031     2.570     2.507
    69   1 H        0.926     0.047     2.352     2.398
    70   1 H        0.926     0.031     2.570     2.507
    71   1 H        0.926     0.031     2.574     2.509
    72   1 H        0.926     0.049     2.326     2.385
    73   6 C        1.990    -0.023    31.646     9.085
    74   6 C        1.963    -0.011    31.366     9.044
    75   6 C        1.963    -0.011    31.360     9.043
    76   6 C        1.990    -0.023    31.652     9.086
    77   6 C        1.990    -0.023    31.647     9.085
    78   6 C        1.963    -0.011    31.362     9.044
    79   6 C        1.963    -0.011    31.362     9.044
    80   6 C        1.990    -0.023    31.647     9.085
    81   6 C        1.990    -0.023    31.647     9.085
    82   6 C        1.963    -0.011    31.362     9.044
    83   6 C        1.963    -0.011    31.362     9.044
    84   6 C        1.990    -0.023    31.646     9.085
    85   6 C        1.990    -0.023    31.646     9.085
    86   6 C        1.964    -0.011    31.362     9.044
    87   6 C        1.964    -0.011    31.362     9.044
    88   6 C        1.990    -0.023    31.646     9.085
    89   6 C        1.990    -0.023    31.646     9.085
    90   6 C        1.963    -0.011    31.362     9.044
    91   6 C        1.963    -0.011    31.362     9.044
    92   6 C        1.990    -0.023    31.646     9.085
    93   6 C        1.990    -0.023    31.647     9.085
    94   6 C        1.963    -0.011    31.362     9.044
    95   6 C        1.963    -0.011    31.362     9.044
    96   6 C        1.990    -0.023    31.647     9.085
    97   6 C        1.990    -0.023    31.650     9.085
    98   6 C        1.963    -0.011    31.360     9.043
    99   6 C        1.963    -0.011    31.365     9.044
   100   6 C        1.990    -0.022    31.645     9.085
   101  26 Fe       3.076     0.566     5.144     7.316
   102   6 C        3.027    -0.054    29.316     8.881
   103   6 C        3.014    -0.054    29.328     8.883
   104   6 C        3.184     0.071    25.990     8.320
   105   6 C        2.955     0.010    27.784     8.646
   106   6 C        3.184     0.071    25.991     8.320
   107   6 C        3.014    -0.054    29.328     8.883
   108   6 C        3.027    -0.054    29.316     8.881
   109   6 C        3.160     0.064    26.259     8.377
   110   7 N        2.636    -0.216    25.705     7.530
   111   6 C        2.903    -0.059    29.457     8.899
   112   6 C        3.160     0.064    26.259     8.377
   113   6 C        3.027    -0.054    29.316     8.881
   114   6 C        3.014    -0.054    29.329     8.884
   115   6 C        3.185     0.071    25.988     8.319
   116   7 N        2.636    -0.215    25.704     7.530
   117   6 C        2.955     0.010    27.785     8.646
   118   6 C        3.185     0.071    25.988     8.319
   119   6 C        3.014    -0.054    29.329     8.884
   120   6 C        3.027    -0.054    29.316     8.881
   121   6 C        3.160     0.064    26.259     8.377
   122   7 N        2.636    -0.215    25.705     7.530
   123   6 C        2.903    -0.059    29.457     8.899
   124   6 C        3.160     0.064    26.259     8.377
   125   7 N        2.636    -0.215    25.704     7.530
   126   1 H        0.926     0.030     2.581     2.512
   127   1 H        0.926     0.033     2.548     2.496
   128   1 H        0.926     0.033     2.548     2.496
   129   1 H        0.926     0.030     2.581     2.512
   130   1 H        0.926     0.050     2.320     2.382
   131   1 H        0.926     0.030     2.581     2.512
   132   1 H        0.926     0.033     2.548     2.496
   133   1 H        0.926     0.033     2.548     2.496
   134   1 H        0.926     0.030     2.581     2.512
   135   1 H        0.926     0.050     2.320     2.382
   136  26 Fe       3.077     0.566     5.144     7.316
   137   6 C        3.027    -0.054    29.316     8.881
   138   6 C        3.014    -0.054    29.329     8.884
   139   6 C        3.185     0.071    25.988     8.319
   140   6 C        2.955     0.010    27.785     8.646
   141   6 C        3.185     0.071    25.989     8.319
   142   6 C        3.014    -0.054    29.329     8.884
   143   6 C        3.027    -0.054    29.316     8.881
   144   6 C        3.160     0.064    26.259     8.377
   145   7 N        2.636    -0.215    25.705     7.530
   146   6 C        2.903    -0.059    29.456     8.899
   147   6 C        3.160     0.064    26.257     8.377
   148   6 C        3.027    -0.054    29.316     8.881
   149   6 C        3.014    -0.054    29.329     8.884
   150   6 C        3.185     0.071    25.985     8.318
   151   7 N        2.636    -0.216    25.706     7.530
   152   6 C        2.955     0.010    27.785     8.646
   153   6 C        3.185     0.071    25.986     8.319
   154   6 C        3.014    -0.054    29.329     8.884
   155   6 C        3.027    -0.054    29.316     8.881
   156   6 C        3.160     0.064    26.257     8.377
   157   7 N        2.636    -0.216    25.706     7.530
   158   6 C        2.903    -0.059    29.456     8.899
   159   6 C        3.160     0.064    26.259     8.377
   160   7 N        2.636    -0.215    25.705     7.530
   161   1 H        0.926     0.030     2.581     2.512
   162   1 H        0.926     0.033     2.548     2.496
   163   1 H        0.926     0.033     2.548     2.496
   164   1 H        0.926     0.030     2.581     2.512
   165   1 H        0.926     0.050     2.319     2.382
   166   1 H        0.926     0.030     2.580     2.512
   167   1 H        0.926     0.033     2.548     2.496
   168   1 H        0.926     0.033     2.548     2.496
   169   1 H        0.926     0.030     2.581     2.512
   170   1 H        0.926     0.050     2.319     2.382
   171  26 Fe       3.077     0.566     5.144     7.316
   172   6 C        3.027    -0.054    29.316     8.881
   173   6 C        3.014    -0.054    29.329     8.884
   174   6 C        3.185     0.071    25.985     8.318
   175   6 C        2.955     0.010    27.785     8.646
   176   6 C        3.185     0.071    25.986     8.319
   177   6 C        3.014    -0.054    29.329     8.884
   178   6 C        3.027    -0.054    29.316     8.881
   179   6 C        3.160     0.064    26.257     8.376
   180   7 N        2.636    -0.216    25.706     7.530
   181   6 C        2.903    -0.059    29.455     8.899
   182   6 C        3.161     0.064    26.256     8.376
   183   6 C        3.027    -0.054    29.316     8.881
   184   6 C        3.014    -0.054    29.329     8.884
   185   6 C        3.185     0.071    25.984     8.318
   186   7 N        2.636    -0.216    25.706     7.530
   187   6 C        2.955     0.010    27.786     8.646
   188   6 C        3.185     0.071    25.984     8.318
   189   6 C        3.014    -0.054    29.329     8.884
   190   6 C        3.027    -0.054    29.316     8.881
   191   6 C        3.161     0.064    26.256     8.376
   192   7 N        2.636    -0.216    25.707     7.530
   193   6 C        2.903    -0.059    29.455     8.899
   194   6 C        3.161     0.064    26.257     8.376
   195   7 N        2.636    -0.216    25.705     7.530
   196   1 H        0.926     0.030     2.580     2.512
   197   1 H        0.926     0.033     2.548     2.496
   198   1 H        0.926     0.033     2.548     2.496
   199   1 H        0.926     0.030     2.581     2.512
   200   1 H        0.926     0.050     2.320     2.382
   201   1 H        0.926     0.030     2.580     2.512
   202   1 H        0.926     0.033     2.548     2.496
   203   1 H        0.926     0.033     2.548     2.496
   204   1 H        0.926     0.030     2.581     2.512
   205   1 H        0.926     0.050     2.320     2.382
   206  26 Fe       3.077     0.566     5.144     7.316
   207   6 C        3.027    -0.054    29.316     8.881
   208   6 C        3.014    -0.054    29.329     8.884
   209   6 C        3.185     0.071    25.984     8.318
   210   6 C        2.955     0.010    27.785     8.646
   211   6 C        3.185     0.071    25.983     8.318
   212   6 C        3.014    -0.054    29.329     8.884
   213   6 C        3.027    -0.054    29.316     8.881
   214   6 C        3.161     0.064    26.256     8.376
   215   7 N        2.636    -0.216    25.707     7.530
   216   6 C        2.903    -0.059    29.455     8.899
   217   6 C        3.161     0.064    26.256     8.376
   218   6 C        3.027    -0.054    29.316     8.881
   219   6 C        3.014    -0.054    29.329     8.884
   220   6 C        3.185     0.071    25.985     8.318
   221   7 N        2.636    -0.216    25.706     7.530
   222   6 C        2.955     0.010    27.785     8.646
   223   6 C        3.185     0.071    25.985     8.318
   224   6 C        3.014    -0.054    29.329     8.884
   225   6 C        3.027    -0.054    29.316     8.881
   226   6 C        3.161     0.064    26.256     8.376
   227   7 N        2.636    -0.216    25.706     7.530
   228   6 C        2.903    -0.059    29.455     8.899
   229   6 C        3.161     0.064    26.256     8.376
   230   7 N        2.636    -0.216    25.707     7.530
   231   1 H        0.926     0.030     2.580     2.512
   232   1 H        0.926     0.033     2.548     2.496
   233   1 H        0.926     0.033     2.548     2.496
   234   1 H        0.926     0.030     2.580     2.512
   235   1 H        0.926     0.050     2.319     2.382
   236   1 H        0.926     0.030     2.580     2.512
   237   1 H        0.926     0.033     2.548     2.496
   238   1 H        0.926     0.033     2.548     2.496
   239   1 H        0.926     0.030     2.580     2.512
   240   1 H        0.926     0.050     2.319     2.382
   241  26 Fe       3.077     0.566     5.144     7.316
   242   6 C        3.027    -0.054    29.316     8.881
   243   6 C        3.014    -0.054    29.329     8.884
   244   6 C        3.185     0.071    25.985     8.318
   245   6 C        2.955     0.010    27.785     8.646
   246   6 C        3.185     0.071    25.985     8.318
   247   6 C        3.014    -0.054    29.329     8.884
   248   6 C        3.027    -0.054    29.316     8.881
   249   6 C        3.160     0.064    26.257     8.377
   250   7 N        2.636    -0.216    25.706     7.530
   251   6 C        2.903    -0.059    29.456     8.899
   252   6 C        3.160     0.064    26.258     8.377
   253   6 C        3.027    -0.054    29.316     8.881
   254   6 C        3.014    -0.054    29.329     8.884
   255   6 C        3.185     0.071    25.988     8.319
   256   7 N        2.636    -0.216    25.705     7.530
   257   6 C        2.955     0.010    27.785     8.646
   258   6 C        3.185     0.071    25.987     8.319
   259   6 C        3.014    -0.054    29.329     8.884
   260   6 C        3.027    -0.054    29.316     8.881
   261   6 C        3.160     0.064    26.258     8.377
   262   7 N        2.636    -0.215    25.705     7.530
   263   6 C        2.903    -0.059    29.455     8.899
   264   6 C        3.160     0.064    26.257     8.377
   265   7 N        2.636    -0.216    25.706     7.530
   266   1 H        0.926     0.030     2.580     2.512
   267   1 H        0.926     0.033     2.548     2.496
   268   1 H        0.926     0.033     2.548     2.496
   269   1 H        0.926     0.030     2.581     2.512
   270   1 H        0.926     0.050     2.319     2.382
   271   1 H        0.926     0.030     2.581     2.512
   272   1 H        0.926     0.033     2.548     2.496
   273   1 H        0.926     0.033     2.548     2.496
   274   1 H        0.926     0.030     2.581     2.512
   275   1 H        0.926     0.050     2.319     2.382
   276  26 Fe       3.077     0.566     5.144     7.316
   277   6 C        3.027    -0.054    29.316     8.881
   278   6 C        3.014    -0.054    29.329     8.884
   279   6 C        3.185     0.071    25.988     8.319
   280   6 C        2.955     0.010    27.786     8.646
   281   6 C        3.185     0.071    25.988     8.319
   282   6 C        3.014    -0.054    29.329     8.884
   283   6 C        3.027    -0.054    29.316     8.881
   284   6 C        3.160     0.064    26.258     8.377
   285   7 N        2.636    -0.215    25.705     7.530
   286   6 C        2.903    -0.059    29.458     8.899
   287   6 C        3.160     0.064    26.258     8.377
   288   6 C        3.027    -0.054    29.316     8.881
   289   6 C        3.014    -0.054    29.328     8.884
   290   6 C        3.185     0.071    25.990     8.320
   291   7 N        2.636    -0.215    25.704     7.530
   292   6 C        2.955     0.010    27.784     8.646
   293   6 C        3.184     0.071    25.990     8.320
   294   6 C        3.014    -0.054    29.328     8.883
   295   6 C        3.027    -0.054    29.316     8.881
   296   6 C        3.160     0.064    26.258     8.377
   297   7 N        2.636    -0.216    25.706     7.530
   298   6 C        2.903    -0.059    29.458     8.899
   299   6 C        3.160     0.064    26.259     8.377
   300   7 N        2.636    -0.215    25.704     7.530
   301   1 H        0.926     0.030     2.581     2.512
   302   1 H        0.926     0.033     2.548     2.496
   303   1 H        0.926     0.033     2.548     2.496
   304   1 H        0.926     0.030     2.581     2.512
   305   1 H        0.926     0.050     2.320     2.382
   306   1 H        0.926     0.030     2.581     2.512
   307   1 H        0.926     0.033     2.548     2.496
   308   1 H        0.926     0.033     2.548     2.496
   309   1 H        0.926     0.030     2.581     2.512
   310   1 H        0.926     0.050     2.320     2.382

 Mol. C6AA /au·bohr⁶  :    1703758.001320
 Mol. C8AA /au·bohr⁸  :   45069606.120120
 Mol. α(0) /au        :       2140.559888


Wiberg/Mayer (AO) data.
largest (>0.10) Wiberg bond orders for each atom

 ---------------------------------------------------------------------------
     #   Z sym  total        # sym  WBO       # sym  WBO       # sym  WBO
 ---------------------------------------------------------------------------
     1  26 Fe   3.277 --    16 N    0.660    22 N    0.660    25 N    0.657
                            10 N    0.657
     2   6 C    3.957 --     3 C    1.644    24 C    1.171    26 H    0.972
     3   6 C    3.962 --     2 C    1.644     4 C    1.182    27 H    0.971
     4   6 C    3.922 --    25 N    1.257     5 C    1.256     3 C    1.182
     5   6 C    3.951 --     6 C    1.257     4 C    1.256    73 C    1.182
     6   6 C    3.923 --    10 N    1.257     5 C    1.257     7 C    1.182
     7   6 C    3.962 --     8 C    1.644     6 C    1.182    28 H    0.971
     8   6 C    3.957 --     7 C    1.644     9 C    1.171    29 H    0.972
     9   6 C    3.937 --    11 C    1.361    10 N    1.217     8 C    1.171
    10   7 N    3.416 --     6 C    1.257     9 C    1.217     1 Fe   0.657
    11   6 C    3.943 --     9 C    1.361    12 C    1.361    30 H    0.963
    12   6 C    3.942 --    11 C    1.361    16 N    1.227    13 C    1.163
    13   6 C    3.962 --    14 C    1.660    12 C    1.163    31 H    0.972
    14   6 C    3.960 --    13 C    1.660    15 C    1.164    32 H    0.972
    15   6 C    3.944 --    17 C    1.358    16 N    1.239    14 C    1.164
    16   7 N    3.412 --    15 C    1.239    12 C    1.227     1 Fe   0.660
    17   6 C    3.939 --    15 C    1.358    18 C    1.358    33 H    0.965
    18   6 C    3.944 --    17 C    1.358    22 N    1.239    19 C    1.164
    19   6 C    3.960 --    20 C    1.660    18 C    1.164    34 H    0.972
    20   6 C    3.962 --    19 C    1.660    21 C    1.163    35 H    0.972
    21   6 C    3.942 --    23 C    1.361    22 N    1.227    20 C    1.163
    22   7 N    3.412 --    18 C    1.239    21 C    1.227     1 Fe   0.660
    23   6 C    3.943 --    24 C    1.361    21 C    1.361    36 H    0.963
    24   6 C    3.937 --    23 C    1.361    25 N    1.217     2 C    1.171
    25   7 N    3.416 --     4 C    1.257    24 C    1.217     1 Fe   0.657
    26   1 H    0.998 --     2 C    0.972
    27   1 H    0.998 --     3 C    0.971
    28   1 H    0.998 --     7 C    0.971
    29   1 H    0.998 --     8 C    0.972
    30   1 H    0.996 --    11 C    0.963
    31   1 H    0.998 --    13 C    0.972
    32   1 H    0.998 --    14 C    0.972
    33   1 H    0.997 --    17 C    0.965
    34   1 H    0.998 --    19 C    0.972
    35   1 H    0.998 --    20 C    0.972
    36   1 H    0.996 --    23 C    0.963
    37  26 Fe   3.277 --    52 N    0.660    58 N    0.660    61 N    0.657
                            46 N    0.657
    38   6 C    3.957 --    39 C    1.644    60 C    1.171    62 H    0.972
    39   6 C    3.962 --    38 C    1.644    40 C    1.182    63 H    0.971
    40   6 C    3.923 --    61 N    1.257    41 C    1.257    39 C    1.182
    41   6 C    3.951 --    42 C    1.257    40 C    1.257   100 C    1.181
    42   6 C    3.923 --    41 C    1.257    46 N    1.257    43 C    1.182
    43   6 C    3.962 --    44 C    1.644    42 C    1.182    64 H    0.971
    44   6 C    3.957 --    43 C    1.644    45 C    1.171    65 H    0.972
    45   6 C    3.937 --    47 C    1.361    46 N    1.217    44 C    1.171
    46   7 N    3.416 --    42 C    1.257    45 C    1.217    37 Fe   0.657
    47   6 C    3.943 --    45 C    1.361    48 C    1.361    66 H    0.963
    48   6 C    3.942 --    47 C    1.361    52 N    1.227    49 C    1.163
    49   6 C    3.962 --    50 C    1.660    48 C    1.163    67 H    0.972
    50   6 C    3.960 --    49 C    1.660    51 C    1.164    68 H    0.972
    51   6 C    3.944 --    53 C    1.358    52 N    1.239    50 C    1.164
    52   7 N    3.412 --    51 C    1.239    48 C    1.227    37 Fe   0.660
    53   6 C    3.939 --    51 C    1.358    54 C    1.358    69 H    0.965
    54   6 C    3.944 --    53 C    1.358    58 N    1.239    55 C    1.164
    55   6 C    3.960 --    56 C    1.660    54 C    1.164    70 H    0.972
    56   6 C    3.962 --    55 C    1.660    57 C    1.163    71 H    0.972
    57   6 C    3.942 --    59 C    1.361    58 N    1.227    56 C    1.163
    58   7 N    3.412 --    54 C    1.239    57 C    1.227    37 Fe   0.660
    59   6 C    3.943 --    60 C    1.361    57 C    1.361    72 H    0.963
    60   6 C    3.937 --    59 C    1.361    61 N    1.217    38 C    1.171
    61   7 N    3.416 --    40 C    1.257    60 C    1.217    37 Fe   0.657
    62   1 H    0.998 --    38 C    0.972
    63   1 H    0.998 --    39 C    0.971
    64   1 H    0.998 --    43 C    0.971
    65   1 H    0.998 --    44 C    0.972
    66   1 H    0.996 --    47 C    0.963
    67   1 H    0.998 --    49 C    0.972
    68   1 H    0.998 --    50 C    0.972
    69   1 H    0.997 --    53 C    0.965
    70   1 H    0.998 --    55 C    0.972
    71   1 H    0.998 --    56 C    0.972
    72   1 H    0.996 --    59 C    0.963
    73   6 C    3.920 --    74 C    2.476     5 C    1.182    76 C    0.203
    74   6 C    3.931 --    73 C    2.476    75 C    1.301
    75   6 C    3.928 --    76 C    2.475    74 C    1.301
    76   6 C    3.921 --    75 C    2.475   105 C    1.184    73 C    0.203
    77   6 C    3.919 --    78 C    2.472   117 C    1.186    80 C    0.203
    78   6 C    3.928 --    77 C    2.472    79 C    1.303
    79   6 C    3.928 --    80 C    2.472    78 C    1.303
    80   6 C    3.920 --    79 C    2.472   140 C    1.186    77 C    0.203
    81   6 C    3.919 --    82 C    2.472   152 C    1.186    84 C    0.203
    82   6 C    3.928 --    81 C    2.472    83 C    1.304
    83   6 C    3.928 --    84 C    2.472    82 C    1.304
    84   6 C    3.919 --    83 C    2.472   175 C    1.186    81 C    0.203
    85   6 C    3.919 --    86 C    2.471   187 C    1.186    88 C    0.203
    86   6 C    3.928 --    85 C    2.471    87 C    1.304
    87   6 C    3.928 --    88 C    2.471    86 C    1.304
    88   6 C    3.919 --    87 C    2.471   210 C    1.186    85 C    0.203
    89   6 C    3.919 --    90 C    2.472   222 C    1.186    92 C    0.203
    90   6 C    3.928 --    89 C    2.472    91 C    1.304
    91   6 C    3.928 --    92 C    2.472    90 C    1.304
    92   6 C    3.919 --    91 C    2.472   245 C    1.186    89 C    0.203
    93   6 C    3.920 --    94 C    2.472   257 C    1.186    96 C    0.203
    94   6 C    3.928 --    93 C    2.472    95 C    1.303
    95   6 C    3.928 --    96 C    2.472    94 C    1.303
    96   6 C    3.919 --    95 C    2.472   280 C    1.186    93 C    0.203
    97   6 C    3.920 --    98 C    2.475   292 C    1.184   100 C    0.203
    98   6 C    3.928 --    97 C    2.475    99 C    1.300
    99   6 C    3.931 --   100 C    2.477    98 C    1.300
   100   6 C    3.919 --    99 C    2.477    41 C    1.181    97 C    0.203
   101  26 Fe   3.242 --   125 N    0.652   116 N    0.652   122 N    0.652
                           110 N    0.652
   102   6 C    3.957 --   103 C    1.643   124 C    1.172   126 H    0.972
   103   6 C    3.961 --   102 C    1.643   104 C    1.183   127 H    0.971
   104   6 C    3.923 --   125 N    1.260   105 C    1.254   103 C    1.183
   105   6 C    3.941 --   106 C    1.254   104 C    1.254    76 C    1.184
   106   6 C    3.923 --   110 N    1.260   105 C    1.254   107 C    1.183
   107   6 C    3.961 --   108 C    1.643   106 C    1.183   128 H    0.971
   108   6 C    3.957 --   107 C    1.643   109 C    1.172   129 H    0.972
   109   6 C    3.936 --   111 C    1.361   110 N    1.215   108 C    1.172
   110   7 N    3.407 --   106 C    1.260   109 C    1.215   101 Fe   0.652
   111   6 C    3.936 --   112 C    1.361   109 C    1.361   130 H    0.963
   112   6 C    3.936 --   111 C    1.361   116 N    1.215   113 C    1.172
   113   6 C    3.957 --   114 C    1.643   112 C    1.172   131 H    0.972
   114   6 C    3.961 --   113 C    1.643   115 C    1.183   132 H    0.971
   115   6 C    3.923 --   116 N    1.260   117 C    1.254   114 C    1.183
   116   7 N    3.407 --   115 C    1.260   112 C    1.215   101 Fe   0.652
   117   6 C    3.941 --   118 C    1.254   115 C    1.254    77 C    1.186
   118   6 C    3.923 --   122 N    1.260   117 C    1.254   119 C    1.183
   119   6 C    3.961 --   120 C    1.643   118 C    1.183   133 H    0.971
   120   6 C    3.957 --   119 C    1.643   121 C    1.172   134 H    0.972
   121   6 C    3.936 --   123 C    1.361   122 N    1.215   120 C    1.172
   122   7 N    3.407 --   118 C    1.260   121 C    1.215   101 Fe   0.652
   123   6 C    3.936 --   121 C    1.361   124 C    1.361   135 H    0.963
   124   6 C    3.936 --   123 C    1.361   125 N    1.215   102 C    1.172
   125   7 N    3.407 --   104 C    1.260   124 C    1.215   101 Fe   0.652
   126   1 H    0.998 --   102 C    0.972
   127   1 H    0.998 --   103 C    0.971
   128   1 H    0.998 --   107 C    0.971
   129   1 H    0.998 --   108 C    0.972
   130   1 H    0.996 --   111 C    0.963
   131   1 H    0.998 --   113 C    0.972
   132   1 H    0.998 --   114 C    0.971
   133   1 H    0.998 --   119 C    0.971
   134   1 H    0.998 --   120 C    0.972
   135   1 H    0.996 --   123 C    0.963
   136  26 Fe   3.241 --   160 N    0.652   145 N    0.652   151 N    0.651
                           157 N    0.651
   137   6 C    3.957 --   138 C    1.643   159 C    1.172   161 H    0.972
   138   6 C    3.961 --   137 C    1.643   139 C    1.183   162 H    0.971
   139   6 C    3.923 --   160 N    1.260   140 C    1.254   138 C    1.183
   140   6 C    3.941 --   139 C    1.254   141 C    1.253    80 C    1.186
   141   6 C    3.923 --   145 N    1.260   140 C    1.253   142 C    1.183
   142   6 C    3.961 --   143 C    1.643   141 C    1.183   163 H    0.971
   143   6 C    3.957 --   142 C    1.643   144 C    1.172   164 H    0.972
   144   6 C    3.936 --   146 C    1.361   145 N    1.215   143 C    1.172
   145   7 N    3.407 --   141 C    1.260   144 C    1.215   136 Fe   0.652
   146   6 C    3.936 --   147 C    1.361   144 C    1.361   165 H    0.963
   147   6 C    3.936 --   146 C    1.361   151 N    1.215   148 C    1.172
   148   6 C    3.957 --   149 C    1.643   147 C    1.172   166 H    0.972
   149   6 C    3.961 --   148 C    1.643   150 C    1.183   167 H    0.971
   150   6 C    3.923 --   151 N    1.261   152 C    1.253   149 C    1.183
   151   7 N    3.407 --   150 C    1.261   147 C    1.215   136 Fe   0.651
   152   6 C    3.941 --   153 C    1.253   150 C    1.253    81 C    1.186
   153   6 C    3.923 --   157 N    1.261   152 C    1.253   154 C    1.183
   154   6 C    3.961 --   155 C    1.643   153 C    1.183   168 H    0.971
   155   6 C    3.957 --   154 C    1.643   156 C    1.172   169 H    0.972
   156   6 C    3.936 --   158 C    1.361   157 N    1.215   155 C    1.172
   157   7 N    3.407 --   153 C    1.261   156 C    1.215   136 Fe   0.651
   158   6 C    3.936 --   156 C    1.361   159 C    1.361   170 H    0.963
   159   6 C    3.936 --   158 C    1.361   160 N    1.215   137 C    1.172
   160   7 N    3.407 --   139 C    1.260   159 C    1.215   136 Fe   0.652
   161   1 H    0.998 --   137 C    0.972
   162   1 H    0.998 --   138 C    0.971
   163   1 H    0.998 --   142 C    0.971
   164   1 H    0.998 --   143 C    0.972
   165   1 H    0.996 --   146 C    0.963
   166   1 H    0.998 --   148 C    0.972
   167   1 H    0.998 --   149 C    0.971
   168   1 H    0.998 --   154 C    0.971
   169   1 H    0.998 --   155 C    0.972
   170   1 H    0.996 --   158 C    0.963
   171  26 Fe   3.240 --   195 N    0.652   180 N    0.651   186 N    0.651
                           192 N    0.651
   172   6 C    3.957 --   173 C    1.643   194 C    1.172   196 H    0.972
   173   6 C    3.961 --   172 C    1.643   174 C    1.183   197 H    0.971
   174   6 C    3.923 --   195 N    1.261   175 C    1.253   173 C    1.183
   175   6 C    3.941 --   176 C    1.253   174 C    1.253    84 C    1.186
   176   6 C    3.923 --   180 N    1.261   175 C    1.253   177 C    1.183
   177   6 C    3.961 --   178 C    1.643   176 C    1.183   198 H    0.971
   178   6 C    3.957 --   177 C    1.643   179 C    1.172   199 H    0.972
   179   6 C    3.936 --   181 C    1.361   180 N    1.215   178 C    1.172
   180   7 N    3.407 --   176 C    1.261   179 C    1.215   171 Fe   0.651
   181   6 C    3.936 --   182 C    1.361   179 C    1.361   200 H    0.963
   182   6 C    3.936 --   181 C    1.361   186 N    1.215   183 C    1.172
   183   6 C    3.957 --   184 C    1.643   182 C    1.172   201 H    0.972
   184   6 C    3.961 --   183 C    1.643   185 C    1.183   202 H    0.971
   185   6 C    3.923 --   186 N    1.261   187 C    1.253   184 C    1.183
   186   7 N    3.407 --   185 C    1.261   182 C    1.215   171 Fe   0.651
   187   6 C    3.941 --   188 C    1.253   185 C    1.253    85 C    1.186
   188   6 C    3.923 --   192 N    1.261   187 C    1.253   189 C    1.183
   189   6 C    3.961 --   190 C    1.643   188 C    1.183   203 H    0.971
   190   6 C    3.957 --   189 C    1.643   191 C    1.172   204 H    0.972
   191   6 C    3.936 --   193 C    1.361   192 N    1.215   190 C    1.172
   192   7 N    3.407 --   188 C    1.261   191 C    1.215   171 Fe   0.651
   193   6 C    3.936 --   191 C    1.361   194 C    1.361   205 H    0.963
   194   6 C    3.936 --   193 C    1.361   195 N    1.215   172 C    1.172
   195   7 N    3.407 --   174 C    1.261   194 C    1.215   171 Fe   0.652
   196   1 H    0.998 --   172 C    0.972
   197   1 H    0.998 --   173 C    0.971
   198   1 H    0.998 --   177 C    0.971
   199   1 H    0.998 --   178 C    0.972
   200   1 H    0.996 --   181 C    0.963
   201   1 H    0.998 --   183 C    0.972
   202   1 H    0.998 --   184 C    0.971
   203   1 H    0.998 --   189 C    0.971
   204   1 H    0.998 --   190 C    0.972
   205   1 H    0.996 --   193 C    0.963
   206  26 Fe   3.240 --   227 N    0.652   221 N    0.652   230 N    0.651
                           215 N    0.651
   207   6 C    3.957 --   208 C    1.643   229 C    1.172   231 H    0.972
   208   6 C    3.961 --   207 C    1.643   209 C    1.183   232 H    0.971
   209   6 C    3.923 --   230 N    1.261   210 C    1.253   208 C    1.183
   210   6 C    3.941 --   211 C    1.253   209 C    1.253    88 C    1.186
   211   6 C    3.923 --   215 N    1.261   210 C    1.253   212 C    1.183
   212   6 C    3.961 --   213 C    1.643   211 C    1.183   233 H    0.971
   213   6 C    3.957 --   212 C    1.643   214 C    1.172   234 H    0.972
   214   6 C    3.936 --   216 C    1.361   215 N    1.215   213 C    1.172
   215   7 N    3.407 --   211 C    1.261   214 C    1.215   206 Fe   0.651
   216   6 C    3.936 --   214 C    1.361   217 C    1.361   235 H    0.963
   217   6 C    3.936 --   216 C    1.361   221 N    1.215   218 C    1.172
   218   6 C    3.957 --   219 C    1.643   217 C    1.172   236 H    0.972
   219   6 C    3.961 --   218 C    1.643   220 C    1.183   237 H    0.971
   220   6 C    3.923 --   221 N    1.261   222 C    1.253   219 C    1.183
   221   7 N    3.407 --   220 C    1.261   217 C    1.215   206 Fe   0.652
   222   6 C    3.941 --   223 C    1.253   220 C    1.253    89 C    1.186
   223   6 C    3.923 --   227 N    1.261   222 C    1.253   224 C    1.183
   224   6 C    3.961 --   225 C    1.643   223 C    1.183   238 H    0.971
   225   6 C    3.957 --   224 C    1.643   226 C    1.172   239 H    0.972
   226   6 C    3.936 --   228 C    1.361   227 N    1.215   225 C    1.172
   227   7 N    3.407 --   223 C    1.261   226 C    1.215   206 Fe   0.652
   228   6 C    3.936 --   229 C    1.361   226 C    1.361   240 H    0.963
   229   6 C    3.936 --   228 C    1.361   230 N    1.215   207 C    1.172
   230   7 N    3.407 --   209 C    1.261   229 C    1.215   206 Fe   0.651
   231   1 H    0.998 --   207 C    0.972
   232   1 H    0.998 --   208 C    0.971
   233   1 H    0.998 --   212 C    0.971
   234   1 H    0.998 --   213 C    0.972
   235   1 H    0.996 --   216 C    0.963
   236   1 H    0.998 --   218 C    0.972
   237   1 H    0.998 --   219 C    0.971
   238   1 H    0.998 --   224 C    0.971
   239   1 H    0.998 --   225 C    0.972
   240   1 H    0.996 --   228 C    0.963
   241  26 Fe   3.241 --   262 N    0.652   256 N    0.652   265 N    0.651
                           250 N    0.651
   242   6 C    3.957 --   243 C    1.643   264 C    1.172   266 H    0.972
   243   6 C    3.961 --   242 C    1.643   244 C    1.183   267 H    0.971
   244   6 C    3.923 --   265 N    1.261   245 C    1.253   243 C    1.183
   245   6 C    3.941 --   246 C    1.253   244 C    1.253    92 C    1.186
   246   6 C    3.923 --   250 N    1.261   245 C    1.253   247 C    1.183
   247   6 C    3.961 --   248 C    1.643   246 C    1.183   268 H    0.971
   248   6 C    3.957 --   247 C    1.643   249 C    1.172   269 H    0.972
   249   6 C    3.936 --   251 C    1.361   250 N    1.215   248 C    1.172
   250   7 N    3.407 --   246 C    1.261   249 C    1.215   241 Fe   0.651
   251   6 C    3.936 --   249 C    1.361   252 C    1.361   270 H    0.963
   252   6 C    3.936 --   251 C    1.361   256 N    1.215   253 C    1.172
   253   6 C    3.957 --   254 C    1.643   252 C    1.172   271 H    0.972
   254   6 C    3.961 --   253 C    1.643   255 C    1.183   272 H    0.971
   255   6 C    3.923 --   256 N    1.260   257 C    1.254   254 C    1.183
   256   7 N    3.407 --   255 C    1.260   252 C    1.215   241 Fe   0.652
   257   6 C    3.941 --   255 C    1.254   258 C    1.253    93 C    1.186
   258   6 C    3.923 --   262 N    1.261   257 C    1.253   259 C    1.183
   259   6 C    3.961 --   260 C    1.643   258 C    1.183   273 H    0.971
   260   6 C    3.957 --   259 C    1.643   261 C    1.172   274 H    0.972
   261   6 C    3.936 --   263 C    1.361   262 N    1.215   260 C    1.172
   262   7 N    3.407 --   258 C    1.261   261 C    1.215   241 Fe   0.652
   263   6 C    3.936 --   264 C    1.361   261 C    1.361   275 H    0.963
   264   6 C    3.936 --   263 C    1.361   265 N    1.215   242 C    1.172
   265   7 N    3.407 --   244 C    1.261   264 C    1.215   241 Fe   0.651
   266   1 H    0.998 --   242 C    0.972
   267   1 H    0.998 --   243 C    0.971
   268   1 H    0.998 --   247 C    0.971
   269   1 H    0.998 --   248 C    0.972
   270   1 H    0.996 --   251 C    0.963
   271   1 H    0.998 --   253 C    0.972
   272   1 H    0.998 --   254 C    0.971
   273   1 H    0.998 --   259 C    0.971
   274   1 H    0.998 --   260 C    0.972
   275   1 H    0.996 --   263 C    0.963
   276  26 Fe   3.242 --   291 N    0.652   300 N    0.652   297 N    0.652
                           285 N    0.652
   277   6 C    3.957 --   278 C    1.643   299 C    1.172   301 H    0.972
   278   6 C    3.961 --   277 C    1.643   279 C    1.183   302 H    0.971
   279   6 C    3.923 --   300 N    1.260   280 C    1.254   278 C    1.183
   280   6 C    3.941 --   281 C    1.254   279 C    1.254    96 C    1.186
   281   6 C    3.923 --   285 N    1.260   280 C    1.254   282 C    1.183
   282   6 C    3.961 --   283 C    1.643   281 C    1.183   303 H    0.971
   283   6 C    3.957 --   282 C    1.643   284 C    1.172   304 H    0.972
   284   6 C    3.936 --   286 C    1.361   285 N    1.215   283 C    1.172
   285   7 N    3.407 --   281 C    1.260   284 C    1.215   276 Fe   0.652
   286   6 C    3.937 --   284 C    1.361   287 C    1.361   305 H    0.963
   287   6 C    3.936 --   286 C    1.361   291 N    1.215   288 C    1.172
   288   6 C    3.958 --   289 C    1.643   287 C    1.172   306 H    0.972
   289   6 C    3.961 --   288 C    1.643   290 C    1.182   307 H    0.971
   290   6 C    3.923 --   291 N    1.260   292 C    1.254   289 C    1.182
   291   7 N    3.407 --   290 C    1.260   287 C    1.215   276 Fe   0.652
   292   6 C    3.941 --   293 C    1.255   290 C    1.254    97 C    1.184
   293   6 C    3.923 --   297 N    1.260   292 C    1.255   294 C    1.182
   294   6 C    3.961 --   295 C    1.643   293 C    1.182   308 H    0.971
   295   6 C    3.958 --   294 C    1.643   296 C    1.172   309 H    0.972
   296   6 C    3.936 --   298 C    1.361   297 N    1.215   295 C    1.172
   297   7 N    3.407 --   293 C    1.260   296 C    1.215   276 Fe   0.652
   298   6 C    3.937 --   299 C    1.361   296 C    1.361   310 H    0.963
   299   6 C    3.936 --   298 C    1.361   300 N    1.215   277 C    1.172
   300   7 N    3.407 --   279 C    1.260   299 C    1.215   276 Fe   0.652
   301   1 H    0.998 --   277 C    0.972
   302   1 H    0.998 --   278 C    0.971
   303   1 H    0.998 --   282 C    0.971
   304   1 H    0.998 --   283 C    0.972
   305   1 H    0.996 --   286 C    0.963
   306   1 H    0.998 --   288 C    0.972
   307   1 H    0.998 --   289 C    0.971
   308   1 H    0.998 --   294 C    0.971
   309   1 H    0.998 --   295 C    0.972
   310   1 H    0.996 --   298 C    0.963
 ---------------------------------------------------------------------------

Topologies differ in total number of bonds
Writing topology from bond orders to xtbtopo.mol

molecular dipole:
                 x           y           z       tot (Debye)
 q only:        0.017      -0.002      -0.002
   full:        0.017      -0.002      -0.002       0.044
molecular quadrupole (traceless):
                xx          xy          yy          xz          yz          zz
 q only:      174.491       0.328     -69.492      -0.414      -2.384    -104.999
  q+dip:      279.877       0.473     -45.364      -0.670     -12.601    -234.513
   full:      219.268       0.446     -63.993      -0.655      -6.132    -155.275


           -------------------------------------------------
          | TOTAL ENERGY             -562.974455204123 Eh   |
          | GRADIENT NORM               0.000828106678 Eh/α |
          | HOMO-LUMO GAP               0.236983920734 eV   |
           -------------------------------------------------

------------------------------------------------------------------------
 * finished run on 2021/11/21 at 19:24:53.910     
------------------------------------------------------------------------
 total:
 * wall-time:     0 d,  0 h,  1 min, 24.792 sec
 *  cpu-time:     0 d,  0 h,  1 min, 24.793 sec
 * ratio c/w:     1.000 speedup
 SCF:
 * wall-time:     0 d,  0 h,  1 min, 24.580 sec
 *  cpu-time:     0 d,  0 h,  1 min, 24.581 sec
 * ratio c/w:     1.000 speedup

