 Entering Gaussian System
 *********************************************
 Gaussian 98:
 frequency output generated by the xtb code
 *********************************************
                         Standard orientation:
 --------------------------------------------------------------------
  Center     Atomic     Atomic              Coordinates (Angstroms)
  Number     Number      Type              X           Y           Z
 --------------------------------------------------------------------
    1          6             0       39.142295    3.380427    0.676748
    2          6             0       40.108107    2.456021    0.510351
    3          6             0       39.423375    1.212648    0.204197
    4          6             0       40.099120    0.000417   -0.034148
    5          6             0       39.464084   -1.222848   -0.300054
    6          6             0       40.083051   -2.473323   -0.568194
    7          6             0       39.090887   -3.386792   -0.778583
    8          6             0       37.843907   -2.713020   -0.648752
    9          7             0       38.121964   -1.411666   -0.359575
   10          6             0       36.582856   -3.271529   -0.795931
   11          6             0       35.359041   -2.624805   -0.693931
   12          6             0       34.088735   -3.313028   -0.873628
   13          6             0       33.130662   -2.381997   -0.711118
   14          6             0       33.823119   -1.132831   -0.434120
   15          7             0       35.160222   -1.316648   -0.430636
   16          6             0       33.164724    0.069578   -0.209310
   17          6             0       33.776099    1.285196    0.056126
   18          6             0       33.155197    2.543874    0.299148
   19          6             0       34.143916    3.457152    0.516900
   20          6             0       35.394249    2.780870    0.412008
   21          7             0       35.119712    1.479325    0.133288
   22          6             0       36.655200    3.336320    0.569226
   23          6             0       37.879366    2.691137    0.473594
   24          7             0       38.090618    1.382976    0.193268
   25          1             0       39.238334    4.422326    0.915133
   26          1             0       41.172081    2.563442    0.593842
   27          1             0       41.142464   -2.635696   -0.604497
   28          1             0       39.201723   -4.429001   -1.006741
   29          1             0       37.438739   -0.677327   -0.215342
   30          1             0       36.553077   -4.328801   -1.020421
   31          1             0       33.987105   -4.358942   -1.091923
   32          1             0       32.064270   -2.489768   -0.765819
   33          1             0       32.084895    0.056710   -0.243420
   34          1             0       32.095824    2.712380    0.304591
   35          1             0       34.032251    4.502442    0.731084
   36          1             0       35.800805    0.741900   -0.001388
   37          1             0       36.686620    4.393277    0.795456
   38          6             0       78.181457   -3.426652   -0.389678
   39          6             0       77.219603   -2.490379   -0.274554
   40          6             0       77.911454   -1.224083   -0.112067
   41          6             0       77.241748    0.005485    0.037279
   42          6             0       77.883128    1.246931    0.170590
   43          6             0       77.271710    2.516688    0.350923
   44          6             0       78.268960    3.444268    0.441405
   45          6             0       79.511727    2.760747    0.322411
   46          7             0       79.226091    1.439025    0.161765
   47          6             0       80.775746    3.330265    0.364486
   48          6             0       81.996669    2.677758    0.265022
   49          6             0       83.270487    3.380504    0.320828
   50          6             0       84.224602    2.439315    0.198459
   51          6             0       83.526284    1.169441    0.070476
   52          7             0       82.189579    1.351171    0.113059
   53          6             0       84.179350   -0.048431   -0.071499
   54          6             0       83.561789   -1.283631   -0.193297
   55          6             0       84.176103   -2.559903   -0.343545
   56          6             0       83.182140   -3.489199   -0.429903
   57          6             0       81.935055   -2.805463   -0.334461
   58          7             0       82.216778   -1.483583   -0.192040
   59          6             0       80.670727   -3.373042   -0.385007
   60          6             0       79.448980   -2.721698   -0.300585
   61          7             0       79.244263   -1.393105   -0.135588
   62          1             0       78.079874   -4.486289   -0.525547
   63          1             0       76.153560   -2.604890   -0.306524
   64          1             0       76.214086    2.682554    0.414094
   65          1             0       78.164356    4.502639    0.580872
   66          1             0       79.904339    0.693552    0.056189
   67          1             0       80.810767    4.403418    0.491897
   68          1             0       83.376952    4.442128    0.437204
   69          1             0       85.291800    2.552582    0.191823
   70          1             0       85.259532   -0.032147   -0.088254
   71          1             0       85.234830   -2.728647   -0.379831
   72          1             0       83.288091   -4.550123   -0.549044
   73          1             0       81.540276   -0.735724   -0.097576
   74          1             0       80.634042   -4.446571   -0.509620
   75          6             0       41.499706    0.009793   -0.009174
   76          6             0       42.712954    0.024964    0.005521
   77          6             0       52.543769   -0.014682    0.044833
   78          6             0       53.757912    0.008957    0.042302
   79          6             0       63.592396    0.008427    0.048121
   80          6             0       64.806221    0.032676    0.050528
   81          6             0       74.627722   -0.014383    0.065131
   82          6             0       75.841005   -0.003205    0.052968
   83          6             0       45.087021   -3.229338    1.127633
   84          6             0       44.114015   -2.346633    0.828531
   85          6             0       44.790694   -1.134646    0.405332
   86          6             0       44.112594    0.037110    0.017811
   87          6             0       44.761275    1.222846   -0.362920
   88          6             0       44.168113    2.439483   -0.790635
   89          6             0       45.180944    3.310249   -1.075150
   90          6             0       46.413112    2.641663   -0.831828
   91          7             0       46.107392    1.387166   -0.401114
   92          6             0       47.682499    3.170658   -1.020707
   93          6             0       48.908163    2.554504   -0.827095
   94          6             0       50.166449    3.226142   -1.103941
   95          6             0       51.139208    2.339587   -0.816148
   96          6             0       50.464421    1.138997   -0.359708
   97          7             0       49.130204    1.293693   -0.382824
   98          6             0       51.145280   -0.026028    0.047186
   99          6             0       50.495355   -1.202028    0.457561
  100          6             0       51.086384   -2.409891    0.911330
  101          6             0       50.073144   -3.278792    1.199788
  102          6             0       48.841933   -2.617424    0.933447
  103          7             0       49.149308   -1.367661    0.489436
  104          6             0       47.572841   -3.152881    1.104498
  105          6             0       46.346469   -2.545708    0.886416
  106          7             0       46.125588   -1.282232    0.451115
  107          1             0       44.997736   -4.239293    1.479188
  108          1             0       43.049503   -2.462321    0.891488
  109          1             0       43.112844    2.609102   -0.877686
  110          1             0       45.092846    4.320123   -1.425843
  111          1             0       46.760958    0.654179   -0.147984
  112          1             0       47.715895    4.192045   -1.375287
  113          1             0       50.255131    4.230679   -1.470799
  114          1             0       52.202230    2.445200   -0.908383
  115          1             0       52.140615   -2.575720    1.013578
  116          1             0       50.160451   -4.282973    1.566636
  117          1             0       48.496619   -0.639483    0.220603
  118          1             0       47.539910   -4.173479    1.461420
  119          6             0       56.154819   -3.413004   -0.158561
  120          6             0       55.176326   -2.487415   -0.126251
  121          6             0       55.843620   -1.203016   -0.026490
  122          6             0       55.156276    0.025602    0.038014
  123          6             0       55.800430    1.272827    0.099124
  124          6             0       55.203719    2.556838    0.194318
  125          6             0       56.212916    3.476368    0.224498
  126          6             0       57.447104    2.772176    0.155474
  127          7             0       57.145745    1.446652    0.081673
  128          6             0       58.713499    3.340345    0.174499
  129          6             0       59.943277    2.703022    0.144969
  130          6             0       61.198073    3.433516    0.201618
  131          6             0       62.176348    2.507574    0.171109
  132          6             0       61.507742    1.222290    0.090254
  133          7             0       60.172433    1.369328    0.078794
  134          6             0       62.193891   -0.007411    0.044891
  135          6             0       61.550975   -1.255354   -0.002079
  136          6             0       62.149153   -2.540098   -0.077592
  137          6             0       61.139996   -3.459572   -0.113787
  138          6             0       59.905048   -2.754729   -0.066404
  139          7             0       60.205578   -1.428823    0.001895
  140          6             0       58.638368   -3.321460   -0.101349
  141          6             0       57.408931   -2.683025   -0.084437
  142          7             0       57.178883   -1.349803   -0.009068
  143          1             0       56.072678   -4.480588   -0.229892
  144          1             0       54.113785   -2.620998   -0.180718
  145          1             0       54.148848    2.740234    0.247729
  146          1             0       56.120943    4.542861    0.292986
  147          1             0       57.800661    0.674038    0.028007
  148          1             0       58.740466    4.420271    0.230515
  149          1             0       61.280898    4.501749    0.261490
  150          1             0       63.239532    2.641541    0.214342
  151          1             0       63.204974   -2.723493   -0.113757
  152          1             0       61.232627   -4.526599   -0.172455
  153          1             0       59.550286   -0.655745    0.042441
  154          1             0       58.610813   -4.401334   -0.158202
  155          6             0       67.177218   -3.092738    1.489504
  156          6             0       66.205736   -2.239057    1.111831
  157          6             0       66.883711   -1.081932    0.557325
  158          6             0       66.204935    0.044332    0.051356
  159          6             0       66.852798    1.184461   -0.451554
  160          6             0       66.258370    2.350801   -1.000156
  161          6             0       67.269646    3.193431   -1.363718
  162          6             0       68.502594    2.556748   -1.049450
  163          7             0       68.198458    1.348104   -0.501671
  164          6             0       69.771301    3.073030   -1.273279
  165          6             0       70.996946    2.482174   -1.010691
  166          6             0       72.257120    3.135204   -1.322374
  167          6             0       73.228822    2.278060   -0.953137
  168          6             0       72.550625    1.112924   -0.415757
  169          7             0       71.216035    1.262119   -0.464590
  170          6             0       73.227901   -0.020354    0.074106
  171          6             0       72.580331   -1.161637    0.573685
  172          6             0       73.175995   -2.330699    1.115599
  173          6             0       72.164963   -3.169174    1.489496
  174          6             0       70.931408   -2.528235    1.186321
  175          7             0       71.234497   -1.321171    0.634951
  176          6             0       69.662531   -3.038888    1.423081
  177          6             0       68.437220   -2.446152    1.164516
  178          7             0       68.217818   -1.231395    0.605598
  179          1             0       67.086649   -4.060157    1.945007
  180          1             0       65.141625   -2.339587    1.199896
  181          1             0       65.203282    2.507289   -1.109633
  182          1             0       67.179906    4.163926   -1.811677
  183          1             0       68.853869    0.646399   -0.175635
  184          1             0       69.804709    4.058565   -1.717795
  185          1             0       72.347561    4.108795   -1.764520
  186          1             0       74.293186    2.382404   -1.034948
  187          1             0       74.231820   -2.490899    1.213573
  188          1             0       72.255196   -4.139705    1.937310
  189          1             0       70.578199   -0.617476    0.315097
  190          1             0       69.629169   -4.021657    1.873698
 --------------------------------------------------------------------
     1 basis functions        1 primitive gaussians
     1 alpha electrons        1 beta electrons

 Harmonic frequencies (cm**-1), IR intensities (km*mol⁻¹),
 Raman scattering activities (A**4/amu), Raman depolarization ratios,
 reduced masses (AMU), force constants (mDyne/A) and normal coordinates:
                      1                      2                      3
                        a                      a                      a 
 Frequencies --    -2.1053                -1.1874                 2.6163
 Red. masses --    11.8655                11.7852                11.7961
 Frc consts  --     0.0000                 0.0000                 0.0000
 IR Inten    --    12.1820                 2.7447                 0.6665
 Raman Activ --     0.0000                 0.0000                 0.0000
 Depolar     --     0.0000                 0.0000                 0.0000
 Atom AN      X      Y      Z        X      Y      Z        X      Y      Z
   1   6     0.01  -0.01   0.05     0.04   0.06   0.00    -0.05  -0.01   0.00
   2   6     0.00  -0.01   0.04     0.03   0.05   0.00    -0.04   0.00   0.02
   3   6     0.00  -0.01   0.06     0.01   0.05   0.00    -0.02  -0.01   0.00
   4   6    -0.00  -0.01   0.05    -0.00   0.05   0.00    -0.00   0.00   0.02
   5   6    -0.00  -0.01   0.06    -0.01   0.05   0.01     0.02  -0.01   0.00
   6   6    -0.01  -0.01   0.06    -0.03   0.04   0.01     0.04   0.00   0.01
   7   6    -0.01  -0.01   0.07    -0.04   0.06   0.01     0.05  -0.01  -0.01
   8   6    -0.01  -0.01   0.09    -0.03   0.07   0.01     0.04  -0.02  -0.03
   9   7    -0.00  -0.01   0.09    -0.02   0.07   0.01     0.02  -0.02  -0.02
  10   6    -0.01  -0.01   0.11    -0.04   0.08   0.01     0.05  -0.04  -0.05
  11   6    -0.01  -0.01   0.12    -0.03   0.10   0.01     0.04  -0.05  -0.07
  12   6    -0.01  -0.01   0.14    -0.04   0.11   0.01     0.05  -0.07  -0.10
  13   6    -0.01  -0.01   0.15    -0.03   0.12   0.01     0.04  -0.08  -0.11
  14   6    -0.01  -0.01   0.14    -0.01   0.12   0.01     0.02  -0.07  -0.10
  15   7    -0.01  -0.01   0.13    -0.02   0.11   0.01     0.02  -0.06  -0.08
  16   6    -0.00  -0.01   0.14    -0.00   0.12   0.01     0.00  -0.08  -0.11
  17   6     0.00  -0.01   0.13     0.01   0.12   0.01    -0.02  -0.07  -0.10
  18   6     0.00  -0.01   0.13     0.03   0.12   0.01    -0.04  -0.08  -0.10
  19   6     0.00  -0.01   0.12     0.04   0.11   0.00    -0.05  -0.07  -0.09
  20   6     0.00  -0.01   0.11     0.03   0.10   0.00    -0.04  -0.05  -0.07
  21   7     0.00  -0.01   0.12     0.02   0.11   0.01    -0.02  -0.06  -0.08
  22   6     0.01  -0.01   0.09     0.04   0.09   0.00    -0.05  -0.04  -0.04
  23   6     0.00  -0.01   0.07     0.03   0.07   0.00    -0.04  -0.02  -0.02
  24   7     0.00  -0.01   0.08     0.02   0.07   0.00    -0.02  -0.02  -0.02
  25   1     0.00  -0.00   0.01     0.01   0.02  -0.00    -0.02  -0.00   0.00
  26   1     0.00  -0.00   0.01     0.01   0.01  -0.00    -0.01   0.00   0.01
  27   1    -0.00  -0.00   0.01    -0.01   0.01   0.00     0.01   0.00   0.01
  28   1    -0.00  -0.00   0.02    -0.02   0.02   0.00     0.02  -0.00  -0.00
  29   1    -0.00  -0.00   0.03    -0.00   0.02   0.00     0.00  -0.01  -0.01
  30   1    -0.00  -0.00   0.03    -0.01   0.02   0.00     0.02  -0.01  -0.02
  31   1    -0.00  -0.00   0.04    -0.01   0.03   0.00     0.02  -0.02  -0.03
  32   1    -0.00  -0.00   0.05    -0.01   0.04   0.00     0.01  -0.03  -0.04
  33   1    -0.00  -0.00   0.05    -0.00   0.04   0.00     0.00  -0.03  -0.04
  34   1     0.00  -0.00   0.04     0.01   0.04   0.00    -0.01  -0.03  -0.04
  35   1     0.00  -0.00   0.03     0.01   0.03   0.00    -0.02  -0.02  -0.02
  36   1    -0.00  -0.00   0.03     0.00   0.03   0.00    -0.00  -0.01  -0.02
  37   1     0.00  -0.00   0.02     0.01   0.02   0.00    -0.02  -0.01  -0.01
  38   6     0.00  -0.01   0.05     0.06   0.05   0.01     0.03  -0.01   0.00
  39   6     0.00  -0.01   0.05     0.04   0.04   0.00     0.02  -0.02  -0.01
  40   6     0.00  -0.01   0.06     0.02   0.05   0.01     0.01  -0.02  -0.00
  41   6     0.00  -0.01   0.05     0.00   0.04  -0.00     0.00  -0.02  -0.01
  42   6     0.00  -0.01   0.06    -0.02   0.05   0.00    -0.01  -0.02  -0.00
  43   6    -0.00  -0.01   0.06    -0.04   0.04  -0.00    -0.02  -0.02  -0.01
  44   6    -0.00  -0.01   0.07    -0.06   0.06   0.00    -0.03  -0.01   0.00
  45   6     0.00  -0.01   0.09    -0.05   0.08   0.01    -0.02  -0.00   0.02
  46   7     0.00  -0.01   0.09    -0.03   0.08   0.01    -0.01  -0.01   0.02
  47   6    -0.00  -0.01   0.10    -0.06   0.10   0.02    -0.03   0.00   0.05
  48   6     0.00  -0.01   0.12    -0.05   0.12   0.03    -0.02   0.01   0.07
  49   6     0.00  -0.01   0.14    -0.06   0.14   0.04    -0.03   0.02   0.09
  50   6     0.00  -0.01   0.15    -0.04   0.16   0.05    -0.02   0.03   0.11
  51   6     0.00  -0.01   0.13    -0.02   0.14   0.04    -0.01   0.02   0.09
  52   7     0.00  -0.01   0.13    -0.02   0.13   0.04    -0.01   0.01   0.08
  53   6     0.00  -0.01   0.14     0.00   0.15   0.05     0.00   0.03   0.10
  54   6     0.00  -0.01   0.13     0.02   0.14   0.04     0.01   0.02   0.09
  55   6     0.00  -0.01   0.13     0.05   0.15   0.05     0.02   0.03   0.10
  56   6     0.00  -0.01   0.11     0.06   0.14   0.04     0.03   0.02   0.09
  57   6     0.00  -0.01   0.10     0.05   0.12   0.03     0.03   0.01   0.07
  58   7     0.00  -0.01   0.12     0.03   0.13   0.04     0.02   0.01   0.08
  59   6     0.00  -0.01   0.08     0.06   0.10   0.03     0.03   0.00   0.04
  60   6     0.00  -0.01   0.07     0.05   0.08   0.02     0.02  -0.01   0.02
  61   7     0.00  -0.01   0.08     0.03   0.08   0.02     0.01  -0.01   0.02
  62   1     0.00  -0.00   0.01     0.02   0.02   0.00     0.01  -0.00   0.00
  63   1     0.00  -0.00   0.01     0.01   0.01  -0.00     0.01  -0.01  -0.01
  64   1    -0.00  -0.00   0.01    -0.01   0.01  -0.00    -0.01  -0.01  -0.01
  65   1    -0.00  -0.00   0.02    -0.02   0.02   0.00    -0.01  -0.00  -0.00
  66   1     0.00  -0.00   0.03    -0.00   0.02   0.01    -0.00  -0.00   0.01
  67   1    -0.00  -0.00   0.03    -0.02   0.03   0.01    -0.01   0.00   0.01
  68   1    -0.00  -0.00   0.04    -0.02   0.04   0.01    -0.01   0.01   0.03
  69   1     0.00  -0.00   0.05    -0.01   0.05   0.02    -0.01   0.01   0.04
  70   1     0.00  -0.00   0.04     0.00   0.05   0.02     0.00   0.01   0.04
  71   1     0.00  -0.00   0.04     0.01   0.05   0.02     0.01   0.01   0.03
  72   1     0.00  -0.00   0.03     0.02   0.04   0.01     0.01   0.01   0.03
  73   1     0.00  -0.00   0.03     0.00   0.03   0.01     0.00   0.00   0.02
  74   1     0.00  -0.00   0.02     0.02   0.03   0.01     0.01   0.00   0.01
  75   6    -0.00  -0.01   0.03    -0.00   0.03   0.00    -0.00   0.02   0.04
  76   6    -0.00  -0.00   0.01    -0.00   0.02  -0.00    -0.00   0.03   0.06
  77   6     0.00   0.01  -0.09    -0.00  -0.07   0.01    -0.00   0.06   0.08
  78   6     0.00   0.01  -0.10    -0.00  -0.08   0.01    -0.00   0.05   0.07
  79   6     0.00   0.01  -0.09    -0.00  -0.10  -0.01    -0.00  -0.02  -0.07
  80   6     0.00   0.01  -0.08    -0.00  -0.09  -0.02    -0.00  -0.03  -0.08
  81   6     0.00  -0.00   0.02     0.00  -0.00  -0.02    -0.00  -0.03  -0.05
  82   6     0.00  -0.01   0.03     0.00   0.02  -0.01    -0.00  -0.03  -0.04
  83   6     0.02   0.00  -0.01    -0.03  -0.01  -0.00     0.01   0.05   0.09
  84   6     0.01  -0.00   0.00    -0.02   0.00  -0.00     0.00   0.04   0.08
  85   6     0.01  -0.00  -0.01    -0.01  -0.00  -0.00     0.00   0.04   0.08
  86   6    -0.00  -0.00  -0.00    -0.00   0.00  -0.00    -0.00   0.04   0.08
  87   6    -0.01  -0.00  -0.01     0.01  -0.00  -0.00    -0.00   0.04   0.09
  88   6    -0.01  -0.00  -0.01     0.02   0.00  -0.01    -0.01   0.04   0.09
  89   6    -0.02  -0.00  -0.02     0.03  -0.01  -0.01    -0.01   0.05   0.10
  90   6    -0.01  -0.00  -0.04     0.02  -0.02  -0.01    -0.01   0.05   0.10
  91   7    -0.01  -0.00  -0.03     0.01  -0.02  -0.01    -0.00   0.05   0.11
  92   6    -0.02   0.00  -0.05     0.03  -0.03  -0.01    -0.01   0.06   0.11
  93   6    -0.01   0.00  -0.06     0.02  -0.04  -0.01    -0.01   0.06   0.11
  94   6    -0.02   0.01  -0.07     0.03  -0.05  -0.01    -0.01   0.06   0.11
  95   6    -0.01   0.01  -0.08     0.02  -0.06  -0.00    -0.01   0.06   0.10
  96   6    -0.01   0.01  -0.07     0.01  -0.05  -0.00    -0.00   0.06   0.10
  97   7    -0.01   0.00  -0.07     0.01  -0.05  -0.00    -0.00   0.06   0.11
  98   6     0.00   0.01  -0.08    -0.00  -0.06   0.00    -0.00   0.06   0.09
  99   6     0.01   0.01  -0.07    -0.01  -0.05   0.00     0.00   0.06   0.10
 100   6     0.01   0.01  -0.07    -0.02  -0.06   0.00     0.00   0.06   0.10
 101   6     0.02   0.01  -0.06    -0.03  -0.05  -0.00     0.01   0.06   0.10
 102   6     0.01   0.01  -0.05    -0.02  -0.04  -0.00     0.01   0.06   0.10
 103   7     0.01   0.01  -0.06    -0.01  -0.04  -0.00     0.00   0.06   0.11
 104   6     0.02   0.00  -0.04    -0.03  -0.03  -0.00     0.01   0.06   0.10
 105   6     0.01   0.00  -0.02    -0.02  -0.02  -0.00     0.01   0.05   0.10
 106   7     0.01   0.00  -0.03    -0.01  -0.02  -0.00     0.00   0.05   0.10
 107   1     0.01   0.00  -0.00    -0.01  -0.00  -0.00     0.00   0.01   0.03
 108   1     0.00  -0.00   0.00    -0.01   0.00  -0.00     0.00   0.01   0.02
 109   1    -0.00  -0.00   0.00     0.01   0.00  -0.00    -0.00   0.01   0.02
 110   1    -0.01  -0.00  -0.01     0.01  -0.00  -0.00    -0.00   0.01   0.03
 111   1    -0.00   0.00  -0.01     0.00  -0.01  -0.00    -0.00   0.02   0.03
 112   1    -0.01  -0.00  -0.01     0.01  -0.01  -0.00    -0.00   0.02   0.03
 113   1    -0.01   0.00  -0.02     0.01  -0.02  -0.00    -0.00   0.02   0.03
 114   1    -0.00   0.00  -0.03     0.01  -0.02  -0.00    -0.00   0.02   0.03
 115   1     0.00   0.00  -0.02    -0.01  -0.02   0.00     0.00   0.02   0.03
 116   1     0.01   0.00  -0.02    -0.01  -0.01  -0.00     0.00   0.02   0.03
 117   1     0.00   0.00  -0.01    -0.00  -0.01  -0.00    -0.00   0.02   0.03
 118   1     0.01   0.00  -0.01    -0.01  -0.01  -0.00     0.00   0.02   0.03
 119   6    -0.00   0.01  -0.11    -0.01  -0.08   0.02    -0.03   0.04   0.03
 120   6    -0.00   0.01  -0.11    -0.01  -0.08   0.02    -0.02   0.04   0.04
 121   6     0.00   0.01  -0.11    -0.00  -0.08   0.01    -0.01   0.04   0.04
 122   6     0.00   0.01  -0.10    -0.00  -0.08   0.01    -0.00   0.04   0.05
 123   6    -0.00   0.01  -0.11     0.00  -0.08   0.01     0.01   0.04   0.04
 124   6    -0.00   0.01  -0.11     0.01  -0.08   0.02     0.02   0.04   0.04
 125   6    -0.00   0.01  -0.11     0.01  -0.08   0.02     0.03   0.04   0.03
 126   6    -0.00   0.01  -0.11     0.01  -0.09   0.01     0.02   0.03   0.01
 127   7    -0.00   0.02  -0.12     0.00  -0.09   0.01     0.01   0.03   0.02
 128   6    -0.00   0.01  -0.11     0.01  -0.09   0.01     0.03   0.02  -0.01
 129   6     0.00   0.01  -0.11     0.01  -0.09   0.01     0.02   0.01  -0.03
 130   6     0.00   0.01  -0.11     0.01  -0.09   0.01     0.03   0.00  -0.04
 131   6     0.00   0.01  -0.10     0.01  -0.10  -0.00     0.02  -0.01  -0.06
 132   6     0.00   0.01  -0.10     0.00  -0.09  -0.00     0.01  -0.00  -0.05
 133   7     0.00   0.02  -0.12     0.00  -0.10   0.01     0.01   0.01  -0.03
 134   6    -0.00   0.01  -0.10     0.00  -0.10  -0.01    -0.00  -0.01  -0.06
 135   6    -0.00   0.01  -0.10    -0.00  -0.09  -0.00    -0.01  -0.00  -0.05
 136   6    -0.00   0.01  -0.10    -0.01  -0.09  -0.00    -0.02  -0.01  -0.06
 137   6    -0.00   0.01  -0.11    -0.01  -0.09   0.01    -0.03   0.00  -0.04
 138   6    -0.00   0.01  -0.11    -0.01  -0.09   0.01    -0.02   0.01  -0.03
 139   7    -0.00   0.02  -0.12    -0.00  -0.10   0.01    -0.01   0.01  -0.03
 140   6    -0.00   0.01  -0.11    -0.01  -0.09   0.01    -0.03   0.02  -0.01
 141   6    -0.00   0.01  -0.11    -0.01  -0.09   0.02    -0.02   0.03   0.01
 142   7    -0.00   0.02  -0.12    -0.00  -0.09   0.01    -0.01   0.03   0.02
 143   1    -0.00   0.00  -0.03    -0.00  -0.02   0.01    -0.01   0.01   0.01
 144   1    -0.00   0.00  -0.03    -0.00  -0.02   0.01    -0.01   0.02   0.02
 145   1    -0.00   0.00  -0.03     0.00  -0.02   0.00     0.01   0.02   0.02
 146   1    -0.00   0.00  -0.03     0.00  -0.02   0.00     0.01   0.01   0.01
 147   1    -0.00   0.00  -0.03     0.00  -0.02   0.00     0.00   0.01   0.00
 148   1     0.00   0.00  -0.03     0.00  -0.03   0.00     0.01   0.01  -0.00
 149   1     0.00   0.00  -0.03     0.00  -0.03   0.00     0.01  -0.00  -0.01
 150   1    -0.00   0.00  -0.03     0.00  -0.03  -0.00     0.01  -0.00  -0.02
 151   1    -0.00   0.00  -0.03    -0.00  -0.03  -0.00    -0.01  -0.00  -0.02
 152   1    -0.00   0.00  -0.03    -0.00  -0.03   0.00    -0.01   0.00  -0.01
 153   1    -0.00   0.00  -0.03    -0.00  -0.03   0.00    -0.00   0.00  -0.01
 154   1    -0.00   0.00  -0.03    -0.00  -0.03   0.00    -0.01   0.01  -0.00
 155   6    -0.02   0.00  -0.07     0.03  -0.08  -0.04    -0.01  -0.04  -0.10
 156   6    -0.01   0.01  -0.08     0.02  -0.09  -0.03    -0.01  -0.03  -0.09
 157   6    -0.01   0.01  -0.07     0.01  -0.08  -0.03    -0.00  -0.03  -0.09
 158   6     0.00   0.01  -0.07    -0.00  -0.09  -0.03    -0.00  -0.03  -0.09
 159   6     0.01   0.01  -0.06    -0.01  -0.08  -0.04     0.00  -0.04  -0.09
 160   6     0.01   0.01  -0.06    -0.02  -0.09  -0.04     0.00  -0.04  -0.10
 161   6     0.02   0.01  -0.05    -0.03  -0.08  -0.04     0.01  -0.04  -0.10
 162   6     0.02   0.01  -0.04    -0.02  -0.07  -0.04     0.00  -0.04  -0.10
 163   7     0.01   0.01  -0.05    -0.01  -0.08  -0.04     0.00  -0.04  -0.10
 164   6     0.02   0.00  -0.03    -0.03  -0.06  -0.04     0.01  -0.04  -0.10
 165   6     0.01   0.00  -0.02    -0.02  -0.05  -0.04     0.00  -0.04  -0.09
 166   6     0.02   0.00  -0.00    -0.03  -0.03  -0.04     0.01  -0.04  -0.08
 167   6     0.01  -0.00   0.01    -0.02  -0.02  -0.03     0.00  -0.04  -0.07
 168   6     0.01  -0.00  -0.00    -0.01  -0.03  -0.03     0.00  -0.04  -0.08
 169   7     0.01   0.00  -0.02    -0.01  -0.05  -0.04     0.00  -0.05  -0.09
 170   6    -0.00  -0.00   0.00     0.00  -0.02  -0.03    -0.00  -0.04  -0.07
 171   6    -0.01  -0.00  -0.01     0.01  -0.03  -0.03    -0.00  -0.04  -0.08
 172   6    -0.01  -0.01  -0.00     0.02  -0.02  -0.03    -0.01  -0.04  -0.07
 173   6    -0.02  -0.01  -0.02     0.03  -0.03  -0.04    -0.01  -0.04  -0.08
 174   6    -0.02  -0.00  -0.03     0.02  -0.05  -0.04    -0.01  -0.04  -0.09
 175   7    -0.01  -0.00  -0.03     0.01  -0.04  -0.04    -0.00  -0.05  -0.09
 176   6    -0.02  -0.00  -0.04     0.03  -0.06  -0.04    -0.01  -0.04  -0.09
 177   6    -0.02   0.00  -0.06     0.02  -0.07  -0.04    -0.01  -0.04  -0.10
 178   7    -0.01   0.00  -0.06     0.01  -0.07  -0.04    -0.00  -0.04  -0.10
 179   1    -0.01   0.00  -0.02     0.01  -0.02  -0.01    -0.00  -0.01  -0.03
 180   1    -0.00   0.00  -0.02     0.01  -0.03  -0.01    -0.00  -0.01  -0.03
 181   1     0.00   0.00  -0.02    -0.01  -0.03  -0.01     0.00  -0.01  -0.03
 182   1     0.01   0.00  -0.01    -0.01  -0.02  -0.01     0.00  -0.01  -0.03
 183   1     0.00   0.00  -0.01    -0.00  -0.02  -0.01     0.00  -0.01  -0.03
 184   1     0.01   0.00  -0.01    -0.01  -0.02  -0.01     0.00  -0.01  -0.03
 185   1     0.01   0.00   0.00    -0.01  -0.01  -0.01     0.00  -0.01  -0.02
 186   1     0.00  -0.00   0.01    -0.01  -0.00  -0.01     0.00  -0.01  -0.02
 187   1    -0.00  -0.00   0.00     0.01  -0.00  -0.01    -0.00  -0.01  -0.02
 188   1    -0.01  -0.00  -0.01     0.01  -0.01  -0.01    -0.00  -0.01  -0.02
 189   1    -0.00   0.00  -0.01     0.00  -0.01  -0.01    -0.00  -0.01  -0.03
 190   1    -0.01  -0.00  -0.01     0.01  -0.02  -0.01    -0.00  -0.01  -0.03
                      4                      5                      6
                        a                      a                      a 
 Frequencies --     6.5408                 7.7820                 8.3797
 Red. masses --    11.6724                11.3757                11.5668
 Frc consts  --     0.0000                 0.0000                 0.0000
 IR Inten    --     0.3828                 2.4369                 4.3156
 Raman Activ --     0.0000                 0.0000                 0.0000
 Depolar     --     0.0000                 0.0000                 0.0000
 Atom AN      X      Y      Z        X      Y      Z        X      Y      Z
   1   6     0.06  -0.01   0.03    -0.00  -0.03   0.18     0.01  -0.03   0.04
   2   6     0.04  -0.03   0.04    -0.00  -0.02   0.15     0.01  -0.02  -0.01
   3   6     0.02  -0.02   0.03    -0.00  -0.01   0.09     0.00  -0.01  -0.02
   4   6    -0.00  -0.03   0.03    -0.00  -0.00   0.05    -0.00  -0.01  -0.06
   5   6    -0.02  -0.02   0.02     0.00   0.01  -0.01    -0.00   0.00  -0.08
   6   6    -0.04  -0.03   0.04     0.00   0.02  -0.05    -0.01   0.01  -0.13
   7   6    -0.06  -0.01   0.02     0.00   0.03  -0.10    -0.01   0.01  -0.14
   8   6    -0.05   0.01   0.00     0.00   0.03  -0.10    -0.01   0.01  -0.09
   9   7    -0.03   0.01   0.01     0.00   0.02  -0.04    -0.01  -0.00  -0.07
  10   6    -0.06   0.04  -0.02     0.00   0.04  -0.14    -0.01   0.01  -0.08
  11   6    -0.05   0.07  -0.04     0.00   0.04  -0.14    -0.01   0.00  -0.03
  12   6    -0.06   0.10  -0.06     0.01   0.05  -0.19    -0.01   0.00  -0.01
  13   6    -0.04   0.12  -0.08     0.01   0.05  -0.17    -0.01  -0.01   0.04
  14   6    -0.02   0.10  -0.07     0.00   0.03  -0.11    -0.01  -0.01   0.06
  15   7    -0.02   0.08  -0.05     0.00   0.03  -0.09    -0.01  -0.01   0.02
  16   6     0.00   0.12  -0.09     0.00   0.02  -0.06    -0.01  -0.02   0.11
  17   6     0.03   0.10  -0.07     0.00   0.01   0.00    -0.00  -0.03   0.13
  18   6     0.05   0.12  -0.08     0.00   0.00   0.05    -0.00  -0.03   0.18
  19   6     0.06   0.09  -0.06    -0.00  -0.01   0.11     0.00  -0.04   0.18
  20   6     0.05   0.07  -0.04    -0.00  -0.01   0.10     0.00  -0.03   0.12
  21   7     0.03   0.08  -0.05     0.00   0.00   0.04    -0.00  -0.03   0.11
  22   6     0.06   0.04  -0.01    -0.00  -0.02   0.14     0.00  -0.03   0.10
  23   6     0.05   0.01   0.01    -0.00  -0.02   0.13     0.00  -0.02   0.05
  24   7     0.03   0.01   0.01    -0.00  -0.01   0.09     0.00  -0.02   0.02
  25   1     0.02  -0.00   0.01    -0.00  -0.01   0.07     0.00  -0.01   0.02
  26   1     0.01  -0.02   0.02    -0.00  -0.01   0.05     0.00  -0.01  -0.01
  27   1    -0.01  -0.02   0.02     0.00   0.01  -0.01    -0.00   0.00  -0.05
  28   1    -0.02  -0.00   0.01     0.00   0.01  -0.04    -0.00   0.01  -0.05
  29   1    -0.00   0.01  -0.00     0.00   0.00  -0.01    -0.00  -0.00  -0.01
  30   1    -0.02   0.01  -0.00     0.00   0.01  -0.05    -0.00   0.00  -0.03
  31   1    -0.02   0.03  -0.02     0.00   0.02  -0.07    -0.00   0.00  -0.01
  32   1    -0.01   0.04  -0.03     0.00   0.02  -0.06    -0.00  -0.00   0.02
  33   1     0.00   0.04  -0.03     0.00   0.01  -0.02    -0.00  -0.01   0.04
  34   1     0.01   0.04  -0.03     0.00   0.00   0.01    -0.00  -0.01   0.06
  35   1     0.02   0.03  -0.02    -0.00  -0.01   0.04     0.00  -0.01   0.06
  36   1     0.00   0.02  -0.01     0.00   0.00   0.00    -0.00  -0.01   0.02
  37   1     0.02   0.01  -0.00    -0.00  -0.01   0.06     0.00  -0.01   0.04
  38   6    -0.06   0.02  -0.03     0.00  -0.01   0.18     0.01  -0.02   0.03
  39   6    -0.04   0.04  -0.04     0.00  -0.01   0.15     0.01  -0.01  -0.01
  40   6    -0.02   0.02  -0.02    -0.00  -0.00   0.09     0.00  -0.01  -0.03
  41   6    -0.00   0.03  -0.03    -0.00   0.00   0.05     0.00  -0.01  -0.07
  42   6     0.02   0.02  -0.02    -0.00   0.01  -0.00    -0.00  -0.00  -0.09
  43   6     0.04   0.03  -0.03     0.00   0.01  -0.04    -0.00   0.00  -0.13
  44   6     0.06   0.02  -0.02     0.00   0.02  -0.09    -0.00   0.00  -0.14
  45   6     0.05  -0.01   0.00     0.00   0.02  -0.09    -0.00  -0.00  -0.09
  46   7     0.03  -0.00  -0.00    -0.00   0.01  -0.04    -0.00  -0.01  -0.07
  47   6     0.06  -0.03   0.02    -0.00   0.02  -0.13    -0.00  -0.00  -0.07
  48   6     0.05  -0.06   0.05    -0.00   0.02  -0.13    -0.00  -0.01  -0.02
  49   6     0.06  -0.08   0.07    -0.00   0.03  -0.19    -0.00  -0.01   0.00
  50   6     0.04  -0.10   0.09    -0.00   0.02  -0.17     0.00  -0.01   0.05
  51   6     0.02  -0.09   0.08    -0.00   0.02  -0.11     0.00  -0.02   0.07
  52   7     0.03  -0.07   0.06    -0.00   0.02  -0.09     0.00  -0.01   0.03
  53   6     0.00  -0.10   0.09    -0.00   0.01  -0.07     0.00  -0.02   0.12
  54   6    -0.02  -0.09   0.08    -0.00   0.01  -0.01     0.01  -0.02   0.13
  55   6    -0.04  -0.10   0.09    -0.00   0.00   0.03     0.01  -0.03   0.18
  56   6    -0.06  -0.08   0.06    -0.00  -0.00   0.09     0.01  -0.03   0.17
  57   6    -0.05  -0.06   0.04    -0.00  -0.00   0.09     0.01  -0.02   0.12
  58   7    -0.03  -0.07   0.05    -0.00   0.00   0.03     0.01  -0.02   0.11
  59   6    -0.06  -0.03   0.01     0.00  -0.01   0.14     0.01  -0.02   0.10
  60   6    -0.05  -0.01  -0.01     0.00  -0.01   0.13     0.01  -0.02   0.05
  61   7    -0.03  -0.00  -0.00    -0.00   0.00   0.09     0.00  -0.01   0.01
  62   1    -0.02   0.01  -0.01     0.00  -0.01   0.06     0.00  -0.01   0.01
  63   1    -0.01   0.02  -0.02    -0.00  -0.00   0.05     0.00  -0.00  -0.01
  64   1     0.01   0.02  -0.02     0.00   0.00  -0.01    -0.00   0.00  -0.05
  65   1     0.02   0.01  -0.01     0.00   0.01  -0.04    -0.00   0.00  -0.05
  66   1     0.00  -0.01   0.00    -0.00   0.00  -0.01     0.00  -0.00  -0.01
  67   1     0.02  -0.01   0.01    -0.00   0.01  -0.05    -0.00   0.00  -0.03
  68   1     0.02  -0.03   0.02    -0.00   0.01  -0.07    -0.00  -0.00  -0.01
  69   1     0.01  -0.04   0.03    -0.00   0.01  -0.06     0.00  -0.00   0.02
  70   1     0.00  -0.04   0.03    -0.00   0.00  -0.03     0.00  -0.01   0.04
  71   1    -0.01  -0.04   0.03    -0.00   0.00   0.01     0.00  -0.01   0.06
  72   1    -0.02  -0.02   0.02    -0.00  -0.00   0.04     0.00  -0.01   0.06
  73   1    -0.00  -0.01   0.01     0.00   0.00   0.00     0.00  -0.00   0.02
  74   1    -0.02  -0.01   0.00     0.00  -0.00   0.05     0.00  -0.01   0.03
  75   6    -0.00  -0.06   0.04    -0.00  -0.00   0.06    -0.00  -0.01  -0.08
  76   6    -0.00  -0.07   0.04    -0.00  -0.00   0.06    -0.00  -0.01  -0.09
  77   6    -0.00  -0.08   0.05    -0.00  -0.01  -0.03     0.00   0.02   0.03
  78   6    -0.00  -0.07   0.05    -0.00  -0.01  -0.04     0.00   0.02   0.05
  79   6    -0.00   0.06  -0.05     0.00  -0.01  -0.04     0.00   0.03   0.05
  80   6    -0.00   0.07  -0.06     0.00  -0.01  -0.02     0.00   0.02   0.03
  81   6    -0.00   0.07  -0.04    -0.00   0.00   0.07     0.00  -0.01  -0.10
  82   6    -0.00   0.06  -0.04    -0.00   0.00   0.06     0.00  -0.01  -0.09
  83   6    -0.00  -0.08   0.04     0.01  -0.03  -0.03    -0.01  -0.03  -0.15
  84   6    -0.00  -0.08   0.04     0.01  -0.02  -0.00    -0.01  -0.02  -0.14
  85   6    -0.00  -0.08   0.04     0.00  -0.01   0.03    -0.00  -0.01  -0.11
  86   6    -0.00  -0.08   0.05    -0.00  -0.00   0.06    -0.00  -0.01  -0.09
  87   6     0.00  -0.08   0.04    -0.00   0.01   0.09     0.00  -0.00  -0.07
  88   6     0.00  -0.08   0.04    -0.01   0.02   0.12     0.00   0.01  -0.05
  89   6     0.00  -0.08   0.04    -0.01   0.03   0.14     0.01   0.01  -0.03
  90   6     0.00  -0.08   0.04    -0.01   0.02   0.11     0.00   0.01  -0.03
  91   7     0.00  -0.09   0.05    -0.00   0.01   0.09     0.00   0.00  -0.06
  92   6     0.00  -0.08   0.04    -0.01   0.02   0.11     0.00   0.01  -0.01
  93   6     0.00  -0.08   0.04    -0.01   0.01   0.07     0.00   0.01  -0.00
  94   6     0.00  -0.09   0.04    -0.01   0.02   0.07     0.01   0.02   0.03
  95   6     0.00  -0.09   0.04    -0.01   0.01   0.04     0.00   0.02   0.03
  96   6     0.00  -0.08   0.04    -0.00   0.00   0.02     0.00   0.01   0.01
  97   7     0.00  -0.09   0.05    -0.00   0.00   0.05     0.00   0.01  -0.02
  98   6    -0.00  -0.08   0.05    -0.00  -0.01  -0.01     0.00   0.01   0.00
  99   6    -0.00  -0.08   0.05     0.00  -0.01  -0.02    -0.00   0.00  -0.03
 100   6    -0.00  -0.08   0.05     0.01  -0.02  -0.05    -0.01  -0.00  -0.03
 101   6    -0.00  -0.08   0.04     0.01  -0.03  -0.06    -0.01  -0.01  -0.07
 102   6    -0.00  -0.08   0.05     0.01  -0.02  -0.03    -0.01  -0.01  -0.08
 103   7    -0.00  -0.09   0.05     0.00  -0.02  -0.01    -0.00  -0.00  -0.06
 104   6    -0.00  -0.08   0.04     0.01  -0.03  -0.04    -0.01  -0.02  -0.12
 105   6    -0.00  -0.08   0.04     0.01  -0.02  -0.02    -0.01  -0.02  -0.12
 106   7    -0.00  -0.08   0.05     0.00  -0.01   0.02    -0.00  -0.01  -0.11
 107   1    -0.00  -0.02   0.01     0.00  -0.01  -0.01    -0.00  -0.01  -0.05
 108   1    -0.00  -0.02   0.01     0.00  -0.01   0.00    -0.00  -0.01  -0.05
 109   1     0.00  -0.02   0.01    -0.00   0.01   0.04     0.00   0.00  -0.02
 110   1     0.00  -0.02   0.01    -0.00   0.01   0.05     0.00   0.00  -0.01
 111   1     0.00  -0.02   0.01    -0.00   0.00   0.02    -0.00  -0.00  -0.02
 112   1     0.00  -0.02   0.01    -0.00   0.01   0.04     0.00   0.01   0.00
 113   1     0.00  -0.03   0.01    -0.00   0.01   0.03     0.00   0.01   0.01
 114   1     0.00  -0.03   0.01    -0.00   0.00   0.01     0.00   0.01   0.02
 115   1    -0.00  -0.02   0.01     0.00  -0.01  -0.02    -0.00   0.00  -0.00
 116   1    -0.00  -0.02   0.01     0.00  -0.01  -0.02    -0.00  -0.00  -0.02
 117   1    -0.00  -0.02   0.01     0.00  -0.00   0.00    -0.00  -0.00  -0.02
 118   1    -0.00  -0.02   0.01     0.00  -0.01  -0.02    -0.00  -0.01  -0.04
 119   6     0.04  -0.04   0.04    -0.00  -0.01  -0.06     0.00   0.02   0.08
 120   6     0.03  -0.05   0.05    -0.00  -0.01  -0.06     0.00   0.02   0.07
 121   6     0.01  -0.04   0.04    -0.00  -0.01  -0.06     0.00   0.02   0.07
 122   6    -0.00  -0.05   0.04    -0.00  -0.01  -0.05     0.00   0.02   0.06
 123   6    -0.02  -0.04   0.04     0.00  -0.01  -0.05    -0.00   0.02   0.07
 124   6    -0.03  -0.05   0.05     0.00  -0.01  -0.05    -0.00   0.02   0.07
 125   6    -0.04  -0.04   0.03     0.00  -0.01  -0.06    -0.00   0.02   0.08
 126   6    -0.04  -0.02   0.02     0.00  -0.01  -0.07    -0.00   0.02   0.09
 127   7    -0.02  -0.03   0.02     0.00  -0.01  -0.07    -0.00   0.02   0.09
 128   6    -0.04  -0.00  -0.00     0.00  -0.01  -0.08    -0.00   0.02   0.09
 129   6    -0.04   0.01  -0.02     0.00  -0.01  -0.08    -0.00   0.02   0.08
 130   6    -0.04   0.03  -0.04     0.00  -0.01  -0.08    -0.00   0.02   0.07
 131   6    -0.03   0.04  -0.05     0.00  -0.01  -0.07     0.00   0.03   0.06
 132   6    -0.02   0.03  -0.04     0.00  -0.01  -0.06     0.00   0.03   0.07
 133   7    -0.02   0.02  -0.02     0.00  -0.01  -0.07     0.00   0.03   0.09
 134   6    -0.00   0.04  -0.05     0.00  -0.01  -0.05     0.00   0.03   0.07
 135   6     0.02   0.03  -0.04    -0.00  -0.01  -0.04     0.00   0.03   0.08
 136   6     0.03   0.04  -0.05    -0.00  -0.01  -0.04     0.00   0.03   0.08
 137   6     0.04   0.03  -0.03    -0.00  -0.01  -0.04     0.00   0.02   0.09
 138   6     0.03   0.01  -0.02    -0.00  -0.01  -0.05     0.00   0.02   0.10
 139   7     0.02   0.02  -0.02    -0.00  -0.01  -0.06     0.00   0.03   0.09
 140   6     0.04  -0.01   0.00    -0.00  -0.01  -0.06     0.00   0.02   0.10
 141   6     0.03  -0.02   0.02    -0.00  -0.01  -0.06     0.00   0.02   0.09
 142   7     0.02  -0.03   0.02    -0.00  -0.01  -0.06     0.00   0.02   0.09
 143   1     0.02  -0.01   0.01    -0.00  -0.00  -0.02     0.00   0.01   0.03
 144   1     0.01  -0.02   0.02    -0.00  -0.00  -0.02     0.00   0.01   0.02
 145   1    -0.01  -0.02   0.02     0.00  -0.00  -0.01    -0.00   0.01   0.02
 146   1    -0.02  -0.01   0.01     0.00  -0.00  -0.02    -0.00   0.01   0.02
 147   1    -0.00  -0.00   0.00    -0.00  -0.00  -0.02    -0.00   0.01   0.02
 148   1    -0.02  -0.00  -0.00     0.00  -0.00  -0.02    -0.00   0.01   0.03
 149   1    -0.02   0.01  -0.01     0.00  -0.00  -0.03    -0.00   0.01   0.02
 150   1    -0.01   0.02  -0.02     0.00  -0.00  -0.02     0.00   0.01   0.02
 151   1     0.01   0.02  -0.02    -0.00  -0.00  -0.01     0.00   0.01   0.02
 152   1     0.02   0.01  -0.01    -0.00  -0.00  -0.01     0.00   0.01   0.03
 153   1     0.00   0.00  -0.00     0.00  -0.00  -0.02     0.00   0.01   0.02
 154   1     0.02  -0.00   0.00    -0.00  -0.00  -0.02     0.00   0.01   0.03
 155   6    -0.00   0.08  -0.05    -0.01   0.02   0.07     0.01   0.03   0.03
 156   6    -0.00   0.08  -0.05    -0.01   0.01   0.04     0.01   0.03   0.04
 157   6    -0.00   0.08  -0.05    -0.00   0.00   0.02     0.00   0.02   0.01
 158   6    -0.00   0.08  -0.05     0.00  -0.01  -0.01     0.00   0.02   0.00
 159   6    -0.00   0.08  -0.05     0.00  -0.02  -0.02    -0.00   0.01  -0.03
 160   6     0.00   0.08  -0.05     0.01  -0.03  -0.05    -0.01   0.00  -0.03
 161   6     0.00   0.08  -0.04     0.01  -0.03  -0.06    -0.01  -0.01  -0.07
 162   6     0.00   0.08  -0.04     0.01  -0.03  -0.03    -0.01  -0.01  -0.08
 163   7    -0.00   0.08  -0.05     0.00  -0.02  -0.01    -0.00  -0.00  -0.06
 164   6     0.00   0.08  -0.04     0.01  -0.03  -0.03    -0.01  -0.03  -0.11
 165   6     0.00   0.08  -0.04     0.01  -0.02  -0.01    -0.01  -0.03  -0.12
 166   6     0.00   0.08  -0.04     0.01  -0.03  -0.02    -0.01  -0.04  -0.15
 167   6     0.00   0.08  -0.04     0.01  -0.02   0.00    -0.01  -0.03  -0.14
 168   6     0.00   0.08  -0.04     0.00  -0.01   0.03    -0.00  -0.02  -0.11
 169   7     0.00   0.08  -0.05     0.00  -0.01   0.02    -0.00  -0.02  -0.11
 170   6    -0.00   0.08  -0.04     0.00   0.00   0.06     0.00  -0.01  -0.10
 171   6    -0.00   0.08  -0.04    -0.00   0.02   0.09     0.00   0.00  -0.07
 172   6    -0.00   0.08  -0.04    -0.01   0.03   0.13     0.01   0.01  -0.06
 173   6    -0.00   0.08  -0.04    -0.01   0.04   0.14     0.01   0.01  -0.04
 174   6    -0.00   0.08  -0.04    -0.01   0.03   0.11     0.01   0.01  -0.04
 175   7    -0.00   0.08  -0.05    -0.00   0.02   0.09     0.00   0.00  -0.06
 176   6    -0.00   0.08  -0.04    -0.01   0.03   0.11     0.01   0.02  -0.01
 177   6    -0.00   0.08  -0.05    -0.01   0.02   0.08     0.01   0.02  -0.00
 178   7    -0.00   0.08  -0.05    -0.00   0.01   0.05     0.00   0.02  -0.02
 179   1    -0.00   0.02  -0.01    -0.00   0.01   0.03     0.00   0.01   0.01
 180   1    -0.00   0.02  -0.01    -0.00   0.00   0.01     0.00   0.01   0.02
 181   1     0.00   0.02  -0.01     0.00  -0.01  -0.02    -0.00   0.00  -0.00
 182   1     0.00   0.02  -0.01     0.00  -0.01  -0.02    -0.00  -0.01  -0.02
 183   1    -0.00   0.02  -0.01     0.00  -0.00   0.00     0.00  -0.00  -0.02
 184   1     0.00   0.02  -0.01     0.00  -0.01  -0.02    -0.00  -0.01  -0.04
 185   1     0.00   0.02  -0.01     0.00  -0.01  -0.01    -0.00  -0.01  -0.05
 186   1     0.00   0.02  -0.01     0.00  -0.01   0.00    -0.00  -0.01  -0.05
 187   1    -0.00   0.02  -0.01    -0.00   0.01   0.04     0.00   0.00  -0.02
 188   1    -0.00   0.02  -0.01    -0.00   0.01   0.05     0.00   0.01  -0.01
 189   1    -0.00   0.02  -0.01    -0.00   0.00   0.02     0.00  -0.00  -0.02
 190   1    -0.00   0.02  -0.01    -0.00   0.01   0.04     0.00   0.01   0.00
                      7                      8                      9
                        a                      a                      a 
 Frequencies --    10.3938                11.2457                13.2603
 Red. masses --    11.2428                11.5227                11.5084
 Frc consts  --     0.0000                 0.0000                 0.0000
 IR Inten    --     0.2608                 3.8480                 0.1665
 Raman Activ --     0.0000                 0.0000                 0.0000
 Depolar     --     0.0000                 0.0000                 0.0000
 Atom AN      X      Y      Z        X      Y      Z        X      Y      Z
   1   6     0.01   0.02  -0.12    -0.08   0.06  -0.02     0.02  -0.00  -0.09
   2   6     0.00   0.02  -0.09    -0.06   0.09  -0.03     0.01  -0.00  -0.11
   3   6     0.00   0.01  -0.05    -0.03   0.07  -0.02     0.00  -0.00  -0.09
   4   6     0.00   0.00  -0.01     0.00   0.09  -0.02    -0.00  -0.00  -0.11
   5   6     0.00  -0.01   0.03     0.03   0.07  -0.03    -0.01  -0.00  -0.10
   6   6     0.00  -0.02   0.07     0.06   0.09  -0.04    -0.02   0.00  -0.12
   7   6    -0.00  -0.02   0.10     0.09   0.07  -0.05    -0.03   0.00  -0.11
   8   6    -0.00  -0.02   0.09     0.07   0.03  -0.03    -0.02   0.00  -0.07
   9   7     0.00  -0.01   0.05     0.04   0.04  -0.02    -0.01   0.00  -0.07
  10   6    -0.00  -0.02   0.12     0.08   0.00  -0.03    -0.03   0.01  -0.03
  11   6    -0.00  -0.02   0.11     0.07  -0.03  -0.01    -0.02   0.00   0.02
  12   6    -0.00  -0.03   0.14     0.08  -0.07   0.00    -0.03   0.00   0.06
  13   6    -0.00  -0.02   0.11     0.06  -0.09   0.03    -0.03  -0.00   0.11
  14   6    -0.00  -0.01   0.06     0.03  -0.08   0.03    -0.02  -0.00   0.09
  15   7    -0.00  -0.01   0.06     0.04  -0.04   0.01    -0.02   0.00   0.04
  16   6     0.00  -0.00   0.01    -0.00  -0.10   0.05    -0.01  -0.00   0.12
  17   6     0.00   0.01  -0.04    -0.03  -0.08   0.04    -0.00  -0.00   0.10
  18   6     0.00   0.02  -0.09    -0.06  -0.10   0.06     0.01  -0.00   0.12
  19   6     0.01   0.03  -0.13    -0.09  -0.07   0.04     0.01  -0.00   0.08
  20   6     0.01   0.02  -0.11    -0.07  -0.04   0.02     0.01  -0.00   0.03
  21   7     0.00   0.01  -0.06    -0.04  -0.05   0.03     0.00  -0.00   0.05
  22   6     0.01   0.02  -0.13    -0.08  -0.00   0.01     0.02   0.00  -0.01
  23   6     0.01   0.02  -0.10    -0.06   0.03  -0.01     0.01   0.00  -0.05
  24   7     0.01   0.01  -0.06    -0.03   0.04  -0.01     0.00   0.00  -0.06
  25   1     0.00   0.01  -0.05    -0.03   0.02  -0.01     0.01   0.00  -0.03
  26   1     0.00   0.01  -0.03    -0.02   0.03  -0.01     0.00  -0.00  -0.04
  27   1    -0.00  -0.01   0.02     0.02   0.04  -0.01    -0.01  -0.00  -0.04
  28   1    -0.00  -0.01   0.04     0.03   0.02  -0.02    -0.01   0.00  -0.03
  29   1     0.00  -0.00   0.01     0.00   0.01  -0.00    -0.00   0.00  -0.01
  30   1    -0.00  -0.01   0.05     0.03   0.00  -0.01    -0.01   0.00  -0.01
  31   1    -0.00  -0.01   0.05     0.03  -0.02  -0.00    -0.01   0.00   0.02
  32   1    -0.00  -0.01   0.03     0.02  -0.04   0.01    -0.01  -0.00   0.04
  33   1     0.00  -0.00   0.00    -0.00  -0.04   0.02    -0.00  -0.00   0.05
  34   1     0.00   0.01  -0.03    -0.02  -0.04   0.02     0.00  -0.00   0.05
  35   1     0.00   0.01  -0.05    -0.03  -0.02   0.01     0.01  -0.00   0.03
  36   1     0.00   0.00  -0.01    -0.00  -0.01   0.00    -0.00  -0.00   0.01
  37   1     0.00   0.01  -0.05    -0.03  -0.00   0.00     0.01   0.00  -0.01
  38   6    -0.01  -0.01   0.14    -0.08   0.07  -0.03    -0.01   0.00   0.09
  39   6    -0.01  -0.01   0.10    -0.06   0.09  -0.03    -0.01   0.00   0.11
  40   6    -0.01   0.00   0.05    -0.03   0.07  -0.02    -0.00   0.00   0.09
  41   6    -0.00   0.01   0.01     0.00   0.09  -0.02     0.00   0.00   0.11
  42   6    -0.00   0.01  -0.04     0.03   0.07  -0.02     0.01   0.00   0.10
  43   6     0.00   0.02  -0.08     0.06   0.09  -0.03     0.02   0.00   0.13
  44   6     0.00   0.02  -0.12     0.09   0.06  -0.03     0.02  -0.00   0.11
  45   6     0.00   0.01  -0.11     0.07   0.03  -0.02     0.02  -0.00   0.07
  46   7    -0.00   0.01  -0.06     0.04   0.04  -0.02     0.01  -0.00   0.08
  47   6     0.00   0.01  -0.14     0.08  -0.00  -0.01     0.02  -0.00   0.04
  48   6     0.00   0.01  -0.12     0.07  -0.04   0.00     0.01  -0.00  -0.01
  49   6     0.00   0.01  -0.16     0.09  -0.07   0.01     0.02  -0.00  -0.06
  50   6     0.00   0.00  -0.12     0.06  -0.09   0.03     0.01  -0.00  -0.11
  51   6     0.00  -0.00  -0.06     0.03  -0.08   0.03     0.01  -0.00  -0.09
  52   7     0.00   0.00  -0.07     0.04  -0.04   0.01     0.01  -0.00  -0.04
  53   6    -0.00  -0.01  -0.01     0.00  -0.09   0.04     0.00   0.00  -0.12
  54   6    -0.00  -0.01   0.05    -0.03  -0.08   0.03    -0.00   0.00  -0.10
  55   6    -0.01  -0.02   0.10    -0.06  -0.09   0.04    -0.01   0.00  -0.13
  56   6    -0.01  -0.02   0.15    -0.09  -0.07   0.03    -0.01   0.00  -0.08
  57   6    -0.01  -0.02   0.12    -0.07  -0.03   0.01    -0.01  -0.00  -0.03
  58   7    -0.00  -0.01   0.07    -0.04  -0.04   0.02    -0.00  -0.00  -0.05
  59   6    -0.01  -0.02   0.14    -0.08   0.00  -0.00    -0.01  -0.00   0.02
  60   6    -0.01  -0.01   0.12    -0.07   0.03  -0.01    -0.01  -0.00   0.06
  61   7    -0.01  -0.00   0.07    -0.04   0.04  -0.01    -0.00   0.00   0.06
  62   1    -0.00  -0.00   0.05    -0.03   0.02  -0.01    -0.00   0.00   0.03
  63   1    -0.00  -0.00   0.03    -0.02   0.03  -0.01    -0.00   0.00   0.04
  64   1     0.00   0.01  -0.02     0.02   0.03  -0.01     0.01   0.00   0.04
  65   1     0.00   0.01  -0.05     0.03   0.02  -0.01     0.01  -0.00   0.03
  66   1    -0.00   0.00  -0.01     0.00   0.01  -0.00     0.00  -0.00   0.01
  67   1     0.00   0.01  -0.05     0.03  -0.00  -0.01     0.01  -0.00   0.01
  68   1     0.00   0.00  -0.06     0.03  -0.02   0.00     0.01  -0.00  -0.02
  69   1     0.00   0.00  -0.04     0.02  -0.04   0.01     0.00  -0.00  -0.04
  70   1    -0.00  -0.00  -0.00     0.00  -0.04   0.02     0.00   0.00  -0.05
  71   1    -0.00  -0.01   0.03    -0.02  -0.04   0.02    -0.00   0.00  -0.05
  72   1    -0.00  -0.01   0.06    -0.03  -0.02   0.01    -0.00   0.00  -0.03
  73   1    -0.00  -0.00   0.01    -0.00  -0.01   0.00     0.00  -0.00  -0.01
  74   1    -0.00  -0.01   0.06    -0.03   0.00  -0.00    -0.00  -0.00   0.01
  75   6     0.00   0.00  -0.01     0.00   0.11  -0.01    -0.00  -0.01  -0.12
  76   6     0.00   0.00  -0.01     0.00   0.12   0.00    -0.00  -0.01  -0.11
  77   6     0.00  -0.00   0.01    -0.00  -0.05  -0.02    -0.00   0.00   0.13
  78   6     0.00  -0.00   0.01    -0.00  -0.07  -0.01    -0.00   0.00   0.13
  79   6    -0.00  -0.00  -0.01    -0.00  -0.08  -0.02     0.00   0.00  -0.13
  80   6    -0.00  -0.00  -0.01    -0.00  -0.06  -0.02     0.00   0.00  -0.13
  81   6    -0.00   0.01   0.01     0.00   0.12   0.00     0.00   0.01   0.11
  82   6    -0.00   0.01   0.01     0.00   0.11  -0.01     0.00   0.01   0.12
  83   6     0.00  -0.01  -0.03    -0.06   0.09   0.03    -0.02  -0.01  -0.06
  84   6     0.00  -0.00  -0.02    -0.04   0.11   0.03    -0.02  -0.02  -0.09
  85   6     0.00  -0.00  -0.01    -0.02   0.10   0.02    -0.01  -0.01  -0.07
  86   6     0.00   0.00  -0.01     0.00   0.11   0.01    -0.00  -0.02  -0.09
  87   6     0.01   0.00   0.00     0.02   0.09   0.01     0.01  -0.01  -0.07
  88   6     0.01   0.01   0.01     0.04   0.11   0.02     0.01  -0.02  -0.09
  89   6     0.01   0.01   0.02     0.06   0.09   0.02     0.02  -0.01  -0.06
  90   6     0.01   0.01   0.03     0.05   0.06   0.01     0.02  -0.01  -0.03
  91   7     0.01   0.01   0.02     0.03   0.08   0.01     0.01  -0.01  -0.04
  92   6     0.01   0.02   0.05     0.05   0.04   0.00     0.02  -0.01   0.01
  93   6     0.01   0.02   0.05     0.04   0.01  -0.01     0.02  -0.00   0.05
  94   6     0.01   0.02   0.08     0.06  -0.01  -0.02     0.02   0.00   0.09
  95   6     0.01   0.02   0.07     0.04  -0.03  -0.03     0.02   0.00   0.11
  96   6     0.01   0.01   0.03     0.02  -0.02  -0.02     0.01   0.00   0.10
  97   7     0.01   0.01   0.03     0.02   0.01  -0.01     0.01  -0.00   0.06
  98   6     0.00  -0.00   0.01    -0.00  -0.03  -0.02    -0.00   0.00   0.11
  99   6     0.00  -0.01  -0.02    -0.02  -0.02  -0.01    -0.01   0.00   0.10
 100   6     0.00  -0.02  -0.04    -0.04  -0.03  -0.01    -0.02   0.01   0.12
 101   6     0.00  -0.02  -0.06    -0.06  -0.01  -0.01    -0.03   0.00   0.09
 102   6     0.00  -0.02  -0.04    -0.05   0.02   0.00    -0.02   0.00   0.06
 103   7     0.00  -0.01  -0.02    -0.03   0.01  -0.00    -0.01   0.00   0.07
 104   6     0.00  -0.01  -0.04    -0.06   0.04   0.01    -0.02  -0.00   0.02
 105   6     0.00  -0.01  -0.03    -0.04   0.07   0.02    -0.02  -0.01  -0.02
 106   7     0.00  -0.00  -0.02    -0.02   0.08   0.01    -0.01  -0.01  -0.03
 107   1     0.00  -0.00  -0.01    -0.02   0.03   0.01    -0.01  -0.00  -0.02
 108   1     0.00  -0.00  -0.00    -0.01   0.04   0.01    -0.01  -0.01  -0.04
 109   1     0.00   0.00  -0.00     0.01   0.04   0.01     0.00  -0.01  -0.04
 110   1     0.00   0.00   0.01     0.02   0.03   0.01     0.01  -0.00  -0.02
 111   1     0.00   0.00   0.00     0.00   0.02   0.00    -0.00  -0.00  -0.00
 112   1     0.00   0.01   0.02     0.02   0.01   0.00     0.01  -0.00   0.00
 113   1     0.00   0.01   0.03     0.02  -0.00  -0.01     0.01   0.00   0.03
 114   1     0.00   0.01   0.02     0.01  -0.02  -0.01     0.01   0.00   0.04
 115   1     0.00  -0.01  -0.01    -0.01  -0.01  -0.01    -0.01   0.00   0.04
 116   1     0.00  -0.01  -0.02    -0.02  -0.00  -0.00    -0.01   0.00   0.03
 117   1     0.00  -0.00  -0.00    -0.00   0.01   0.00    -0.00   0.00   0.01
 118   1     0.00  -0.01  -0.02    -0.02   0.01   0.00    -0.01  -0.00   0.00
 119   6    -0.00   0.01  -0.18    -0.00  -0.08   0.01    -0.00  -0.00   0.11
 120   6     0.00   0.01  -0.12    -0.00  -0.08   0.01    -0.00  -0.00   0.14
 121   6     0.00   0.00  -0.06    -0.00  -0.08  -0.00    -0.00  -0.00   0.11
 122   6     0.00  -0.00   0.01    -0.00  -0.08  -0.01    -0.00  -0.00   0.11
 123   6     0.00  -0.01   0.08     0.00  -0.08  -0.01     0.00   0.00   0.09
 124   6     0.00  -0.01   0.15     0.00  -0.08  -0.00     0.00   0.00   0.11
 125   6    -0.00  -0.01   0.20     0.00  -0.08  -0.00     0.01   0.00   0.07
 126   6     0.00  -0.01   0.16     0.00  -0.08  -0.00     0.00  -0.00   0.03
 127   7     0.00  -0.00   0.09     0.00  -0.09  -0.01     0.00  -0.00   0.05
 128   6    -0.00  -0.01   0.19     0.00  -0.08  -0.00     0.00   0.00  -0.02
 129   6    -0.00  -0.00   0.14     0.00  -0.08  -0.00     0.00   0.00  -0.06
 130   6     0.00  -0.01   0.18     0.00  -0.08  -0.00     0.00   0.00  -0.11
 131   6    -0.00  -0.01   0.12     0.00  -0.08  -0.01     0.00   0.00  -0.13
 132   6    -0.00  -0.00   0.06    -0.00  -0.08  -0.01     0.00   0.00  -0.10
 133   7    -0.00  -0.00   0.08     0.00  -0.09  -0.01     0.00   0.00  -0.06
 134   6    -0.00  -0.00  -0.01    -0.00  -0.08  -0.01     0.00   0.00  -0.11
 135   6    -0.00   0.00  -0.08    -0.00  -0.08  -0.01     0.00   0.00  -0.09
 136   6    -0.00   0.01  -0.14    -0.00  -0.08  -0.00    -0.00   0.00  -0.10
 137   6     0.00   0.01  -0.19    -0.00  -0.08   0.00    -0.00   0.00  -0.07
 138   6    -0.00   0.00  -0.15    -0.00  -0.08   0.00    -0.00   0.00  -0.03
 139   7    -0.00  -0.00  -0.09    -0.00  -0.09  -0.01     0.00   0.00  -0.05
 140   6    -0.00   0.00  -0.18    -0.00  -0.08   0.01    -0.00   0.00   0.02
 141   6     0.00   0.00  -0.14    -0.00  -0.08   0.01    -0.00   0.00   0.07
 142   7     0.00  -0.00  -0.08    -0.00  -0.09  -0.00    -0.00   0.00   0.07
 143   1    -0.00   0.00  -0.07    -0.00  -0.02   0.01    -0.00  -0.00   0.04
 144   1    -0.00   0.00  -0.04    -0.00  -0.02   0.00    -0.00  -0.00   0.05
 145   1     0.00  -0.00   0.05     0.00  -0.02  -0.00     0.00   0.00   0.04
 146   1    -0.00  -0.00   0.07     0.00  -0.02   0.00     0.00   0.00   0.02
 147   1     0.00   0.00   0.01     0.00  -0.02  -0.00    -0.00  -0.00   0.01
 148   1    -0.00  -0.00   0.07     0.00  -0.02  -0.00     0.00   0.00  -0.01
 149   1     0.00  -0.00   0.07     0.00  -0.02  -0.00     0.00   0.00  -0.03
 150   1    -0.00  -0.00   0.04     0.00  -0.02  -0.00     0.00   0.00  -0.05
 151   1    -0.00   0.00  -0.04    -0.00  -0.02  -0.00    -0.00   0.00  -0.04
 152   1     0.00   0.00  -0.07    -0.00  -0.02   0.00    -0.00   0.00  -0.02
 153   1    -0.00  -0.00  -0.01     0.00  -0.02  -0.00     0.00   0.00  -0.01
 154   1    -0.00   0.00  -0.07    -0.00  -0.02   0.00    -0.00   0.00   0.01
 155   6    -0.00  -0.03  -0.06     0.06  -0.02  -0.02    -0.03  -0.00  -0.09
 156   6    -0.00  -0.02  -0.06     0.04  -0.04  -0.03    -0.02  -0.00  -0.11
 157   6    -0.00  -0.01  -0.03     0.02  -0.02  -0.02    -0.01  -0.00  -0.10
 158   6    -0.00  -0.00  -0.01    -0.00  -0.04  -0.02     0.00  -0.00  -0.11
 159   6    -0.00   0.01   0.01    -0.02  -0.02  -0.02     0.01  -0.00  -0.10
 160   6    -0.00   0.02   0.03    -0.04  -0.04  -0.02     0.03  -0.00  -0.12
 161   6    -0.01   0.02   0.04    -0.06  -0.01  -0.01     0.04  -0.00  -0.09
 162   6    -0.00   0.02   0.03    -0.05   0.01  -0.00     0.03  -0.00  -0.06
 163   7    -0.00   0.01   0.01    -0.03   0.01  -0.01     0.02  -0.00  -0.07
 164   6    -0.00   0.02   0.03    -0.06   0.04   0.01     0.03   0.00  -0.02
 165   6    -0.00   0.01   0.02    -0.04   0.07   0.02     0.03   0.01   0.02
 166   6    -0.00   0.01   0.02    -0.06   0.10   0.03     0.04   0.01   0.06
 167   6    -0.00   0.01   0.01    -0.04   0.11   0.03     0.03   0.02   0.09
 168   6    -0.00   0.01   0.01    -0.02   0.10   0.02     0.02   0.01   0.07
 169   7    -0.00   0.01   0.01    -0.02   0.08   0.01     0.02   0.01   0.03
 170   6    -0.00   0.01   0.01     0.00   0.11   0.01     0.00   0.01   0.08
 171   6    -0.00   0.01   0.00     0.02   0.10   0.01    -0.01   0.01   0.07
 172   6    -0.00   0.01   0.00     0.04   0.11   0.02    -0.02   0.01   0.08
 173   6    -0.00  -0.00  -0.01     0.06   0.09   0.02    -0.03   0.01   0.05
 174   6    -0.00  -0.00  -0.02     0.05   0.07   0.01    -0.02   0.01   0.02
 175   7    -0.00   0.00  -0.01     0.02   0.08   0.01    -0.01   0.01   0.03
 176   6    -0.00  -0.01  -0.04     0.05   0.04   0.00    -0.03   0.00  -0.02
 177   6    -0.00  -0.02  -0.04     0.04   0.01  -0.01    -0.02   0.00  -0.06
 178   7    -0.00  -0.01  -0.03     0.02   0.01  -0.01    -0.01   0.00  -0.07
 179   1    -0.00  -0.01  -0.02     0.02  -0.01  -0.01    -0.01  -0.00  -0.03
 180   1    -0.00  -0.01  -0.02     0.01  -0.02  -0.01    -0.01  -0.00  -0.04
 181   1    -0.00   0.01   0.01    -0.01  -0.02  -0.01     0.01  -0.00  -0.04
 182   1    -0.00   0.01   0.02    -0.02  -0.00  -0.00     0.01  -0.00  -0.03
 183   1    -0.00   0.00  -0.00    -0.00   0.01  -0.00     0.00  -0.00  -0.01
 184   1    -0.00   0.01   0.01    -0.02   0.01   0.00     0.01   0.00  -0.00
 185   1    -0.00   0.00   0.01    -0.02   0.03   0.01     0.01   0.00   0.02
 186   1    -0.00   0.00   0.00    -0.01   0.04   0.01     0.01   0.01   0.03
 187   1    -0.00   0.00   0.00     0.01   0.04   0.01    -0.01   0.00   0.03
 188   1    -0.00  -0.00  -0.00     0.02   0.03   0.01    -0.01   0.00   0.02
 189   1    -0.00  -0.00  -0.00     0.00   0.02   0.00    -0.00   0.00   0.00
 190   1    -0.00  -0.00  -0.01     0.02   0.01   0.00    -0.01   0.00  -0.01
                     10                     11                     12
                        a                      a                      a 
 Frequencies --    14.6188                15.5828                16.0394
 Red. masses --    11.2635                11.4375                11.4479
 Frc consts  --     0.0000                 0.0000                 0.0000
 IR Inten    --     0.0482                 0.0150                 0.1569
 Raman Activ --     0.0000                 0.0000                 0.0000
 Depolar     --     0.0000                 0.0000                 0.0000
 Atom AN      X      Y      Z        X      Y      Z        X      Y      Z
   1   6    -0.01   0.01  -0.08     0.00  -0.05  -0.01     0.09  -0.05   0.04
   2   6    -0.01   0.01  -0.05    -0.01  -0.06  -0.00     0.08  -0.07   0.02
   3   6    -0.01   0.00  -0.03    -0.02  -0.05  -0.00     0.06  -0.05   0.01
   4   6    -0.01  -0.00  -0.00    -0.04  -0.06  -0.00     0.04  -0.06  -0.01
   5   6    -0.01  -0.01   0.02    -0.06  -0.05   0.01     0.02  -0.05  -0.01
   6   6    -0.02  -0.01   0.05    -0.08  -0.07   0.02     0.01  -0.06  -0.02
   7   6    -0.02  -0.02   0.08    -0.09  -0.05   0.03    -0.00  -0.04  -0.02
   8   6    -0.02  -0.01   0.07    -0.08  -0.03   0.03     0.01  -0.03  -0.02
   9   7    -0.01  -0.01   0.04    -0.07  -0.03   0.02     0.02  -0.03  -0.01
  10   6    -0.02  -0.02   0.10    -0.09  -0.01   0.03    -0.00  -0.01  -0.03
  11   6    -0.02  -0.02   0.09    -0.08   0.01   0.02     0.01   0.01  -0.03
  12   6    -0.02  -0.02   0.12    -0.09   0.02   0.03    -0.00   0.04  -0.04
  13   6    -0.02  -0.02   0.09    -0.08   0.04   0.01     0.01   0.05  -0.03
  14   6    -0.02  -0.01   0.04    -0.06   0.03   0.00     0.03   0.04  -0.02
  15   7    -0.02  -0.01   0.05    -0.07   0.01   0.01     0.03   0.01  -0.02
  16   6    -0.02  -0.00   0.00    -0.05   0.04  -0.01     0.05   0.04  -0.00
  17   6    -0.02   0.01  -0.04    -0.03   0.04  -0.02     0.07   0.03   0.01
  18   6    -0.01   0.02  -0.09    -0.01   0.05  -0.03     0.08   0.04   0.03
  19   6    -0.01   0.02  -0.12     0.01   0.03  -0.03     0.09   0.02   0.05
  20   6    -0.01   0.01  -0.09    -0.00   0.01  -0.02     0.09   0.01   0.04
  21   7    -0.02   0.01  -0.05    -0.03   0.01  -0.02     0.08   0.01   0.02
  22   6    -0.01   0.02  -0.10     0.01  -0.01  -0.02     0.09  -0.01   0.05
  23   6    -0.01   0.01  -0.07    -0.00  -0.03  -0.01     0.08  -0.03   0.03
  24   7    -0.01   0.00  -0.04    -0.02  -0.04  -0.01     0.07  -0.03   0.02
  25   1    -0.00   0.01  -0.03     0.01  -0.01  -0.00     0.03  -0.02   0.02
  26   1    -0.00   0.00  -0.01    -0.00  -0.02   0.00     0.02  -0.02   0.01
  27   1    -0.00  -0.00   0.01    -0.02  -0.02   0.01     0.00  -0.02  -0.00
  28   1    -0.01  -0.01   0.03    -0.03  -0.02   0.01    -0.00  -0.01  -0.01
  29   1    -0.00   0.00   0.01    -0.01  -0.00   0.00     0.01  -0.01  -0.00
  30   1    -0.01  -0.01   0.04    -0.03  -0.00   0.01    -0.01  -0.00  -0.01
  31   1    -0.01  -0.01   0.04    -0.03   0.01   0.01    -0.01   0.01  -0.01
  32   1    -0.01  -0.01   0.03    -0.02   0.02   0.00     0.00   0.02  -0.01
  33   1    -0.01  -0.00   0.00    -0.01   0.02  -0.01     0.01   0.02  -0.00
  34   1    -0.00   0.01  -0.03    -0.00   0.02  -0.01     0.02   0.01   0.01
  35   1    -0.00   0.01  -0.04     0.01   0.01  -0.01     0.03   0.01   0.02
  36   1    -0.01  -0.00  -0.01    -0.01  -0.00  -0.00     0.02   0.00   0.00
  37   1    -0.00   0.01  -0.04     0.01  -0.00  -0.01     0.03  -0.01   0.02
  38   6    -0.01   0.01  -0.07    -0.00   0.04   0.02    -0.09   0.05  -0.05
  39   6    -0.00   0.01  -0.05     0.01   0.06   0.00    -0.08   0.06  -0.04
  40   6     0.00   0.01  -0.02     0.02   0.05  -0.00    -0.06   0.05  -0.02
  41   6     0.00   0.01  -0.00     0.04   0.06  -0.01    -0.04   0.06  -0.00
  42   6     0.01   0.00   0.02     0.06   0.05  -0.02    -0.03   0.05   0.01
  43   6     0.01   0.00   0.04     0.08   0.06  -0.04    -0.01   0.05   0.01
  44   6     0.01  -0.00   0.07     0.09   0.05  -0.06    -0.00   0.04   0.02
  45   6     0.01  -0.00   0.06     0.08   0.03  -0.05    -0.01   0.03   0.02
  46   7     0.01   0.00   0.04     0.06   0.03  -0.03    -0.03   0.03   0.01
  47   6     0.01  -0.01   0.09     0.09   0.01  -0.06    -0.00   0.01   0.04
  48   6     0.01  -0.01   0.08     0.08  -0.01  -0.05    -0.01  -0.01   0.04
  49   6     0.01  -0.02   0.11     0.09  -0.02  -0.05    -0.00  -0.03   0.06
  50   6     0.01  -0.02   0.08     0.08  -0.04  -0.03    -0.02  -0.04   0.05
  51   6     0.00  -0.01   0.04     0.07  -0.03  -0.01    -0.03  -0.03   0.03
  52   7     0.00  -0.01   0.04     0.07  -0.01  -0.02    -0.03  -0.01   0.03
  53   6    -0.00  -0.01   0.00     0.05  -0.04   0.02    -0.05  -0.04   0.01
  54   6    -0.00  -0.00  -0.04     0.03  -0.03   0.03    -0.07  -0.03  -0.01
  55   6    -0.01   0.00  -0.08     0.01  -0.05   0.06    -0.08  -0.03  -0.03
  56   6    -0.01   0.01  -0.10    -0.00  -0.03   0.06    -0.09  -0.02  -0.05
  57   6    -0.01   0.00  -0.08     0.01  -0.01   0.04    -0.08  -0.01  -0.04
  58   7    -0.00  -0.00  -0.05     0.03  -0.01   0.03    -0.08  -0.01  -0.02
  59   6    -0.01   0.01  -0.09    -0.00   0.01   0.04    -0.09   0.01  -0.06
  60   6    -0.01   0.01  -0.07     0.01   0.03   0.02    -0.08   0.03  -0.05
  61   7    -0.00   0.01  -0.04     0.02   0.04   0.01    -0.07   0.03  -0.03
  62   1    -0.00   0.01  -0.03    -0.00   0.01   0.01    -0.03   0.01  -0.02
  63   1    -0.00   0.01  -0.01     0.00   0.02  -0.00    -0.02   0.02  -0.01
  64   1     0.00   0.00   0.01     0.02   0.02  -0.01    -0.00   0.02   0.00
  65   1     0.00  -0.00   0.02     0.03   0.02  -0.02     0.00   0.01   0.01
  66   1     0.00   0.00   0.01     0.01   0.00  -0.01    -0.01   0.01   0.00
  67   1     0.00  -0.00   0.03     0.03   0.00  -0.02     0.00   0.00   0.01
  68   1     0.00  -0.01   0.04     0.03  -0.01  -0.02     0.00  -0.01   0.02
  69   1     0.00  -0.01   0.03     0.02  -0.01  -0.01    -0.00  -0.02   0.02
  70   1    -0.00  -0.00   0.00     0.01  -0.02   0.01    -0.02  -0.02   0.01
  71   1    -0.00   0.00  -0.02     0.00  -0.02   0.02    -0.02  -0.01  -0.01
  72   1    -0.00   0.00  -0.04    -0.01  -0.01   0.02    -0.03  -0.01  -0.02
  73   1    -0.00  -0.00  -0.01     0.01   0.00   0.00    -0.02  -0.00  -0.00
  74   1    -0.00   0.00  -0.03    -0.00   0.00   0.01    -0.03   0.00  -0.02
  75   6    -0.01  -0.00  -0.00    -0.04  -0.07  -0.01     0.04  -0.07  -0.02
  76   6    -0.01   0.00   0.00    -0.04  -0.07  -0.02     0.04  -0.07  -0.03
  77   6     0.01   0.00  -0.00    -0.02   0.09   0.00     0.02   0.09   0.01
  78   6     0.01   0.00  -0.00    -0.01   0.09  -0.01     0.02   0.08  -0.00
  79   6     0.01  -0.01  -0.00     0.01  -0.08   0.02    -0.01  -0.08   0.01
  80   6     0.01  -0.01  -0.00     0.01  -0.09   0.01    -0.01  -0.09  -0.00
  81   6     0.00   0.01   0.00     0.04   0.07   0.01    -0.04   0.06   0.02
  82   6     0.00   0.01   0.00     0.04   0.07  -0.00    -0.04   0.07   0.01
  83   6    -0.00  -0.05  -0.16     0.02  -0.05  -0.08     0.08  -0.01   0.05
  84   6    -0.00  -0.04  -0.11     0.01  -0.07  -0.07     0.07  -0.03   0.02
  85   6    -0.01  -0.02  -0.05    -0.02  -0.04  -0.04     0.05  -0.03   0.00
  86   6    -0.01   0.00   0.00    -0.04  -0.05  -0.02     0.04  -0.05  -0.03
  87   6    -0.01   0.02   0.06    -0.05  -0.03   0.00     0.02  -0.05  -0.05
  88   6    -0.01   0.04   0.12    -0.07  -0.04   0.01    -0.01  -0.07  -0.09
  89   6    -0.00   0.06   0.17    -0.08  -0.02   0.04    -0.02  -0.05  -0.10
  90   6    -0.00   0.04   0.15    -0.07  -0.00   0.04    -0.01  -0.02  -0.08
  91   7    -0.01   0.02   0.09    -0.06  -0.01   0.02     0.02  -0.02  -0.05
  92   6    -0.00   0.05   0.18    -0.08   0.03   0.06    -0.02   0.00  -0.07
  93   6    -0.00   0.05   0.15    -0.07   0.05   0.06    -0.01   0.03  -0.04
  94   6    -0.01   0.07   0.18    -0.08   0.08   0.08    -0.02   0.05  -0.04
  95   6    -0.00   0.05   0.13    -0.06   0.10   0.07    -0.01   0.06  -0.01
  96   6     0.00   0.02   0.06    -0.04   0.07   0.04     0.00   0.06  -0.00
  97   7     0.00   0.02   0.08    -0.04   0.05   0.04     0.00   0.04  -0.02
  98   6     0.01   0.00  -0.00    -0.02   0.08   0.01     0.02   0.08   0.02
  99   6     0.00  -0.02  -0.06    -0.00   0.06   0.00     0.04   0.08   0.05
 100   6    -0.00  -0.04  -0.13     0.01   0.07  -0.01     0.06   0.10   0.08
 101   6    -0.00  -0.06  -0.18     0.02   0.05  -0.03     0.08   0.09   0.10
 102   6    -0.00  -0.04  -0.14     0.02   0.03  -0.03     0.07   0.05   0.08
 103   7     0.00  -0.02  -0.08     0.00   0.05  -0.01     0.04   0.05   0.05
 104   6    -0.00  -0.05  -0.17     0.02   0.01  -0.05     0.08   0.03   0.08
 105   6    -0.00  -0.04  -0.13     0.01  -0.02  -0.05     0.07   0.00   0.05
 106   7    -0.01  -0.02  -0.07    -0.02  -0.02  -0.04     0.06  -0.01   0.02
 107   1     0.00  -0.02  -0.06     0.01  -0.02  -0.03     0.03  -0.00   0.02
 108   1    -0.00  -0.01  -0.03     0.00  -0.03  -0.02     0.02  -0.01   0.00
 109   1    -0.00   0.01   0.03    -0.02  -0.01   0.00    -0.00  -0.03  -0.03
 110   1     0.00   0.02   0.06    -0.03  -0.00   0.02    -0.01  -0.02  -0.04
 111   1    -0.00   0.00   0.01    -0.01  -0.00   0.00     0.01   0.00  -0.01
 112   1    -0.00   0.02   0.07    -0.03   0.01   0.02    -0.01  -0.00  -0.03
 113   1    -0.00   0.02   0.07    -0.03   0.03   0.03    -0.01   0.01  -0.02
 114   1    -0.00   0.02   0.04    -0.02   0.04   0.02    -0.00   0.02   0.00
 115   1    -0.00  -0.02  -0.04     0.00   0.02   0.00     0.02   0.04   0.03
 116   1    -0.00  -0.02  -0.07     0.01   0.01  -0.01     0.03   0.03   0.04
 117   1     0.00   0.00  -0.01    -0.00   0.01  -0.00     0.01   0.01   0.01
 118   1    -0.00  -0.02  -0.06     0.01   0.00  -0.02     0.03   0.01   0.03
 119   6     0.00   0.00  -0.01    -0.06   0.05   0.06    -0.06   0.05  -0.11
 120   6     0.01   0.00  -0.02    -0.05   0.06   0.03    -0.04   0.07  -0.09
 121   6     0.00   0.00  -0.01    -0.03   0.06   0.01    -0.01   0.05  -0.05
 122   6     0.01   0.00  -0.00    -0.01   0.07  -0.02     0.02   0.06  -0.01
 123   6     0.01  -0.00   0.00     0.01   0.06  -0.05     0.03   0.05   0.02
 124   6     0.01   0.00   0.01     0.04   0.07  -0.10     0.05   0.06   0.04
 125   6     0.02  -0.00  -0.00     0.06   0.05  -0.12     0.06   0.05   0.07
 126   6     0.01  -0.01  -0.01     0.05   0.02  -0.09     0.05   0.03   0.06
 127   7     0.01  -0.00  -0.01     0.02   0.02  -0.06     0.04   0.04   0.03
 128   6     0.01  -0.01  -0.02     0.06  -0.01  -0.09     0.06   0.01   0.09
 129   6     0.01  -0.01  -0.03     0.05  -0.03  -0.06     0.04  -0.02   0.08
 130   6     0.01  -0.01  -0.05     0.06  -0.05  -0.06     0.06  -0.05   0.10
 131   6     0.01  -0.01  -0.04     0.05  -0.06  -0.03     0.04  -0.07   0.08
 132   6     0.01  -0.01  -0.02     0.03  -0.05  -0.01     0.01  -0.05   0.04
 133   7     0.01  -0.01  -0.02     0.04  -0.04  -0.03     0.01  -0.02   0.05
 134   6     0.01  -0.01  -0.00     0.01  -0.07   0.02    -0.02  -0.06   0.01
 135   6     0.01  -0.01   0.02    -0.01  -0.05   0.05    -0.03  -0.05  -0.02
 136   6     0.01  -0.01   0.04    -0.04  -0.07   0.09    -0.05  -0.06  -0.04
 137   6     0.00  -0.01   0.04    -0.07  -0.05   0.11    -0.06  -0.04  -0.07
 138   6     0.00  -0.01   0.02    -0.05  -0.01   0.08    -0.05  -0.03  -0.07
 139   7     0.01  -0.01   0.01    -0.02  -0.02   0.05    -0.04  -0.04  -0.03
 140   6     0.00  -0.00   0.02    -0.06   0.01   0.09    -0.06  -0.01  -0.09
 141   6     0.00  -0.00  -0.00    -0.05   0.03   0.06    -0.04   0.02  -0.08
 142   7     0.01  -0.00  -0.00    -0.04   0.04   0.03    -0.01   0.02  -0.05
 143   1     0.00   0.00  -0.00    -0.02   0.01   0.03    -0.02   0.02  -0.04
 144   1     0.00   0.00  -0.01    -0.01   0.02   0.01    -0.01   0.03  -0.03
 145   1     0.00   0.00   0.00     0.01   0.03  -0.03     0.01   0.02   0.01
 146   1     0.01  -0.00   0.00     0.03   0.02  -0.05     0.02   0.01   0.03
 147   1     0.00  -0.00  -0.00    -0.00   0.00  -0.01     0.01   0.01   0.00
 148   1     0.00  -0.00  -0.01     0.02  -0.00  -0.04     0.02   0.00   0.03
 149   1     0.00  -0.00  -0.02     0.02  -0.01  -0.02     0.02  -0.01   0.04
 150   1     0.00  -0.00  -0.02     0.01  -0.02  -0.00     0.01  -0.03   0.03
 151   1     0.00  -0.00   0.01    -0.01  -0.03   0.03    -0.01  -0.02  -0.01
 152   1     0.00  -0.00   0.02    -0.03  -0.01   0.04    -0.02  -0.01  -0.03
 153   1     0.00  -0.00  -0.00     0.00   0.00   0.01    -0.01  -0.01  -0.01
 154   1     0.00  -0.00   0.01    -0.02   0.00   0.03    -0.02  -0.00  -0.04
 155   6     0.01   0.06   0.14     0.08  -0.11  -0.11     0.02  -0.03   0.07
 156   6     0.01   0.04   0.10     0.06  -0.11  -0.08     0.01  -0.05   0.04
 157   6     0.01   0.02   0.05     0.03  -0.08  -0.04    -0.00  -0.06   0.02
 158   6     0.01  -0.01  -0.00     0.01  -0.08  -0.00    -0.01  -0.08  -0.01
 159   6     0.01  -0.03  -0.05    -0.00  -0.05   0.03    -0.04  -0.08  -0.04
 160   6     0.00  -0.06  -0.11    -0.01  -0.05   0.05    -0.06  -0.11  -0.08
 161   6     0.00  -0.07  -0.15    -0.02  -0.02   0.08    -0.08  -0.10  -0.10
 162   6     0.00  -0.05  -0.12    -0.02  -0.01   0.08    -0.07  -0.06  -0.08
 163   7     0.01  -0.03  -0.07    -0.00  -0.04   0.05    -0.04  -0.06  -0.05
 164   6     0.00  -0.05  -0.13    -0.02   0.02   0.10    -0.08  -0.04  -0.09
 165   6     0.00  -0.04  -0.10    -0.01   0.04   0.09    -0.07  -0.01  -0.07
 166   6     0.00  -0.05  -0.12    -0.03   0.07   0.12    -0.07  -0.00  -0.07
 167   6     0.00  -0.03  -0.08    -0.01   0.08   0.09    -0.07   0.02  -0.04
 168   6     0.00  -0.01  -0.04     0.02   0.05   0.05    -0.05   0.03  -0.01
 169   7     0.00  -0.02  -0.06     0.02   0.03   0.06    -0.06   0.01  -0.03
 170   6     0.00   0.01   0.01     0.04   0.05   0.01    -0.04   0.05   0.02
 171   6     0.01   0.03   0.05     0.05   0.02  -0.02    -0.02   0.05   0.05
 172   6     0.01   0.05   0.10     0.07   0.02  -0.05     0.01   0.08   0.09
 173   6     0.02   0.07   0.14     0.08  -0.01  -0.09     0.02   0.07   0.11
 174   6     0.01   0.05   0.12     0.07  -0.02  -0.08     0.01   0.03   0.09
 175   7     0.01   0.03   0.07     0.06   0.00  -0.04    -0.02   0.03   0.06
 176   6     0.01   0.06   0.14     0.08  -0.05  -0.10     0.02   0.01   0.09
 177   6     0.01   0.05   0.12     0.06  -0.07  -0.08     0.01  -0.02   0.07
 178   7     0.01   0.02   0.06     0.04  -0.06  -0.05    -0.00  -0.04   0.04
 179   1     0.00   0.02   0.05     0.03  -0.04  -0.04     0.01  -0.01   0.03
 180   1     0.00   0.01   0.03     0.02  -0.04  -0.02     0.00  -0.02   0.01
 181   1     0.00  -0.02  -0.03    -0.00  -0.02   0.01    -0.02  -0.04  -0.02
 182   1    -0.00  -0.03  -0.05    -0.01  -0.00   0.03    -0.03  -0.03  -0.04
 183   1     0.00  -0.00  -0.01     0.00  -0.01   0.01    -0.01  -0.01  -0.01
 184   1    -0.00  -0.02  -0.05    -0.01   0.01   0.04    -0.03  -0.02  -0.04
 185   1     0.00  -0.02  -0.05    -0.01   0.03   0.04    -0.02  -0.00  -0.03
 186   1     0.00  -0.01  -0.02    -0.00   0.03   0.03    -0.02   0.01  -0.01
 187   1     0.00   0.02   0.03     0.02   0.01  -0.01     0.00   0.03   0.03
 188   1     0.01   0.02   0.05     0.03  -0.01  -0.03     0.01   0.02   0.04
 189   1     0.00   0.00   0.01     0.02   0.00  -0.01    -0.01  -0.00   0.01
 190   1     0.00   0.02   0.05     0.03  -0.02  -0.04     0.01   0.01   0.03
                     13                     14                     15
                        a                      a                      a 
 Frequencies --    20.5831                21.0324                28.7315
 Red. masses --    11.7130                11.6477                11.5257
 Frc consts  --     0.0000                 0.0000                 0.0000
 IR Inten    --     0.1217                27.2824                 1.3289
 Raman Activ --     0.0000                 0.0000                 0.0000
 Depolar     --     0.0000                 0.0000                 0.0000
 Atom AN      X      Y      Z        X      Y      Z        X      Y      Z
   1   6     0.09   0.01  -0.02     0.03   0.00  -0.12     0.03   0.01  -0.13
   2   6     0.09   0.00  -0.01     0.02  -0.00  -0.12     0.02  -0.01  -0.11
   3   6     0.08   0.00  -0.00     0.01  -0.00  -0.10     0.01  -0.01  -0.09
   4   6     0.08   0.00  -0.00     0.00  -0.01  -0.10     0.00  -0.01  -0.07
   5   6     0.08  -0.00   0.00    -0.01  -0.00  -0.10    -0.01  -0.01  -0.08
   6   6     0.09   0.00   0.00    -0.02  -0.00  -0.12    -0.02  -0.01  -0.10
   7   6     0.09  -0.01   0.01    -0.03   0.00  -0.12    -0.02   0.00  -0.12
   8   6     0.09  -0.01   0.02    -0.02   0.01  -0.09    -0.02   0.01  -0.11
   9   7     0.09  -0.01   0.01    -0.01   0.00  -0.09    -0.01   0.01  -0.10
  10   6     0.09  -0.02   0.03    -0.03   0.01  -0.06    -0.02   0.02  -0.09
  11   6     0.09  -0.02   0.03    -0.02   0.01  -0.01    -0.02   0.01  -0.03
  12   6     0.09  -0.01   0.05    -0.03   0.01   0.05    -0.03   0.01   0.02
  13   6     0.10  -0.01   0.04    -0.02   0.01   0.10    -0.02   0.01   0.09
  14   6     0.10  -0.01   0.02    -0.01   0.01   0.08    -0.01   0.00   0.08
  15   7     0.11  -0.01   0.02    -0.01   0.01   0.02    -0.01   0.01   0.00
  16   6     0.10  -0.00   0.01    -0.00   0.00   0.12    -0.00  -0.00   0.12
  17   6     0.10   0.00  -0.01     0.01   0.01   0.09     0.01   0.00   0.08
  18   6     0.10   0.00  -0.03     0.02   0.01   0.11     0.01   0.00   0.10
  19   6     0.09   0.01  -0.04     0.03   0.01   0.05     0.02   0.01   0.03
  20   6     0.10   0.02  -0.03     0.02   0.01  -0.00     0.02   0.01  -0.03
  21   7     0.11   0.01  -0.02     0.01   0.01   0.02     0.01   0.01   0.01
  22   6     0.09   0.02  -0.03     0.03   0.01  -0.06     0.03   0.02  -0.09
  23   6     0.09   0.01  -0.02     0.02   0.01  -0.09     0.02   0.01  -0.11
  24   7     0.09   0.01  -0.01     0.01   0.00  -0.09     0.01   0.01  -0.10
  25   1     0.03   0.00  -0.01     0.01   0.00  -0.04     0.01   0.00  -0.04
  26   1     0.03  -0.00   0.00     0.01  -0.00  -0.04     0.01  -0.00  -0.03
  27   1     0.03   0.00  -0.00    -0.01  -0.00  -0.04    -0.00  -0.00  -0.03
  28   1     0.03  -0.00   0.00    -0.01   0.00  -0.04    -0.01   0.00  -0.04
  29   1     0.02  -0.01   0.00    -0.00   0.00  -0.02    -0.00   0.00  -0.02
  30   1     0.03  -0.01   0.01    -0.01   0.00  -0.02    -0.01   0.01  -0.03
  31   1     0.02  -0.00   0.02    -0.01   0.00   0.01    -0.01   0.00   0.00
  32   1     0.03  -0.00   0.02    -0.01   0.00   0.04    -0.01   0.00   0.04
  33   1     0.03  -0.00   0.00    -0.00   0.00   0.05    -0.00  -0.00   0.05
  34   1     0.03   0.00  -0.01     0.00   0.00   0.05     0.00   0.00   0.05
  35   1     0.03   0.00  -0.02     0.01   0.00   0.01     0.01   0.00   0.01
  36   1     0.03   0.00  -0.00     0.00   0.00  -0.00     0.00   0.00  -0.01
  37   1     0.03   0.01  -0.01     0.01   0.00  -0.02     0.01   0.01  -0.03
  38   6    -0.10  -0.00   0.02     0.03  -0.01  -0.11    -0.03   0.01   0.13
  39   6    -0.09   0.00   0.01     0.02  -0.02  -0.12    -0.02   0.02   0.11
[...]
 134   6    -0.00  -0.00   0.00     0.00   0.00  -0.00    -0.00  -0.00   0.00
 135   6     0.00  -0.00  -0.00    -0.00  -0.00   0.00    -0.00   0.00   0.00
 136   6    -0.00   0.00  -0.00    -0.00   0.00   0.00    -0.00  -0.00   0.00
 137   6    -0.00   0.00   0.00    -0.00   0.00   0.00     0.00  -0.00  -0.00
 138   6     0.00   0.00   0.00     0.00  -0.00  -0.00    -0.00  -0.00  -0.00
 139   7     0.00  -0.01  -0.00    -0.00   0.00   0.00    -0.00   0.00   0.00
 140   6     0.00   0.00  -0.00    -0.00   0.00   0.00    -0.00   0.00   0.00
 141   6    -0.00  -0.00  -0.00     0.00   0.00  -0.00     0.00  -0.00   0.00
 142   7     0.00   0.00  -0.00    -0.00  -0.00   0.00    -0.00   0.00   0.00
 143   1     0.00   0.00   0.00    -0.00  -0.00  -0.00    -0.00  -0.00  -0.00
 144   1     0.00  -0.00   0.00    -0.00  -0.00  -0.00    -0.00  -0.00  -0.00
 145   1     0.00  -0.00   0.00    -0.00   0.00   0.00     0.00  -0.00   0.00
 146   1     0.00  -0.00  -0.00    -0.00   0.00   0.00     0.00  -0.00  -0.00
 147   1    -0.01   0.01   0.00     0.00  -0.00  -0.00     0.00  -0.00  -0.00
 148   1     0.00   0.00   0.00     0.00   0.00   0.00     0.00  -0.00  -0.00
 149   1     0.00   0.00   0.00    -0.00   0.00   0.00    -0.00  -0.00  -0.00
 150   1     0.00   0.00   0.00    -0.00   0.00  -0.00     0.00   0.00   0.00
 151   1    -0.00   0.00   0.00     0.00  -0.00  -0.00     0.00  -0.00  -0.00
 152   1     0.00  -0.00  -0.00    -0.00  -0.00  -0.00    -0.00   0.00   0.00
 153   1    -0.02   0.02   0.00     0.00  -0.00  -0.00     0.00  -0.00  -0.00
 154   1     0.00  -0.00  -0.00     0.00  -0.00  -0.00    -0.00  -0.00  -0.00
 155   6    -0.00   0.00  -0.00     0.00   0.00  -0.00     0.00  -0.00   0.00
 156   6     0.00  -0.00   0.00     0.00   0.00  -0.00    -0.00  -0.00  -0.00
 157   6     0.00  -0.00   0.00    -0.00   0.00  -0.00    -0.00  -0.00   0.00
 158   6     0.00   0.00  -0.00    -0.00  -0.00   0.00    -0.00  -0.00   0.00
 159   6    -0.00   0.00  -0.00     0.00  -0.00   0.00    -0.00   0.00  -0.00
 160   6     0.00  -0.00   0.00    -0.00   0.00  -0.00    -0.00  -0.00  -0.00
 161   6     0.00  -0.00   0.00    -0.00   0.00  -0.00     0.00   0.00  -0.00
 162   6    -0.00   0.00  -0.00     0.00   0.00  -0.00     0.00   0.00  -0.00
 163   7    -0.11   0.11  -0.05     0.11  -0.12   0.05     0.00  -0.00   0.00
 164   6    -0.00   0.00  -0.00     0.00   0.00  -0.00    -0.00   0.00  -0.00
 165   6     0.00  -0.00   0.00    -0.00   0.00  -0.00     0.00  -0.00   0.00
 166   6    -0.00   0.00  -0.00    -0.00  -0.00   0.00    -0.00   0.00  -0.00
 167   6     0.00  -0.00   0.00    -0.00  -0.00   0.00    -0.00  -0.00   0.00
 168   6     0.00  -0.00   0.00     0.00  -0.00   0.00     0.00  -0.00   0.00
 169   7    -0.00  -0.00   0.00    -0.00  -0.00   0.00     0.00   0.00  -0.00
 170   6     0.00   0.00  -0.00     0.00   0.00  -0.00    -0.00  -0.00   0.00
 171   6    -0.00   0.00  -0.00    -0.00   0.00  -0.00     0.00   0.00  -0.00
 172   6     0.00  -0.00   0.00     0.00  -0.00   0.00    -0.00  -0.00   0.00
 173   6     0.00  -0.00   0.00     0.00  -0.00   0.00     0.00   0.00  -0.00
 174   6    -0.00   0.00  -0.00    -0.00  -0.00   0.00    -0.00   0.00  -0.00
 175   7    -0.09   0.10  -0.05    -0.13   0.14  -0.06     0.00  -0.00   0.00
 176   6    -0.00   0.00  -0.00    -0.00   0.00  -0.00     0.00   0.00  -0.00
 177   6     0.00  -0.00  -0.00     0.00  -0.00   0.00    -0.00  -0.00   0.00
 178   7    -0.00  -0.00   0.00     0.00   0.00  -0.00     0.00   0.00  -0.00
 179   1    -0.00  -0.00   0.00     0.00   0.00  -0.00    -0.00   0.00  -0.00
 180   1    -0.00  -0.00   0.00     0.00   0.00  -0.00     0.00   0.00  -0.00
 181   1     0.00  -0.00   0.00     0.00  -0.00   0.00     0.00  -0.00   0.00
 182   1     0.00  -0.00   0.00    -0.00  -0.00   0.00     0.00  -0.00   0.00
 183   1     0.41  -0.42   0.19    -0.42   0.43  -0.20    -0.00   0.00  -0.00
 184   1    -0.00  -0.01   0.00    -0.00   0.00  -0.00     0.00  -0.00   0.00
 185   1    -0.00  -0.00   0.00    -0.00  -0.00   0.00     0.00   0.00  -0.00
 186   1    -0.00  -0.00   0.00    -0.00  -0.00   0.00     0.00  -0.00  -0.00
 187   1     0.00  -0.00   0.00    -0.00   0.00  -0.00    -0.00   0.00  -0.00
 188   1     0.00  -0.00   0.00     0.00  -0.00   0.00     0.00  -0.00   0.00
 189   1     0.35  -0.36   0.17     0.48  -0.49   0.23    -0.00   0.00  -0.00
 190   1    -0.00  -0.01   0.00    -0.00  -0.00   0.00    -0.00  -0.00   0.00
                    562                    563                    564
                        a                      a                      a 
 Frequencies --  3348.0250              3355.3859              3355.9289
 Red. masses --     1.8914                 1.8884                 1.8882
 Frc consts  --     0.0000                 0.0000                 0.0000
 IR Inten    --  2001.0507               995.2164               934.0107
 Raman Activ --     0.0000                 0.0000                 0.0000
 Depolar     --     0.0000                 0.0000                 0.0000
 Atom AN      X      Y      Z        X      Y      Z        X      Y      Z
   1   6    -0.00   0.00   0.00    -0.00  -0.00  -0.00     0.00   0.00   0.00
   2   6     0.00  -0.00  -0.00    -0.00  -0.00  -0.00     0.00   0.00   0.00
   3   6     0.00  -0.00  -0.00     0.00  -0.00  -0.00    -0.00   0.00   0.00
   4   6     0.00   0.00   0.00    -0.00  -0.00  -0.00    -0.00   0.00   0.00
   5   6    -0.00   0.00   0.00     0.00   0.00   0.00    -0.00  -0.00  -0.00
   6   6     0.00  -0.00  -0.00     0.00  -0.00  -0.00    -0.00   0.00   0.00
   7   6     0.00  -0.00  -0.00     0.00  -0.00  -0.00    -0.00   0.00   0.00
   8   6    -0.00   0.00   0.00    -0.00  -0.00  -0.00     0.00   0.00   0.00
   9   7    -0.17   0.18   0.04    -0.00   0.00   0.00     0.04  -0.04  -0.01
  10   6    -0.00   0.00   0.00     0.00  -0.00  -0.00    -0.00   0.00   0.00
  11   6     0.00  -0.00  -0.00     0.00  -0.00  -0.00    -0.00   0.00   0.00
  12   6     0.00   0.00   0.00     0.00  -0.00   0.00    -0.00   0.00   0.00
  13   6     0.00   0.00   0.00    -0.00   0.00   0.00     0.00  -0.00  -0.00
  14   6     0.00  -0.00  -0.00    -0.00   0.00   0.00     0.00  -0.00  -0.00
  15   7     0.00   0.00   0.00     0.00   0.00   0.00    -0.00  -0.00  -0.00
  16   6    -0.00   0.00   0.00     0.00  -0.00  -0.00    -0.00   0.00   0.00
  17   6    -0.00  -0.00  -0.00     0.00  -0.00  -0.00    -0.00   0.00   0.00
  18   6    -0.00  -0.00  -0.00    -0.00   0.00   0.00     0.00  -0.00  -0.00
  19   6     0.00   0.00   0.00    -0.00   0.00   0.00     0.00  -0.00  -0.00
  20   6    -0.00   0.00   0.00     0.00  -0.00  -0.00    -0.00   0.00   0.00
  21   7    -0.04   0.04   0.01     0.00  -0.00  -0.00    -0.17   0.18   0.03
  22   6    -0.00   0.00   0.00     0.00  -0.00  -0.00    -0.00   0.00   0.00
  23   6     0.00   0.00   0.00    -0.00   0.00   0.00     0.00  -0.00  -0.00
  24   7    -0.00  -0.00  -0.00    -0.00  -0.00  -0.00     0.00   0.00   0.00
  25   1    -0.00  -0.00  -0.00    -0.00  -0.00  -0.00    -0.00  -0.00  -0.00
  26   1    -0.00  -0.00  -0.00     0.00  -0.00   0.00    -0.00   0.00  -0.00
  27   1     0.00  -0.00  -0.00    -0.00   0.00  -0.00     0.00  -0.00  -0.00
  28   1     0.00  -0.00  -0.00    -0.00   0.00  -0.00     0.00  -0.00  -0.00
  29   1     0.65  -0.68  -0.13     0.00  -0.00  -0.00    -0.13   0.14   0.03
  30   1    -0.00  -0.01  -0.00     0.00   0.00   0.00    -0.00  -0.00  -0.00
  31   1    -0.00  -0.00  -0.00     0.00   0.00   0.00    -0.00  -0.00  -0.00
  32   1    -0.00   0.00  -0.00     0.00  -0.00   0.00    -0.00  -0.00  -0.00
  33   1     0.00   0.00   0.00    -0.00  -0.00  -0.00     0.00   0.00   0.00
  34   1     0.00  -0.00  -0.00    -0.00  -0.00   0.00     0.00  -0.00  -0.00
  35   1     0.00  -0.00  -0.00    -0.00  -0.00   0.00     0.00  -0.00  -0.00
  36   1     0.13  -0.14  -0.03    -0.01   0.01   0.00     0.64  -0.68  -0.12
  37   1    -0.00  -0.01  -0.00     0.00   0.00   0.00    -0.00  -0.00  -0.00
  38   6     0.00  -0.00  -0.00    -0.00  -0.00  -0.00    -0.00  -0.00  -0.00
  39   6    -0.00   0.00   0.00    -0.00  -0.00  -0.00    -0.00  -0.00  -0.00
  40   6    -0.00   0.00   0.00     0.00  -0.00  -0.00     0.00   0.00  -0.00
  41   6    -0.00  -0.00  -0.00     0.00  -0.00  -0.00     0.00  -0.00  -0.00
  42   6     0.00  -0.00  -0.00     0.00   0.00   0.00     0.00   0.00   0.00
  43   6    -0.00   0.00   0.00     0.00  -0.00  -0.00     0.00  -0.00  -0.00
  44   6    -0.00   0.00   0.00     0.00  -0.00  -0.00     0.00  -0.00  -0.00
  45   6     0.00  -0.00  -0.00    -0.00  -0.00  -0.00    -0.00  -0.00  -0.00
  46   7     0.01  -0.01  -0.00    -0.04   0.04   0.01    -0.00   0.00   0.00
  47   6     0.00  -0.00  -0.00     0.00  -0.00  -0.00     0.00  -0.00  -0.00
  48   6    -0.00   0.00   0.00     0.00  -0.00  -0.00     0.00  -0.00  -0.00
  49   6    -0.00  -0.00  -0.00     0.00  -0.00  -0.00     0.00  -0.00  -0.00
  50   6    -0.00  -0.00  -0.00    -0.00   0.00   0.00     0.00   0.00   0.00
  51   6    -0.00   0.00   0.00    -0.00   0.00   0.00    -0.00   0.00   0.00
  52   7    -0.00  -0.00  -0.00     0.00   0.00   0.00     0.00   0.00   0.00
  53   6     0.00  -0.00  -0.00     0.00  -0.00  -0.00     0.00  -0.00  -0.00
  54   6     0.00   0.00  -0.00     0.00  -0.00  -0.00     0.00  -0.00  -0.00
  55   6     0.00   0.00   0.00    -0.00   0.00   0.00    -0.00   0.00   0.00
  56   6    -0.00  -0.00  -0.00    -0.00   0.00   0.00    -0.00   0.00   0.00
  57   6     0.00  -0.00  -0.00     0.00  -0.00  -0.00     0.00  -0.00  -0.00
  58   7     0.00  -0.00  -0.00     0.17  -0.19  -0.02     0.00  -0.00  -0.00
  59   6     0.00  -0.00  -0.00     0.00  -0.00  -0.00     0.00  -0.00  -0.00
  60   6    -0.00  -0.00  -0.00    -0.00   0.00   0.00    -0.00   0.00   0.00
  61   7     0.00   0.00   0.00    -0.00  -0.00  -0.00    -0.00  -0.00  -0.00
  62   1     0.00   0.00   0.00     0.00   0.00   0.00     0.00   0.00   0.00
  63   1     0.00   0.00   0.00     0.00  -0.00  -0.00     0.00   0.00  -0.00
  64   1    -0.00   0.00   0.00    -0.00   0.00   0.00    -0.00   0.00   0.00
  65   1    -0.00   0.00   0.00    -0.00   0.00   0.00    -0.00   0.00   0.00
  66   1    -0.03   0.03   0.00     0.13  -0.14  -0.02     0.00  -0.00  -0.00
  67   1     0.00   0.00   0.00     0.00   0.00   0.00     0.00   0.00   0.00
  68   1     0.00   0.00   0.00     0.00   0.00   0.00     0.00   0.00   0.00
  69   1     0.00   0.00  -0.00     0.00   0.00  -0.00     0.00   0.00   0.00
  70   1    -0.00  -0.00  -0.00    -0.00  -0.00   0.00    -0.00   0.00  -0.00
  71   1    -0.00   0.00   0.00    -0.00   0.00   0.00    -0.00   0.00  -0.00
  72   1    -0.00   0.00   0.00    -0.00   0.00   0.00    -0.00   0.00   0.00
  73   1    -0.00   0.00   0.00    -0.64   0.69   0.09    -0.01   0.01   0.00
  74   1     0.00   0.00   0.00     0.00   0.00   0.00     0.00   0.00   0.00
  75   6    -0.00   0.00   0.00    -0.00  -0.00  -0.00     0.00   0.00   0.00
  76   6     0.00  -0.00  -0.00     0.00  -0.00  -0.00    -0.00   0.00   0.00
  77   6    -0.00  -0.00   0.00    -0.00   0.00  -0.00    -0.00  -0.00  -0.00
  78   6     0.00  -0.00   0.00     0.00   0.00  -0.00    -0.00  -0.00   0.00
  79   6    -0.00  -0.00   0.00     0.00   0.00   0.00    -0.00  -0.00   0.00
  80   6     0.00  -0.00   0.00    -0.00   0.00   0.00     0.00  -0.00   0.00
  81   6    -0.00   0.00   0.00     0.00  -0.00  -0.00     0.00   0.00  -0.00
  82   6     0.00  -0.00  -0.00    -0.00  -0.00   0.00    -0.00   0.00   0.00
  83   6     0.00   0.00  -0.00     0.00  -0.00   0.00    -0.00  -0.00   0.00
  84   6    -0.00  -0.00   0.00    -0.00   0.00  -0.00    -0.00  -0.00   0.00
  85   6     0.00  -0.00   0.00    -0.00  -0.00   0.00     0.00  -0.00   0.00
  86   6    -0.00  -0.00   0.00    -0.00  -0.00   0.00     0.00  -0.00   0.00
  87   6     0.00   0.00  -0.00     0.00   0.00  -0.00    -0.00  -0.00  -0.00
  88   6    -0.00  -0.00   0.00    -0.00   0.00  -0.00    -0.00   0.00  -0.00
  89   6     0.00   0.00  -0.00     0.00   0.00  -0.00     0.00   0.00  -0.00
  90   6    -0.00   0.00  -0.00    -0.00  -0.00   0.00     0.00   0.00  -0.00
  91   7     0.00  -0.00   0.00     0.00  -0.00   0.00     0.00  -0.00   0.00
  92   6     0.00   0.00  -0.00     0.00  -0.00   0.00    -0.00   0.00  -0.00
  93   6    -0.00  -0.00   0.00    -0.00  -0.00   0.00     0.00  -0.00   0.00
  94   6     0.00  -0.00   0.00     0.00  -0.00   0.00     0.00   0.00  -0.00
  95   6    -0.00  -0.00  -0.00    -0.00   0.00  -0.00     0.00  -0.00  -0.00
  96   6    -0.00  -0.00   0.00    -0.00  -0.00   0.00     0.00  -0.00   0.00
  97   7     0.00   0.00  -0.00     0.00  -0.00   0.00    -0.00   0.00  -0.00
  98   6    -0.00  -0.00   0.00    -0.00   0.00  -0.00    -0.00   0.00   0.00
  99   6    -0.00   0.00  -0.00    -0.00   0.00  -0.00    -0.00  -0.00  -0.00
 100   6    -0.00  -0.00  -0.00    -0.00  -0.00  -0.00    -0.00  -0.00   0.00
 101   6     0.00   0.00  -0.00     0.00  -0.00   0.00     0.00   0.00  -0.00
 102   6     0.00   0.00  -0.00    -0.00  -0.00  -0.00     0.00   0.00  -0.00
 103   7     0.00  -0.00   0.00     0.00  -0.00   0.00     0.00  -0.00   0.00
 104   6    -0.00   0.00  -0.00     0.00  -0.00   0.00    -0.00   0.00  -0.00
 105   6     0.00  -0.00   0.00    -0.00  -0.00  -0.00     0.00  -0.00   0.00
 106   7     0.00   0.00  -0.00     0.00  -0.00  -0.00     0.00   0.00  -0.00
 107   1     0.00   0.00  -0.00     0.00   0.00  -0.00     0.00   0.00  -0.00
 108   1     0.00  -0.00  -0.00     0.00   0.00  -0.00     0.00   0.00  -0.00
 109   1    -0.00   0.00  -0.00     0.00  -0.00   0.00     0.00  -0.00   0.00
 110   1     0.00  -0.00   0.00    -0.00  -0.00   0.00     0.00  -0.00   0.00
 111   1    -0.00   0.00  -0.00    -0.00   0.00  -0.00    -0.00   0.00  -0.00
 112   1    -0.00  -0.00   0.00    -0.00  -0.00   0.00    -0.00  -0.00   0.00
 113   1    -0.00   0.00  -0.00    -0.00   0.00   0.00    -0.00  -0.00   0.00
 114   1     0.00   0.00  -0.00    -0.00   0.00   0.00    -0.00  -0.00   0.00
 115   1     0.00  -0.00   0.00    -0.00   0.00  -0.00     0.00  -0.00   0.00
 116   1     0.00  -0.00   0.00     0.00   0.00  -0.00     0.00   0.00  -0.00
 117   1    -0.00   0.00  -0.00    -0.00   0.00  -0.00    -0.00   0.00  -0.00
 118   1    -0.00  -0.00   0.00     0.00   0.00  -0.00     0.00  -0.00   0.00
 119   6    -0.00   0.00   0.00     0.00  -0.00  -0.00    -0.00   0.00  -0.00
 120   6    -0.00  -0.00  -0.00    -0.00   0.00  -0.00    -0.00  -0.00  -0.00
 121   6     0.00  -0.00   0.00    -0.00   0.00  -0.00     0.00   0.00   0.00
 122   6    -0.00  -0.00   0.00    -0.00  -0.00  -0.00     0.00  -0.00   0.00
 123   6    -0.00   0.00   0.00     0.00  -0.00   0.00    -0.00  -0.00   0.00
 124   6    -0.00  -0.00   0.00    -0.00   0.00   0.00    -0.00  -0.00   0.00
 125   6     0.00  -0.00  -0.00    -0.00   0.00   0.00     0.00   0.00   0.00
 126   6    -0.00  -0.00  -0.00    -0.00  -0.00   0.00     0.00   0.00  -0.00
 127   7    -0.00   0.00   0.00     0.00  -0.00  -0.00    -0.00   0.00   0.00
 128   6    -0.00   0.00   0.00     0.00  -0.00  -0.00    -0.00   0.00   0.00
 129   6     0.00  -0.00   0.00    -0.00   0.00   0.00     0.00  -0.00   0.00
 130   6    -0.00   0.00   0.00     0.00   0.00   0.00    -0.00   0.00   0.00
 131   6     0.00  -0.00   0.00     0.00   0.00   0.00     0.00  -0.00   0.00
 132   6     0.00  -0.00  -0.00    -0.00   0.00  -0.00     0.00  -0.00   0.00
 133   7    -0.00   0.00   0.00     0.00  -0.00  -0.00    -0.00   0.00  -0.00
 134   6     0.00   0.00   0.00    -0.00   0.00  -0.00     0.00   0.00   0.00
 135   6    -0.00   0.00   0.00     0.00   0.00  -0.00    -0.00  -0.00  -0.00
 136   6    -0.00  -0.00   0.00     0.00   0.00  -0.00     0.00  -0.00  -0.00
 137   6     0.00   0.00   0.00    -0.00  -0.00  -0.00     0.00  -0.00  -0.00
 138   6     0.00   0.00  -0.00    -0.00  -0.00   0.00     0.00   0.00  -0.00
 139   7    -0.00   0.00   0.00     0.00  -0.00  -0.00    -0.00   0.00   0.00
 140   6    -0.00   0.00   0.00     0.00  -0.00  -0.00    -0.00   0.00   0.00
 141   6     0.00   0.00   0.00    -0.00   0.00   0.00     0.00  -0.00  -0.00
 142   7    -0.00  -0.00   0.00     0.00  -0.00   0.00    -0.00   0.00   0.00
 143   1    -0.00  -0.00  -0.00     0.00   0.00   0.00     0.00  -0.00  -0.00
 144   1     0.00   0.00   0.00     0.00   0.00   0.00     0.00  -0.00   0.00
 145   1     0.00  -0.00  -0.00     0.00   0.00  -0.00     0.00  -0.00   0.00
 146   1    -0.00   0.00   0.00    -0.00  -0.00   0.00     0.00  -0.00   0.00
 147   1     0.00  -0.00  -0.00    -0.00   0.00   0.00     0.00  -0.00  -0.00
 148   1    -0.00  -0.00  -0.00    -0.00   0.00   0.00    -0.00  -0.00  -0.00
 149   1    -0.00  -0.00  -0.00    -0.00   0.00   0.00    -0.00  -0.00   0.00
 150   1    -0.00  -0.00  -0.00    -0.00   0.00  -0.00    -0.00  -0.00  -0.00
 151   1     0.00  -0.00   0.00    -0.00   0.00  -0.00    -0.00   0.00  -0.00
 152   1     0.00  -0.00   0.00    -0.00   0.00  -0.00     0.00   0.00  -0.00
 153   1     0.00  -0.00  -0.00    -0.00   0.00   0.00     0.00  -0.00  -0.00
 154   1     0.00  -0.00  -0.00     0.00   0.00   0.00     0.00  -0.00  -0.00
 155   6    -0.00   0.00  -0.00     0.00  -0.00   0.00    -0.00  -0.00   0.00
 156   6     0.00  -0.00   0.00    -0.00   0.00   0.00     0.00  -0.00   0.00
 157   6     0.00   0.00  -0.00    -0.00   0.00  -0.00     0.00   0.00  -0.00
 158   6     0.00  -0.00  -0.00     0.00   0.00  -0.00     0.00  -0.00   0.00
 159   6    -0.00  -0.00   0.00     0.00   0.00   0.00     0.00  -0.00   0.00
 160   6     0.00  -0.00   0.00     0.00   0.00  -0.00     0.00   0.00   0.00
 161   6    -0.00  -0.00   0.00    -0.00   0.00  -0.00    -0.00   0.00  -0.00
 162   6    -0.00  -0.00   0.00    -0.00  -0.00   0.00     0.00   0.00   0.00
 163   7    -0.00   0.00  -0.00    -0.00   0.00  -0.00    -0.00   0.00  -0.00
 164   6     0.00   0.00  -0.00     0.00  -0.00   0.00    -0.00   0.00  -0.00
 165   6    -0.00   0.00  -0.00    -0.00   0.00  -0.00     0.00   0.00  -0.00
 166   6    -0.00   0.00  -0.00     0.00  -0.00   0.00    -0.00   0.00  -0.00
 167   6     0.00  -0.00   0.00     0.00   0.00  -0.00     0.00   0.00   0.00
 168   6     0.00   0.00  -0.00    -0.00   0.00  -0.00     0.00   0.00  -0.00
 169   7    -0.00  -0.00   0.00    -0.00  -0.00   0.00    -0.00   0.00   0.00
 170   6     0.00   0.00  -0.00    -0.00   0.00  -0.00     0.00   0.00  -0.00
 171   6    -0.00  -0.00   0.00     0.00   0.00  -0.00    -0.00  -0.00   0.00
 172   6     0.00  -0.00   0.00     0.00  -0.00   0.00     0.00  -0.00   0.00
 173   6    -0.00  -0.00   0.00    -0.00  -0.00   0.00    -0.00  -0.00   0.00
 174   6    -0.00  -0.00   0.00    -0.00  -0.00   0.00     0.00   0.00  -0.00
 175   7    -0.00   0.00  -0.00    -0.00   0.00  -0.00    -0.00   0.00  -0.00
 176   6     0.00   0.00   0.00     0.00  -0.00   0.00    -0.00  -0.00   0.00
 177   6     0.00   0.00  -0.00    -0.00   0.00  -0.00     0.00   0.00  -0.00
 178   7    -0.00  -0.00   0.00     0.00  -0.00   0.00    -0.00   0.00  -0.00
 179   1     0.00  -0.00   0.00     0.00   0.00  -0.00     0.00   0.00  -0.00
 180   1     0.00  -0.00   0.00     0.00   0.00  -0.00     0.00  -0.00  -0.00
 181   1    -0.00  -0.00   0.00    -0.00   0.00  -0.00    -0.00  -0.00   0.00
 182   1    -0.00  -0.00  -0.00    -0.00  -0.00   0.00    -0.00  -0.00   0.00
 183   1     0.00  -0.00   0.00     0.00  -0.00   0.00     0.00  -0.00   0.00
 184   1    -0.00  -0.00   0.00    -0.00   0.00  -0.00    -0.00  -0.00   0.00
 185   1    -0.00  -0.00   0.00    -0.00  -0.00   0.00    -0.00  -0.00   0.00
 186   1    -0.00  -0.00   0.00    -0.00  -0.00   0.00    -0.00  -0.00   0.00
 187   1    -0.00   0.00   0.00    -0.00   0.00  -0.00    -0.00   0.00  -0.00
 188   1     0.00   0.00  -0.00    -0.00   0.00  -0.00    -0.00   0.00  -0.00
 189   1     0.00  -0.00   0.00     0.00  -0.00   0.00     0.00  -0.00   0.00
 190   1     0.00   0.00   0.00     0.00   0.00  -0.00     0.00   0.00  -0.00
