      -----------------------------------------------------------      
     |                   =====================                   |     
     |                           x T B                           |     
     |                   =====================                   |     
     |                         S. Grimme                         |     
     |          Mulliken Center for Theoretical Chemistry        |     
     |                    University of Bonn                     |     
      -----------------------------------------------------------      

   * xtb version 6.4.1 (bd6e46d) compiled by 'conda@4901f00b25ba' on 2021-06-10

   xtb is free software: you can redistribute it and/or modify it under
   the terms of the GNU Lesser General Public License as published by
   the Free Software Foundation, either version 3 of the License, or
   (at your option) any later version.
   
   xtb is distributed in the hope that it will be useful,
   but WITHOUT ANY WARRANTY; without even the implied warranty of
   MERCHANTABILITY or FITNESS FOR A PARTICULAR PURPOSE.  See the
   GNU Lesser General Public License for more details.
   
   Cite this work as:
   * C. Bannwarth, E. Caldeweyher, S. Ehlert, A. Hansen, P. Pracht,
     J. Seibert, S. Spicher, S. Grimme, WIREs Comput. Mol. Sci., 2020, 11,
     e01493. DOI: 10.1002/wcms.1493
   
   for GFN2-xTB:
   * C. Bannwarth, S. Ehlert and S. Grimme., J. Chem. Theory Comput., 2019,
     15, 1652-1671. DOI: 10.1021/acs.jctc.8b01176
   for GFN1-xTB:
   * S. Grimme, C. Bannwarth, P. Shushkov, J. Chem. Theory Comput., 2017,
     13, 1989-2009. DOI: 10.1021/acs.jctc.7b00118
   for GFN0-xTB:
   * P. Pracht, E. Caldeweyher, S. Ehlert, S. Grimme, ChemRxiv, 2019, preprint.
     DOI: 10.26434/chemrxiv.8326202.v1
   for GFN-FF:
   * S. Spicher and S. Grimme, Angew. Chem. Int. Ed., 2020, 59, 15665-15673.
     DOI: 10.1002/anie.202004239
   
   for DFT-D4:
   * E. Caldeweyher, C. Bannwarth and S. Grimme, J. Chem. Phys., 2017,
     147, 034112. DOI: 10.1063/1.4993215
   * E. Caldeweyher, S. Ehlert, A. Hansen, H. Neugebauer, S. Spicher,
     C. Bannwarth and S. Grimme, J. Chem. Phys., 2019, 150, 154122.
     DOI: 10.1063/1.5090222
   * E. Caldeweyher, J.-M. Mewes, S. Ehlert and S. Grimme, Phys. Chem. Chem. Phys.
     2020, 22, 8499-8512. DOI: 10.1039/D0CP00502A
   
   for sTDA-xTB:
   * S. Grimme and C. Bannwarth, J. Chem. Phys., 2016, 145, 054103.
     DOI: 10.1063/1.4959605
   
   in the mass-spec context:
   * V. Asgeirsson, C. Bauer and S. Grimme, Chem. Sci., 2017, 8, 4879.
     DOI: 10.1039/c7sc00601b
   * J. Koopman and S. Grimme, ACS Omega 2019, 4, 12, 15120-15133.
     DOI: 10.1021/acsomega.9b02011
   
   for metadynamics refer to:
   * S. Grimme, J. Chem. Theory Comput., 2019, 155, 2847-2862
     DOI: 10.1021/acs.jctc.9b00143
   
   for SPH calculations refer to:
   * S. Spicher and S. Grimme, J. Chem. Theory Comput., 2021, 17, 1701-1714
     DOI: 10.1021/acs.jctc.0c01306
   
   with help from (in alphabetical order)
   P. Atkinson, C. Bannwarth, F. Bohle, G. Brandenburg, E. Caldeweyher
   M. Checinski, S. Dohm, S. Ehlert, S. Ehrlich, I. Gerasimov, J. Koopman
   C. Lavigne, S. Lehtola, F. März, M. Müller, F. Musil, H. Neugebauer
   J. Pisarek, C. Plett, P. Pracht, J. Seibert, P. Shushkov, S. Spicher
   M. Stahn, M. Steiner, T. Strunk, J. Stückrath, T. Rose, and J. Unsleber
   
 * started run on 2021/11/19 at 15:55:12.638     

           -------------------------------------------------
          |                Calculation Setup                |
           -------------------------------------------------

          program call               : /home/jeff/miniconda3/bin/xtb input_structure_1.xyz --gfn 2 --ohess normal --parallel 1 --etemp 300 --chrg 0 --uhf 0 -I det_control.in
          hostname                   : jelfscompute1
          coordinate file            : input_structure_1.xyz
          omp threads                :                     1
          number of atoms            :                   190
          number of electrons        :                   594
          charge                     :                     0
          spin                       :                   0.0
          first test random number   :      0.74189161382462

   ID    Z sym.   atoms
    1    6 C      1-8, 10-14, 16-20, 22, 23, 38-45, 47-51, 53-57, 59, 60,
                  75-90, 92-96, 98-102, 104, 105, 119-126, 128-132, 134-138,
                  140, 141, 155-162, 164-168, 170-174, 176, 177
    2    7 N      9, 15, 21, 24, 46, 52, 58, 61, 91, 97, 103, 106, 127, 133,
                  139, 142, 163, 169, 175, 178
    3    1 H      25-37, 62-74, 107-118, 143-154, 179-190

molecular fragmentation (1/2 indicates fragments):
111111111111111111111111111111111111122222222222222222222222222222222222
222222222222222222222222222222222222222222222222222222222222222222222222
2222222222222222222222222222222222222222222222
# atoms in fragment 1/2:    37   153
 fragment masses (1/2) :      309.34     1330.44
CMA distance (Bohr)    :  50.246
constraining FC (au)   :  0.0500

           -------------------------------------------------
          |                 G F N 2 - x T B                 |
           -------------------------------------------------

        Reference                      10.1021/acs.jctc.8b01176
      * Hamiltonian:
        H0-scaling (s, p, d)           1.850000    2.230000    2.230000
        zeta-weighting                 0.500000
      * Dispersion:
        s8                             2.700000
        a1                             0.520000
        a2                             5.000000
        s9                             5.000000
      * Repulsion:
        kExp                           1.500000    1.000000
        rExp                           1.000000
      * Coulomb:
        alpha                          2.000000
        third order                    shell-resolved
        anisotropic                    true
        a3                             3.000000
        a5                             4.000000
        cn-shift                       1.200000
        cn-exp                         4.000000
        max-rad                        5.000000


          ...................................................
          :                      SETUP                      :
          :.................................................:
          :  # basis functions                 574          :
          :  # atomic orbitals                 574          :
          :  # shells                          318          :
          :  # electrons                       594          :
          :  max. iterations                   250          :
          :  Hamiltonian                  GFN2-xTB          :
          :  restarted?                      false          :
          :  GBSA solvation                  false          :
          :  PC potential                    false          :
          :  electronic temp.          300.0000000     K    :
          :  accuracy                    1.0000000          :
          :  -> integral cutoff          0.2500000E+02      :
          :  -> integral neglect         0.1000000E-07      :
          :  -> SCF convergence          0.1000000E-05 Eh   :
          :  -> wf. convergence          0.1000000E-03 e    :
          :  Broyden damping             0.4000000          :
          ...................................................

 iter      E             dE          RMSdq      gap      omega  full diag
   1   -325.5606395 -0.325561E+03  0.471E+00    0.08       0.0  T
   2   -325.8522173 -0.291578E+00  0.310E+00    0.32       1.0  T
   3   -312.9540380  0.128982E+02  0.362E+00    0.08       1.0  T
   4   -256.3005472  0.566535E+02  0.689E+00    0.14       1.0  T
   5   -314.0801138 -0.577796E+02  0.357E+00    0.07       1.0  T
   6   -325.4415536 -0.113614E+02  0.187E+00    0.05       1.0  T
   7   -325.9186917 -0.477138E+00  0.105E+00    0.41       1.0  T
   8   -326.0174631 -0.987714E-01  0.819E-01    0.14       1.0  T
   9   -326.1501769 -0.132714E+00  0.578E-01    0.12       1.0  T
  10   -326.1414416  0.873531E-02  0.514E-01    0.12       1.0  T
  11   -326.1131425  0.282991E-01  0.568E-01    0.18       1.0  T
  12   -326.1194621 -0.631959E-02  0.549E-01    0.17       1.0  T
  13   -326.1108867  0.857545E-02  0.511E-01    0.19       1.0  T
  14   -326.1693541 -0.584675E-01  0.253E-01    0.13       1.0  T
  15   -326.1849395 -0.155853E-01  0.218E-01    0.10       1.0  T
  16   -326.1912431 -0.630365E-02  0.142E-01    0.11       1.0  T
  17   -326.1895925  0.165059E-02  0.167E-01    0.11       1.0  T
  18   -326.1910080 -0.141550E-02  0.147E-01    0.11       1.0  T
  19   -326.1918279 -0.819842E-03  0.131E-01    0.11       1.0  T
  20   -326.1916306  0.197265E-03  0.127E-01    0.11       1.0  T
  21   -326.1953082 -0.367759E-02  0.421E-02    0.11       1.0  T
  22   -326.1955851 -0.276944E-03  0.239E-02    0.11       1.0  T
  23   -326.1957059 -0.120725E-03  0.199E-02    0.11       1.0  T
  24   -326.1957279 -0.220525E-04  0.175E-02    0.11       1.0  T
  25   -326.1957907 -0.627869E-04  0.380E-03    0.11       1.9  T
  26   -326.1957927 -0.202279E-05  0.469E-03    0.11       1.5  T
  27   -326.1957937 -0.956422E-06  0.312E-03    0.11       2.3  T
  28   -326.1957960 -0.231861E-05  0.148E-03    0.11       4.9  T
  29   -326.1957965 -0.522333E-06  0.837E-04    0.11       8.7  T
  30   -326.1957967 -0.175358E-06  0.636E-04    0.11      11.4  T

   *** convergence criteria satisfied after 30 iterations ***

         #    Occupation            Energy/Eh            Energy/eV
      -------------------------------------------------------------
         1        2.0000           -0.6917053             -18.8223
       ...           ...                  ...                  ...
       291        2.0000           -0.3553794              -9.6704
       292        2.0000           -0.3543375              -9.6420
       293        2.0000           -0.3537233              -9.6253
       294        2.0000           -0.3466232              -9.4321
       295        2.0000           -0.3460267              -9.4159
       296        2.0000           -0.3439590              -9.3596
       297        1.7910           -0.3213517              -8.7444 (HOMO)
       298        0.2089           -0.3172696              -8.6333 (LUMO)
       299        0.0001           -0.3099019              -8.4329
       300        0.0001           -0.3094863              -8.4216
       301                         -0.2987941              -8.1306
       302                         -0.2951308              -8.0309
       ...                                ...                  ...
       574                          2.5968754              70.6646
      -------------------------------------------------------------
                  HL-Gap            0.0040821 Eh            0.1111 eV
             Fermi-level           -0.3193111 Eh           -8.6889 eV

 SCC (total)                   0 d,  0 h,  0 min,  2.797 sec
 SCC setup                      ...        0 min,  0.006 sec (  0.215%)
 Dispersion                     ...        0 min,  0.014 sec (  0.487%)
 classical contributions        ...        0 min,  0.002 sec (  0.061%)
 integral evaluation            ...        0 min,  0.101 sec (  3.602%)
 iterations                     ...        0 min,  2.344 sec ( 83.788%)
 molecular gradient             ...        0 min,  0.322 sec ( 11.503%)
 printout                       ...        0 min,  0.010 sec (  0.343%)

         :::::::::::::::::::::::::::::::::::::::::::::::::::::
         ::                     SUMMARY                     ::
         :::::::::::::::::::::::::::::::::::::::::::::::::::::
         :: total energy            -319.518699571382 Eh    ::
         :: gradient norm              1.826442756771 Eh/a0 ::
         :: HOMO-LUMO gap              0.111080152704 eV    ::
         ::.................................................::
         :: SCC energy              -326.195796709133 Eh    ::
         :: -> isotropic ES            0.193353728263 Eh    ::
         :: -> anisotropic ES         -0.011459901587 Eh    ::
         :: -> anisotropic XC          0.221290705835 Eh    ::
         :: -> dispersion             -0.277205634665 Eh    ::
         :: repulsion energy           6.679390905993 Eh    ::
         :: add. restraining           0.000000000000 Eh    ::
         :: total charge              -0.000000000015 e     ::
         :::::::::::::::::::::::::::::::::::::::::::::::::::::

      ----------------------------------------------------------- 
     |                   =====================                   |
     |                        A N C O P T                        |
     |                   =====================                   |
     |               Approximate Normal Coordinate               |
     |                Rational Function Optimizer                |
      ----------------------------------------------------------- 

          ...................................................
          :                      SETUP                      :
          :.................................................:
          :   optimization level            normal          :
          :   max. optcycles                   570          :
          :   ANC micro-cycles                  20          :
          :   degrees of freedom               564          :
          :.................................................:
          :   RF solver                   davidson          :
          :   write xtbopt.log                true          :
          :   linear?                        false          :
          :   energy convergence         0.5000000E-05 Eh   :
          :   grad. convergence          0.1000000E-02 Eh/α :
          :   maximium RF displ.         1.0000000          :
          :   Hlow (freq-cutoff)         0.1000000E-01      :
          :   Hmax (freq-cutoff)         5.0000000          :
          :   S6 in model hess.         20.0000000          :
          ...................................................

generating ANC from model Hessian ...
Using Lindh-Hessian (1995)
 Shifting diagonal of input Hessian by    1.0038298204485520E-002
 Lowest  eigenvalues of input Hessian
    0.010000    0.010022    0.010033    0.010034    0.010038    0.000000
    0.000000    0.000000    0.000000    0.000000    0.000000    0.010045
    0.010045    0.010050    0.010058    0.010071    0.010093    0.010106
 Highest eigenvalues
    2.919734    2.919740    3.402584    3.490110    3.830647    3.830648


........................................................................
.............................. CYCLE    1 ..............................
........................................................................
   1   -326.1957968 -0.326196E+03  0.319E-04    0.11       0.0  T
   2   -326.1957920  0.488094E-05  0.307E-03    0.11       2.4  T
   3   -326.1957952 -0.322319E-05  0.184E-03    0.11       3.9  T
   4   -326.1957960 -0.827726E-06  0.133E-03    0.11       5.5  T
   5   -326.1957965 -0.489201E-06  0.871E-04    0.11       8.3  T
   6   -326.1957968 -0.341635E-06  0.212E-04    0.11      34.3  T
     SCC iter.                  ...        0 min,  0.475 sec
     gradient                   ...        0 min,  0.320 sec
 * total energy  :  -319.5186997 Eh     change       -0.1263593E-06 Eh
   gradient norm :     1.8264446 Eh/α   predicted     0.0000000E+00 (-100.00%)
   displ. norm   :     0.5940210 α      lambda       -0.9493702E+00
   maximum displ.:     0.2686260 α      in ANC's #564, #562, #561, ...

........................................................................
.............................. CYCLE    2 ..............................
........................................................................
   1   -326.3312040 -0.326331E+03  0.431E-01    0.28       0.0  T
   2   -326.3219341  0.926993E-02  0.353E-01    0.26       1.0  T
   3   -326.3002953  0.216388E-01  0.338E-01    0.30       1.0  T
   4   -326.2516073  0.486880E-01  0.447E-01    0.38       1.0  T
   5   -326.3387736 -0.871663E-01  0.129E-01    0.28       1.0  T
   6   -326.3421659 -0.339230E-02  0.594E-02    0.27       1.0  T
   7   -326.3429357 -0.769813E-03  0.292E-02    0.27       1.0  T
   8   -326.3431057 -0.170003E-03  0.180E-02    0.27       1.0  T
   9   -326.3431323 -0.265607E-04  0.119E-02    0.27       1.0  T
  10   -326.3431474 -0.150996E-04  0.630E-03    0.27       1.2  T
  11   -326.3431528 -0.539715E-05  0.328E-03    0.27       2.2  T
  12   -326.3431556 -0.276409E-05  0.106E-03    0.26       6.9  T
  13   -326.3431558 -0.185180E-06  0.511E-04    0.26      14.2  T
  14   -326.3431558 -0.586961E-07  0.332E-04    0.26      21.8  T
     SCC iter.                  ...        0 min,  1.097 sec
     gradient                   ...        0 min,  0.320 sec
 * total energy  :  -320.1257431 Eh     change       -0.6070434E+00 Eh
   gradient norm :     0.5894770 Eh/α   predicted    -0.6422195E+00 (   5.79%)
   displ. norm   :     0.6749790 α      lambda       -0.3333030E+00
   maximum displ.:     0.1700239 α      in ANC's #354, #326, #352, ...

........................................................................
.............................. CYCLE    3 ..............................
........................................................................
   1   -326.4010219 -0.326401E+03  0.348E-01    0.30       0.0  T
   2   -326.3966662  0.435572E-02  0.287E-01    0.30       1.0  T
   3   -326.3985415 -0.187532E-02  0.205E-01    0.30       1.0  T
   4   -326.3732405  0.253010E-01  0.274E-01    0.34       1.0  T
   5   -326.4033852 -0.301447E-01  0.882E-02    0.30       1.0  T
   6   -326.4063024 -0.291723E-02  0.268E-02    0.30       1.0  T
   7   -326.4065161 -0.213641E-03  0.112E-02    0.30       1.0  T
   8   -326.4065412 -0.250971E-04  0.578E-03    0.30       1.3  T
   9   -326.4065416 -0.455046E-06  0.403E-03    0.30       1.8  T
  10   -326.4065433 -0.172680E-05  0.212E-03    0.30       3.4  T
  11   -326.4065441 -0.769461E-06  0.119E-03    0.30       6.1  T
  12   -326.4065445 -0.406616E-06  0.384E-04    0.30      18.9  T
  13   -326.4065445 -0.225294E-07  0.191E-04    0.30      38.0  T
     SCC iter.                  ...        0 min,  1.021 sec
     gradient                   ...        0 min,  0.321 sec
 * total energy  :  -320.3905182 Eh     change       -0.2647752E+00 Eh
   gradient norm :     0.3573832 Eh/α   predicted    -0.2425782E+00 (  -8.38%)
   displ. norm   :     0.7648324 α      lambda       -0.2247817E+00
   maximum displ.:     0.1880268 α      in ANC's #56, #354, #119, ...

........................................................................
.............................. CYCLE    4 ..............................
........................................................................
   1   -326.5090443 -0.326509E+03  0.324E-01    0.35       0.0  T
   2   -326.5050932  0.395113E-02  0.283E-01    0.35       1.0  T
   3   -326.5105096 -0.541642E-02  0.166E-01    0.35       1.0  T
   4   -326.5117414 -0.123180E-02  0.850E-02    0.35       1.0  T
   5   -326.5122505 -0.509121E-03  0.727E-02    0.35       1.0  T
   6   -326.5139587 -0.170818E-02  0.216E-02    0.35       1.0  T
   7   -326.5140960 -0.137261E-03  0.106E-02    0.35       1.0  T
   8   -326.5141232 -0.272109E-04  0.450E-03    0.35       1.6  T
   9   -326.5141238 -0.641321E-06  0.312E-03    0.35       2.3  T
  10   -326.5141255 -0.168732E-05  0.111E-03    0.35       6.5  T
  11   -326.5141257 -0.209673E-06  0.774E-04    0.35       9.4  T
  12   -326.5141259 -0.185419E-06  0.255E-04    0.35      28.4  T
     SCC iter.                  ...        0 min,  0.941 sec
     gradient                   ...        0 min,  0.320 sec
 * total energy  :  -320.5750897 Eh     change       -0.1845715E+00 Eh
   gradient norm :     0.2076390 Eh/α   predicted    -0.1781362E+00 (  -3.49%)
   displ. norm   :     0.8308237 α      lambda       -0.1555026E+00
   maximum displ.:     0.2857704 α      in ANC's #56, #119, #143, ...

........................................................................
.............................. CYCLE    5 ..............................
........................................................................
   1   -326.5539399 -0.326554E+03  0.272E-01    0.35       0.0  T
   2   -326.5502561  0.368379E-02  0.260E-01    0.35       1.0  T
   3   -326.5560537 -0.579754E-02  0.130E-01    0.35       1.0  T
   4   -326.5555400  0.513676E-03  0.778E-02    0.35       1.0  T
   5   -326.5571940 -0.165406E-02  0.382E-02    0.35       1.0  T
   6   -326.5575615 -0.367462E-03  0.850E-03    0.35       1.0  T
   7   -326.5575672 -0.565786E-05  0.513E-03    0.35       1.4  T
   8   -326.5575688 -0.166810E-05  0.350E-03    0.35       2.1  T
   9   -326.5575702 -0.141699E-05  0.205E-03    0.35       3.5  T
  10   -326.5575718 -0.159479E-05  0.549E-04    0.35      13.2  T
  11   -326.5575719 -0.385394E-07  0.365E-04    0.35      19.9  T
  12   -326.5575719 -0.239455E-07  0.235E-04    0.35      30.9  T
     SCC iter.                  ...        0 min,  0.944 sec
     gradient                   ...        0 min,  0.322 sec
 * total energy  :  -320.7000409 Eh     change       -0.1249512E+00 Eh
   gradient norm :     0.1331130 Eh/α   predicted    -0.1314206E+00 (   5.18%)
   displ. norm   :     0.7907867 α      lambda       -0.8496337E-01
   maximum displ.:     0.3176774 α      in ANC's #56, #27, #119, ...

........................................................................
.............................. CYCLE    6 ..............................
........................................................................
   1   -326.5992321 -0.326599E+03  0.205E-01    0.35       0.0  T
   2   -326.5977487  0.148340E-02  0.178E-01    0.35       1.0  T
   3   -326.5989885 -0.123985E-02  0.102E-01    0.35       1.0  T
   4   -326.6001002 -0.111169E-02  0.417E-02    0.35       1.0  T
   5   -326.6005720 -0.471761E-03  0.204E-02    0.35       1.0  T
   6   -326.6007004 -0.128467E-03  0.480E-03    0.35       1.5  T
   7   -326.6007019 -0.146873E-05  0.312E-03    0.35       2.3  T
   8   -326.6007024 -0.466430E-06  0.208E-03    0.35       3.5  T
   9   -326.6007034 -0.102570E-05  0.849E-04    0.35       8.5  T
  10   -326.6007036 -0.237452E-06  0.326E-04    0.35      22.2  T
  11   -326.6007036 -0.203287E-07  0.174E-04    0.35      41.7  T
     SCC iter.                  ...        0 min,  0.863 sec
     gradient                   ...        0 min,  0.321 sec
 * total energy  :  -320.7650435 Eh     change       -0.6500257E-01 Eh
   gradient norm :     0.1118356 Eh/α   predicted    -0.6904737E-01 (   6.22%)
   displ. norm   :     0.7897524 α      lambda       -0.5985406E-01
   maximum displ.:     0.2355293 α      in ANC's #56, #143, #37, ...

........................................................................
.............................. CYCLE    7 ..............................
........................................................................
   1   -326.6432020 -0.326643E+03  0.181E-01    0.39       0.0  T
   2   -326.6429762  0.225783E-03  0.120E-01    0.38       1.0  T
   3   -326.6364722  0.650403E-02  0.124E-01    0.39       1.0  T
   4   -326.6429938 -0.652165E-02  0.454E-02    0.39       1.0  T
   5   -326.6436983 -0.704436E-03  0.834E-03    0.39       1.0  T
   6   -326.6437111 -0.128690E-04  0.376E-03    0.39       1.9  T
   7   -326.6437130 -0.188952E-05  0.186E-03    0.39       3.9  T
   8   -326.6437128  0.241911E-06  0.156E-03    0.39       4.6  T
   9   -326.6437134 -0.642137E-06  0.694E-04    0.39      10.5  T
  10   -326.6437135 -0.115268E-06  0.195E-04    0.39      37.2  T
     SCC iter.                  ...        0 min,  0.789 sec
     gradient                   ...        0 min,  0.320 sec
 * total energy  :  -320.8150975 Eh     change       -0.5005405E-01 Eh
   gradient norm :     0.0776971 Eh/α   predicted    -0.4859292E-01 (  -2.92%)
   displ. norm   :     0.8697679 α      lambda       -0.4725800E-01
   maximum displ.:     0.3572359 α      in ANC's #56, #37, #27, ...

........................................................................
.............................. CYCLE    8 ..............................
........................................................................
   1   -326.7016935 -0.326702E+03  0.150E-01    0.42       0.0  T
   2   -326.7014679  0.225667E-03  0.102E-01    0.41       1.0  T
   3   -326.6973244  0.414348E-02  0.104E-01    0.42       1.0  T
   4   -326.7016945 -0.437012E-02  0.297E-02    0.42       1.0  T
   5   -326.7019899 -0.295337E-03  0.873E-03    0.42       1.0  T
   6   -326.7020092 -0.192998E-04  0.309E-03    0.42       2.3  T
   7   -326.7020109 -0.177023E-05  0.135E-03    0.42       5.4  T
   8   -326.7020109  0.269662E-07  0.897E-04    0.42       8.1  T
   9   -326.7020111 -0.182871E-06  0.322E-04    0.42      22.6  T
     SCC iter.                  ...        0 min,  0.711 sec
     gradient                   ...        0 min,  0.320 sec
 * total energy  :  -320.8570866 Eh     change       -0.4198913E-01 Eh
   gradient norm :     0.0554344 Eh/α   predicted    -0.4150428E-01 (  -1.15%)
   displ. norm   :     0.8901158 α      lambda       -0.3919080E-01
   maximum displ.:     0.3227781 α      in ANC's #56, #37, #27, ...

........................................................................
.............................. CYCLE    9 ..............................
........................................................................
   1   -326.7366623 -0.326737E+03  0.139E-01    0.45       0.0  T
   2   -326.7365687  0.936216E-04  0.875E-02    0.45       1.0  T
   3   -326.7331749  0.339375E-02  0.902E-02    0.45       1.0  T
   4   -326.7366789 -0.350398E-02  0.205E-02    0.45       1.0  T
   5   -326.7368203 -0.141409E-03  0.410E-03    0.45       1.8  T
   6   -326.7368228 -0.246831E-05  0.243E-03    0.45       3.0  T
   7   -326.7368238 -0.103455E-05  0.113E-03    0.45       6.4  T
   8   -326.7368238  0.210950E-07  0.860E-04    0.45       8.4  T
   9   -326.7368240 -0.217058E-06  0.239E-04    0.45      30.4  T
     SCC iter.                  ...        0 min,  0.707 sec
     gradient                   ...        0 min,  0.320 sec
 * total energy  :  -320.8926114 Eh     change       -0.3552474E-01 Eh
   gradient norm :     0.0443562 Eh/α   predicted    -0.3512094E-01 (  -1.14%)
   displ. norm   :     0.9065374 α      lambda       -0.3357589E-01
   maximum displ.:     0.3592242 α      in ANC's #37, #56, #40, ...

........................................................................
.............................. CYCLE   10 ..............................
........................................................................
   1   -326.7842540 -0.326784E+03  0.134E-01    0.48       0.0  T
   2   -326.7841883  0.656764E-04  0.831E-02    0.48       1.0  T
   3   -326.7816453  0.254300E-02  0.805E-02    0.48       1.0  T
   4   -326.7842555 -0.261024E-02  0.188E-02    0.48       1.0  T
   5   -326.7843850 -0.129522E-03  0.360E-03    0.48       2.0  T
   6   -326.7843870 -0.197873E-05  0.203E-03    0.48       3.6  T
   7   -326.7843876 -0.555874E-06  0.106E-03    0.48       6.8  T
   8   -326.7843877 -0.111634E-06  0.567E-04    0.48      12.8  T
   9   -326.7843878 -0.785097E-07  0.196E-04    0.48      37.0  T
     SCC iter.                  ...        0 min,  0.707 sec
     gradient                   ...        0 min,  0.319 sec
 * total energy  :  -320.9233561 Eh     change       -0.3074476E-01 Eh
   gradient norm :     0.0408772 Eh/α   predicted    -0.3058443E-01 (  -0.52%)
   displ. norm   :     0.9169359 α      lambda       -0.2941247E-01
   maximum displ.:     0.3952638 α      in ANC's #37, #40, #41, ...

........................................................................
.............................. CYCLE   11 ..............................
........................................................................
   1   -326.8167187 -0.326817E+03  0.130E-01    0.50       0.0  T
   2   -326.8166624  0.562652E-04  0.805E-02    0.50       1.0  T
   3   -326.8149188  0.174361E-02  0.743E-02    0.51       1.0  T
   4   -326.8167376 -0.181886E-02  0.168E-02    0.50       1.0  T
   5   -326.8168382 -0.100557E-03  0.430E-03    0.50       1.7  T
   6   -326.8168430 -0.478022E-05  0.190E-03    0.50       3.8  T
   7   -326.8168435 -0.500683E-06  0.980E-04    0.50       7.4  T
   8   -326.8168436 -0.124378E-06  0.486E-04    0.50      14.9  T
     SCC iter.                  ...        0 min,  0.632 sec
     gradient                   ...        0 min,  0.319 sec
 * total energy  :  -320.9500005 Eh     change       -0.2664441E-01 Eh
   gradient norm :     0.0391307 Eh/α   predicted    -0.2707082E-01 (   1.60%)
   displ. norm   :     0.9268590 α      lambda       -0.2699875E-01
   maximum displ.:     0.4184292 α      in ANC's #37, #40, #41, ...

........................................................................
.............................. CYCLE   12 ..............................
........................................................................
   1   -326.8468904 -0.326847E+03  0.134E-01    0.53       0.0  T
   2   -326.8467666  0.123752E-03  0.892E-02    0.52       1.0  T
   3   -326.8455070  0.125962E-02  0.773E-02    0.53       1.0  T
   4   -326.8470099 -0.150289E-02  0.185E-02    0.53       1.0  T
   5   -326.8471217 -0.111788E-03  0.537E-03    0.53       1.4  T
   6   -326.8471306 -0.889454E-05  0.219E-03    0.53       3.3  T
   7   -326.8471314 -0.765596E-06  0.116E-03    0.53       6.3  T
   8   -326.8471315 -0.157027E-06  0.588E-04    0.53      12.3  T
   9   -326.8471316 -0.810826E-07  0.202E-04    0.53      36.0  T
     SCC iter.                  ...        0 min,  0.709 sec
     gradient                   ...        0 min,  0.319 sec
 * total energy  :  -320.9729070 Eh     change       -0.2290641E-01 Eh
   gradient norm :     0.0477657 Eh/α   predicted    -0.2509625E-01 (   9.56%)
   displ. norm   :     0.8956528 α      lambda       -0.2353870E-01
   maximum displ.:     0.4344018 α      in ANC's #37, #40, #41, ...

........................................................................
.............................. CYCLE   13 ..............................
........................................................................
   1   -326.8765631 -0.326877E+03  0.129E-01    0.55       0.0  T
   2   -326.8765067  0.564671E-04  0.807E-02    0.55       1.0  T
   3   -326.8750722  0.143446E-02  0.731E-02    0.55       1.0  T
   4   -326.8766179 -0.154571E-02  0.155E-02    0.55       1.0  T
   5   -326.8766995 -0.815934E-04  0.434E-03    0.55       1.7  T
   6   -326.8767048 -0.530217E-05  0.183E-03    0.55       4.0  T
   7   -326.8767053 -0.524763E-06  0.953E-04    0.55       7.6  T
   8   -326.8767055 -0.113181E-06  0.457E-04    0.55      15.9  T
     SCC iter.                  ...        0 min,  0.633 sec
     gradient                   ...        0 min,  0.320 sec
 * total energy  :  -320.9938769 Eh     change       -0.2096992E-01 Eh
   gradient norm :     0.0321256 Eh/α   predicted    -0.2121065E-01 (   1.15%)
   displ. norm   :     0.9133255 α      lambda       -0.1996495E-01
   maximum displ.:     0.4645183 α      in ANC's #37, #40, #41, ...

........................................................................
.............................. CYCLE   14 ..............................
........................................................................
   1   -326.8947795 -0.326895E+03  0.126E-01    0.57       0.0  T
   2   -326.8947630  0.164261E-04  0.748E-02    0.56       1.0  T
   3   -326.8936169  0.114608E-02  0.574E-02    0.57       1.0  T
   4   -326.8948041 -0.118720E-02  0.106E-02    0.57       1.0  T
   5   -326.8948408 -0.366874E-04  0.281E-03    0.57       2.6  T
   6   -326.8948427 -0.183607E-05  0.150E-03    0.57       4.8  T
   7   -326.8948431 -0.395362E-06  0.705E-04    0.57      10.3  T
   8   -326.8948431 -0.689479E-07  0.356E-04    0.57      20.4  T
     SCC iter.                  ...        0 min,  0.631 sec
     gradient                   ...        0 min,  0.319 sec
 * total energy  :  -321.0123676 Eh     change       -0.1849074E-01 Eh
   gradient norm :     0.0274449 Eh/α   predicted    -0.1830950E-01 (  -0.98%)
   displ. norm   :     0.9213415 α      lambda       -0.1800978E-01
   maximum displ.:     0.4838452 α      in ANC's #37, #40, #41, ...

........................................................................
.............................. CYCLE   15 ..............................
........................................................................
   1   -326.9144334 -0.326914E+03  0.128E-01    0.59       0.0  T
   2   -326.9144342 -0.824041E-06  0.746E-02    0.59       1.0  T
   3   -326.9135562  0.877972E-03  0.491E-02    0.59       1.0  T
   4   -326.9144500 -0.893808E-03  0.114E-02    0.59       1.0  T
   5   -326.9144941 -0.440648E-04  0.280E-03    0.59       2.6  T
   6   -326.9144958 -0.173539E-05  0.147E-03    0.59       4.9  T
   7   -326.9144962 -0.340002E-06  0.617E-04    0.59      11.7  T
   8   -326.9144962 -0.362590E-07  0.263E-04    0.59      27.5  T
     SCC iter.                  ...        0 min,  0.633 sec
     gradient                   ...        0 min,  0.319 sec
 * total energy  :  -321.0290170 Eh     change       -0.1664936E-01 Eh
   gradient norm :     0.0237951 Eh/α   predicted    -0.1664888E-01 (  -0.00%)
   displ. norm   :     0.9219812 α      lambda       -0.1615557E-01
   maximum displ.:     0.4933467 α      in ANC's #37, #40, #41, ...

........................................................................
.............................. CYCLE   16 ..............................
........................................................................
   1   -326.9307559 -0.326931E+03  0.137E-01    0.60       0.0  T
   2   -326.9307530  0.297485E-05  0.804E-02    0.60       1.0  T
   3   -326.9298751  0.877893E-03  0.493E-02    0.60       1.0  T
   4   -326.9307814 -0.906292E-03  0.916E-03    0.60       1.0  T
   5   -326.9308075 -0.260977E-04  0.267E-03    0.60       2.7  T
   6   -326.9308090 -0.151420E-05  0.149E-03    0.60       4.9  T
   7   -326.9308093 -0.339465E-06  0.687E-04    0.60      10.6  T
   8   -326.9308094 -0.784837E-07  0.324E-04    0.60      22.4  T
     SCC iter.                  ...        0 min,  0.629 sec
     gradient                   ...        0 min,  0.319 sec
 * total energy  :  -321.0437050 Eh     change       -0.1468803E-01 Eh
   gradient norm :     0.0225122 Eh/α   predicted    -0.1494432E-01 (   1.74%)
   displ. norm   :     0.9183897 α      lambda       -0.1430976E-01
   maximum displ.:     0.4996400 α      in ANC's #37, #40, #41, ...

........................................................................
.............................. CYCLE   17 ..............................
........................................................................
   1   -326.9450006 -0.326945E+03  0.140E-01    0.62       0.0  T
   2   -326.9450072 -0.652662E-05  0.820E-02    0.62       1.0  T
   3   -326.9443952  0.611927E-03  0.410E-02    0.62       1.0  T
   4   -326.9450199 -0.624606E-03  0.892E-03    0.62       1.0  T
   5   -326.9450459 -0.260944E-04  0.240E-03    0.62       3.0  T
   6   -326.9450469 -0.921882E-06  0.152E-03    0.62       4.8  T
   7   -326.9450473 -0.386181E-06  0.620E-04    0.62      11.7  T
   8   -326.9450473 -0.690353E-07  0.260E-04    0.62      27.9  T
     SCC iter.                  ...        0 min,  0.633 sec
     gradient                   ...        0 min,  0.319 sec
 * total energy  :  -321.0565015 Eh     change       -0.1279646E-01 Eh
   gradient norm :     0.0267945 Eh/α   predicted    -0.1318960E-01 (   3.07%)
   displ. norm   :     0.9016853 α      lambda       -0.1232770E-01
   maximum displ.:     0.4797896 α      in ANC's #37, #40, #41, ...

........................................................................
.............................. CYCLE   18 ..............................
........................................................................
   1   -326.9504758 -0.326950E+03  0.138E-01    0.63       0.0  T
   2   -326.9504814 -0.559787E-05  0.807E-02    0.63       1.0  T
   3   -326.9499618  0.519578E-03  0.397E-02    0.63       1.0  T
   4   -326.9504961 -0.534332E-03  0.751E-03    0.63       1.0  T
   5   -326.9505142 -0.181281E-04  0.241E-03    0.63       3.0  T
   6   -326.9505154 -0.113917E-05  0.137E-03    0.63       5.3  T
   7   -326.9505156 -0.271016E-06  0.540E-04    0.63      13.4  T
   8   -326.9505157 -0.544126E-07  0.190E-04    0.63      38.2  T
     SCC iter.                  ...        0 min,  0.629 sec
     gradient                   ...        0 min,  0.318 sec
 * total energy  :  -321.0674808 Eh     change       -0.1097934E-01 Eh
   gradient norm :     0.0219321 Eh/α   predicted    -0.1117529E-01 (   1.78%)
   displ. norm   :     0.8918826 α      lambda       -0.1071079E-01
   maximum displ.:     0.4693918 α      in ANC's #37, #40, #41, ...

........................................................................
.............................. CYCLE   19 ..............................
........................................................................
   1   -326.9687061 -0.326969E+03  0.140E-01    0.65       0.0  T
   2   -326.9687141 -0.804454E-05  0.817E-02    0.64       1.0  T
   3   -326.9684122  0.301891E-03  0.284E-02    0.65       1.0  T
   4   -326.9687193 -0.307070E-03  0.645E-03    0.65       1.1  T
   5   -326.9687332 -0.138935E-04  0.193E-03    0.65       3.7  T
   6   -326.9687334 -0.223706E-06  0.138E-03    0.65       5.3  T
   7   -326.9687338 -0.372015E-06  0.463E-04    0.65      15.7  T
   8   -326.9687338 -0.414287E-07  0.165E-04    0.65      44.1  T
     SCC iter.                  ...        0 min,  0.633 sec
     gradient                   ...        0 min,  0.317 sec
 * total energy  :  -321.0767520 Eh     change       -0.9271135E-02 Eh
   gradient norm :     0.0233593 Eh/α   predicted    -0.9615363E-02 (   3.71%)
   displ. norm   :     0.8769127 α      lambda       -0.9190391E-02
   maximum displ.:     0.4511780 α      in ANC's #37, #40, #41, ...

........................................................................
.............................. CYCLE   20 ..............................
........................................................................
   1   -326.9728057 -0.326973E+03  0.141E-01    0.66       0.0  T
   2   -326.9728138 -0.810310E-05  0.827E-02    0.65       1.0  T
   3   -326.9724980  0.315856E-03  0.308E-02    0.66       1.0  T
   4   -326.9728211 -0.323171E-03  0.629E-03    0.66       1.2  T
   5   -326.9728340 -0.129009E-04  0.192E-03    0.65       3.8  T
   6   -326.9728341 -0.497295E-07  0.144E-03    0.65       5.0  T
   7   -326.9728345 -0.459315E-06  0.566E-04    0.65      12.8  T
   8   -326.9728346 -0.798537E-07  0.188E-04    0.65      38.5  T
     SCC iter.                  ...        0 min,  0.634 sec
     gradient                   ...        0 min,  0.319 sec
 * total energy  :  -321.0845986 Eh     change       -0.7846652E-02 Eh
   gradient norm :     0.0203707 Eh/α   predicted    -0.8128795E-02 (   3.60%)
   displ. norm   :     0.8517664 α      lambda       -0.7370678E-02
   maximum displ.:     0.4154656 α      in ANC's #37, #40, #41, ...
 * RMSD in coord.:     0.9997156 α      energy gain  -0.1565899E+01 Eh

generating ANC from model Hessian ...
Using Lindh-Hessian (1995)
 Shifting diagonal of input Hessian by    1.0042061891877096E-002
 Lowest  eigenvalues of input Hessian
    0.010000    0.010017    0.010033    0.010041    0.000000    0.000000
    0.000000    0.000000    0.000000    0.000000    0.010045    0.010047
    0.010056    0.010061    0.010071    0.010107    0.010119    0.010198
 Highest eigenvalues
    2.246895    2.248478    2.668049    2.668169    2.697005    2.697034


........................................................................
.............................. CYCLE   21 ..............................
........................................................................
   1   -326.9826475 -0.326983E+03  0.128E-01    0.67       0.0  T
   2   -326.9826568 -0.936015E-05  0.750E-02    0.67       1.0  T
   3   -326.9825265  0.130326E-03  0.221E-02    0.67       1.0  T
   4   -326.9826609 -0.134373E-03  0.497E-03    0.67       1.5  T
   5   -326.9826676 -0.668520E-05  0.158E-03    0.67       4.6  T
   6   -326.9826674  0.190877E-06  0.128E-03    0.67       5.7  T
   7   -326.9826678 -0.458343E-06  0.443E-04    0.67      16.4  T
   8   -326.9826679 -0.545423E-07  0.162E-04    0.67      44.9  T
     SCC iter.                  ...        0 min,  0.630 sec
     gradient                   ...        0 min,  0.318 sec
 * total energy  :  -321.0909086 Eh     change       -0.6309995E-02 Eh
   gradient norm :     0.0163084 Eh/α   predicted     0.0000000E+00 (-100.00%)
   displ. norm   :     0.3964808 α      lambda       -0.3275812E-02
   maximum displ.:     0.2097307 α      in ANC's #38, #39, #41, ...

........................................................................
.............................. CYCLE   22 ..............................
........................................................................
   1   -326.9881754 -0.326988E+03  0.837E-02    0.67       0.0  T
   2   -326.9881798 -0.445442E-05  0.494E-02    0.67       1.0  T
   3   -326.9881522  0.276630E-04  0.998E-03    0.67       1.0  T
   4   -326.9881802 -0.280470E-04  0.287E-03    0.67       2.5  T
   5   -326.9881823 -0.210196E-05  0.116E-03    0.67       6.3  T
   6   -326.9881824 -0.792585E-07  0.823E-04    0.67       8.8  T
   7   -326.9881826 -0.164979E-06  0.320E-04    0.67      22.7  T
     SCC iter.                  ...        0 min,  0.555 sec
     gradient                   ...        0 min,  0.317 sec
 * total energy  :  -321.0936920 Eh     change       -0.2783373E-02 Eh
   gradient norm :     0.0109006 Eh/α   predicted    -0.1902155E-02 ( -31.66%)
   displ. norm   :     0.7411901 α      lambda       -0.4392006E-02
   maximum displ.:     0.4000529 α      in ANC's #38, #39, #41, ...

........................................................................
.............................. CYCLE   23 ..............................
........................................................................
   1   -326.9926934 -0.326993E+03  0.117E-01    0.68       0.0  T
   2   -326.9927024 -0.899166E-05  0.683E-02    0.68       1.0  T
   3   -326.9926427  0.596732E-04  0.151E-02    0.68       1.0  T
   4   -326.9927067 -0.639622E-04  0.356E-03    0.68       2.0  T
   5   -326.9927092 -0.250781E-05  0.151E-03    0.68       4.8  T
   6   -326.9927091  0.110167E-06  0.114E-03    0.68       6.4  T
   7   -326.9927095 -0.379170E-06  0.413E-04    0.68      17.5  T
   8   -326.9927095 -0.501761E-07  0.116E-04    0.68      62.4  T
     SCC iter.                  ...        0 min,  0.634 sec
     gradient                   ...        0 min,  0.320 sec
 * total energy  :  -321.0973888 Eh     change       -0.3696866E-02 Eh
   gradient norm :     0.0115945 Eh/α   predicted    -0.3402407E-02 (  -7.97%)
   displ. norm   :     0.7687180 α      lambda       -0.3505072E-02
   maximum displ.:     0.4045739 α      in ANC's #38, #39, #41, ...

........................................................................
.............................. CYCLE   24 ..............................
........................................................................
   1   -326.9945076 -0.326995E+03  0.110E-01    0.69       0.0  T
   2   -326.9945162 -0.857484E-05  0.640E-02    0.69       1.0  T
   3   -326.9944612  0.549262E-04  0.142E-02    0.69       1.0  T
   4   -326.9945198 -0.585784E-04  0.356E-03    0.69       2.0  T
   5   -326.9945227 -0.291747E-05  0.148E-03    0.69       4.9  T
   6   -326.9945227  0.487333E-07  0.109E-03    0.69       6.7  T
   7   -326.9945231 -0.364594E-06  0.346E-04    0.69      21.0  T
   8   -326.9945231 -0.356656E-07  0.990E-05    0.69      73.3  T
     SCC iter.                  ...        0 min,  0.631 sec
     gradient                   ...        0 min,  0.317 sec
 * total energy  :  -321.1003247 Eh     change       -0.2935864E-02 Eh
   gradient norm :     0.0090965 Eh/α   predicted    -0.2788170E-02 (  -5.03%)
   displ. norm   :     0.7379736 α      lambda       -0.2463181E-02
   maximum displ.:     0.3645249 α      in ANC's #38, #39, #41, ...

........................................................................
.............................. CYCLE   25 ..............................
........................................................................
   1   -326.9944763 -0.326994E+03  0.102E-01    0.70       0.0  T
   2   -326.9944823 -0.600620E-05  0.593E-02    0.70       1.0  T
   3   -326.9944206  0.616207E-04  0.141E-02    0.70       1.0  T
   4   -326.9944852 -0.645831E-04  0.327E-03    0.70       2.2  T
   5   -326.9944880 -0.274765E-05  0.144E-03    0.70       5.0  T
   6   -326.9944881 -0.117513E-06  0.950E-04    0.70       7.6  T
   7   -326.9944883 -0.226127E-06  0.304E-04    0.70      23.9  T
     SCC iter.                  ...        0 min,  0.554 sec
     gradient                   ...        0 min,  0.316 sec
 * total energy  :  -321.1023021 Eh     change       -0.1977419E-02 Eh
   gradient norm :     0.0080669 Eh/α   predicted    -0.1902321E-02 (  -3.80%)
   displ. norm   :     0.6526175 α      lambda       -0.1493239E-02
   maximum displ.:     0.2883534 α      in ANC's #38, #14, #39, ...

........................................................................
.............................. CYCLE   26 ..............................
........................................................................
   1   -326.9986588 -0.326999E+03  0.850E-02    0.70       0.0  T
   2   -326.9986621 -0.325332E-05  0.497E-02    0.70       1.0  T
   3   -326.9986218  0.402420E-04  0.114E-02    0.70       1.0  T
   4   -326.9986645 -0.427078E-04  0.223E-03    0.70       3.3  T
   5   -326.9986655 -0.980506E-06  0.117E-03    0.70       6.2  T
   6   -326.9986656 -0.113253E-06  0.708E-04    0.70      10.2  T
   7   -326.9986658 -0.122070E-06  0.228E-04    0.70      31.8  T
     SCC iter.                  ...        0 min,  0.554 sec
     gradient                   ...        0 min,  0.316 sec
 * total energy  :  -321.1034622 Eh     change       -0.1160124E-02 Eh
   gradient norm :     0.0064667 Eh/α   predicted    -0.1064612E-02 (  -8.23%)
   displ. norm   :     0.5565040 α      lambda       -0.8684690E-03
   maximum displ.:     0.2787697 α      in ANC's #14, #38, #39, ...

........................................................................
.............................. CYCLE   27 ..............................
........................................................................
   1   -327.0042096 -0.327004E+03  0.650E-02    0.70       0.0  T
   2   -327.0042115 -0.182701E-05  0.381E-02    0.70       1.0  T
   3   -327.0041898  0.216388E-04  0.905E-03    0.70       1.0  T
   4   -327.0042133 -0.235012E-04  0.142E-03    0.70       5.1  T
   5   -327.0042135 -0.182624E-06  0.825E-04    0.70       8.8  T
   6   -327.0042135 -0.312514E-07  0.480E-04    0.70      15.1  T
     SCC iter.                  ...        0 min,  0.478 sec
     gradient                   ...        0 min,  0.316 sec
 * total energy  :  -321.1041422 Eh     change       -0.6799319E-03 Eh
   gradient norm :     0.0043568 Eh/α   predicted    -0.5687167E-03 ( -16.36%)
   displ. norm   :     0.4791033 α      lambda       -0.5775639E-03
   maximum displ.:     0.2846700 α      in ANC's #14, #35, #12, ...

........................................................................
.............................. CYCLE   28 ..............................
........................................................................
   1   -327.0100307 -0.327010E+03  0.475E-02    0.70       0.0  T
   2   -327.0100316 -0.896092E-06  0.279E-02    0.70       1.0  T
   3   -327.0100113  0.203501E-04  0.863E-03    0.70       1.0  T
   4   -327.0100331 -0.217959E-04  0.119E-03    0.70       6.1  T
   5   -327.0100332 -0.181328E-06  0.589E-04    0.70      12.3  T
   6   -327.0100333 -0.847638E-08  0.371E-04    0.70      19.6  T
     SCC iter.                  ...        0 min,  0.476 sec
     gradient                   ...        0 min,  0.316 sec
 * total energy  :  -321.1046222 Eh     change       -0.4800261E-03 Eh
   gradient norm :     0.0035664 Eh/α   predicted    -0.3550738E-03 ( -26.03%)
   displ. norm   :     0.4475875 α      lambda       -0.5076203E-03
   maximum displ.:     0.2903893 α      in ANC's #14, #12, #15, ...

........................................................................
.............................. CYCLE   29 ..............................
........................................................................
   1   -327.0144193 -0.327014E+03  0.364E-02    0.69       0.0  T
   2   -327.0144193  0.377801E-07  0.216E-02    0.69       1.0  T
   3   -327.0143804  0.388644E-04  0.107E-02    0.69       1.0  T
   4   -327.0144210 -0.406508E-04  0.138E-03    0.69       5.3  T
   5   -327.0144216 -0.505637E-06  0.654E-04    0.69      11.1  T
   6   -327.0144216 -0.911725E-07  0.336E-04    0.69      21.6  T
     SCC iter.                  ...        0 min,  0.474 sec
     gradient                   ...        0 min,  0.316 sec
 * total energy  :  -321.1050763 Eh     change       -0.4541312E-03 Eh
   gradient norm :     0.0045771 Eh/α   predicted    -0.3046571E-03 ( -32.91%)
   displ. norm   :     0.4914613 α      lambda       -0.5864723E-03
   maximum displ.:     0.3248137 α      in ANC's #14, #12, #15, ...

........................................................................
.............................. CYCLE   30 ..............................
........................................................................
   1   -327.0167976 -0.327017E+03  0.361E-02    0.69       0.0  T
   2   -327.0167971  0.587469E-06  0.214E-02    0.69       1.0  T
   3   -327.0167408  0.562696E-04  0.124E-02    0.69       1.0  T
   4   -327.0167997 -0.588743E-04  0.149E-03    0.69       4.9  T
   5   -327.0168003 -0.613458E-06  0.676E-04    0.69      10.7  T
   6   -327.0168004 -0.929292E-07  0.327E-04    0.69      22.2  T
     SCC iter.                  ...        0 min,  0.476 sec
     gradient                   ...        0 min,  0.315 sec
 * total energy  :  -321.1056186 Eh     change       -0.5422744E-03 Eh
   gradient norm :     0.0059552 Eh/α   predicted    -0.3640642E-03 ( -32.86%)
   displ. norm   :     0.5894329 α      lambda       -0.7233311E-03
   maximum displ.:     0.3852217 α      in ANC's #14, #12, #15, ...

........................................................................
.............................. CYCLE   31 ..............................
........................................................................
   1   -327.0158146 -0.327016E+03  0.438E-02    0.69       0.0  T
   2   -327.0158138  0.829891E-06  0.259E-02    0.69       1.0  T
   3   -327.0157346  0.791817E-04  0.144E-02    0.69       1.0  T
   4   -327.0158174 -0.828011E-04  0.169E-03    0.69       4.3  T
   5   -327.0158181 -0.722982E-06  0.781E-04    0.69       9.3  T
   6   -327.0158182 -0.982719E-07  0.395E-04    0.69      18.4  T
     SCC iter.                  ...        0 min,  0.475 sec
     gradient                   ...        0 min,  0.314 sec
 * total energy  :  -321.1062869 Eh     change       -0.6683172E-03 Eh
   gradient norm :     0.0065000 Eh/α   predicted    -0.4873243E-03 ( -27.08%)
   displ. norm   :     0.6649256 α      lambda       -0.7856164E-03
   maximum displ.:     0.4321531 α      in ANC's #14, #12, #15, ...

........................................................................
.............................. CYCLE   32 ..............................
........................................................................
   1   -327.0123848 -0.327012E+03  0.500E-02    0.70       0.0  T
   2   -327.0123844  0.342132E-06  0.295E-02    0.70       1.0  T
   3   -327.0123040  0.803926E-04  0.145E-02    0.70       1.0  T
   4   -327.0123879 -0.839094E-04  0.189E-03    0.70       3.8  T
   5   -327.0123888 -0.889665E-06  0.862E-04    0.70       8.4  T
   6   -327.0123889 -0.962895E-07  0.475E-04    0.70      15.3  T
     SCC iter.                  ...        0 min,  0.477 sec
     gradient                   ...        0 min,  0.314 sec
 * total energy  :  -321.1070043 Eh     change       -0.7174159E-03 Eh
   gradient norm :     0.0058218 Eh/α   predicted    -0.5664806E-03 ( -21.04%)
   displ. norm   :     0.6837268 α      lambda       -0.7406586E-03
   maximum displ.:     0.4467451 α      in ANC's #14, #12, #15, ...

........................................................................
.............................. CYCLE   33 ..............................
........................................................................
   1   -327.0084130 -0.327008E+03  0.490E-02    0.70       0.0  T
   2   -327.0084134 -0.407300E-06  0.288E-02    0.70       1.0  T
   3   -327.0083563  0.571578E-04  0.126E-02    0.70       1.0  T
   4   -327.0084158 -0.595782E-04  0.193E-03    0.70       3.8  T
   5   -327.0084168 -0.963409E-06  0.856E-04    0.70       8.5  T
   6   -327.0084169 -0.928817E-07  0.502E-04    0.70      14.4  T
     SCC iter.                  ...        0 min,  0.476 sec
     gradient                   ...        0 min,  0.314 sec
 * total energy  :  -321.1076778 Eh     change       -0.6734820E-03 Eh
   gradient norm :     0.0045782 Eh/α   predicted    -0.5434566E-03 ( -19.31%)
   displ. norm   :     0.6693209 α      lambda       -0.6667937E-03
   maximum displ.:     0.4411390 α      in ANC's #14, #12, #15, ...

........................................................................
.............................. CYCLE   34 ..............................
........................................................................
   1   -327.0057571 -0.327006E+03  0.435E-02    0.70       0.0  T
   2   -327.0057578 -0.714591E-06  0.255E-02    0.70       1.0  T
   3   -327.0057212  0.366376E-04  0.106E-02    0.70       1.0  T
   4   -327.0057596 -0.384077E-04  0.171E-03    0.70       4.3  T
   5   -327.0057603 -0.678159E-06  0.791E-04    0.70       9.2  T
   6   -327.0057604 -0.794224E-07  0.496E-04    0.70      14.6  T
     SCC iter.                  ...        0 min,  0.477 sec
     gradient                   ...        0 min,  0.314 sec
 * total energy  :  -321.1082915 Eh     change       -0.6136980E-03 Eh
   gradient norm :     0.0039913 Eh/α   predicted    -0.4827586E-03 ( -21.34%)
   displ. norm   :     0.6622348 α      lambda       -0.6379416E-03
   maximum displ.:     0.4387518 α      in ANC's #14, #12, #15, ...

........................................................................
.............................. CYCLE   35 ..............................
........................................................................
   1   -327.0046845 -0.327005E+03  0.385E-02    0.70       0.0  T
   2   -327.0046852 -0.697718E-06  0.226E-02    0.70       1.0  T
   3   -327.0046563  0.288243E-04  0.991E-03    0.70       1.0  T
   4   -327.0046870 -0.306532E-04  0.142E-03    0.70       5.1  T
   5   -327.0046873 -0.333261E-06  0.716E-04    0.70      10.1  T
   6   -327.0046874 -0.414029E-07  0.494E-04    0.70      14.7  T
     SCC iter.                  ...        0 min,  0.475 sec
     gradient                   ...        0 min,  0.313 sec
 * total energy  :  -321.1088894 Eh     change       -0.5978294E-03 Eh
   gradient norm :     0.0043687 Eh/α   predicted    -0.4588670E-03 ( -23.24%)
   displ. norm   :     0.6858206 α      lambda       -0.6685389E-03
   maximum displ.:     0.4542657 α      in ANC's #14, #12, #15, ...

........................................................................
.............................. CYCLE   36 ..............................
........................................................................
   1   -327.0051298 -0.327005E+03  0.375E-02    0.70       0.0  T
   2   -327.0051304 -0.628771E-06  0.220E-02    0.70       1.0  T
   3   -327.0050996  0.307716E-04  0.103E-02    0.70       1.0  T
   4   -327.0051325 -0.328667E-04  0.136E-03    0.70       5.3  T
   5   -327.0051327 -0.256299E-06  0.755E-04    0.70       9.6  T
   6   -327.0051328 -0.580904E-07  0.487E-04    0.70      14.9  T
     SCC iter.                  ...        0 min,  0.476 sec
     gradient                   ...        0 min,  0.313 sec
 * total energy  :  -321.1095213 Eh     change       -0.6319342E-03 Eh
   gradient norm :     0.0048896 Eh/α   predicted    -0.4914935E-03 ( -22.22%)
   displ. norm   :     0.7304957 α      lambda       -0.7239159E-03
   maximum displ.:     0.4829297 α      in ANC's #14, #12, #15, ...

........................................................................
.............................. CYCLE   37 ..............................
........................................................................
   1   -327.0063460 -0.327006E+03  0.402E-02    0.71       0.0  T
   2   -327.0063466 -0.642532E-06  0.235E-02    0.71       1.0  T
   3   -327.0063101  0.365080E-04  0.112E-02    0.71       1.0  T
   4   -327.0063490 -0.388953E-04  0.144E-03    0.71       5.0  T
   5   -327.0063493 -0.298859E-06  0.863E-04    0.71       8.4  T
   6   -327.0063494 -0.114625E-06  0.482E-04    0.71      15.1  T
     SCC iter.                  ...        0 min,  0.474 sec
     gradient                   ...        0 min,  0.312 sec
 * total energy  :  -321.1102039 Eh     change       -0.6826533E-03 Eh
   gradient norm :     0.0048674 Eh/α   predicted    -0.5551082E-03 ( -18.68%)
   displ. norm   :     0.7659150 α      lambda       -0.7519497E-03
   maximum displ.:     0.5064017 α      in ANC's #14, #12, #1, ...

........................................................................
.............................. CYCLE   38 ..............................
........................................................................
   1   -327.0076957 -0.327008E+03  0.437E-02    0.71       0.0  T
   2   -327.0076965 -0.839532E-06  0.256E-02    0.71       1.0  T
   3   -327.0076600  0.364680E-04  0.112E-02    0.71       1.0  T
   4   -327.0076989 -0.388280E-04  0.146E-03    0.71       5.0  T
   5   -327.0076991 -0.271481E-06  0.933E-04    0.71       7.8  T
   6   -327.0076993 -0.155219E-06  0.480E-04    0.71      15.1  T
     SCC iter.                  ...        0 min,  0.476 sec
     gradient                   ...        0 min,  0.313 sec
 * total energy  :  -321.1109073 Eh     change       -0.7033293E-03 Eh
   gradient norm :     0.0042395 Eh/α   predicted    -0.5965382E-03 ( -15.18%)
   displ. norm   :     0.7804584 α      lambda       -0.7343575E-03
   maximum displ.:     0.5179258 α      in ANC's #14, #12, #1, ...

........................................................................
.............................. CYCLE   39 ..............................
........................................................................
   1   -327.0085037 -0.327009E+03  0.459E-02    0.71       0.0  T
   2   -327.0085047 -0.104671E-05  0.269E-02    0.71       1.0  T
   3   -327.0084741  0.305736E-04  0.104E-02    0.71       1.0  T
   4   -327.0085068 -0.326863E-04  0.134E-03    0.71       5.4  T
   5   -327.0085070 -0.142447E-06  0.928E-04    0.71       7.8  T
   6   -327.0085071 -0.163467E-06  0.483E-04    0.71      15.0  T
     SCC iter.                  ...        0 min,  0.474 sec
     gradient                   ...        0 min,  0.312 sec
 * total energy  :  -321.1115887 Eh     change       -0.6814300E-03 Eh
   gradient norm :     0.0035315 Eh/α   predicted    -0.5908349E-03 ( -13.29%)
   displ. norm   :     0.7729894 α      lambda       -0.6819908E-03
   maximum displ.:     0.5157201 α      in ANC's #14, #12, #1, ...

........................................................................
.............................. CYCLE   40 ..............................
........................................................................
   1   -327.0087921 -0.327009E+03  0.461E-02    0.71       0.0  T
   2   -327.0087931 -0.104729E-05  0.271E-02    0.71       1.0  T
   3   -327.0087676  0.255055E-04  0.935E-03    0.71       1.0  T
   4   -327.0087949 -0.272977E-04  0.124E-03    0.71       5.8  T
   5   -327.0087950 -0.102613E-06  0.878E-04    0.71       8.3  T
   6   -327.0087951 -0.146920E-06  0.466E-04    0.71      15.6  T
     SCC iter.                  ...        0 min,  0.477 sec
     gradient                   ...        0 min,  0.312 sec
 * total energy  :  -321.1122194 Eh     change       -0.6306570E-03 Eh
   gradient norm :     0.0033011 Eh/α   predicted    -0.5447462E-03 ( -13.62%)
   displ. norm   :     0.7554756 α      lambda       -0.6229566E-03
   maximum displ.:     0.5061466 α      in ANC's #14, #1, #12, ...

........................................................................
.............................. CYCLE   41 ..............................
........................................................................
   1   -327.0084319 -0.327008E+03  0.453E-02    0.71       0.0  T
   2   -327.0084326 -0.752319E-06  0.266E-02    0.71       1.0  T
   3   -327.0084024  0.301581E-04  0.943E-03    0.71       1.0  T
   4   -327.0084343 -0.318596E-04  0.137E-03    0.71       5.3  T
   5   -327.0084346 -0.309577E-06  0.837E-04    0.71       8.7  T
   6   -327.0084347 -0.120189E-06  0.421E-04    0.71      17.2  T
     SCC iter.                  ...        0 min,  0.473 sec
     gradient                   ...        0 min,  0.312 sec
 * total energy  :  -321.1127961 Eh     change       -0.5767594E-03 Eh
   gradient norm :     0.0034664 Eh/α   predicted    -0.4892559E-03 ( -15.17%)
   displ. norm   :     0.7371463 α      lambda       -0.5743797E-03
   maximum displ.:     0.4944397 α      in ANC's #14, #13, #1, ...

........................................................................
.............................. CYCLE   42 ..............................
........................................................................
   1   -327.0077508 -0.327008E+03  0.446E-02    0.71       0.0  T
   2   -327.0077512 -0.382612E-06  0.262E-02    0.71       1.0  T
   3   -327.0077116  0.395613E-04  0.101E-02    0.71       1.0  T
   4   -327.0077531 -0.414111E-04  0.150E-03    0.71       4.8  T
   5   -327.0077536 -0.496828E-06  0.755E-04    0.71       9.6  T
   6   -327.0077536 -0.673750E-07  0.404E-04    0.71      18.0  T
     SCC iter.                  ...        0 min,  0.476 sec
     gradient                   ...        0 min,  0.312 sec
 * total energy  :  -321.1133287 Eh     change       -0.5325676E-03 Eh
   gradient norm :     0.0035110 Eh/α   predicted    -0.4432454E-03 ( -16.77%)
   displ. norm   :     0.7284153 α      lambda       -0.5418550E-03
   maximum displ.:     0.4875672 α      in ANC's #14, #13, #1, ...
 * RMSD in coord.:     0.8762299 α      energy gain  -0.2873008E-01 Eh

generating ANC from model Hessian ...
Using Lindh-Hessian (1995)
 Shifting diagonal of input Hessian by    1.0035399746577573E-002
 Lowest  eigenvalues of input Hessian
    0.010000    0.010026    0.010035    0.000000    0.000000    0.000000
    0.000000    0.000000    0.000000    0.010039    0.010040    0.010042
    0.010047    0.010059    0.010067    0.010105    0.010120    0.010185
 Highest eigenvalues
    2.248418    2.248760    2.673049    2.674054    2.674453    2.676652


........................................................................
.............................. CYCLE   43 ..............................
........................................................................
   1   -327.0065264 -0.327007E+03  0.449E-02    0.71       0.0  T
   2   -327.0065264 -0.622684E-07  0.265E-02    0.71       1.0  T
   3   -327.0064756  0.508367E-04  0.110E-02    0.71       1.0  T
   4   -327.0065286 -0.530474E-04  0.159E-03    0.71       4.6  T
   5   -327.0065292 -0.588901E-06  0.707E-04    0.71      10.3  T
   6   -327.0065293 -0.450162E-07  0.403E-04    0.71      18.0  T
     SCC iter.                  ...        0 min,  0.477 sec
     gradient                   ...        0 min,  0.310 sec
 * total energy  :  -321.1138305 Eh     change       -0.5018028E-03 Eh
   gradient norm :     0.0033672 Eh/α   predicted     0.0000000E+00 (-100.00%)
   displ. norm   :     0.0861645 α      lambda       -0.1028349E-03
   maximum displ.:     0.0558472 α      in ANC's #14, #12, #4, ...

........................................................................
.............................. CYCLE   44 ..............................
........................................................................
   1   -327.0066390 -0.327007E+03  0.992E-03    0.71       0.0  T
   2   -327.0066391 -0.789112E-07  0.587E-03    0.71       1.2  T
   3   -327.0066370  0.214572E-05  0.241E-03    0.71       3.0  T
   4   -327.0066391 -0.211196E-05  0.662E-04    0.71      11.0  T
   5   -327.0066393 -0.167718E-06  0.169E-04    0.71      42.9  T
   6   -327.0066393 -0.427042E-08  0.910E-05    0.71      79.7  T
     SCC iter.                  ...        0 min,  0.475 sec
     gradient                   ...        0 min,  0.310 sec
 * total energy  :  -321.1139257 Eh     change       -0.9524711E-04 Eh
   gradient norm :     0.0020624 Eh/α   predicted    -0.5246289E-04 ( -44.92%)
   displ. norm   :     0.3281457 α      lambda       -0.3251205E-03
   maximum displ.:     0.1918543 α      in ANC's #14, #12, #22, ...

........................................................................
.............................. CYCLE   45 ..............................
........................................................................
   1   -327.0064049 -0.327006E+03  0.340E-02    0.71       0.0  T
   2   -327.0064056 -0.666291E-06  0.200E-02    0.71       1.0  T
   3   -327.0063866  0.189267E-04  0.693E-03    0.71       1.0  T
   4   -327.0064057 -0.190195E-04  0.175E-03    0.71       4.1  T
   5   -327.0064067 -0.107561E-05  0.505E-04    0.71      14.4  T
   6   -327.0064068 -0.244309E-07  0.296E-04    0.71      24.5  T
   7   -327.0064068 -0.710656E-08  0.170E-04    0.71      42.7  T
     SCC iter.                  ...        0 min,  0.555 sec
     gradient                   ...        0 min,  0.310 sec
 * total energy  :  -321.1141858 Eh     change       -0.2600898E-03 Eh
   gradient norm :     0.0030349 Eh/α   predicted    -0.1800707E-03 ( -30.77%)
   displ. norm   :     0.4132080 α      lambda       -0.2857672E-03
   maximum displ.:     0.2438777 α      in ANC's #14, #12, #22, ...

........................................................................
.............................. CYCLE   46 ..............................
........................................................................
   1   -327.0055476 -0.327006E+03  0.393E-02    0.72       0.0  T
   2   -327.0055482 -0.630485E-06  0.230E-02    0.72       1.0  T
   3   -327.0055301  0.181089E-04  0.674E-03    0.72       1.1  T
   4   -327.0055488 -0.186753E-04  0.145E-03    0.72       5.0  T
   5   -327.0055494 -0.595260E-06  0.547E-04    0.72      13.3  T
   6   -327.0055494 -0.163211E-07  0.331E-04    0.72      21.9  T
     SCC iter.                  ...        0 min,  0.473 sec
     gradient                   ...        0 min,  0.310 sec
 * total energy  :  -321.1144158 Eh     change       -0.2299960E-03 Eh
   gradient norm :     0.0048677 Eh/α   predicted    -0.1672798E-03 ( -27.27%)
   displ. norm   :     0.4016868 α      lambda       -0.2357374E-03
   maximum displ.:     0.2408977 α      in ANC's #14, #12, #4, ...

........................................................................
.............................. CYCLE   47 ..............................
........................................................................
   1   -327.0050978 -0.327005E+03  0.356E-02    0.72       0.0  T
   2   -327.0050984 -0.570100E-06  0.209E-02    0.72       1.0  T
   3   -327.0050886  0.985024E-05  0.516E-03    0.72       1.4  T
   4   -327.0050988 -0.102050E-04  0.117E-03    0.72       6.2  T
   5   -327.0050991 -0.375399E-06  0.522E-04    0.72      13.9  T
   6   -327.0050992 -0.241528E-07  0.280E-04    0.72      25.9  T
     SCC iter.                  ...        0 min,  0.476 sec
     gradient                   ...        0 min,  0.311 sec
 * total energy  :  -321.1146201 Eh     change       -0.2042918E-03 Eh
   gradient norm :     0.0047098 Eh/α   predicted    -0.1368873E-03 ( -32.99%)
   displ. norm   :     0.4325194 α      lambda       -0.2632759E-03
   maximum displ.:     0.2624762 α      in ANC's #14, #12, #4, ...

........................................................................
.............................. CYCLE   48 ..............................
........................................................................
   1   -327.0053357 -0.327005E+03  0.365E-02    0.72       0.0  T
   2   -327.0053366 -0.837650E-06  0.214E-02    0.72       1.0  T
   3   -327.0053290  0.759633E-05  0.512E-03    0.72       1.4  T
   4   -327.0053369 -0.793391E-05  0.121E-03    0.72       6.0  T
   5   -327.0053372 -0.348195E-06  0.618E-04    0.72      11.7  T
   6   -327.0053373 -0.597617E-07  0.325E-04    0.72      22.3  T
     SCC iter.                  ...        0 min,  0.473 sec
     gradient                   ...        0 min,  0.362 sec
 * total energy  :  -321.1148534 Eh     change       -0.2333383E-03 Eh
   gradient norm :     0.0031458 Eh/α   predicted    -0.1562691E-03 ( -33.03%)
   displ. norm   :     0.5041861 α      lambda       -0.3074077E-03
   maximum displ.:     0.3089623 α      in ANC's #14, #12, #4, ...

........................................................................
.............................. CYCLE   49 ..............................
........................................................................
   1   -327.0058572 -0.327006E+03  0.408E-02    0.71       0.0  T
   2   -327.0058584 -0.118839E-05  0.240E-02    0.72       1.0  T
   3   -327.0058472  0.112262E-04  0.623E-03    0.71       1.2  T
   4   -327.0058588 -0.116363E-04  0.149E-03    0.72       4.9  T
   5   -327.0058594 -0.556847E-06  0.747E-04    0.72       9.7  T
   6   -327.0058595 -0.965412E-07  0.394E-04    0.72      18.4  T
     SCC iter.                  ...        0 min,  0.500 sec
     gradient                   ...        0 min,  0.327 sec
 * total energy  :  -321.1151238 Eh     change       -0.2703507E-03 Eh
   gradient norm :     0.0024186 Eh/α   predicted    -0.1927820E-03 ( -28.69%)
   displ. norm   :     0.5572445 α      lambda       -0.3181404E-03
   maximum displ.:     0.3439172 α      in ANC's #14, #4, #12, ...

........................................................................
.............................. CYCLE   50 ..............................
........................................................................
   1   -327.0061487 -0.327006E+03  0.434E-02    0.71       0.0  T
   2   -327.0061499 -0.126173E-05  0.255E-02    0.71       1.0  T
   3   -327.0061352  0.147488E-04  0.685E-03    0.71       1.1  T
   4   -327.0061505 -0.153369E-04  0.156E-03    0.71       4.7  T
   5   -327.0061511 -0.587565E-06  0.818E-04    0.71       8.9  T
   6   -327.0061512 -0.111665E-06  0.423E-04    0.71      17.1  T
     SCC iter.                  ...        0 min,  0.496 sec
     gradient                   ...        0 min,  0.326 sec
 * total energy  :  -321.1154046 Eh     change       -0.2807872E-03 Eh
   gradient norm :     0.0038723 Eh/α   predicted    -0.2084656E-03 ( -25.76%)
   displ. norm   :     0.5790086 α      lambda       -0.3140519E-03
   maximum displ.:     0.3593290 α      in ANC's #14, #4, #12, ...

........................................................................
.............................. CYCLE   51 ..............................
........................................................................
   1   -327.0062499 -0.327006E+03  0.437E-02    0.72       0.0  T
   2   -327.0062511 -0.112922E-05  0.256E-02    0.72       1.0  T
   3   -327.0062347  0.163774E-04  0.704E-03    0.71       1.0  T
   4   -327.0062520 -0.172681E-04  0.139E-03    0.72       5.2  T
   5   -327.0062523 -0.354097E-06  0.836E-04    0.72       8.7  T
   6   -327.0062524 -0.118942E-06  0.415E-04    0.72      17.5  T
     SCC iter.                  ...        0 min,  0.499 sec
     gradient                   ...        0 min,  0.326 sec
 * total energy  :  -321.1156855 Eh     change       -0.2809398E-03 Eh
   gradient norm :     0.0047954 Eh/α   predicted    -0.2096705E-03 ( -25.37%)
   displ. norm   :     0.5915582 α      lambda       -0.3149785E-03
   maximum displ.:     0.3696178 α      in ANC's #14, #4, #12, ...

........................................................................
.............................. CYCLE   52 ..............................
........................................................................
   1   -327.0062380 -0.327006E+03  0.438E-02    0.72       0.0  T
   2   -327.0062390 -0.104731E-05  0.256E-02    0.72       1.0  T
   3   -327.0062193  0.197053E-04  0.766E-03    0.72       1.0  T
   4   -327.0062402 -0.208610E-04  0.135E-03    0.72       5.4  T
   5   -327.0062404 -0.284573E-06  0.838E-04    0.72       8.7  T
   6   -327.0062406 -0.117870E-06  0.431E-04    0.72      16.8  T
     SCC iter.                  ...        0 min,  0.497 sec
     gradient                   ...        0 min,  0.327 sec
 * total energy  :  -321.1159683 Eh     change       -0.2827953E-03 Eh
   gradient norm :     0.0044759 Eh/α   predicted    -0.2126018E-03 ( -24.82%)
   displ. norm   :     0.5992903 α      lambda       -0.3071301E-03
   maximum displ.:     0.3782724 α      in ANC's #14, #4, #12, ...

........................................................................
.............................. CYCLE   53 ..............................
........................................................................
   1   -327.0059473 -0.327006E+03  0.435E-02    0.72       0.0  T
   2   -327.0059482 -0.982615E-06  0.255E-02    0.72       1.0  T
   3   -327.0059237  0.245491E-04  0.844E-03    0.72       1.0  T
   4   -327.0059495 -0.258446E-04  0.147E-03    0.72       4.9  T
   5   -327.0059500 -0.425835E-06  0.817E-04    0.72       8.9  T
   6   -327.0059501 -0.100134E-06  0.457E-04    0.72      15.9  T
     SCC iter.                  ...        0 min,  0.501 sec
     gradient                   ...        0 min,  0.326 sec
 * total energy  :  -321.1162417 Eh     change       -0.2734180E-03 Eh
   gradient norm :     0.0033173 Eh/α   predicted    -0.2087179E-03 ( -23.66%)
   displ. norm   :     0.5894113 α      lambda       -0.2762215E-03
   maximum displ.:     0.3762728 α      in ANC's #14, #4, #12, ...

........................................................................
.............................. CYCLE   54 ..............................
........................................................................
   1   -327.0052317 -0.327005E+03  0.417E-02    0.72       0.0  T
   2   -327.0052325 -0.815762E-06  0.244E-02    0.72       1.0  T
   3   -327.0052061  0.264264E-04  0.861E-03    0.72       1.0  T
   4   -327.0052338 -0.276585E-04  0.152E-03    0.72       4.8  T
   5   -327.0052343 -0.537967E-06  0.767E-04    0.72       9.5  T
   6   -327.0052344 -0.837152E-07  0.437E-04    0.72      16.6  T
     SCC iter.                  ...        0 min,  0.502 sec
     gradient                   ...        0 min,  0.326 sec
 * total energy  :  -321.1164872 Eh     change       -0.2454806E-03 Eh
   gradient norm :     0.0024812 Eh/α   predicted    -0.1860922E-03 ( -24.19%)
   displ. norm   :     0.5640654 α      lambda       -0.2410190E-03
   maximum displ.:     0.3626702 α      in ANC's #14, #4, #12, ...

........................................................................
.............................. CYCLE   55 ..............................
........................................................................
   1   -327.0042961 -0.327004E+03  0.386E-02    0.72       0.0  T
   2   -327.0042967 -0.610548E-06  0.226E-02    0.72       1.0  T
   3   -327.0042733  0.233797E-04  0.800E-03    0.72       1.0  T
   4   -327.0042977 -0.244139E-04  0.139E-03    0.72       5.2  T
   5   -327.0042982 -0.464299E-06  0.692E-04    0.72      10.5  T
   6   -327.0042983 -0.651041E-07  0.390E-04    0.72      18.6  T
     SCC iter.                  ...        0 min,  0.500 sec
     gradient                   ...        0 min,  0.325 sec
 * total energy  :  -321.1167051 Eh     change       -0.2179249E-03 Eh
   gradient norm :     0.0026360 Eh/α   predicted    -0.1588549E-03 ( -27.11%)
   displ. norm   :     0.5564124 α      lambda       -0.2300973E-03
   maximum displ.:     0.3580630 α      in ANC's #14, #4, #1, ...

........................................................................
.............................. CYCLE   56 ..............................
........................................................................
   1   -327.0033282 -0.327003E+03  0.373E-02    0.73       0.0  T
   2   -327.0033287 -0.573643E-06  0.218E-02    0.73       1.0  T
   3   -327.0033104  0.183486E-04  0.710E-03    0.73       1.0  T
   4   -327.0033296 -0.191719E-04  0.124E-03    0.73       5.9  T
   5   -327.0033299 -0.349584E-06  0.653E-04    0.73      11.1  T
   6   -327.0033300 -0.580689E-07  0.359E-04    0.73      20.2  T
     SCC iter.                  ...        0 min,  0.498 sec
     gradient                   ...        0 min,  0.325 sec
 * total energy  :  -321.1169179 Eh     change       -0.2127542E-03 Eh
   gradient norm :     0.0030152 Eh/α   predicted    -0.1506675E-03 ( -29.18%)
   displ. norm   :     0.5970939 α      lambda       -0.2515246E-03
   maximum displ.:     0.3826241 α      in ANC's #14, #4, #1, ...

........................................................................
.............................. CYCLE   57 ..............................
........................................................................
   1   -327.0021989 -0.327002E+03  0.400E-02    0.73       0.0  T
   2   -327.0021996 -0.763103E-06  0.234E-02    0.73       1.0  T
   3   -327.0021842  0.154068E-04  0.663E-03    0.73       1.1  T
   4   -327.0022004 -0.161365E-04  0.123E-03    0.73       5.9  T
   5   -327.0022007 -0.317970E-06  0.688E-04    0.73      10.5  T
   6   -327.0022008 -0.669383E-07  0.367E-04    0.73      19.8  T
     SCC iter.                  ...        0 min,  0.499 sec
     gradient                   ...        0 min,  0.325 sec
 * total energy  :  -321.1171530 Eh     change       -0.2351053E-03 Eh
   gradient norm :     0.0031363 Eh/α   predicted    -0.1706004E-03 ( -27.44%)
   displ. norm   :     0.6784082 α      lambda       -0.2926447E-03
   maximum displ.:     0.4322401 α      in ANC's #14, #4, #1, ...

........................................................................
.............................. CYCLE   58 ..............................
........................................................................
   1   -327.0006389 -0.327001E+03  0.463E-02    0.73       0.0  T
   2   -327.0006401 -0.121409E-05  0.271E-02    0.73       1.0  T
   3   -327.0006270  0.131494E-04  0.640E-03    0.73       1.1  T
   4   -327.0006408 -0.138339E-04  0.138E-03    0.73       5.3  T
   5   -327.0006412 -0.376323E-06  0.771E-04    0.73       9.4  T
   6   -327.0006413 -0.837252E-07  0.413E-04    0.73      17.6  T
     SCC iter.                  ...        0 min,  0.499 sec
     gradient                   ...        0 min,  0.324 sec
 * total energy  :  -321.1174254 Eh     change       -0.2723726E-03 Eh
[...]
 369: 85.10 370:  0.14 371: 80.21 372:  0.77 373:100.60 374:  7.68 375:  2.54 376:  1.07
 377:  0.11 378: 16.30 379:  0.56 380:547.81 381:  1.28 382: 12.00 383:  0.07 384:111.09
 385:  0.18 386:****** 387:  0.75 388: 20.69 389:  0.71 390: 10.24 391:899.48 392:  1.00
 393:114.16 394:183.65 395:  1.19 396:  7.38 397: 41.22 398: 38.99 399: 73.01 400: 36.92
 401:  0.00 402:  0.02 403:  0.00 404:  7.34 405:  7.21 406:  0.01 407:  1.09 408:  0.01
 409:  4.36 410:  6.28 411: 34.67 412:  0.01 413:839.22 414:  0.10 415:107.70 416:  0.11
 417: 87.25 418:  0.08 419:365.31 420:  1.41 421:286.69 422:  0.47 423:  5.68 424:  0.07
 425:  0.56 426: 14.40 427:  0.04 428: 18.86 429:144.92 430: 52.47 431: 53.51 432: 19.66
 433: 29.63 434:  1.15 435: 13.87 436:  6.45 437: 88.05 438:  7.87 439:363.42 440:  0.08
 441:  0.89 442:  0.66 443:161.70 444:  0.13 445:  7.97 446:  0.09 447: 18.95 448:  0.71
 449:233.27 450:  0.04 451: 45.09 452:  0.07 453: 15.58 454:  0.02 455:  0.01 456: 14.13
 457:  0.38 458: 31.65 459:  0.01 460:  5.23 461:  0.07 462: 29.59 463:  0.30 464:218.15
 465:  0.65 466: 25.84 467: 26.99 468: 23.22 469: 46.16 470: 20.10 471: 49.72 472:  0.48
 473:  6.33 474:  0.20 475: 11.85 476: 20.70 477:288.09 478: 15.66 479:  0.53 480:  0.00
 481:  4.02 482:  0.14 483: 18.39 484:  0.42 485: 34.95 486:  0.41 487:423.40 488:  0.09
 489: 14.94 490:  0.15 491: 45.31 492:  0.01 493: 15.14 494:  6.80 495:804.06 496:  2.54
 497:  4.83 498: 57.53 499:  0.25 500:  0.24 501:  0.49 502:  0.00 503: 60.19 504: 15.88
 505:  0.08 506:  6.30 507:  5.13 508:  6.07 509:****** 510:****** 511:****** 512:  0.25
 513: 29.98 514: 36.49 515:****** 516:****** 517: 67.63 518: 85.33 519:419.71 520:******
 521:  6.60 522:  6.99 523: 94.79 524:345.58 525: 12.60 526: 50.27 527: 48.45 528: 24.19
 529: 12.42 530: 24.78 531:244.77 532:361.92 533:  0.09 534: 11.88 535:419.98 536:693.34
 537: 63.25 538: 47.13 539: 14.63 540: 20.64 541: 10.22 542: 24.35 543: 70.18 544: 41.47
 545: 33.21 546: 23.14 547:  1.24 548: 64.54 549: 17.66 550: 50.90 551: 70.22 552:211.40
 553: 42.14 554: 27.43 555: 12.28 556: 38.50 557: 13.62 558: 26.42 559:  8.12 560: 29.91
 561:****** 562:****** 563: 27.12 564:****** 565:****** 566: 15.82 567:****** 568:******
 569:995.22 570:934.01
 Raman intensities (amu)
   1:  0.00   2:  0.00   3:  0.00   4:  0.00   5:  0.00   6:  0.00   7:  0.00   8:  0.00
   9:  0.00  10:  0.00  11:  0.00  12:  0.00  13:  0.00  14:  0.00  15:  0.00  16:  0.00
  17:  0.00  18:  0.00  19:  0.00  20:  0.00  21:  0.00  22:  0.00  23:  0.00  24:  0.00
  25:  0.00  26:  0.00  27:  0.00  28:  0.00  29:  0.00  30:  0.00  31:  0.00  32:  0.00
  33:  0.00  34:  0.00  35:  0.00  36:  0.00  37:  0.00  38:  0.00  39:  0.00  40:  0.00
  41:  0.00  42:  0.00  43:  0.00  44:  0.00  45:  0.00  46:  0.00  47:  0.00  48:  0.00
  49:  0.00  50:  0.00  51:  0.00  52:  0.00  53:  0.00  54:  0.00  55:  0.00  56:  0.00
  57:  0.00  58:  0.00  59:  0.00  60:  0.00  61:  0.00  62:  0.00  63:  0.00  64:  0.00
  65:  0.00  66:  0.00  67:  0.00  68:  0.00  69:  0.00  70:  0.00  71:  0.00  72:  0.00
  73:  0.00  74:  0.00  75:  0.00  76:  0.00  77:  0.00  78:  0.00  79:  0.00  80:  0.00
  81:  0.00  82:  0.00  83:  0.00  84:  0.00  85:  0.00  86:  0.00  87:  0.00  88:  0.00
  89:  0.00  90:  0.00  91:  0.00  92:  0.00  93:  0.00  94:  0.00  95:  0.00  96:  0.00
  97:  0.00  98:  0.00  99:  0.00 100:  0.00 101:  0.00 102:  0.00 103:  0.00 104:  0.00
 105:  0.00 106:  0.00 107:  0.00 108:  0.00 109:  0.00 110:  0.00 111:  0.00 112:  0.00
 113:  0.00 114:  0.00 115:  0.00 116:  0.00 117:  0.00 118:  0.00 119:  0.00 120:  0.00
 121:  0.00 122:  0.00 123:  0.00 124:  0.00 125:  0.00 126:  0.00 127:  0.00 128:  0.00
 129:  0.00 130:  0.00 131:  0.00 132:  0.00 133:  0.00 134:  0.00 135:  0.00 136:  0.00
 137:  0.00 138:  0.00 139:  0.00 140:  0.00 141:  0.00 142:  0.00 143:  0.00 144:  0.00
 145:  0.00 146:  0.00 147:  0.00 148:  0.00 149:  0.00 150:  0.00 151:  0.00 152:  0.00
 153:  0.00 154:  0.00 155:  0.00 156:  0.00 157:  0.00 158:  0.00 159:  0.00 160:  0.00
 161:  0.00 162:  0.00 163:  0.00 164:  0.00 165:  0.00 166:  0.00 167:  0.00 168:  0.00
 169:  0.00 170:  0.00 171:  0.00 172:  0.00 173:  0.00 174:  0.00 175:  0.00 176:  0.00
 177:  0.00 178:  0.00 179:  0.00 180:  0.00 181:  0.00 182:  0.00 183:  0.00 184:  0.00
 185:  0.00 186:  0.00 187:  0.00 188:  0.00 189:  0.00 190:  0.00 191:  0.00 192:  0.00
 193:  0.00 194:  0.00 195:  0.00 196:  0.00 197:  0.00 198:  0.00 199:  0.00 200:  0.00
 201:  0.00 202:  0.00 203:  0.00 204:  0.00 205:  0.00 206:  0.00 207:  0.00 208:  0.00
 209:  0.00 210:  0.00 211:  0.00 212:  0.00 213:  0.00 214:  0.00 215:  0.00 216:  0.00
 217:  0.00 218:  0.00 219:  0.00 220:  0.00 221:  0.00 222:  0.00 223:  0.00 224:  0.00
 225:  0.00 226:  0.00 227:  0.00 228:  0.00 229:  0.00 230:  0.00 231:  0.00 232:  0.00
 233:  0.00 234:  0.00 235:  0.00 236:  0.00 237:  0.00 238:  0.00 239:  0.00 240:  0.00
 241:  0.00 242:  0.00 243:  0.00 244:  0.00 245:  0.00 246:  0.00 247:  0.00 248:  0.00
 249:  0.00 250:  0.00 251:  0.00 252:  0.00 253:  0.00 254:  0.00 255:  0.00 256:  0.00
 257:  0.00 258:  0.00 259:  0.00 260:  0.00 261:  0.00 262:  0.00 263:  0.00 264:  0.00
 265:  0.00 266:  0.00 267:  0.00 268:  0.00 269:  0.00 270:  0.00 271:  0.00 272:  0.00
 273:  0.00 274:  0.00 275:  0.00 276:  0.00 277:  0.00 278:  0.00 279:  0.00 280:  0.00
 281:  0.00 282:  0.00 283:  0.00 284:  0.00 285:  0.00 286:  0.00 287:  0.00 288:  0.00
 289:  0.00 290:  0.00 291:  0.00 292:  0.00 293:  0.00 294:  0.00 295:  0.00 296:  0.00
 297:  0.00 298:  0.00 299:  0.00 300:  0.00 301:  0.00 302:  0.00 303:  0.00 304:  0.00
 305:  0.00 306:  0.00 307:  0.00 308:  0.00 309:  0.00 310:  0.00 311:  0.00 312:  0.00
 313:  0.00 314:  0.00 315:  0.00 316:  0.00 317:  0.00 318:  0.00 319:  0.00 320:  0.00
 321:  0.00 322:  0.00 323:  0.00 324:  0.00 325:  0.00 326:  0.00 327:  0.00 328:  0.00
 329:  0.00 330:  0.00 331:  0.00 332:  0.00 333:  0.00 334:  0.00 335:  0.00 336:  0.00
 337:  0.00 338:  0.00 339:  0.00 340:  0.00 341:  0.00 342:  0.00 343:  0.00 344:  0.00
 345:  0.00 346:  0.00 347:  0.00 348:  0.00 349:  0.00 350:  0.00 351:  0.00 352:  0.00
 353:  0.00 354:  0.00 355:  0.00 356:  0.00 357:  0.00 358:  0.00 359:  0.00 360:  0.00
 361:  0.00 362:  0.00 363:  0.00 364:  0.00 365:  0.00 366:  0.00 367:  0.00 368:  0.00
 369:  0.00 370:  0.00 371:  0.00 372:  0.00 373:  0.00 374:  0.00 375:  0.00 376:  0.00
 377:  0.00 378:  0.00 379:  0.00 380:  0.00 381:  0.00 382:  0.00 383:  0.00 384:  0.00
 385:  0.00 386:  0.00 387:  0.00 388:  0.00 389:  0.00 390:  0.00 391:  0.00 392:  0.00
 393:  0.00 394:  0.00 395:  0.00 396:  0.00 397:  0.00 398:  0.00 399:  0.00 400:  0.00
 401:  0.00 402:  0.00 403:  0.00 404:  0.00 405:  0.00 406:  0.00 407:  0.00 408:  0.00
 409:  0.00 410:  0.00 411:  0.00 412:  0.00 413:  0.00 414:  0.00 415:  0.00 416:  0.00
 417:  0.00 418:  0.00 419:  0.00 420:  0.00 421:  0.00 422:  0.00 423:  0.00 424:  0.00
 425:  0.00 426:  0.00 427:  0.00 428:  0.00 429:  0.00 430:  0.00 431:  0.00 432:  0.00
 433:  0.00 434:  0.00 435:  0.00 436:  0.00 437:  0.00 438:  0.00 439:  0.00 440:  0.00
 441:  0.00 442:  0.00 443:  0.00 444:  0.00 445:  0.00 446:  0.00 447:  0.00 448:  0.00
 449:  0.00 450:  0.00 451:  0.00 452:  0.00 453:  0.00 454:  0.00 455:  0.00 456:  0.00
 457:  0.00 458:  0.00 459:  0.00 460:  0.00 461:  0.00 462:  0.00 463:  0.00 464:  0.00
 465:  0.00 466:  0.00 467:  0.00 468:  0.00 469:  0.00 470:  0.00 471:  0.00 472:  0.00
 473:  0.00 474:  0.00 475:  0.00 476:  0.00 477:  0.00 478:  0.00 479:  0.00 480:  0.00
 481:  0.00 482:  0.00 483:  0.00 484:  0.00 485:  0.00 486:  0.00 487:  0.00 488:  0.00
 489:  0.00 490:  0.00 491:  0.00 492:  0.00 493:  0.00 494:  0.00 495:  0.00 496:  0.00
 497:  0.00 498:  0.00 499:  0.00 500:  0.00 501:  0.00 502:  0.00 503:  0.00 504:  0.00
 505:  0.00 506:  0.00 507:  0.00 508:  0.00 509:  0.00 510:  0.00 511:  0.00 512:  0.00
 513:  0.00 514:  0.00 515:  0.00 516:  0.00 517:  0.00 518:  0.00 519:  0.00 520:  0.00
Refinement of some symmetry elements was terminated before convergence was reached.
Some symmetry elements may remain unidentified.
Molecule has no symmetry elements
It seems to be the C1 point group
 521:  0.00 522:  0.00 523:  0.00 524:  0.00 525:  0.00 526:  0.00 527:  0.00 528:  0.00
 529:  0.00 530:  0.00 531:  0.00 532:  0.00 533:  0.00 534:  0.00 535:  0.00 536:  0.00
 537:  0.00 538:  0.00 539:  0.00 540:  0.00 541:  0.00 542:  0.00 543:  0.00 544:  0.00
 545:  0.00 546:  0.00 547:  0.00 548:  0.00 549:  0.00 550:  0.00 551:  0.00 552:  0.00
 553:  0.00 554:  0.00 555:  0.00 556:  0.00 557:  0.00 558:  0.00 559:  0.00 560:  0.00
 561:  0.00 562:  0.00 563:  0.00 564:  0.00 565:  0.00 566:  0.00 567:  0.00 568:  0.00
 569:  0.00 570:  0.00
 output can be read by thermo (or use thermo option).
 writing <g98.out> molden fake output.
 recommended (thermochemical) frequency scaling factor: 1.0
           -------------------------------------------------
          |             Thermodynamic Functions             |
           -------------------------------------------------

c1  symmetry found (for desy threshold:  0.10E+00) used in thermo
 inverting freq            1   2.1052541127498450     
 inverting freq            2   1.1873741563340932     

          ...................................................
          :                      SETUP                      :
          :.................................................:
          :  # frequencies                         564      :
          :  # imaginary freq.                       0      :
          :  linear?                             false      :
          :  only rotor calc.                    false      :
          :  symmetry                               c1      :
          :  rotational number                       1      :
          :  scaling factor                  1.0000000      :
          :  rotor cutoff                   50.0000000 cm⁻¹ :
          :  imag. cutoff                  -20.0000000 cm⁻¹ :
          :.................................................:

    mode    ω/cm⁻¹     T·S(HO)/kcal·mol⁻¹    T·S(FR)/kcal·mol⁻¹   T·S(vib)
   ------------------------------------------------------------------------
       1      2.11    -3.31161 (  0.00%)    -1.99491 (100.00%)    -1.99492
       2      1.19    -3.65092 (  0.00%)    -2.16456 (100.00%)    -2.16456
       3      2.62    -3.18285 (  0.00%)    -1.93054 (100.00%)    -1.93055
       4      6.54    -2.63999 (  0.03%)    -1.65910 ( 99.97%)    -1.65938
       5      7.78    -2.53705 (  0.06%)    -1.60762 ( 99.94%)    -1.60817
       6      8.38    -2.49321 (  0.08%)    -1.58570 ( 99.92%)    -1.58642
       7     10.39    -2.36561 (  0.19%)    -1.52189 ( 99.81%)    -1.52346
       8     11.25    -2.31895 (  0.26%)    -1.49855 ( 99.74%)    -1.50065
       9     13.26    -2.22134 (  0.49%)    -1.44974 ( 99.51%)    -1.45354
      10     14.62    -2.16358 (  0.73%)    -1.42084 ( 99.27%)    -1.42623
      11     15.58    -2.12576 (  0.93%)    -1.40193 ( 99.07%)    -1.40869
      12     16.04    -2.10865 (  1.05%)    -1.39337 ( 98.95%)    -1.40086
      13     20.58    -1.96097 (  2.79%)    -1.31948 ( 97.21%)    -1.33739
      14     21.03    -1.94819 (  3.04%)    -1.31308 ( 96.96%)    -1.33236
      15     28.73    -1.76359 (  9.83%)    -1.22068 ( 90.17%)    -1.27405
      16     36.34    -1.62467 ( 21.82%)    -1.15107 ( 78.18%)    -1.25440
      17     37.25    -1.61005 ( 23.55%)    -1.14374 ( 76.45%)    -1.25357
      18     39.88    -1.56975 ( 28.81%)    -1.12353 ( 71.19%)    -1.25210
      19     41.75    -1.54264 ( 32.72%)    -1.10994 ( 67.28%)    -1.25152
      20     43.58    -1.51742 ( 36.59%)    -1.09728 ( 63.41%)    -1.25100
      21     43.88    -1.51329 ( 37.24%)    -1.09521 ( 62.76%)    -1.25090
      22     47.00    -1.47280 ( 43.84%)    -1.07488 ( 56.16%)    -1.24934
      23     47.51    -1.46642 ( 44.91%)    -1.07168 ( 55.09%)    -1.24896
      24     51.01    -1.42451 ( 52.00%)    -1.05063 ( 48.00%)    -1.24504
      25     51.70    -1.41658 ( 53.34%)    -1.04664 ( 46.66%)    -1.24397
      26     54.55    -1.38497 ( 58.62%)    -1.03075 ( 41.38%)    -1.23840
      27     55.58    -1.37396 ( 60.42%)    -1.02521 ( 39.58%)    -1.23594
      28     62.86    -1.30155 ( 71.41%)    -0.98876 ( 28.59%)    -1.21212
      29     64.06    -1.29038 ( 72.94%)    -0.98313 ( 27.06%)    -1.20723
      30     65.53    -1.27705 ( 74.69%)    -0.97641 ( 25.31%)    -1.20095
      31     70.27    -1.23605 ( 79.60%)    -0.95573 ( 20.40%)    -1.17886
      32     72.90    -1.21451 ( 81.88%)    -0.94485 ( 18.12%)    -1.16565
      33     76.06    -1.18960 ( 84.27%)    -0.93226 ( 15.73%)    -1.14911
      34     81.69    -1.14780 ( 87.70%)    -0.91111 ( 12.30%)    -1.11867
      35     85.68    -1.11999 ( 89.61%)    -0.89701 ( 10.39%)    -1.09681
      36     94.05    -1.06562 ( 92.60%)    -0.86940 (  7.40%)    -1.05110
      37     94.53    -1.06261 ( 92.74%)    -0.86786 (  7.26%)    -1.04847
      38     98.97    -1.03591 ( 93.88%)    -0.85427 (  6.12%)    -1.02480
      39    103.95    -1.00741 ( 94.92%)    -0.83974 (  5.08%)    -0.99889
      40    108.35    -0.98336 ( 95.66%)    -0.82745 (  4.34%)    -0.97660
      41    108.74    -0.98129 ( 95.72%)    -0.82639 (  4.28%)    -0.97466
      42    114.02    -0.95385 ( 96.43%)    -0.81233 (  3.57%)    -0.94880
      43    114.69    -0.95049 ( 96.51%)    -0.81061 (  3.49%)    -0.94561
      44    115.16    -0.94814 ( 96.57%)    -0.80940 (  3.43%)    -0.94337
      45    115.45    -0.94666 ( 96.60%)    -0.80865 (  3.40%)    -0.94197
      46    120.13    -0.92377 ( 97.09%)    -0.79689 (  2.91%)    -0.92007
      47    120.61    -0.92145 ( 97.13%)    -0.79569 (  2.87%)    -0.91784
      48    120.94    -0.91989 ( 97.16%)    -0.79489 (  2.84%)    -0.91634
      49    121.22    -0.91857 ( 97.19%)    -0.79422 (  2.81%)    -0.91507
      50    121.69    -0.91630 ( 97.23%)    -0.79305 (  2.77%)    -0.91289
      51    142.45    -0.82608 ( 98.50%)    -0.74639 (  1.50%)    -0.82488
      52    142.47    -0.82601 ( 98.51%)    -0.74635 (  1.49%)    -0.82482
      53    143.80    -0.82072 ( 98.56%)    -0.74361 (  1.44%)    -0.81961
      54    144.09    -0.81958 ( 98.57%)    -0.74301 (  1.43%)    -0.81849
      55    144.58    -0.81763 ( 98.59%)    -0.74199 (  1.41%)    -0.81656
      56    160.30    -0.75918 ( 99.06%)    -0.71143 (  0.94%)    -0.75873
      57    167.17    -0.73554 ( 99.21%)    -0.69898 (  0.79%)    -0.73525
      58    171.37    -0.72165 ( 99.28%)    -0.69164 (  0.72%)    -0.72144
      59    176.56    -0.70495 ( 99.36%)    -0.68279 (  0.64%)    -0.70481
      60    177.95    -0.70059 ( 99.38%)    -0.68047 (  0.62%)    -0.70046
      61    182.46    -0.68666 ( 99.44%)    -0.67306 (  0.56%)    -0.68658
      62    183.91    -0.68228 ( 99.46%)    -0.67073 (  0.54%)    -0.68222
      63    188.35    -0.66905 ( 99.51%)    -0.66365 (  0.49%)    -0.66903
      64    188.72    -0.66798 ( 99.51%)    -0.66308 (  0.49%)    -0.66795
      65    189.72    -0.66504 ( 99.52%)    -0.66150 (  0.48%)    -0.66502
      66    196.66    -0.64523 ( 99.58%)    -0.65086 (  0.42%)    -0.64526
      67    197.86    -0.64190 ( 99.59%)    -0.64906 (  0.41%)    -0.64192
      68    201.51    -0.63186 ( 99.62%)    -0.64364 (  0.38%)    -0.63190
      69    202.13    -0.63017 ( 99.63%)    -0.64273 (  0.37%)    -0.63022
      70    202.74    -0.62852 ( 99.63%)    -0.64184 (  0.37%)    -0.62857
      71    202.97    -0.62790 ( 99.63%)    -0.64150 (  0.37%)    -0.62795
      72    203.39    -0.62678 ( 99.64%)    -0.64090 (  0.36%)    -0.62683
      73    211.57    -0.60527 ( 99.69%)    -0.62921 (  0.31%)    -0.60535
      74    218.72    -0.58726 ( 99.73%)    -0.61937 (  0.27%)    -0.58735
      75    226.90    -0.56747 ( 99.76%)    -0.60848 (  0.24%)    -0.56757
      76    244.03    -0.52870 ( 99.82%)    -0.58692 (  0.18%)    -0.52881
      77    257.85    -0.49979 ( 99.86%)    -0.57061 (  0.14%)    -0.49989
      78    260.85    -0.49376 ( 99.87%)    -0.56718 (  0.13%)    -0.49386
      79    262.91    -0.48967 ( 99.87%)    -0.56485 (  0.13%)    -0.48976
      80    264.91    -0.48574 ( 99.87%)    -0.56261 (  0.13%)    -0.48584
      81    265.66    -0.48428 ( 99.87%)    -0.56177 (  0.13%)    -0.48438
      82    266.34    -0.48296 ( 99.88%)    -0.56102 (  0.12%)    -0.48306
      83    267.36    -0.48098 ( 99.88%)    -0.55988 (  0.12%)    -0.48108
      84    268.08    -0.47958 ( 99.88%)    -0.55908 (  0.12%)    -0.47968
      85    268.12    -0.47951 ( 99.88%)    -0.55904 (  0.12%)    -0.47961
      86    271.14    -0.47374 ( 99.88%)    -0.55572 (  0.12%)    -0.47383
      87    273.06    -0.47010 ( 99.89%)    -0.55362 (  0.11%)    -0.47019
      88    277.29    -0.46223 ( 99.89%)    -0.54907 (  0.11%)    -0.46232
      89    278.63    -0.45977 ( 99.90%)    -0.54765 (  0.10%)    -0.45987
      90    285.00    -0.44825 ( 99.91%)    -0.54095 (  0.09%)    -0.44834
      91    292.53    -0.43509 ( 99.91%)    -0.53323 (  0.09%)    -0.43517
      92    297.47    -0.42669 ( 99.92%)    -0.52827 (  0.08%)    -0.42677
   ------------------------------------------------------------------------

   temp. (K)  partition function   enthalpy   heat capacity  entropy
                                   cal/mol     cal/K/mol   cal/K/mol   J/K/mol
 298.15  VIB  0.568E+54            62448.209    407.405    399.472
         ROT  0.298E+10              888.752      2.981     46.331
         INT  0.169E+64            63336.961    410.386    445.803
         TR   0.642E+29             1481.254      4.968     48.034
         TOT                       64818.2153   415.3544   493.8371  2066.2145

       T/K    H(0)-H(T)+PV         H(T)/Eh          T*S/Eh         G(T)/Eh
   ------------------------------------------------------------------------
    298.15    0.103294E+00    0.148775E+01    0.234638E+00    0.125311E+01
   ------------------------------------------------------------------------

         :::::::::::::::::::::::::::::::::::::::::::::::::::::
         ::                  THERMODYNAMIC                  ::
         :::::::::::::::::::::::::::::::::::::::::::::::::::::
         :: total free energy        -319.867250731240 Eh   ::
         ::.................................................::
         :: total energy             -321.120365221147 Eh   ::
         :: zero point energy           1.384458039646 Eh   ::
         :: G(RRHO) w/o ZPVE           -0.131343549739 Eh   ::
         :: G(RRHO) contrib.            1.253114489907 Eh   ::
         :::::::::::::::::::::::::::::::::::::::::::::::::::::

optimized geometry written to: xtbopt.xyz


           -------------------------------------------------
          | TOTAL ENERGY             -321.120365221147 Eh   |
          | TOTAL ENTHALPY           -319.632612780438 Eh   |
          | TOTAL FREE ENERGY        -319.867250731240 Eh   |
          | GRADIENT NORM               0.000526303776 Eh/α |
          | HOMO-LUMO GAP               0.781643148203 eV   |
           -------------------------------------------------

------------------------------------------------------------------------
 * finished run on 2021/11/19 at 16:12:02.642     
------------------------------------------------------------------------
 total:
 * wall-time:     0 d,  0 h, 16 min, 50.004 sec
 *  cpu-time:     0 d,  0 h, 16 min, 50.000 sec
 * ratio c/w:     1.000 speedup
 SCF:
 * wall-time:     0 d,  0 h,  0 min,  2.799 sec
 *  cpu-time:     0 d,  0 h,  0 min,  2.799 sec
 * ratio c/w:     1.000 speedup
 ANC optimizer:
 * wall-time:     0 d,  0 h,  1 min, 34.782 sec
 *  cpu-time:     0 d,  0 h,  1 min, 34.771 sec
 * ratio c/w:     1.000 speedup
 analytical hessian:
 * wall-time:     0 d,  0 h, 15 min, 11.997 sec
 *  cpu-time:     0 d,  0 h, 15 min, 12.005 sec
 * ratio c/w:     1.000 speedup

