190
 energy: -319.518699697742 gnorm: 1.826444624717 xtb: 6.4.1 (bd6e46d)
C        39.90743500000000    3.51184400000000    0.78960600000000
C        40.79741300000000    2.57158400000000    0.59141000000000
C        40.13591200000000    1.31151000000000    0.29060300000000
C        40.49435000000000    0.00584700000000    0.00192200000000
C        39.66917200000000   -1.12522500000000   -0.08329500000000
C        40.12473700000000   -2.33394900000000    0.49801300000000
C        39.15204300000000   -3.26649500000000    0.29785700000000
C        38.12094900000000   -2.59879400000000   -0.40513000000000
N        38.45767400000000   -1.31793500000000   -0.62204400000000
C        36.96298800000001   -3.32491000000000   -0.73684700000000
C        35.64488700000000   -2.88221400000000   -0.62331200000000
C        34.33254100000000   -3.48434800000000   -0.72029100000000
C        33.41091300000000   -2.53770000000000   -0.51420700000000
C        34.10779900000000   -1.29187000000000   -0.27747500000000
N        35.42887200000000   -1.57162200000000   -0.35716100000000
C        33.70855700000000    0.01012700000000   -0.00947200000000
C        34.54116900000000    1.14680300000000    0.06643600000000
C        34.10702600000000    2.34879300000000   -0.54370400000000
C        35.10253900000000    3.26518100000000   -0.35174800000000
C        36.11669000000000    2.59193800000000    0.37218300000000
N        35.75149300000000    1.32411600000000    0.61100700000000
C        37.28633100000000    3.29889500000000    0.69368200000000
C        38.60158500000000    2.89537000000000    0.62366700000000
N        38.79120700000001    1.58426600000000    0.32726500000000
H        40.07470000000000    4.54038700000000    1.02819500000000
H        41.86767200000001    2.69492200000000    0.64042900000000
H        41.08525800000000   -2.51965100000000    1.01658900000000
H        39.18892400000000   -4.32310500000000    0.62318500000000
H        37.85438900000000   -0.55052400000000   -1.16956300000000
H        37.05137900000000   -4.36033700000000   -1.11519400000000
H        34.13386600000000   -4.54504900000000   -0.92903600000000
H        32.34150300000000   -2.72963400000000   -0.53344000000000
H        32.63361400000000    0.09939700000000    0.12827200000000
H        33.15337200000000    2.54035000000000   -1.07250200000000
H        35.08811800000000    4.31541000000000   -0.69819000000000
H        36.34481800000000    0.56667300000000    1.18300300000000
H        37.21782400000000    4.35629900000000    1.05039800000000
C        77.44352200000002   -3.49177900000000    0.82597600000000
C        76.55354400000000   -2.55362900000000    0.61802600000000
C        77.21504600000002   -1.29674600000000    0.30414800000000
C        76.85660700000000    0.00584700000000    0.00192200000000
C        77.68178600000000    1.13597300000000   -0.09503700000000
C        77.22622000000000    2.35067000000000    0.47368500000000
C        78.19891500000000    3.28108700000000    0.26385600000000
C        79.23000800000000    2.60612100000000   -0.43215900000000
N        78.89328300000000    1.32307700000000   -0.63575900000000
C        80.38796900000000    3.32875200000000   -0.77140000000000
C        81.70607000000000    2.88725900000000   -0.65327300000000
C        83.01841600000000    3.48835400000000   -0.75650100000000
C        83.94004400000000    2.54389700000000   -0.54059600000000
C        83.24315799999999    1.30059300000000   -0.29093800000000
N        81.92208500000000    1.57950200000000   -0.37352500000000
C        83.64239999999999    0.00144900000000   -0.00942700000000
C        82.80978800000000   -1.13437700000000    0.07828300000000
C        83.24393100000000   -2.34263900000000   -0.51934100000000
C        82.24841800000000   -3.25698400000000   -0.31787800000000
C        81.23426700000000   -2.57625900000000    0.39902100000000
N        81.59946400000000   -1.30602500000000    0.62466500000000
C        80.06462600000000   -3.27983800000000    0.72784600000000
C        78.74937300000001   -2.87706200000000    0.65364300000000
N        78.55974999999999   -1.56910700000000    0.34364000000000
H        77.27625700000000   -4.51778900000000    1.07523500000000
H        75.48328500000001   -2.67645000000000    0.66832200000000
H        76.26569900000000    2.54174800000000    0.99030500000000
H        78.16203300000001    4.34101800000000    0.57819100000000
H        79.49656800000001    0.55002200000000   -1.17527900000000
H        80.29957800000001    4.36019400000000   -1.16048000000000
H        83.21709199999999    4.54682900000000   -0.97625100000000
H        85.00945400000001    2.73562100000000   -0.56182100000000
H        84.71734300000000   -0.08638500000000    0.12923700000000
H        84.19758600000000   -2.53967800000000   -1.04612100000000
H        82.26284000000000   -4.31075400000000   -0.65339400000000
H        81.00614000000000   -0.54268100000000    1.18876400000000
H        80.13313400000001   -4.33348100000000    1.09552500000000
C        42.72179400000001    0.00584700000000    0.00192200000000
C        43.93799900000000    0.00584700000000    0.00192200000000
C        52.95218200000000    0.00584700000000    0.00192200000000
C        54.16838700000000    0.00584700000000    0.00192200000000
C        63.18257000000000    0.00584700000000    0.00192200000000
C        64.39877500000000    0.00584700000000    0.00192200000000
C        73.41295800000000    0.00584700000000    0.00192200000000
C        74.62916300000002    0.00584700000000    0.00192200000000
C        45.65314700000000   -3.59371300000000    0.00043200000000
C        44.77859700000000   -2.59880800000000   -0.00987000000000
C        45.45006100000000   -1.32002500000000    0.00331900000000
C        45.05303000000000   -0.00444000000000   -0.00145900000000
C        45.86422300000000    1.13988400000000   -0.15558500000000
C        45.38519700000000    2.19240000000000   -0.96765100000000
C        46.37228200000001    3.13515300000000   -0.95912000000000
C        47.41955300000000    2.63335800000000   -0.14631700000000
N        47.08070000000000    1.42699100000000    0.32642900000000
C        48.57993100000000    3.41134100000000    0.00803300000000
C        49.90092000000000    2.95346800000000   -0.02136000000000
C        51.21348900000000    3.58160100000000   -0.08248800000000
C        52.12760200000000    2.62653700000000   -0.08507100000000
C        51.45405500000000    1.33966300000000   -0.02588200000000
N        50.14199700000000    1.62826200000000    0.00890800000000
C        51.85633900000001   -0.00444000000000   -0.00145900000000
C        51.02418500000000   -1.11822900000000    0.18082200000000
C        51.46414300000000   -2.14988600000000    1.04413300000000
C        50.46596100000000   -3.07322600000000    1.04875400000000
C        49.44304500000001   -2.59328800000000    0.19532400000000
N        49.81022200000000   -1.41204100000000   -0.31518400000000
C        48.28613600000001   -3.36869600000000    0.03825600000000
C        46.96536100000000   -2.94921800000000    0.02157100000000
N        46.78897000000000   -1.61101400000000    0.02247100000000
H        45.48462800000000   -4.65588000000000   -0.00497100000000
H        43.69076900000000   -2.78484400000000   -0.02689700000000
H        44.42111900000000    2.26777200000000   -1.50196700000000
H        46.33413500000001    4.10626800000000   -1.49156200000000
H        47.68837900000000    0.78989100000000    1.01505900000000
H        48.52483100000000    4.49760300000000    0.15214900000000
H        51.43191600000000    4.64959300000000   -0.12081800000000
H        53.20391700000000    2.77258000000000   -0.12469800000000
H        52.41815300000000   -2.21429800000000    1.60168100000000
H        50.49137900000001   -4.01854400000000    1.62407400000000
H        49.22314600000000   -0.79258500000000   -1.03883400000000
H        48.34685400000001   -4.48043600000000   -0.07587300000000
C        55.88353500000000   -3.59371300000000    0.00043200000000
C        55.00898500000000   -2.59880800000000   -0.00987000000000
C        55.68044900000001   -1.32002500000000    0.00331900000000
C        55.28341800000000   -0.00444000000000   -0.00145900000000
C        56.09461000000001    1.13988400000000   -0.15558500000000
C        55.61558500000001    2.19240000000000   -0.96765100000000
C        56.60267000000001    3.13515300000000   -0.95912000000000
C        57.64994100000000    2.63335800000000   -0.14631700000000
N        57.31108800000000    1.42699100000000    0.32642900000000
C        58.81031900000000    3.41134100000000    0.00803300000000
C        60.13130800000000    2.95346800000000   -0.02136000000000
C        61.44387700000000    3.58160100000000   -0.08248800000000
C        62.35799000000000    2.62653700000000   -0.08507100000000
C        61.68444300000001    1.33966300000000   -0.02588200000000
N        60.37238500000000    1.62826200000000    0.00890800000000
C        62.08672700000001   -0.00444000000000   -0.00145900000000
C        61.25457300000000   -1.11822900000000    0.18082200000000
C        61.69453100000000   -2.14988600000000    1.04413300000000
C        60.69634900000000   -3.07322600000000    1.04875400000000
C        59.67343300000000   -2.59328800000000    0.19532400000000
N        60.04061000000000   -1.41204100000000   -0.31518400000000
C        58.51652400000000   -3.36869600000000    0.03825600000000
C        57.19574900000000   -2.94921800000000    0.02157100000000
N        57.01935800000000   -1.61101400000000    0.02247100000000
H        55.71501600000000   -4.65588000000000   -0.00497100000000
H        53.92115700000000   -2.78484400000000   -0.02689700000000
H        54.65150700000001    2.26777200000000   -1.50196700000000
H        56.56452300000000    4.10626800000000   -1.49156200000000
H        57.91876700000000    0.78989100000000    1.01505900000000
H        58.75521900000000    4.49760300000000    0.15214900000000
H        61.66230400000001    4.64959300000000   -0.12081800000000
H        63.43430500000000    2.77258000000000   -0.12469800000000
H        62.64854000000000   -2.21429800000000    1.60168100000000
H        60.72176700000000   -4.01854400000000    1.62407400000000
H        59.45353400000000   -0.79258500000000   -1.03883400000000
H        58.57724200000001   -4.48043600000000   -0.07587300000000
C        66.11392300000000   -3.59371300000000    0.00043200000000
C        65.23937300000000   -2.59880800000000   -0.00987000000000
C        65.91083700000000   -1.32002500000000    0.00331900000000
C        65.51380600000000   -0.00444000000000   -0.00145900000000
C        66.32499799999999    1.13988400000000   -0.15558500000000
C        65.84597300000000    2.19240000000000   -0.96765100000000
C        66.83305799999999    3.13515300000000   -0.95912000000000
C        67.88032900000000    2.63335800000000   -0.14631700000000
N        67.54147600000000    1.42699100000000    0.32642900000000
C        69.04070600000000    3.41134100000000    0.00803300000000
C        70.36169599999999    2.95346800000000   -0.02136000000000
C        71.67426500000001    3.58160100000000   -0.08248800000000
C        72.58837800000001    2.62653700000000   -0.08507100000000
C        71.91483100000001    1.33966300000000   -0.02588200000000
N        70.60277300000000    1.62826200000000    0.00890800000000
C        72.31711500000002   -0.00444000000000   -0.00145900000000
C        71.48496000000000   -1.11822900000000    0.18082200000000
C        71.92491900000000   -2.14988600000000    1.04413300000000
C        70.92673700000002   -3.07322600000000    1.04875400000000
C        69.90382099999999   -2.59328800000000    0.19532400000000
N        70.27099800000001   -1.41204100000000   -0.31518400000000
C        68.74691200000001   -3.36869600000000    0.03825600000000
C        67.42613600000000   -2.94921800000000    0.02157100000000
N        67.24974600000000   -1.61101400000000    0.02247100000000
H        65.94540400000000   -4.65588000000000   -0.00497100000000
H        64.15154500000000   -2.78484400000000   -0.02689700000000
H        64.88189500000000    2.26777200000000   -1.50196700000000
H        66.79491100000000    4.10626800000000   -1.49156200000000
H        68.14915500000001    0.78989100000000    1.01505900000000
H        68.98560700000000    4.49760300000000    0.15214900000000
H        71.89269200000000    4.64959300000000   -0.12081800000000
H        73.66469300000000    2.77258000000000   -0.12469800000000
H        72.87892800000002   -2.21429800000000    1.60168100000000
H        70.95215500000000   -4.01854400000000    1.62407400000000
H        69.68392200000000   -0.79258500000000   -1.03883400000000
H        68.80763000000000   -4.48043600000000   -0.07587300000000
190
 energy: -320.125743051542 gnorm: 0.589477034926 xtb: 6.4.1 (bd6e46d)
C        39.90116371060159    3.51524891820533    0.79112806488380
C        40.80758790420897    2.56623344936035    0.58920995958167
C        40.13214291292624    1.31237497994293    0.28687577100685
C        40.51646923478791    0.01294272771651    0.00600090685457
C        39.68743354527906   -1.11967754012409   -0.08067107537383
C        40.13102452878782   -2.33725370331205    0.49843542343980
C        39.15499930521607   -3.26945034459224    0.29463180219090
C        38.11575351168350   -2.60651548040621   -0.40803538801717
N        38.45478639779894   -1.31099581821027   -0.62325455513766
C        36.95302487770026   -3.32824811794320   -0.74111936834411
C        35.64345754393234   -2.87160886558556   -0.62660678040853
C        34.33300161482455   -3.49169424143574   -0.72324247297738
C        33.40672301304232   -2.54003723817800   -0.51359850621647
C        34.11687613323593   -1.29526001057944   -0.27305357880294
N        35.43734532374220   -1.56405091063171   -0.35514669797898
C        33.70552155131850    0.00143127371487   -0.00783381211879
C        34.53171066544139    1.14219815564167    0.06503721724729
C        34.10253331169844    2.35107326397373   -0.54168263203181
C        35.09972408570454    3.26823638401744   -0.34907387690879
C        36.12189723117223    2.60136633384213    0.37403545924893
N        35.75790705914731    1.31814098826961    0.61005838545630
C        37.29304994471636    3.30774150135255    0.69997527129410
C        38.60150814844496    2.88251250309080    0.62543545390832
N        38.79104473148865    1.57585120876543    0.32550054224861
H        40.07333433859362    4.54281514508425    1.02888728596319
H        41.87078059821970    2.69305771813764    0.63996469744287
H        41.08010634369669   -2.51619492478335    1.01395800113217
H        39.18638334499424   -4.31593913351692    0.62042049165342
H        37.86498750919669   -0.56498010777209   -1.15646069113909
H        37.05296038534264   -4.35860656609245   -1.10786487760276
H        34.13552842964892   -4.54241349351882   -0.92863507701421
H        32.34213203799475   -2.72646858579571   -0.53263115666433
H        32.63348063423860    0.10328693451071    0.12332835592511
H        33.15932161518180    2.53667500697490   -1.06917774232976
H        35.09050948383189    4.30832731548983   -0.69542686856223
H        36.33421626511134    0.58072620376704    1.16920674350715
H        37.21412925225680    4.35445204493914    1.04368114622242
C        77.44978617880196   -3.49517810582316    0.82755598478957
C        76.54341074062141   -2.54829402047032    0.61585606012397
C        77.21877143827149   -1.29768704463387    0.30049714462016
C        76.83452696636222   -0.00133763605864    0.00652640988015
C        77.66354840144321    1.13047978840795   -0.09235105297833
C        77.21992453877232    2.35395637916097    0.47404635364185
C        78.19598591811327    3.28401423203241    0.26058842879754
C        79.23518844284061    2.61382530820530   -0.43513318732540
N        78.89617632471149    1.31611781972283   -0.63687600020313
C        80.39795150673626    3.33205077189353   -0.77572206913524
C        81.70749246856330    2.87663932615330   -0.65646083377385
C        83.01795542213191    3.49567298922031   -0.75954053433242
C        83.94423125787543    2.54624255944778   -0.54002461096369
C        83.23407365860352    1.30403406378243   -0.28656618355378
N        81.91361734377088    1.57194150441179   -0.37143708163366
C        83.64543578366599    0.01015333969774   -0.00788879573646
C        82.81924511764311   -1.12978545162642    0.07682502666874
C        83.24842239025223   -2.34490081535434   -0.51730791046028
C        82.25123270277773   -3.26001413128434   -0.31518097811033
C        81.22905555727044   -2.58566420784591    0.40096040569763
N        81.59304884284495   -1.30005858545956    0.62364503316131
C        80.05789922767210   -3.28862432174849    0.73420909223180
C        78.74943567503837   -2.86419514670751    0.65523543434515
N        78.55987327716400   -1.56068908100924    0.34187178491040
H        77.27762527188412   -4.52021998242472    1.07595037065747
H        75.48026033244922   -2.67463561054402    0.66768069817916
H        76.27085555577504    2.53827287526812    0.98770621728890
H        78.16457398022411    4.33382237467972    0.57549388292122
H        79.48596638353007    0.56461051268323   -1.16233511460219
H        80.29799959792162    4.35853527704521   -1.15316027172068
H        83.21542906796519    4.54419755593098   -0.97583327807030
H        85.00882279226840    2.73246370338707   -0.56099081237667
H        84.71747608126313   -0.09032670104030    0.12432266492982
H        84.19163433920009   -2.53596910839652   -1.04284704575050
H        82.26044759526512   -4.30364304069733   -0.65071651180834
H        81.01674316118965   -0.55687430844218    1.17510386188022
H        80.13683036376869   -4.33170543135037    1.08877715992791
C        42.64937508084749    0.01016480482575    0.00142805186922
C        43.84620685381377    0.01144383323089    0.00082023639779
C        52.99511440761221    0.00517137815432    0.00211721773686
C        54.13572558848818    0.00918744725575    0.00245634193084
C        63.22536762781263    0.00519379338112    0.00203058406955
C        64.36601075510140    0.00921486866682    0.00237049612333
C        73.51119269614047    0.00297829149205    0.00380825684952
C        74.70626198030956    0.00136322584128    0.00003134241018
C        45.66057408661780   -3.59628429521746   -0.00042446635777
C        44.76910298871928   -2.59922298149844   -0.00925969835891
C        45.47881311003634   -1.33727799808422    0.00642160931528
C        45.11058667118820   -0.00994125658489   -0.00090240828201
C        45.87294319758916    1.14122342666977   -0.15853761083585
C        45.38441795516921    2.19326824158838   -0.96605258812128
C        46.37233720339769    3.14175061361182   -0.95739184348704
C        47.42430996327300    2.64461777995935   -0.14675488279689
N        47.09075753307544    1.42480223557541    0.32835116314040
C        48.59347350329508    3.41620802401393    0.01135645386916
C        49.90021519914347    2.95252595254183   -0.01723846506155
C        51.20977094226468    3.59151669183996   -0.08091917889993
C        52.13254597378608    2.62359563790116   -0.08541159743206
C        51.41737749749920    1.35907937923852   -0.02875920563140
N        50.12614044632606    1.62147492852445    0.00747276489277
C        51.77139165060544    0.00457451636733   -0.00334664724599
C        51.00596803170192   -1.12431942375566    0.18501122572303
C        51.46469772233679   -2.14866325994850    1.04279405459143
C        50.46577957346496   -3.08133691559420    1.04768166437205
C        49.43857550050465   -2.60611493532875    0.19658113245674
N        49.79887616984822   -1.41105661581043   -0.31751667248455
C        48.27650874920740   -3.38041330364557    0.03408854439375
C        46.96798636935900   -2.94442028653826    0.01751228712204
N        46.79539611889140   -1.60759323754282    0.02349261758702
H        45.48574477606108   -4.65569853967379   -0.00503163208967
H        43.69278536378629   -2.77991214261770   -0.02682493293908
H        44.42754072057160    2.26403324810068   -1.49756296060786
H        46.33672465435684    4.10055405304295   -1.48765516548727
H        47.67836996856636    0.80124753969037    0.99962591597710
H        48.52211228661371    4.49639755935597    0.14633582768506
H        51.42922282158888    4.64940294618942   -0.12073494636995
H        53.20244371264609    2.77013021238579   -0.12391662914749
H        52.41114367993686   -2.21014234869579    1.59722939048175
H        50.48845885653920   -4.01395215610280    1.61993440638280
H        49.23294044879671   -0.80383994369817   -1.02278118460381
H        48.35087390920856   -4.47711264911801   -0.07021984120689
C        55.89151747414412   -3.59736775512670   -0.00050917945385
C        55.00061704451934   -2.59922718850468   -0.00959441894114
C        55.71842678135077   -1.34299051226516    0.00578761555849
C        55.35994382446418   -0.00969805211934   -0.00048036506786
C        56.10978478218000    1.14507873275024   -0.15974809829508
C        55.61645622520430    2.19188412806642   -0.96664285716606
C        56.60369398946508    3.14255602563974   -0.95694629837120
C        57.65474643408515    2.64561650626898   -0.14690270577111
N        57.32190318512045    1.42617002851547    0.32842468489796
C        58.82440099804289    3.41637828118370    0.01118956994956
C        60.13047687589029    2.95284977959843   -0.01745658680125
C        61.44012645390056    3.59153288315213   -0.08082370177565
C        62.36286514194081    2.62358627398374   -0.08543877742991
C        61.64771453259790    1.35921884852184   -0.02857937265616
N        60.35672565342726    1.62133181404924    0.00753037584054
C        62.00191175396085    0.00459496928064   -0.00344150564011
C        61.23626888440933   -1.12455838787227    0.18503352846739
C        61.69501858528203   -2.14838832722407    1.04276730927868
C        60.69569887160462   -3.08129602024017    1.04758409598552
C        59.66925330291349   -2.60594680602317    0.19666066309400
N        60.02948285679021   -1.41112807340283   -0.31751189641338
C        58.50566123226522   -3.38040278585782    0.03408932010511
C        57.19956065238386   -2.94714494471914    0.01782713059596
N        57.02531425338442   -1.60742743754823    0.02370309838817
H        55.71604717918150   -4.65601256339679   -0.00497922449592
H        53.92373754602654   -2.77976720678324   -0.02711582839472
H        54.65914398673354    2.26343741287864   -1.49844138184393
H        56.56711829514374    4.10084396813994   -1.48755912743245
H        57.90865193294165    0.80139535653100    0.99963655121950
H        58.75263549393486    4.49647962473494    0.14639286928604
H        61.65962797441458    4.64940527257772   -0.12073321826298
H        63.43281960644804    2.77012746749594   -0.12393700960510
H        62.64150958693084   -2.21014311702612    1.59720383519379
H        60.71880271770122   -4.01396139128143    1.61989534124274
H        59.46331693618493   -0.80383645285834   -1.02277060745745
H        58.58120236779796   -4.47712564794941   -0.07040477628413
C        66.12185530200438   -3.59736759618075   -0.00043660297055
C        65.23094136867965   -2.59925088660009   -0.00961297315848
C        65.94878523679778   -1.34287026115651    0.00595763289509
C        65.59045820913047   -0.00966256241701   -0.00057233016200
C        66.34009441239758    1.14486471131434   -0.15973717457130
C        65.84677499658035    2.19213476161734   -0.96665144238019
C        66.83365175008711    3.14258468445477   -0.95704418735394
C        67.88542695695070    2.64576592958451   -0.14688513567513
N        67.55250028388440    1.42611225293939    0.32841881410472
C        69.05365877086732    3.41640912946667    0.01127214066887
C        70.36212572510256    2.95025203969832   -0.01714011099272
C        71.67106387723213    3.59047109710771   -0.08094684690779
C        72.59449135204007    2.62344348844692   -0.08565661463967
C        71.88674677935740    1.35406608889088   -0.02974193142560
N        70.58698108415058    1.62136627637561    0.00782627779057
C        72.25078810456307    0.00485270039879   -0.00310663423836
C        71.47296812286197   -1.12068451800703    0.18397291370872
C        71.92670781054260   -2.14980618927108    1.04224646716396
C        70.92702624202037   -3.08055711793057    1.04803477772828
C        69.89971832502093   -2.60498714074732    0.19644200962188
N        70.26059629460916   -1.40978059504099   -0.31736783584135
C        68.73658992959076   -3.38022217802471    0.03391968374614
C        67.42986485539086   -2.94682280540226    0.01760009779023
N        67.25587184959198   -1.60756728822413    0.02378704630162
H        65.94644865942176   -4.65601321453479   -0.00497572151175
H        64.15412091388977   -2.77977240522823   -0.02713668307777
H        64.88951001256814    2.26343695851865   -1.49846143344760
H        66.79746563936887    4.10083370172630   -1.48759341762380
H        68.13902212140151    0.80140585841738    0.99964381981879
H        68.98295705701156    4.49647337476866    0.14626786674290
H        71.88993091383537    4.64911628701030   -0.12068170926838
H        73.66429256621689    2.77006099598298   -0.12502905275915
H        72.87244291477811   -2.21053758688254    1.59695613875355
H        70.94918542356628   -4.01369222475145    1.62001175473226
H        69.69362062513459   -0.80368934662480   -1.02275921004721
H        68.81171852462809   -4.47703608738724   -0.07033003668561
190
 energy: -320.390518237753 gnorm: 0.357383214820 xtb: 6.4.1 (bd6e46d)
C        39.89480033095297    3.51330864823103    0.79345273043009
C        40.81826729679372    2.56271109675077    0.58531597309711
C        40.13233606311678    1.31591544409413    0.27764042669347
C        40.57075986280174    0.02848016027778    0.00787941656174
C        39.72476045208253   -1.11103775915041   -0.08025791193939
C        40.14244603901333   -2.34114906105564    0.49365001187053
C        39.16103194331078   -3.27041555953348    0.28499056694856
C        38.11359806380784   -2.61348591216637   -0.41257605232256
N        38.46363288997300   -1.30374558388869   -0.61557968055173
C        36.94128574317035   -3.32862761014815   -0.74869985876109
C        35.64209565144260   -2.85368207461333   -0.63521127901555
C        34.33502762211783   -3.49690713496014   -0.72864477774033
C        33.40577938513648   -2.54359826164946   -0.51110640643831
C        34.13129357988916   -1.30131827074734   -0.26244318604605
N        35.45111932344197   -1.55124134842262   -0.35137180813779
C        33.70176996993855   -0.01122708659463   -0.00330186992391
C        34.51931426900939    1.13710792618755    0.06382200098416
C        34.09652746317991    2.35371975552281   -0.53332507466245
C        35.09460614078854    3.27109466128262   -0.33991839146320
C        36.12756479228590    2.61436824013294    0.37751487107357
N        35.76317143637422    1.31588870678057    0.60030627623444
C        37.30263493443434    3.31651229990105    0.71039361697832
C        38.60228950353060    2.85894767670519    0.63141148686979
N        38.79302864290000    1.55816494786072    0.32158132509956
H        40.06877362797474    4.54415945236159    1.02993576827413
H        41.87831430265797    2.69015529693221    0.63864048825105
H        41.07507434453503   -2.51107073134747    1.01133378600816
H        39.18078385862251   -4.30411698993023    0.61498196081136
H        37.88676561782636   -0.58996032798660   -1.12871917594335
H        37.05475852353086   -4.35801188749728   -1.09062765678920
H        34.14031255633418   -4.53947741496328   -0.92904170813603
H        32.34320283251856   -2.71893869289452   -0.53018383922255
H        32.63167126333366    0.11011908242356    0.11022616146154
H        33.16771848942125    2.52946221694996   -1.06375465163589
H        35.09528560752179    4.29738626595220   -0.69029682517639
H        36.31607882049698    0.60583618291031    1.14083994997362
H        37.20849442212865    4.35568367839845    1.02853117886861
C        77.45615159958281   -3.49315538567857    0.82999263601358
C        76.53281090968420   -2.54467655587409    0.61212134321419
C        77.21840157668633   -1.30109991299745    0.29090644485466
C        76.77955976613283   -0.01677083802574    0.00590401862383
C        77.62609458902595    1.12194231600757   -0.09238827847159
C        77.20844589511726    2.35773289770048    0.46909080093433
C        78.18998370880175    3.28485169083912    0.25098303240888
C        79.23736776899453    2.62075875681460   -0.43965334835004
N        78.88746551746738    1.30892104522594   -0.62892112265873
C        80.40971304660314    3.33236254998656   -0.78329758995442
C        81.70885317825802    2.85864921551476   -0.66485520088376
C        83.01592867810564    3.50083502579603   -0.76498522798343
C        83.94517015281365    2.54982925609923   -0.53755699886609
C        83.21964394625151    1.31021186108924   -0.27600185201157
N        81.89985436812938    1.55916968496890   -0.36749756036043
C        83.64918029985701    0.02283981604844   -0.00347289411261
C        82.83164159703803   -1.12470070953233    0.07557512312240
C        83.25442851544275   -2.34747746950890   -0.50889178860699
C        82.25636021011822   -3.26278264875692   -0.30596549005762
C        81.22336844371927   -2.59862507041112    0.40459368709067
N        81.58777605474602   -1.29790266548602    0.61388746460083
C        80.04830818284937   -3.29727676903492    0.74472625309758
C        78.74862601536864   -2.84048362146125    0.66101869638126
N        78.55776630274747   -1.54294225627514    0.33799884491471
H        77.28219277873744   -4.52154868144092    1.07703900909827
H        75.47287004665573   -2.67186980246495    0.66588629789033
H        76.27586980568951    2.53311334640252    0.98509925269484