      -----------------------------------------------------------      
     |                   =====================                   |     
     |                           x T B                           |     
     |                   =====================                   |     
     |                         S. Grimme                         |     
     |          Mulliken Center for Theoretical Chemistry        |     
     |                    University of Bonn                     |     
      -----------------------------------------------------------      

   * xtb version 6.4.1 (bd6e46d) compiled by 'conda@4901f00b25ba' on 2021-06-10

   xtb is free software: you can redistribute it and/or modify it under
   the terms of the GNU Lesser General Public License as published by
   the Free Software Foundation, either version 3 of the License, or
   (at your option) any later version.
   
   xtb is distributed in the hope that it will be useful,
   but WITHOUT ANY WARRANTY; without even the implied warranty of
   MERCHANTABILITY or FITNESS FOR A PARTICULAR PURPOSE.  See the
   GNU Lesser General Public License for more details.
   
   Cite this work as:
   * C. Bannwarth, E. Caldeweyher, S. Ehlert, A. Hansen, P. Pracht,
     J. Seibert, S. Spicher, S. Grimme, WIREs Comput. Mol. Sci., 2020, 11,
     e01493. DOI: 10.1002/wcms.1493
   
   for GFN2-xTB:
   * C. Bannwarth, S. Ehlert and S. Grimme., J. Chem. Theory Comput., 2019,
     15, 1652-1671. DOI: 10.1021/acs.jctc.8b01176
   for GFN1-xTB:
   * S. Grimme, C. Bannwarth, P. Shushkov, J. Chem. Theory Comput., 2017,
     13, 1989-2009. DOI: 10.1021/acs.jctc.7b00118
   for GFN0-xTB:
   * P. Pracht, E. Caldeweyher, S. Ehlert, S. Grimme, ChemRxiv, 2019, preprint.
     DOI: 10.26434/chemrxiv.8326202.v1
   for GFN-FF:
   * S. Spicher and S. Grimme, Angew. Chem. Int. Ed., 2020, 59, 15665-15673.
     DOI: 10.1002/anie.202004239
   
   for DFT-D4:
   * E. Caldeweyher, C. Bannwarth and S. Grimme, J. Chem. Phys., 2017,
     147, 034112. DOI: 10.1063/1.4993215
   * E. Caldeweyher, S. Ehlert, A. Hansen, H. Neugebauer, S. Spicher,
     C. Bannwarth and S. Grimme, J. Chem. Phys., 2019, 150, 154122.
     DOI: 10.1063/1.5090222
   * E. Caldeweyher, J.-M. Mewes, S. Ehlert and S. Grimme, Phys. Chem. Chem. Phys.
     2020, 22, 8499-8512. DOI: 10.1039/D0CP00502A
   
   for sTDA-xTB:
   * S. Grimme and C. Bannwarth, J. Chem. Phys., 2016, 145, 054103.
     DOI: 10.1063/1.4959605
   
   in the mass-spec context:
   * V. Asgeirsson, C. Bauer and S. Grimme, Chem. Sci., 2017, 8, 4879.
     DOI: 10.1039/c7sc00601b
   * J. Koopman and S. Grimme, ACS Omega 2019, 4, 12, 15120-15133.
     DOI: 10.1021/acsomega.9b02011
   
   for metadynamics refer to:
   * S. Grimme, J. Chem. Theory Comput., 2019, 155, 2847-2862
     DOI: 10.1021/acs.jctc.9b00143
   
   for SPH calculations refer to:
   * S. Spicher and S. Grimme, J. Chem. Theory Comput., 2021, 17, 1701-1714
     DOI: 10.1021/acs.jctc.0c01306
   
   with help from (in alphabetical order)
   P. Atkinson, C. Bannwarth, F. Bohle, G. Brandenburg, E. Caldeweyher
   M. Checinski, S. Dohm, S. Ehlert, S. Ehrlich, I. Gerasimov, J. Koopman
   C. Lavigne, S. Lehtola, F. März, M. Müller, F. Musil, H. Neugebauer
   J. Pisarek, C. Plett, P. Pracht, J. Seibert, P. Shushkov, S. Spicher
   M. Stahn, M. Steiner, T. Strunk, J. Stückrath, T. Rose, and J. Unsleber
   
 * started run on 2021/11/21 at 19:09:39.481     

           -------------------------------------------------
          |                Calculation Setup                |
           -------------------------------------------------

          program call               : /home/jeff/miniconda3/bin/xtb /home/jeff/chem/final-year-proejct/Co+2_4_4_outenergy/input_structure.xyz --gfn 2 --parallel 1 --etemp 300 --chrg 0 --uhf 0 -I det_control.in
          coordinate file            : /home/jeff/chem/final-year-proejct/Co+2_4_4_outenergy/input_structure.xyz
          omp threads                :                     1
          number of atoms            :                   154
          number of electrons        :                   526
          charge                     :                     0
          spin                       :                   0.0
          first test random number   :      0.44616059536472

   ID    Z sym.   atoms
    1   27 Co     1, 37, 85, 120
    2    6 C      2-9, 11-15, 17-21, 23, 24, 38-45, 47-51, 53-57, 59, 60,
                  73-84, 86-93, 95-99, 101-105, 107, 108, 121-128, 130-134,
                  136-140, 142, 143
    3    7 N      10, 16, 22, 25, 46, 52, 58, 61, 94, 100, 106, 109, 129,
                  135, 141, 144
    4    1 H      26-36, 62-72, 110-119, 145-154

           -------------------------------------------------
          |                 G F N 2 - x T B                 |
           -------------------------------------------------

        Reference                      10.1021/acs.jctc.8b01176
      * Hamiltonian:
        H0-scaling (s, p, d)           1.850000    2.230000    2.230000
        zeta-weighting                 0.500000
      * Dispersion:
        s8                             2.700000
        a1                             0.520000
        a2                             5.000000
        s9                             5.000000
      * Repulsion:
        kExp                           1.500000    1.000000
        rExp                           1.000000
      * Coulomb:
        alpha                          2.000000
        third order                    shell-resolved
        anisotropic                    true
        a3                             3.000000
        a5                             4.000000
        cn-shift                       1.200000
        cn-exp                         4.000000
        max-rad                        5.000000


          ...................................................
          :                      SETUP                      :
          :.................................................:
          :  # basis functions                 514          :
          :  # atomic orbitals                 510          :
          :  # shells                          270          :
          :  # electrons                       526          :
          :  max. iterations                   250          :
          :  Hamiltonian                  GFN2-xTB          :
          :  restarted?                      false          :
          :  GBSA solvation                  false          :
          :  PC potential                    false          :
          :  electronic temp.          300.0000000     K    :
          :  accuracy                    1.0000000          :
          :  -> integral cutoff          0.2500000E+02      :
          :  -> integral neglect         0.1000000E-07      :
          :  -> SCF convergence          0.1000000E-05 Eh   :
          :  -> wf. convergence          0.1000000E-03 e    :
          :  Broyden damping             0.4000000          :
          ...................................................

 iter      E             dE          RMSdq      gap      omega  full diag
   1   -283.7861818 -0.283786E+03  0.764E+00    0.23       0.0  T
   2   -267.9546576  0.158315E+02  0.935E+00    0.01       1.0  T
   3   -262.0436850  0.591097E+01  0.810E+00    0.29       1.0  T
   4   -274.6444524 -0.126008E+02  0.613E+00    0.03       1.0  T
   5   -222.3786869  0.522658E+02  0.774E+00    0.12       1.0  T
   6   -251.2150750 -0.288364E+02  0.774E+00    0.01       1.0  T
   7   -264.8833530 -0.136683E+02  0.581E+00    0.15       1.0  T
   8   -262.2608875  0.262247E+01  0.690E+00    0.02       1.0  T
   9   -280.5887828 -0.183279E+02  0.403E+00    0.11       1.0  T
  10   -283.6136279 -0.302485E+01  0.307E+00    0.05       1.0  T
  11   -283.7160860 -0.102458E+00  0.301E+00    0.04       1.0  T
  12   -283.9883249 -0.272239E+00  0.282E+00    0.01       1.0  T
  13   -283.8373806  0.150944E+00  0.278E+00    0.05       1.0  T
  14   -283.9310310 -0.936504E-01  0.246E+00    0.05       1.0  T
  15   -283.2124538  0.718577E+00  0.256E+00    0.00       1.0  T
  16   -283.0526297  0.159824E+00  0.269E+00    0.00       1.0  T
  17   -276.8104041  0.624223E+01  0.509E+00    0.04       1.0  T
  18   -279.4773560 -0.266695E+01  0.415E+00    0.03       1.0  T
  19   -279.4321268  0.452292E-01  0.416E+00    0.03       1.0  T
  20   -279.1287979  0.303329E+00  0.425E+00    0.03       1.0  T
  21   -278.9007002  0.228098E+00  0.431E+00    0.04       1.0  T
  22   -279.4128822 -0.512182E+00  0.415E+00    0.03       1.0  T
  23   -283.0017490 -0.358887E+01  0.256E+00    0.00       1.0  T
  24   -282.1145628  0.887186E+00  0.386E+00    0.14       1.0  T
  25   -282.1927543 -0.781914E-01  0.381E+00    0.13       1.0  T
  26   -283.9052005 -0.171245E+01  0.242E+00    0.02       1.0  T
  27   -279.7389554  0.416625E+01  0.461E+00    0.01       1.0  T
  28   -278.1882209  0.155073E+01  0.521E+00    0.02       1.0  T
  29   -279.2868592 -0.109864E+01  0.473E+00    0.01       1.0  T
  30   -281.0403145 -0.175346E+01  0.389E+00    0.00       1.0  T
  31   -280.2826286  0.757686E+00  0.423E+00    0.00       1.0  T
  32   -280.4419912 -0.159363E+00  0.416E+00    0.00       1.0  T
  33   -283.3424958 -0.290050E+01  0.284E+00    0.01       1.0  T
  34   -283.3869788 -0.444829E-01  0.286E+00    0.01       1.0  T
  35   -281.4337565  0.195322E+01  0.367E+00    0.03       1.0  T
  36   -281.4708819 -0.371254E-01  0.361E+00    0.01       1.0  T
  37   -282.9973946 -0.152651E+01  0.264E+00    0.02       1.0  T
  38   -283.4674784 -0.470084E+00  0.227E+00    0.01       1.0  T
  39   -283.5015268 -0.340484E-01  0.223E+00    0.01       1.0  T
  40   -284.0729038 -0.571377E+00  0.218E+00    0.01       1.0  T
  41   -283.6541404  0.418763E+00  0.249E+00    0.05       1.0  T
  42   -283.7029459 -0.488055E-01  0.243E+00    0.05       1.0  T
  43   -284.1160925 -0.413147E+00  0.207E+00    0.03       1.0  T
  44   -284.4684694 -0.352377E+00  0.131E+00    0.01       1.0  T
  45   -283.8685544  0.599915E+00  0.205E+00    0.04       1.0  T
  46   -283.9224014 -0.538470E-01  0.181E+00    0.00       1.0  T
  47   -283.0293573  0.893044E+00  0.277E+00    0.05       1.0  T
  48   -283.0001011  0.292562E-01  0.280E+00    0.06       1.0  T
  49   -282.7479003  0.252201E+00  0.302E+00    0.07       1.0  T
  50   -283.0022942 -0.254394E+00  0.280E+00    0.06       1.0  T
  51   -283.2953340 -0.293040E+00  0.258E+00    0.06       1.0  T
  52   -284.2601936 -0.964860E+00  0.167E+00    0.02       1.0  T
  53   -282.8215531  0.143864E+01  0.295E+00    0.06       1.0  T
  54   -282.8829743 -0.614212E-01  0.290E+00    0.06       1.0  T
  55   -282.8099105  0.730638E-01  0.296E+00    0.06       1.0  T
  56   -282.7400880  0.698225E-01  0.302E+00    0.06       1.0  T
  57   -282.4180596  0.322028E+00  0.324E+00    0.07       1.0  T
  58   -282.6057327 -0.187673E+00  0.311E+00    0.07       1.0  T
  59   -282.5917339  0.139988E-01  0.312E+00    0.07       1.0  T
  60   -282.0322501  0.559484E+00  0.345E+00    0.06       1.0  T
  61   -282.0657352 -0.334851E-01  0.343E+00    0.06       1.0  T
  62   -282.5587947 -0.493059E+00  0.314E+00    0.07       1.0  T
  63   -282.3900779  0.168717E+00  0.324E+00    0.06       1.0  T
  64   -283.1899513 -0.799873E+00  0.267E+00    0.05       1.0  T
  65   -283.7622317 -0.572280E+00  0.215E+00    0.02       1.0  T
  66   -283.1842546  0.577977E+00  0.267E+00    0.05       1.0  T
  67   -283.7194425 -0.535188E+00  0.221E+00    0.02       1.0  T
  68   -283.3139796  0.405463E+00  0.256E+00    0.04       1.0  T
  69   -283.3283785 -0.143989E-01  0.255E+00    0.04       1.0  T
  70   -283.0761276  0.252251E+00  0.275E+00    0.05       1.0  T
  71   -283.1094244 -0.332968E-01  0.273E+00    0.05       1.0  T
  72   -283.0601046  0.493198E-01  0.276E+00    0.05       1.0  T
  73   -283.1247288 -0.646243E-01  0.273E+00    0.04       1.0  T
  74   -283.6559606 -0.531232E+00  0.238E+00    0.03       1.0  T
  75   -282.9439426  0.712018E+00  0.305E+00    0.05       1.0  T
  76   -284.1179516 -0.117401E+01  0.210E+00    0.01       1.0  T
  77   -284.1078294  0.101221E-01  0.209E+00    0.01       1.0  T
  78   -284.1274290 -0.195995E-01  0.185E+00    0.00       1.0  T
  79   -284.1676378 -0.402088E-01  0.192E+00    0.01       1.0  T
  80   -284.4736270 -0.305989E+00  0.162E+00    0.01       1.0  T
  81   -284.5230518 -0.494248E-01  0.156E+00    0.01       1.0  T
  82   -284.6445562 -0.121504E+00  0.132E+00    0.00       1.0  T
  83   -284.6078401  0.367161E-01  0.140E+00    0.00       1.0  T
  84   -284.6773650 -0.695249E-01  0.123E+00    0.01       1.0  T
  85   -284.5184182  0.158947E+00  0.146E+00    0.01       1.0  T
  86   -284.6596469 -0.141229E+00  0.118E+00    0.01       1.0  T
  87   -284.6157939  0.438530E-01  0.130E+00    0.01       1.0  T
  88   -284.1905664  0.425228E+00  0.184E+00    0.01       1.0  T
  89   -284.0630187  0.127548E+00  0.198E+00    0.02       1.0  T
  90   -284.2752051 -0.212186E+00  0.173E+00    0.00       1.0  T
  91   -284.3631041 -0.878990E-01  0.161E+00    0.02       1.0  T
  92   -284.0452901  0.317814E+00  0.198E+00    0.02       1.0  T
  93   -284.2066720 -0.161382E+00  0.178E+00    0.03       1.0  T
  94   -284.6288081 -0.422136E+00  0.120E+00    0.02       1.0  T
  95   -284.5854629  0.433451E-01  0.127E+00    0.01       1.0  T
  96   -284.7625479 -0.177085E+00  0.903E-01    0.00       1.0  T
  97   -284.8385387 -0.759907E-01  0.627E-01    0.01       1.0  T
  98   -284.8435810 -0.504237E-02  0.657E-01    0.00       1.0  T
  99   -284.8493882 -0.580716E-02  0.690E-01    0.01       1.0  T
 100   -284.8674498 -0.180617E-01  0.644E-01    0.01       1.0  T
 101   -284.7890629  0.783869E-01  0.862E-01    0.01       1.0  T
 102   -284.8187466 -0.296837E-01  0.781E-01    0.01       1.0  T
 103   -284.8962818 -0.775352E-01  0.498E-01    0.00       1.0  T
 104   -284.8475535  0.487283E-01  0.674E-01    0.02       1.0  T
 105   -284.8000473  0.475062E-01  0.805E-01    0.03       1.0  T
 106   -284.8352490 -0.352017E-01  0.701E-01    0.02       1.0  T
 107   -284.8528715 -0.176226E-01  0.633E-01    0.02       1.0  T
 108   -284.8342059  0.186657E-01  0.684E-01    0.02       1.0  T
 109   -284.8575297 -0.233238E-01  0.602E-01    0.01       1.0  T
 110   -284.8824522 -0.249225E-01  0.504E-01    0.01       1.0  T
 111   -284.8913273 -0.887513E-02  0.462E-01    0.01       1.0  T
 112   -284.9054301 -0.141028E-01  0.374E-01    0.01       1.0  T
 113   -284.9106387 -0.520867E-02  0.347E-01    0.00       1.0  T
 114   -284.9222189 -0.115802E-01  0.263E-01    0.00       1.0  T
 115   -284.9192836  0.293532E-02  0.280E-01    0.00       1.0  T
 116   -284.9175184  0.176515E-02  0.290E-01    0.00       1.0  T
 117   -284.9305185 -0.130001E-01  0.173E-01    0.00       1.0  T
 118   -284.9300130  0.505590E-03  0.175E-01    0.00       1.0  T
 119   -284.9302808 -0.267894E-03  0.170E-01    0.00       1.0  T
 120   -284.9315861 -0.130528E-02  0.152E-01    0.00       1.0  T
 121   -284.9321224 -0.536321E-03  0.143E-01    0.00       1.0  T
 122   -284.9343302 -0.220778E-02  0.110E-01    0.00       1.0  T
 123   -284.9336434  0.686788E-03  0.118E-01    0.00       1.0  T
 124   -284.9355305 -0.188707E-02  0.832E-02    0.00       1.0  T
 125   -284.9350529  0.477651E-03  0.938E-02    0.00       1.0  T
 126   -284.9353824 -0.329524E-03  0.856E-02    0.00       1.0  T
 127   -284.9361255 -0.743162E-03  0.617E-02    0.00       1.0  T
 128   -284.9358722  0.253382E-03  0.635E-02    0.00       1.0  T
 129   -284.9360024 -0.130284E-03  0.561E-02    0.00       1.0  T
 130   -284.9364097 -0.407215E-03  0.362E-02    0.00       1.0  T
 131   -284.9364347 -0.250571E-04  0.323E-02    0.00       1.0  T
 132   -284.9364508 -0.161080E-04  0.307E-02    0.00       1.0  T
 133   -284.9366119 -0.161074E-03  0.184E-02    0.00       1.0  T
 134   -284.9365850  0.268572E-04  0.202E-02    0.00       1.0  T
 135   -284.9366469 -0.618706E-04  0.125E-02    0.00       1.0  T
 136   -284.9366571 -0.101721E-04  0.109E-02    0.00       1.0  T
 137   -284.9366472  0.984937E-05  0.123E-02    0.00       1.0  T
 138   -284.9366803 -0.330409E-04  0.566E-03    0.00       1.4  T
 139   -284.9366784  0.189648E-05  0.608E-03    0.00       1.3  T
 140   -284.9366849 -0.655373E-05  0.353E-03    0.00       2.3  T
 141   -284.9366871 -0.218035E-05  0.194E-03    0.00       4.1  T
 142   -284.9366876 -0.470832E-06  0.128E-03    0.00       6.3  T
 143   -284.9366871  0.444985E-06  0.171E-03    0.00       4.7  T
 144   -284.9366877 -0.575726E-06  0.971E-04    0.00       8.3  T
 145   -284.9366879 -0.135967E-06  0.622E-04    0.00      13.0  T

   *** convergence criteria satisfied after 145 iterations ***

         #    Occupation            Energy/Eh            Energy/eV
      -------------------------------------------------------------
         1        2.0000           -0.6697011             -18.2235
       ...           ...                  ...                  ...
       257        1.8544           -0.3482917              -9.4775
       258        1.8263           -0.3481091              -9.4725
       259        1.8262           -0.3481085              -9.4725
       260        1.8189           -0.3480659              -9.4714
       261        1.8187           -0.3480645              -9.4713
       262        1.4370           -0.3467643              -9.4359
       263        1.4295           -0.3467467              -9.4355 (HOMO)
       264        1.4211           -0.3467273              -9.4349 (LUMO)
       265        1.4196           -0.3467237              -9.4348
       266                         -0.3132783              -8.5247
       267                         -0.3060964              -8.3293
       268                         -0.2977208              -8.1014
       ...                                ...                  ...
       510                          1.6333230              44.4450
      -------------------------------------------------------------
                  HL-Gap            0.0000194 Eh            0.0005 eV
             Fermi-level           -0.3458740 Eh           -9.4117 eV

 SCC (total)                   0 d,  0 h,  0 min,  9.426 sec
 SCC setup                      ...        0 min,  0.004 sec (  0.044%)
 Dispersion                     ...        0 min,  0.009 sec (  0.093%)
 classical contributions        ...        0 min,  0.001 sec (  0.012%)
 integral evaluation            ...        0 min,  0.080 sec (  0.849%)
 iterations                     ...        0 min,  9.085 sec ( 96.375%)
 molecular gradient             ...        0 min,  0.240 sec (  2.548%)
 printout                       ...        0 min,  0.007 sec (  0.079%)

         :::::::::::::::::::::::::::::::::::::::::::::::::::::
         ::                     SUMMARY                     ::
         :::::::::::::::::::::::::::::::::::::::::::::::::::::
         :: total energy            -279.899440919567 Eh    ::
         :: gradient norm              0.000607197770 Eh/a0 ::
         :: HOMO-LUMO gap              0.000527558694 eV    ::
         ::.................................................::
         :: SCC energy              -284.936687854869 Eh    ::
         :: -> isotropic ES            0.065027990737 Eh    ::
         :: -> anisotropic ES          0.032826589579 Eh    ::
         :: -> anisotropic XC          0.155756698270 Eh    ::
         :: -> dispersion             -0.249267438400 Eh    ::
         :: repulsion energy           5.041191820293 Eh    ::
         :: add. restraining           0.000000000000 Eh    ::
         :: total charge               0.000000000663 e     ::
         :::::::::::::::::::::::::::::::::::::::::::::::::::::

           -------------------------------------------------
          |                Property Printout                |
           -------------------------------------------------

    * Orbital Energies and Occupations

         #    Occupation            Energy/Eh            Energy/eV
      -------------------------------------------------------------
         1        2.0000           -0.6697011             -18.2235
       ...           ...                  ...                  ...
       251        1.8928           -0.3486021              -9.4859
       252        1.8851           -0.3485316              -9.4840
       253        1.8849           -0.3485300              -9.4840
       254        1.8743           -0.3484408              -9.4816
       255        1.8636           -0.3483578              -9.4793
       256        1.8575           -0.3483137              -9.4781
       257        1.8544           -0.3482917              -9.4775
       258        1.8263           -0.3481091              -9.4725
       259        1.8262           -0.3481085              -9.4725
       260        1.8189           -0.3480659              -9.4714
       261        1.8187           -0.3480645              -9.4713
       262        1.4370           -0.3467643              -9.4359
       263        1.4295           -0.3467467              -9.4355 (HOMO)
       264        1.4211           -0.3467273              -9.4349 (LUMO)
       265        1.4196           -0.3467237              -9.4348
       266                         -0.3132783              -8.5247
       267                         -0.3060964              -8.3293
       268                         -0.2977208              -8.1014
       269                         -0.2972149              -8.0876
       270                         -0.2972057              -8.0874
       271                         -0.2967536              -8.0751
       272                         -0.2967431              -8.0748
       273                         -0.2913880              -7.9291
       274                         -0.2706793              -7.3656
       ...                                ...                  ...
       510                          1.6333230              44.4450
      -------------------------------------------------------------
                  HL-Gap            0.0000194 Eh            0.0005 eV
             Fermi-level           -0.3458740 Eh           -9.4117 eV

     #   Z          covCN         q      C6AA      α(0)
     1  27 Co       3.054     0.103   140.884    24.318
     2   6 C        3.025    -0.053    29.290     8.877
     3   6 C        3.022    -0.051    29.249     8.871
     4   6 C        3.195     0.073    25.883     8.295
     5   6 C        2.956     0.017    27.620     8.620
     6   6 C        3.195     0.073    25.883     8.295
     7   6 C        3.022    -0.051    29.250     8.871
     8   6 C        3.025    -0.053    29.290     8.877
     9   6 C        3.180     0.072    25.987     8.322
    10   7 N        2.630    -0.131    23.855     7.254
    11   6 C        2.905    -0.050    29.241     8.867
    12   6 C        3.177     0.073    25.981     8.323
    13   6 C        3.021    -0.052    29.269     8.874
    14   6 C        3.022    -0.052    29.272     8.875
    15   6 C        3.177     0.073    25.975     8.322
    16   7 N        2.631    -0.130    23.824     7.249
    17   6 C        2.905    -0.052    29.284     8.873
    18   6 C        3.177     0.073    25.974     8.322
    19   6 C        3.022    -0.052    29.272     8.875
    20   6 C        3.021    -0.052    29.269     8.874
    21   6 C        3.177     0.073    25.981     8.323
    22   7 N        2.631    -0.130    23.824     7.249
    23   6 C        2.905    -0.050    29.241     8.867
    24   6 C        3.180     0.072    25.987     8.322
    25   7 N        2.630    -0.131    23.855     7.254
    26   1 H        0.926     0.034     2.527     2.486
    27   1 H        0.926     0.036     2.499     2.472
    28   1 H        0.926     0.036     2.499     2.472
    29   1 H        0.926     0.034     2.527     2.486
    30   1 H        0.926     0.050     2.322     2.383
    31   1 H        0.926     0.035     2.521     2.483
    32   1 H        0.926     0.035     2.522     2.483
    33   1 H        0.926     0.049     2.330     2.387
    34   1 H        0.926     0.035     2.522     2.483
    35   1 H        0.926     0.035     2.521     2.483
    36   1 H        0.926     0.050     2.322     2.383
    37  27 Co       3.054     0.103   140.883    24.318
    38   6 C        3.024    -0.053    29.290     8.877
    39   6 C        3.022    -0.051    29.250     8.871
    40   6 C        3.195     0.073    25.883     8.295
    41   6 C        2.956     0.017    27.620     8.620
    42   6 C        3.195     0.073    25.884     8.295
    43   6 C        3.022    -0.051    29.250     8.871
    44   6 C        3.025    -0.053    29.290     8.877
    45   6 C        3.180     0.072    25.987     8.322
    46   7 N        2.630    -0.131    23.856     7.254
    47   6 C        2.905    -0.050    29.242     8.867
    48   6 C        3.177     0.073    25.981     8.323
    49   6 C        3.021    -0.052    29.270     8.874
    50   6 C        3.022    -0.052    29.272     8.875
    51   6 C        3.177     0.073    25.975     8.322
    52   7 N        2.631    -0.130    23.824     7.249
    53   6 C        2.905    -0.052    29.285     8.873
    54   6 C        3.177     0.073    25.974     8.322
    55   6 C        3.022    -0.052    29.272     8.875
    56   6 C        3.021    -0.052    29.270     8.874
    57   6 C        3.177     0.073    25.981     8.323
    58   7 N        2.631    -0.130    23.824     7.249
    59   6 C        2.905    -0.050    29.242     8.867
    60   6 C        3.180     0.072    25.988     8.322
    61   7 N        2.630    -0.131    23.856     7.254
    62   1 H        0.926     0.034     2.527     2.486
    63   1 H        0.926     0.036     2.499     2.472
    64   1 H        0.926     0.036     2.498     2.472
    65   1 H        0.926     0.034     2.527     2.486
    66   1 H        0.926     0.050     2.322     2.383
    67   1 H        0.926     0.035     2.521     2.483
    68   1 H        0.926     0.035     2.522     2.483
    69   1 H        0.926     0.049     2.330     2.387
    70   1 H        0.926     0.035     2.522     2.483
    71   1 H        0.926     0.035     2.521     2.483
    72   1 H        0.926     0.050     2.322     2.383
    73   6 C        1.993    -0.021    31.610     9.080
    74   6 C        1.963    -0.010    31.329     9.039
    75   6 C        1.963    -0.010    31.324     9.038
    76   6 C        1.992    -0.021    31.615     9.080
    77   6 C        1.992    -0.021    31.611     9.080
    78   6 C        1.963    -0.010    31.324     9.038
    79   6 C        1.963    -0.010    31.325     9.038
    80   6 C        1.992    -0.021    31.610     9.080
    81   6 C        1.992    -0.021    31.614     9.080
    82   6 C        1.963    -0.010    31.323     9.038
    83   6 C        1.963    -0.010    31.329     9.039
    84   6 C        1.993    -0.021    31.609     9.079
    85  27 Co       3.048     0.103   140.888    24.318
    86   6 C        3.025    -0.053    29.288     8.877
    87   6 C        3.023    -0.051    29.252     8.872
    88   6 C        3.196     0.073    25.866     8.291
    89   6 C        2.957     0.017    27.620     8.620
    90   6 C        3.196     0.073    25.867     8.291
    91   6 C        3.023    -0.051    29.250     8.871
    92   6 C        3.025    -0.053    29.288     8.877
    93   6 C        3.182     0.072    25.982     8.320
    94   7 N        2.629    -0.132    23.873     7.257
    95   6 C        2.905    -0.048    29.192     8.859
    96   6 C        3.182     0.072    25.983     8.320
    97   6 C        3.025    -0.053    29.288     8.877
    98   6 C        3.023    -0.051    29.251     8.872
    99   6 C        3.196     0.073    25.867     8.291
   100   7 N        2.629    -0.132    23.873     7.256
   101   6 C        2.956     0.017    27.621     8.620
   102   6 C        3.196     0.073    25.867     8.291
   103   6 C        3.023    -0.052    29.252     8.872
   104   6 C        3.025    -0.053    29.288     8.877
   105   6 C        3.182     0.072    25.982     8.320
   106   7 N        2.629    -0.132    23.872     7.256
   107   6 C        2.905    -0.048    29.191     8.859
   108   6 C        3.182     0.072    25.981     8.320
   109   7 N        2.629    -0.132    23.871     7.256
   110   1 H        0.926     0.034     2.529     2.487
   111   1 H        0.926     0.036     2.503     2.474
   112   1 H        0.926     0.036     2.503     2.474
   113   1 H        0.926     0.034     2.530     2.487
   114   1 H        0.926     0.050     2.318     2.381
   115   1 H        0.926     0.034     2.530     2.487
   116   1 H        0.926     0.036     2.503     2.474
   117   1 H        0.926     0.036     2.503     2.474
   118   1 H        0.926     0.034     2.529     2.487
   119   1 H        0.926     0.050     2.317     2.380
   120  27 Co       3.048     0.103   140.888    24.318
   121   6 C        3.025    -0.053    29.288     8.877
   122   6 C        3.023    -0.051    29.251     8.872
   123   6 C        3.196     0.073    25.869     8.292
   124   6 C        2.956     0.017    27.621     8.620
   125   6 C        3.196     0.073    25.866     8.291
   126   6 C        3.023    -0.051    29.252     8.872
   127   6 C        3.025    -0.053    29.288     8.877
   128   6 C        3.182     0.072    25.982     8.320
   129   7 N        2.629    -0.132    23.872     7.256
   130   6 C        2.905    -0.048    29.192     8.859
   131   6 C        3.182     0.072    25.981     8.320
   132   6 C        3.025    -0.053    29.288     8.877
   133   6 C        3.023    -0.051    29.252     8.872
   134   6 C        3.196     0.073    25.866     8.291
   135   7 N        2.629    -0.132    23.872     7.256
   136   6 C        2.957     0.017    27.620     8.620
   137   6 C        3.196     0.073    25.868     8.292
   138   6 C        3.023    -0.051    29.251     8.871
   139   6 C        3.025    -0.053    29.288     8.877
   140   6 C        3.182     0.072    25.982     8.320
   141   7 N        2.629    -0.132    23.873     7.257
   142   6 C        2.905    -0.048    29.192     8.859
   143   6 C        3.182     0.072    25.983     8.320
   144   7 N        2.629    -0.132    23.872     7.256
   145   1 H        0.926     0.034     2.530     2.487
   146   1 H        0.926     0.036     2.503     2.474
   147   1 H        0.926     0.036     2.503     2.474
   148   1 H        0.926     0.034     2.529     2.487
   149   1 H        0.926     0.050     2.317     2.381
   150   1 H        0.926     0.034     2.529     2.487
   151   1 H        0.926     0.036     2.503     2.474
   152   1 H        0.926     0.036     2.503     2.474
   153   1 H        0.926     0.034     2.530     2.487
   154   1 H        0.926     0.050     2.318     2.381

 Mol. C6AA /au·bohr⁶  :     461680.793174
 Mol. C8AA /au·bohr⁸  :   13417546.186361
 Mol. α(0) /au        :       1115.549742


Wiberg/Mayer (AO) data.
largest (>0.10) Wiberg bond orders for each atom

 ---------------------------------------------------------------------------
     #   Z sym  total        # sym  WBO       # sym  WBO       # sym  WBO
 ---------------------------------------------------------------------------
     1  27 Co   3.327 --    16 N    0.724    22 N    0.724    10 N    0.722
                            25 N    0.722
     2   6 C    3.952 --     3 C    1.642    24 C    1.174    26 H    0.972
     3   6 C    3.956 --     2 C    1.642     4 C    1.183    27 H    0.970
     4   6 C    3.916 --    25 N    1.261     5 C    1.258     3 C    1.183
     5   6 C    3.947 --     6 C    1.258     4 C    1.258    73 C    1.178
     6   6 C    3.916 --    10 N    1.261     5 C    1.258     7 C    1.183
     7   6 C    3.956 --     8 C    1.642     6 C    1.183    28 H    0.970
     8   6 C    3.952 --     7 C    1.642     9 C    1.174    29 H    0.972
     9   6 C    3.929 --    11 C    1.359    10 N    1.228     8 C    1.174
    10   7 N    3.514 --     6 C    1.261     9 C    1.228     1 Co   0.722
    11   6 C    3.938 --     9 C    1.359    12 C    1.359    30 H    0.963
    12   6 C    3.934 --    11 C    1.359    16 N    1.239    13 C    1.166
    13   6 C    3.957 --    14 C    1.657    12 C    1.166    31 H    0.972
    14   6 C    3.954 --    13 C    1.657    15 C    1.165    32 H    0.972
    15   6 C    3.936 --    17 C    1.358    16 N    1.242    14 C    1.165
    16   7 N    3.509 --    15 C    1.242    12 C    1.239     1 Co   0.724
    17   6 C    3.935 --    18 C    1.358    15 C    1.358    33 H    0.964
    18   6 C    3.936 --    17 C    1.358    22 N    1.242    19 C    1.165
    19   6 C    3.954 --    20 C    1.657    18 C    1.165    34 H    0.972
    20   6 C    3.957 --    19 C    1.657    21 C    1.166    35 H    0.972
    21   6 C    3.934 --    23 C    1.359    22 N    1.239    20 C    1.166
    22   7 N    3.509 --    18 C    1.242    21 C    1.239     1 Co   0.724
    23   6 C    3.938 --    24 C    1.359    21 C    1.359    36 H    0.963
    24   6 C    3.929 --    23 C    1.359    25 N    1.228     2 C    1.174
    25   7 N    3.514 --     4 C    1.261    24 C    1.228     1 Co   0.722
    26   1 H    0.998 --     2 C    0.972
    27   1 H    0.998 --     3 C    0.970
    28   1 H    0.998 --     7 C    0.970
    29   1 H    0.998 --     8 C    0.972
    30   1 H    0.996 --    11 C    0.963
    31   1 H    0.998 --    13 C    0.972
    32   1 H    0.998 --    14 C    0.972
    33   1 H    0.996 --    17 C    0.964
    34   1 H    0.998 --    19 C    0.972
    35   1 H    0.998 --    20 C    0.972
    36   1 H    0.996 --    23 C    0.963
    37  27 Co   3.326 --    58 N    0.724    52 N    0.724    61 N    0.722
                            46 N    0.722
    38   6 C    3.952 --    39 C    1.642    60 C    1.174    62 H    0.972
    39   6 C    3.956 --    38 C    1.642    40 C    1.183    63 H    0.970
    40   6 C    3.916 --    61 N    1.261    41 C    1.258    39 C    1.183
    41   6 C    3.947 --    40 C    1.258    42 C    1.258    84 C    1.177
    42   6 C    3.916 --    46 N    1.261    41 C    1.258    43 C    1.183
    43   6 C    3.956 --    44 C    1.642    42 C    1.183    64 H    0.970
    44   6 C    3.952 --    43 C    1.642    45 C    1.174    65 H    0.972
    45   6 C    3.929 --    47 C    1.359    46 N    1.228    44 C    1.174
    46   7 N    3.514 --    42 C    1.261    45 C    1.228    37 Co   0.722
    47   6 C    3.938 --    45 C    1.359    48 C    1.359    66 H    0.963
    48   6 C    3.934 --    47 C    1.359    52 N    1.239    49 C    1.166
    49   6 C    3.957 --    50 C    1.657    48 C    1.166    67 H    0.972
    50   6 C    3.954 --    49 C    1.657    51 C    1.165    68 H    0.972
    51   6 C    3.936 --    53 C    1.358    52 N    1.242    50 C    1.165
    52   7 N    3.510 --    51 C    1.242    48 C    1.239    37 Co   0.724
    53   6 C    3.935 --    51 C    1.358    54 C    1.358    69 H    0.964
    54   6 C    3.936 --    53 C    1.358    58 N    1.242    55 C    1.165
    55   6 C    3.954 --    56 C    1.657    54 C    1.165    70 H    0.972
    56   6 C    3.957 --    55 C    1.657    57 C    1.166    71 H    0.972
    57   6 C    3.934 --    59 C    1.359    58 N    1.239    56 C    1.166
    58   7 N    3.510 --    54 C    1.242    57 C    1.239    37 Co   0.724
    59   6 C    3.938 --    60 C    1.359    57 C    1.359    72 H    0.963
    60   6 C    3.929 --    59 C    1.359    61 N    1.228    38 C    1.174
    61   7 N    3.514 --    40 C    1.261    60 C    1.228    37 Co   0.722
    62   1 H    0.998 --    38 C    0.972
    63   1 H    0.998 --    39 C    0.970
    64   1 H    0.998 --    43 C    0.970
    65   1 H    0.998 --    44 C    0.972
    66   1 H    0.996 --    47 C    0.963
    67   1 H    0.998 --    49 C    0.972
    68   1 H    0.998 --    50 C    0.972
    69   1 H    0.996 --    53 C    0.964
    70   1 H    0.998 --    55 C    0.972
    71   1 H    0.998 --    56 C    0.972
    72   1 H    0.996 --    59 C    0.963
    73   6 C    3.919 --    74 C    2.478     5 C    1.178    76 C    0.204
    74   6 C    3.931 --    73 C    2.478    75 C    1.300
    75   6 C    3.929 --    76 C    2.477    74 C    1.300
    76   6 C    3.921 --    75 C    2.477    89 C    1.180    73 C    0.204
    77   6 C    3.919 --    78 C    2.475   101 C    1.181    80 C    0.203
    78   6 C    3.928 --    77 C    2.475    79 C    1.302
    79   6 C    3.928 --    80 C    2.475    78 C    1.302
    80   6 C    3.919 --    79 C    2.475   124 C    1.181    77 C    0.203
    81   6 C    3.920 --    82 C    2.478   136 C    1.179    84 C    0.204
    82   6 C    3.928 --    81 C    2.478    83 C    1.299
    83   6 C    3.931 --    84 C    2.479    82 C    1.299
    84   6 C    3.919 --    83 C    2.479    41 C    1.177    81 C    0.204
    85  27 Co   3.303 --    94 N    0.718   109 N    0.718   100 N    0.718
                           106 N    0.718
    86   6 C    3.953 --    87 C    1.641   108 C    1.175   110 H    0.972
    87   6 C    3.955 --    86 C    1.641    88 C    1.183   111 H    0.970
    88   6 C    3.917 --   109 N    1.264    89 C    1.255    87 C    1.183
    89   6 C    3.937 --    90 C    1.256    88 C    1.255    76 C    1.180
    90   6 C    3.917 --    94 N    1.264    89 C    1.256    91 C    1.183
    91   6 C    3.955 --    92 C    1.641    90 C    1.183   112 H    0.970
    92   6 C    3.953 --    91 C    1.641    93 C    1.175   113 H    0.972
    93   6 C    3.928 --    95 C    1.359    94 N    1.226    92 C    1.175
    94   7 N    3.506 --    90 C    1.264    93 C    1.226    85 Co   0.718
    95   6 C    3.932 --    96 C    1.359    93 C    1.359   114 H    0.963
    96   6 C    3.928 --    95 C    1.359   100 N    1.226    97 C    1.175
    97   6 C    3.953 --    98 C    1.641    96 C    1.175   115 H    0.972
    98   6 C    3.955 --    97 C    1.641    99 C    1.184   116 H    0.970
    99   6 C    3.917 --   100 N    1.264   101 C    1.255    98 C    1.184
   100   7 N    3.506 --    99 C    1.264    96 C    1.226    85 Co   0.718
   101   6 C    3.937 --    99 C    1.255   102 C    1.255    77 C    1.181
   102   6 C    3.916 --   106 N    1.264   101 C    1.255   103 C    1.184
   103   6 C    3.955 --   104 C    1.641   102 C    1.184   117 H    0.970
   104   6 C    3.953 --   103 C    1.641   105 C    1.175   118 H    0.972
   105   6 C    3.928 --   107 C    1.359   106 N    1.226   104 C    1.175
   106   7 N    3.506 --   102 C    1.264   105 C    1.226    85 Co   0.718
   107   6 C    3.933 --   105 C    1.359   108 C    1.359   119 H    0.963
   108   6 C    3.928 --   107 C    1.359   109 N    1.226    86 C    1.175
   109   7 N    3.506 --    88 C    1.264   108 C    1.226    85 Co   0.718
   110   1 H    0.998 --    86 C    0.972
   111   1 H    0.998 --    87 C    0.970
   112   1 H    0.998 --    91 C    0.970
   113   1 H    0.998 --    92 C    0.972
   114   1 H    0.996 --    95 C    0.963
   115   1 H    0.998 --    97 C    0.972
   116   1 H    0.998 --    98 C    0.970
   117   1 H    0.998 --   103 C    0.970
   118   1 H    0.998 --   104 C    0.972
   119   1 H    0.996 --   107 C    0.963
   120  27 Co   3.303 --   141 N    0.718   135 N    0.718   144 N    0.718
                           129 N    0.718
   121   6 C    3.953 --   122 C    1.641   143 C    1.175   145 H    0.972
   122   6 C    3.955 --   121 C    1.641   123 C    1.183   146 H    0.970
   123   6 C    3.917 --   144 N    1.264   124 C    1.255   122 C    1.183
   124   6 C    3.937 --   123 C    1.255   125 C    1.255    80 C    1.181
   125   6 C    3.917 --   129 N    1.264   124 C    1.255   126 C    1.184
   126   6 C    3.955 --   127 C    1.641   125 C    1.184   147 H    0.970
   127   6 C    3.953 --   126 C    1.641   128 C    1.175   148 H    0.972
   128   6 C    3.928 --   130 C    1.359   129 N    1.226   127 C    1.175
   129   7 N    3.506 --   125 C    1.264   128 C    1.226   120 Co   0.718
   130   6 C    3.933 --   128 C    1.359   131 C    1.359   149 H    0.963
   131   6 C    3.928 --   130 C    1.359   135 N    1.226   132 C    1.175
   132   6 C    3.953 --   133 C    1.641   131 C    1.175   150 H    0.972
   133   6 C    3.955 --   132 C    1.641   134 C    1.183   151 H    0.970
   134   6 C    3.917 --   135 N    1.264   136 C    1.256   133 C    1.183
   135   7 N    3.506 --   134 C    1.264   131 C    1.226   120 Co   0.718
   136   6 C    3.937 --   137 C    1.256   134 C    1.256    81 C    1.179
   137   6 C    3.917 --   141 N    1.264   136 C    1.256   138 C    1.183
   138   6 C    3.955 --   139 C    1.641   137 C    1.183   152 H    0.970
   139   6 C    3.953 --   138 C    1.641   140 C    1.175   153 H    0.972
   140   6 C    3.928 --   142 C    1.359   141 N    1.226   139 C    1.175
   141   7 N    3.506 --   137 C    1.264   140 C    1.226   120 Co   0.718
   142   6 C    3.933 --   143 C    1.359   140 C    1.359   154 H    0.963
   143   6 C    3.928 --   142 C    1.359   144 N    1.226   121 C    1.175
   144   7 N    3.506 --   123 C    1.264   143 C    1.226   120 Co   0.718
   145   1 H    0.998 --   121 C    0.972
   146   1 H    0.998 --   122 C    0.970
   147   1 H    0.998 --   126 C    0.970
   148   1 H    0.998 --   127 C    0.972
   149   1 H    0.996 --   130 C    0.963
   150   1 H    0.998 --   132 C    0.972
   151   1 H    0.998 --   133 C    0.970
   152   1 H    0.998 --   138 C    0.970
   153   1 H    0.998 --   139 C    0.972
   154   1 H    0.996 --   142 C    0.963
 ---------------------------------------------------------------------------

Topologies differ in total number of bonds
Writing topology from bond orders to xtbtopo.mol

molecular dipole:
                 x           y           z       tot (Debye)
 q only:        0.001      -0.001       0.002
   full:        0.001      -0.001       0.002       0.007
molecular quadrupole (traceless):
                xx          xy          yy          xz          yz          zz
 q only:       56.228       0.147      -2.701       0.223      -0.665     -53.527
  q+dip:      104.785       0.251      10.233       0.261      -1.641    -115.018
   full:       75.245       0.201       0.037       0.260      -1.008     -75.283


           -------------------------------------------------
          | TOTAL ENERGY             -279.899440919567 Eh   |
          | GRADIENT NORM               0.000607197770 Eh/α |
          | HOMO-LUMO GAP               0.000527558694 eV   |
           -------------------------------------------------

------------------------------------------------------------------------
 * finished run on 2021/11/21 at 19:09:48.989     
------------------------------------------------------------------------
 total:
 * wall-time:     0 d,  0 h,  0 min,  9.507 sec
 *  cpu-time:     0 d,  0 h,  0 min,  9.507 sec
 * ratio c/w:     1.000 speedup
 SCF:
 * wall-time:     0 d,  0 h,  0 min,  9.428 sec
 *  cpu-time:     0 d,  0 h,  0 min,  9.428 sec
 * ratio c/w:     1.000 speedup

