 Entering Gaussian System
 *********************************************
 Gaussian 98:
 frequency output generated by the xtb code
 *********************************************
                         Standard orientation:
 --------------------------------------------------------------------
  Center     Atomic     Atomic              Coordinates (Angstroms)
  Number     Number      Type              X           Y           Z
 --------------------------------------------------------------------
    1          6             0       21.645762   -2.358202    1.547041
    2          6             0       20.618006   -1.543691    1.238063
    3          6             0       21.172772   -0.508449    0.384330
    4          6             0       20.401743    0.539497   -0.157829
    5          6             0       20.913892    1.553515   -0.984478
    6          6             0       20.198916    2.637432   -1.560533
    7          6             0       21.088864    3.376321   -2.285613
    8          6             0       22.365945    2.758772   -2.168986
    9          7             0       22.208306    1.664157   -1.373964
   10          6             0       23.547221    3.188222   -2.755587
   11          6             0       24.799754    2.597594   -2.661068
   12          6             0       25.975691    3.137803   -3.328295
   13          6             0       26.994450    2.314272   -3.019838
   14          6             0       26.433131    1.278323   -2.166597
   15          7             0       25.112744    1.480658   -1.972394
   16          6             0       27.183079    0.234399   -1.639688
   17          6             0       26.694415   -0.773369   -0.822611
   18          6             0       27.409090   -1.865751   -0.252959
   19          6             0       26.524453   -2.600958    0.479135
   20          6             0       25.246717   -1.977440    0.375784
   21          7             0       25.401329   -0.884366   -0.416595
   22          6             0       24.066726   -2.401548    0.968774
   23          6             0       22.814685   -1.811982    0.878391
   24          7             0       22.488396   -0.693565    0.186985
   25          1             0       21.647912   -3.241043    2.157005
   26          1             0       19.589215   -1.605867    1.535915
   27          1             0       19.149272    2.815628   -1.429778
   28          1             0       20.889710    4.265492   -2.851462
   29          1             0       22.937529    1.014522   -1.103042
   30          1             0       23.481060    4.084532   -3.356794
   31          1             0       25.979731    4.022013   -3.936602
   32          1             0       28.024212    2.368813   -3.317152
   33          1             0       28.234458    0.205071   -1.886745
   34          1             0       28.456365   -2.051124   -0.392686
   35          1             0       26.723893   -3.492301    1.041864
   36          1             0       24.675516   -0.229835   -0.682711
   37          1             0       24.131257   -3.297871    1.570314
   38          6             0      -21.053548    2.995198    0.428415
   39          6             0      -20.186825    1.985250    0.219408
   40          6             0      -20.998744    0.818698   -0.078663
   41          6             0      -20.452263   -0.452759   -0.346025
   42          6             0      -21.214098   -1.601856   -0.614714
   43          6             0      -20.732055   -2.911944   -0.879051
   44          6             0      -21.816806   -3.711709   -1.096051
   45          6             0      -22.984353   -2.906724   -0.972149
   46          7             0      -22.568254   -1.643622   -0.677858
   47          6             0      -24.296912   -3.325030   -1.132462
   48          6             0      -25.446465   -2.553425   -1.030866
   49          6             0      -26.780439   -3.100029   -1.234833
   50          6             0      -27.636705   -2.076348   -1.061255
   51          6             0      -26.819500   -0.913579   -0.750644
   52          7             0      -25.508941   -1.237141   -0.742777
   53          6             0      -27.349368    0.344804   -0.494936
   54          6             0      -26.614259    1.479515   -0.188210
   55          6             0      -27.098237    2.789200    0.093099
   56          6             0      -26.018447    3.584065    0.340846
   57          6             0      -24.847034    2.781512    0.215711
   58          7             0      -25.257971    1.525818   -0.101833
   59          6             0      -23.534106    3.198237    0.378680
   60          6             0      -22.382928    2.435795    0.249823
   61          7             0      -22.307984    1.117626   -0.054009
   62          1             0      -20.850113    4.019280    0.675887
   63          1             0      -19.114748    1.991696    0.258208
   64          1             0      -19.696200   -3.190066   -0.896533
   65          1             0      -21.818956   -4.760041   -1.322901
   66          1             0      -23.166633   -0.839197   -0.529358
   67          1             0      -24.437504   -4.370725   -1.368865
   68          1             0      -26.989594   -4.124679   -1.476060
   69          1             0      -28.707863   -2.069734   -1.127210
   70          1             0      -28.424157    0.447599   -0.534862
   71          1             0      -28.133478    3.070082    0.101760
   72          1             0      -26.018555    4.628228    0.587119
   73          1             0      -24.660623    0.722675   -0.257230
   74          1             0      -23.392408    4.240363    0.630159
   75          6             0       19.036937    0.572380    0.132926
   76          6             0       17.841850    0.587724    0.379987
   77          6             0       16.529441    0.602887    0.626854
   78          6             0       15.323180    0.606395    0.840200
   79          6             0       14.002131    0.615652    1.034382
   80          6             0       12.791644    0.617501    1.192795
   81          6             0        2.988517    0.277519    1.577783
   82          6             0        1.773517    0.160943    1.539920
   83          6             0        0.447947    0.030229    1.458417
   84          6             0       -0.766013   -0.092190    1.342974
   85          6             0       -2.081279   -0.229374    1.165020
   86          6             0       -3.279267   -0.347237    0.958220
   87          6             0      -12.752099   -0.926042   -0.791811
   88          6             0      -13.967316   -0.889967   -0.651298
   89          6             0      -15.292680   -0.825648   -0.532534
   90          6             0      -16.514935   -0.761741   -0.458169
   91          6             0      -17.844829   -0.669323   -0.393292
   92          6             0      -19.061981   -0.579544   -0.358975
   93          6             0       10.229509    2.773971   -1.296281
   94          6             0       11.255250    2.205019   -0.633196
   95          6             0       10.653728    1.383509    0.400822
   96          6             0       11.402988    0.618254    1.318429
   97          6             0       10.826592   -0.149294    2.344709
   98          6             0       11.491959   -0.918955    3.334048
   99          6             0       10.531981   -1.482479    4.125829
  100          6             0        9.261692   -1.072876    3.632460
  101          7             0        9.492499   -0.267582    2.559343
  102          6             0        8.026118   -1.443723    4.146232
  103          6             0        6.764314   -1.106244    3.683847
  104          6             0        5.549154   -1.605457    4.305736
  105          6             0        4.523478   -1.107389    3.587583
  106          6             0        5.124913   -0.302498    2.540834
  107          7             0        6.465374   -0.317970    2.622932
  108          6             0        4.377092    0.397375    1.572337
  109          6             0        4.954946    1.208344    0.579361
  110          6             0        4.289064    1.973270   -0.413267
  111          6             0        5.248336    2.605853   -1.151875
  112          6             0        6.518310    2.235002   -0.628815
  113          7             0        6.288310    1.393406    0.416493
  114          6             0        7.753203    2.646793   -1.111038
  115          6             0        9.014586    2.286990   -0.665227
  116          7             0        9.313086    1.452867    0.360219
  117          1             0       10.256130    3.450182   -2.128993
  118          1             0       12.310391    2.309772   -0.795920
  119          1             0       12.556628   -1.017769    3.419447
  120          1             0       10.680094   -2.124639    4.972152
  121          1             0        8.798538    0.192274    1.979852
  122          1             0        8.055591   -2.092967    5.010976
  123          1             0        5.522549   -2.247478    5.165116
  124          1             0        3.468142   -1.244496    3.724104
  125          1             0        3.224669    2.026247   -0.534106
  126          1             0        5.099903    3.265922   -1.984210
  127          1             0        6.982330    0.948328    1.007364
  128          1             0        7.723809    3.324818   -1.953362
  129          6             0       -5.156791    1.522505   -2.220885
  130          6             0       -4.330040    0.979873   -1.307035
  131          6             0       -5.158255    0.141830   -0.459993
  132          6             0       -4.635144   -0.509029    0.680489
  133          6             0       -5.401615   -1.280707    1.580365
  134          6             0       -5.078044   -1.797922    2.858384
  135          6             0       -6.215110   -2.371316    3.371834
  136          6             0       -7.240661   -2.265922    2.400156
  137          7             0       -6.690074   -1.602567    1.334410
  138          6             0       -8.586801   -2.641632    2.410059
  139          6             0       -9.254258   -2.696584    1.189880
  140          6             0       -8.595436   -3.015448   -0.065361
  141          6             0       -9.416253   -2.562300   -1.037971
  142          6             0      -10.549992   -1.973639   -0.346400
  143          7             0      -10.488732   -2.179587    0.964649
  144          6             0      -11.390251   -1.009690   -0.994492
  145          6             0      -10.698489   -0.077343   -1.789087
  146          6             0      -11.156938    0.868227   -2.742211
  147          6             0      -10.067796    1.541376   -3.227162
  148          6             0       -8.913934    1.052020   -2.553994
  149          7             0       -9.343734    0.083740   -1.705446
  150          6             0       -7.584726    1.438479   -2.673601
  151          6             0       -6.485075    1.007829   -1.936117
  152          7             0       -6.444327    0.158471   -0.874686
  153          1             0       -4.926354    2.204282   -3.016833
  154          1             0       -3.273381    1.117462   -1.184395
  155          1             0       -4.117846   -1.720285    3.330206
  156          1             0       -6.322033   -2.853796    4.323704
  157          1             0       -7.158682   -1.259885    0.502867
  158          1             0       -9.113240   -2.744934    3.345594
  159          1             0       -7.679692   -3.566858   -0.159357
  160          1             0       -9.315909   -2.644034   -2.103849
  161          1             0      -12.182604    0.989712   -3.032068
  162          1             0      -10.062581    2.311074   -3.974246
  163          1             0       -8.708930   -0.402629   -1.089283
  164          1             0       -7.375391    2.187703   -3.424832
 --------------------------------------------------------------------
     1 basis functions        1 primitive gaussians
     1 alpha electrons        1 beta electrons

 Harmonic frequencies (cm**-1), IR intensities (km*mol⁻¹),
 Raman scattering activities (A**4/amu), Raman depolarization ratios,
 reduced masses (AMU), force constants (mDyne/A) and normal coordinates:
                      1                      2                      3
                        a                      a                      a 
 Frequencies --    -2.1065                -1.5866                 2.5601
 Red. masses --    11.8162                11.8095                11.6846
 Frc consts  --     0.0000                 0.0000                 0.0000
 IR Inten    --    14.4873                23.1226                 6.6675
 Raman Activ --     0.0000                 0.0000                 0.0000
 Depolar     --     0.0000                 0.0000                 0.0000
 Atom AN      X      Y      Z        X      Y      Z        X      Y      Z
   1   6     0.02   0.08  -0.00    -0.02  -0.05  -0.09    -0.06  -0.05  -0.06
   2   6     0.02   0.06  -0.00    -0.02  -0.04  -0.06    -0.05  -0.02  -0.03
   3   6     0.00   0.06  -0.02    -0.02  -0.03  -0.06    -0.03  -0.01  -0.00
   4   6    -0.01   0.05  -0.03    -0.02  -0.02  -0.03    -0.02   0.03   0.03
   5   6    -0.02   0.04  -0.04    -0.02  -0.01  -0.03    -0.00   0.04   0.05
   6   6    -0.03   0.03  -0.05    -0.01   0.00  -0.00     0.02   0.07   0.09
   7   6    -0.04   0.03  -0.06    -0.02   0.00  -0.00     0.03   0.07   0.10
   8   6    -0.04   0.04  -0.06    -0.02  -0.01  -0.03     0.02   0.04   0.08
   9   7    -0.03   0.06  -0.05    -0.02  -0.02  -0.04    -0.00   0.02   0.05
  10   6    -0.04   0.05  -0.07    -0.02  -0.01  -0.04     0.02   0.03   0.08
  11   6    -0.04   0.06  -0.06    -0.03  -0.03  -0.07     0.01   0.00   0.05
  12   6    -0.04   0.07  -0.07    -0.03  -0.03  -0.08     0.01  -0.01   0.05
  13   6    -0.04   0.08  -0.07    -0.04  -0.05  -0.11    -0.00  -0.04   0.02
  14   6    -0.02   0.08  -0.06    -0.04  -0.05  -0.11    -0.02  -0.05  -0.00
  15   7    -0.03   0.08  -0.06    -0.03  -0.04  -0.10    -0.01  -0.03   0.02
  16   6    -0.01   0.09  -0.05    -0.04  -0.07  -0.14    -0.04  -0.08  -0.04
  17   6     0.00   0.10  -0.04    -0.04  -0.08  -0.15    -0.05  -0.09  -0.06
  18   6     0.01   0.11  -0.03    -0.04  -0.09  -0.18    -0.07  -0.12  -0.10
  19   6     0.02   0.11  -0.02    -0.04  -0.10  -0.17    -0.08  -0.12  -0.11
  20   6     0.02   0.10  -0.02    -0.03  -0.08  -0.14    -0.06  -0.09  -0.08
  21   7     0.00   0.10  -0.03    -0.04  -0.07  -0.14    -0.05  -0.08  -0.06
  22   6     0.02   0.09  -0.01    -0.03  -0.07  -0.13    -0.07  -0.08  -0.08
  23   6     0.02   0.08  -0.01    -0.02  -0.06  -0.10    -0.06  -0.05  -0.05
  24   7     0.00   0.08  -0.02    -0.02  -0.05  -0.09    -0.04  -0.03  -0.02
  25   1     0.01   0.02   0.00    -0.01  -0.02  -0.03    -0.02  -0.02  -0.02
  26   1     0.01   0.02  -0.00    -0.00  -0.01  -0.01    -0.01  -0.00  -0.01
  27   1    -0.01   0.01  -0.01    -0.00   0.00   0.00     0.01   0.03   0.03
  28   1    -0.02   0.01  -0.02    -0.00   0.00   0.00     0.01   0.03   0.04
  29   1    -0.00   0.02  -0.01    -0.01  -0.01  -0.02    -0.00  -0.00   0.01
  30   1    -0.02   0.01  -0.02    -0.01  -0.00  -0.01     0.01   0.01   0.03
  31   1    -0.02   0.02  -0.02    -0.01  -0.01  -0.02     0.01   0.00   0.02
  32   1    -0.01   0.02  -0.02    -0.01  -0.02  -0.04    -0.00  -0.02   0.00
  33   1    -0.00   0.03  -0.02    -0.01  -0.02  -0.05    -0.01  -0.03  -0.02
  34   1     0.00   0.03  -0.01    -0.01  -0.03  -0.06    -0.02  -0.04  -0.03
  35   1     0.01   0.03  -0.00    -0.01  -0.03  -0.06    -0.03  -0.04  -0.04
  36   1    -0.00   0.02  -0.01    -0.01  -0.02  -0.03    -0.01  -0.01  -0.01
  37   1     0.01   0.03  -0.00    -0.01  -0.02  -0.04    -0.02  -0.03  -0.03
  38   6     0.04   0.06  -0.04    -0.01  -0.03  -0.04     0.08  -0.01   0.01
  39   6     0.03   0.05  -0.02    -0.01  -0.02  -0.04     0.06  -0.02   0.00
  40   6     0.02   0.05  -0.03     0.00  -0.02  -0.05     0.04  -0.01   0.01
  41   6     0.00   0.05  -0.02     0.01  -0.02  -0.05     0.02  -0.02  -0.00
  42   6    -0.01   0.06  -0.02     0.02  -0.02  -0.06     0.00  -0.01   0.01
  43   6    -0.02   0.05  -0.01     0.03  -0.02  -0.05    -0.02  -0.01  -0.00
  44   6    -0.03   0.06  -0.02     0.03  -0.03  -0.06    -0.03   0.00   0.01
  45   6    -0.02   0.08  -0.03     0.03  -0.03  -0.08    -0.02   0.02   0.02
  46   7    -0.01   0.08  -0.04     0.02  -0.03  -0.08     0.00   0.02   0.02
  47   6    -0.02   0.09  -0.04     0.03  -0.04  -0.09    -0.03   0.04   0.04
  48   6    -0.02   0.10  -0.05     0.03  -0.04  -0.10    -0.02   0.06   0.05
  49   6    -0.02   0.12  -0.06     0.03  -0.05  -0.11    -0.03   0.08   0.06
  50   6    -0.01   0.13  -0.07     0.03  -0.05  -0.12    -0.01   0.09   0.07
  51   6     0.00   0.12  -0.07     0.02  -0.05  -0.11     0.01   0.08   0.07
  52   7    -0.00   0.11  -0.06     0.02  -0.05  -0.11     0.01   0.06   0.06
  53   6     0.01   0.13  -0.08     0.01  -0.05  -0.12     0.03   0.08   0.07
  54   6     0.03   0.12  -0.08     0.00  -0.05  -0.10     0.05   0.07   0.07
  55   6     0.04   0.13  -0.08    -0.01  -0.05  -0.10     0.07   0.08   0.07
  56   6     0.05   0.11  -0.08    -0.02  -0.05  -0.09     0.09   0.06   0.06
  57   6     0.04   0.10  -0.07    -0.01  -0.04  -0.08     0.08   0.05   0.05
  58   7     0.03   0.11  -0.07    -0.00  -0.05  -0.10     0.06   0.06   0.06
  59   6     0.04   0.09  -0.06    -0.01  -0.04  -0.07     0.08   0.03   0.04
  60   6     0.03   0.07  -0.05    -0.01  -0.03  -0.06     0.07   0.01   0.02
  61   7     0.02   0.08  -0.04     0.00  -0.03  -0.07     0.05   0.01   0.02
  62   1     0.01   0.02  -0.01    -0.01  -0.01  -0.01     0.03  -0.00   0.00
  63   1     0.01   0.01  -0.00    -0.00  -0.00  -0.01     0.02  -0.01  -0.00
  64   1    -0.01   0.01  -0.00     0.01  -0.00  -0.01    -0.01  -0.01  -0.00
  65   1    -0.01   0.02  -0.00     0.01  -0.01  -0.02    -0.02   0.00   0.00
  66   1     0.00   0.02  -0.01     0.00  -0.01  -0.02     0.00   0.01   0.01
  67   1    -0.01   0.03  -0.01     0.01  -0.01  -0.03    -0.01   0.01   0.01
  68   1    -0.01   0.03  -0.02     0.01  -0.01  -0.03    -0.01   0.02   0.02
  69   1    -0.00   0.04  -0.02     0.01  -0.02  -0.04    -0.00   0.03   0.02
  70   1     0.00   0.04  -0.02     0.00  -0.02  -0.04     0.01   0.03   0.02
  71   1     0.01   0.04  -0.03    -0.00  -0.02  -0.03     0.02   0.03   0.02
  72   1     0.02   0.03  -0.02    -0.01  -0.01  -0.03     0.03   0.02   0.02
  73   1     0.00   0.03  -0.02     0.00  -0.01  -0.03     0.01   0.01   0.01
  74   1     0.01   0.02  -0.02    -0.01  -0.01  -0.02     0.03   0.01   0.01
  75   6    -0.01   0.04  -0.02    -0.01  -0.01  -0.01    -0.01   0.04   0.04
  76   6    -0.01   0.03  -0.01    -0.01  -0.00   0.00    -0.01   0.06   0.04
  77   6    -0.01   0.02  -0.01    -0.01   0.01   0.02    -0.01   0.07   0.05
  78   6    -0.00   0.01  -0.00    -0.00   0.01   0.03    -0.01   0.08   0.05
  79   6    -0.00   0.00   0.00    -0.00   0.02   0.04    -0.01   0.08   0.05
  80   6    -0.00  -0.01   0.01    -0.00   0.02   0.05    -0.01   0.09   0.05
  81   6     0.00  -0.09   0.05     0.00   0.05   0.10    -0.01   0.04  -0.00
  82   6     0.00  -0.10   0.05     0.00   0.05   0.10    -0.01   0.03  -0.01
  83   6     0.00  -0.11   0.05     0.00   0.05   0.10    -0.01   0.01  -0.02
  84   6     0.00  -0.11   0.06     0.00   0.04   0.10    -0.00  -0.00  -0.03
  85   6     0.00  -0.11   0.06     0.00   0.04   0.10    -0.00  -0.02  -0.04
  86   6     0.00  -0.12   0.06     0.00   0.04   0.09     0.00  -0.03  -0.05
  87   6     0.00  -0.05   0.04     0.02   0.01   0.03     0.01  -0.10  -0.06
  88   6     0.00  -0.03   0.03     0.02   0.01   0.02     0.01  -0.09  -0.05
  89   6     0.00  -0.02   0.02     0.01   0.00   0.01     0.02  -0.08  -0.05
  90   6     0.00  -0.00   0.02     0.01  -0.00  -0.00     0.02  -0.07  -0.04
  91   6     0.00   0.02   0.00     0.01  -0.01  -0.02     0.02  -0.05  -0.03
  92   6     0.00   0.03  -0.01     0.01  -0.01  -0.03     0.02  -0.04  -0.01
  93   6    -0.03  -0.05  -0.00    -0.01   0.05   0.08    -0.01   0.09   0.05
  94   6    -0.02  -0.04  -0.00    -0.00   0.04   0.07    -0.01   0.09   0.05
  95   6    -0.01  -0.03   0.01    -0.00   0.04   0.07    -0.01   0.09   0.05
  96   6    -0.00  -0.02   0.01     0.00   0.03   0.06    -0.01   0.09   0.05
  97   6     0.01  -0.01   0.02     0.00   0.03   0.06    -0.01   0.08   0.04
  98   6     0.02   0.00   0.03     0.01   0.02   0.05    -0.01   0.08   0.05
  99   6     0.03   0.00   0.04     0.01   0.02   0.06    -0.01   0.08   0.04
 100   6     0.02  -0.01   0.04     0.01   0.03   0.06    -0.01   0.08   0.04
 101   7     0.01  -0.02   0.03     0.01   0.03   0.07    -0.01   0.08   0.04
 102   6     0.03  -0.02   0.04     0.01   0.03   0.07    -0.02   0.07   0.03
 103   6     0.02  -0.04   0.05     0.01   0.03   0.08    -0.01   0.06   0.02
 104   6     0.03  -0.04   0.06     0.01   0.03   0.08    -0.01   0.06   0.01
 105   6     0.02  -0.06   0.05     0.01   0.04   0.09    -0.01   0.05   0.01
 106   6     0.01  -0.06   0.04     0.01   0.04   0.09    -0.01   0.05   0.01
 107   7     0.01  -0.05   0.04     0.01   0.04   0.09    -0.01   0.07   0.02
 108   6     0.00  -0.08   0.04     0.00   0.05   0.09    -0.01   0.05   0.01
 109   6    -0.01  -0.08   0.03    -0.00   0.05   0.10    -0.01   0.06   0.02
 110   6    -0.02  -0.10   0.03    -0.00   0.06   0.10    -0.01   0.06   0.02
 111   6    -0.03  -0.10   0.02    -0.01   0.06   0.10    -0.01   0.07   0.02
 112   6    -0.02  -0.08   0.01    -0.00   0.06   0.09    -0.01   0.07   0.03
 113   7    -0.01  -0.08   0.03    -0.00   0.05   0.10    -0.01   0.07   0.03
 114   6    -0.03  -0.07   0.01    -0.01   0.05   0.09    -0.01   0.08   0.04
 115   6    -0.03  -0.06   0.01    -0.00   0.05   0.08    -0.01   0.09   0.04
 116   7    -0.02  -0.05   0.01    -0.00   0.04   0.08    -0.01   0.09   0.05
 117   1    -0.01  -0.02  -0.00    -0.00   0.01   0.02    -0.00   0.03   0.02
 118   1    -0.01  -0.01  -0.00    -0.00   0.01   0.02    -0.00   0.03   0.02
 119   1     0.01   0.00   0.01     0.00   0.01   0.01    -0.00   0.03   0.01
 120   1     0.01   0.00   0.01     0.00   0.01   0.02    -0.00   0.02   0.01
 121   1     0.00  -0.01   0.01     0.00   0.01   0.02    -0.00   0.02   0.01
 122   1     0.01  -0.00   0.01     0.00   0.01   0.02    -0.00   0.02   0.01
 123   1     0.01  -0.01   0.02     0.00   0.01   0.02    -0.00   0.02   0.00
 124   1     0.01  -0.02   0.02     0.00   0.01   0.03    -0.00   0.01   0.00
 125   1    -0.01  -0.03   0.01    -0.00   0.02   0.03    -0.00   0.02   0.00
 126   1    -0.01  -0.03   0.00    -0.00   0.02   0.03    -0.00   0.02   0.01
 127   1    -0.00  -0.02   0.01     0.00   0.01   0.02    -0.00   0.02   0.01
 128   1    -0.01  -0.02   0.00    -0.00   0.02   0.03    -0.00   0.03   0.01
 129   6     0.02  -0.12   0.04     0.02   0.04   0.09     0.01  -0.10  -0.09
 130   6     0.02  -0.12   0.05     0.01   0.04   0.09     0.00  -0.08  -0.07
 131   6     0.01  -0.11   0.05     0.01   0.04   0.08     0.01  -0.07  -0.06
 132   6     0.00  -0.11   0.05     0.01   0.04   0.08     0.01  -0.05  -0.05
 133   6    -0.00  -0.10   0.05     0.00   0.03   0.08     0.01  -0.04  -0.05
 134   6    -0.01  -0.10   0.06    -0.00   0.03   0.08     0.01  -0.02  -0.04
 135   6    -0.02  -0.09   0.05    -0.00   0.03   0.07     0.01  -0.02  -0.03
 136   6    -0.01  -0.09   0.05     0.00   0.02   0.06     0.01  -0.04  -0.04
 137   7    -0.01  -0.10   0.05     0.01   0.03   0.07     0.01  -0.06  -0.05
 138   6    -0.02  -0.08   0.05     0.00   0.02   0.05     0.01  -0.05  -0.03
 139   6    -0.02  -0.07   0.05     0.01   0.02   0.05     0.01  -0.06  -0.03
 140   6    -0.02  -0.08   0.05     0.02   0.03   0.05     0.02  -0.08  -0.03
 141   6    -0.01  -0.08   0.05     0.02   0.03   0.05     0.02  -0.10  -0.04
 142   6    -0.01  -0.06   0.04     0.02   0.02   0.04     0.01  -0.09  -0.05
 143   7    -0.01  -0.07   0.05     0.01   0.02   0.04     0.01  -0.08  -0.05
 144   6     0.00  -0.06   0.04     0.02   0.02   0.04     0.01  -0.10  -0.06
 145   6     0.01  -0.07   0.04     0.02   0.02   0.05     0.01  -0.11  -0.08
 146   6     0.02  -0.07   0.03     0.02   0.03   0.05     0.01  -0.13  -0.09
 147   6     0.03  -0.08   0.03     0.02   0.03   0.06     0.01  -0.13  -0.10
 148   6     0.02  -0.09   0.04     0.02   0.03   0.06     0.01  -0.12  -0.09
 149   7     0.01  -0.09   0.04     0.02   0.03   0.06     0.01  -0.11  -0.08
 150   6     0.03  -0.10   0.04     0.02   0.04   0.07     0.01  -0.12  -0.09
 151   6     0.02  -0.11   0.04     0.02   0.04   0.08     0.01  -0.10  -0.08
 152   7     0.01  -0.11   0.05     0.01   0.04   0.08     0.01  -0.09  -0.08
 153   1     0.01  -0.04   0.01     0.01   0.01   0.03     0.00  -0.03  -0.03
 154   1     0.01  -0.04   0.01     0.00   0.01   0.03     0.00  -0.02  -0.02
 155   1    -0.00  -0.03   0.02    -0.00   0.01   0.02     0.00  -0.00  -0.01
 156   1    -0.01  -0.03   0.02    -0.00   0.01   0.02     0.00  -0.00  -0.01
 157   1    -0.00  -0.03   0.01     0.00   0.01   0.02     0.00  -0.02  -0.01
 158   1    -0.01  -0.02   0.01    -0.00   0.00   0.01     0.00  -0.01  -0.01
 159   1    -0.01  -0.03   0.02     0.01   0.01   0.02     0.01  -0.02  -0.01
 160   1    -0.00  -0.02   0.01     0.01   0.01   0.01     0.01  -0.03  -0.01
 161   1     0.01  -0.02   0.01     0.01   0.01   0.01     0.00  -0.04  -0.03
 162   1     0.01  -0.03   0.01     0.01   0.01   0.02     0.00  -0.04  -0.03
 163   1     0.00  -0.02   0.01     0.01   0.01   0.02     0.00  -0.03  -0.02
 164   1     0.01  -0.03   0.01     0.01   0.01   0.02     0.00  -0.04  -0.03
                      4                      5                      6
                        a                      a                      a 
 Frequencies --     3.9963                 5.0859                 5.8722
 Red. masses --    11.6731                11.4202                11.3820
 Frc consts  --     0.0000                 0.0000                 0.0000
 IR Inten    --     0.6937                 4.4741                 0.2189
 Raman Activ --     0.0000                 0.0000                 0.0000
 Depolar     --     0.0000                 0.0000                 0.0000
 Atom AN      X      Y      Z        X      Y      Z        X      Y      Z
   1   6    -0.08  -0.01  -0.04     0.01  -0.09  -0.13    -0.04   0.01  -0.02
   2   6    -0.06   0.01  -0.06     0.02  -0.07  -0.08    -0.02   0.03  -0.00
   3   6    -0.02   0.01  -0.03     0.02  -0.03  -0.03    -0.01   0.03   0.01
   4   6     0.01   0.03  -0.04     0.02   0.00   0.03     0.00   0.04   0.02
   5   6     0.05   0.03  -0.02     0.02   0.05   0.08     0.01   0.04   0.03
   6   6     0.08   0.05  -0.02     0.03   0.08   0.15     0.03   0.06   0.04
   7   6     0.11   0.04   0.00     0.03   0.12   0.18     0.04   0.06   0.05
   8   6     0.10   0.01   0.03     0.03   0.10   0.15     0.03   0.03   0.03
   9   7     0.06   0.01   0.01     0.02   0.07   0.09     0.02   0.03   0.03
  10   6     0.12  -0.00   0.06     0.03   0.13   0.17     0.03   0.02   0.03
  11   6     0.10  -0.03   0.08     0.02   0.12   0.13     0.02  -0.00   0.02
  12   6     0.13  -0.04   0.11     0.02   0.15   0.15     0.03  -0.02   0.02
  13   6     0.11  -0.06   0.13     0.02   0.12   0.10     0.02  -0.04  -0.00
  14   6     0.07  -0.06   0.11     0.02   0.08   0.05     0.00  -0.04  -0.01
  15   7     0.07  -0.04   0.08     0.02   0.08   0.07     0.01  -0.02   0.00
  16   6     0.04  -0.08   0.11     0.01   0.05  -0.01    -0.01  -0.06  -0.03
  17   6     0.00  -0.08   0.09     0.01   0.00  -0.07    -0.02  -0.06  -0.03
  18   6    -0.03  -0.10   0.10     0.01  -0.03  -0.13    -0.04  -0.08  -0.05
  19   6    -0.06  -0.09   0.07     0.01  -0.06  -0.16    -0.05  -0.07  -0.05
  20   6    -0.05  -0.07   0.04     0.01  -0.05  -0.12    -0.04  -0.04  -0.04
  21   7    -0.01  -0.07   0.06     0.01  -0.01  -0.07    -0.03  -0.04  -0.03
  22   6    -0.07  -0.05   0.01     0.01  -0.07  -0.14    -0.04  -0.03  -0.03
  23   6    -0.06  -0.03  -0.01     0.01  -0.06  -0.10    -0.03  -0.01  -0.02
  24   7    -0.02  -0.01  -0.01     0.02  -0.03  -0.04    -0.02   0.01  -0.00
  25   1    -0.03  -0.01  -0.02     0.00  -0.04  -0.05    -0.01   0.00  -0.01
  26   1    -0.02   0.01  -0.02     0.00  -0.02  -0.02    -0.01   0.01   0.00
  27   1     0.02   0.02  -0.01     0.01   0.02   0.05     0.01   0.02   0.01
  28   1     0.04   0.01   0.00     0.01   0.04   0.07     0.01   0.02   0.02
  29   1     0.01  -0.00   0.01     0.01   0.01   0.01     0.00   0.00   0.00
  30   1     0.04   0.00   0.02     0.01   0.05   0.06     0.01   0.01   0.01
  31   1     0.05  -0.01   0.04     0.01   0.05   0.06     0.01  -0.00   0.01
  32   1     0.03  -0.02   0.04     0.01   0.04   0.03     0.00  -0.02  -0.00
  33   1     0.01  -0.03   0.04     0.00   0.02  -0.01    -0.00  -0.02  -0.01
  34   1    -0.01  -0.03   0.03     0.00  -0.01  -0.04    -0.01  -0.03  -0.02
  35   1    -0.03  -0.03   0.02     0.00  -0.03  -0.06    -0.02  -0.02  -0.02
  36   1     0.00  -0.01   0.01     0.00   0.00  -0.01    -0.00  -0.01  -0.00
  37   1    -0.03  -0.02   0.00     0.00  -0.03  -0.05    -0.02  -0.01  -0.01
  38   6    -0.01  -0.02   0.05    -0.05   0.02  -0.01    -0.04   0.04  -0.04
  39   6    -0.01  -0.02   0.06    -0.04   0.03  -0.00    -0.03   0.04  -0.03
  40   6    -0.01  -0.02   0.03    -0.03   0.02   0.00    -0.01   0.03  -0.01
  41   6    -0.01  -0.02   0.03    -0.02   0.02   0.01    -0.00   0.03   0.00
  42   6    -0.02  -0.01   0.00    -0.01   0.02   0.01     0.01   0.02   0.02
  43   6    -0.02  -0.01  -0.01     0.00   0.02   0.03     0.02   0.02   0.04
  44   6    -0.02   0.00  -0.03     0.01   0.01   0.02     0.03   0.01   0.05
  45   6    -0.02   0.01  -0.04     0.00   0.00   0.01     0.02  -0.00   0.05
  46   7    -0.02   0.00  -0.03    -0.01   0.01   0.01     0.01   0.00   0.03
  47   6    -0.02   0.02  -0.07     0.00  -0.01   0.01     0.03  -0.02   0.06
  48   6    -0.01   0.02  -0.09    -0.00  -0.01  -0.01     0.02  -0.03   0.05
  49   6    -0.01   0.03  -0.12     0.00  -0.02  -0.01     0.03  -0.05   0.06
  50   6    -0.01   0.04  -0.12    -0.00  -0.03  -0.02     0.01  -0.06   0.06
  51   6    -0.01   0.03  -0.09    -0.01  -0.02  -0.03     0.00  -0.05   0.04
  52   7    -0.01   0.02  -0.08    -0.01  -0.01  -0.02     0.01  -0.03   0.04
  53   6    -0.01   0.03  -0.09    -0.02  -0.02  -0.04    -0.01  -0.05   0.02
  54   6    -0.01   0.02  -0.06    -0.03  -0.02  -0.04    -0.02  -0.04   0.00
  55   6    -0.00   0.02  -0.06    -0.04  -0.02  -0.05    -0.04  -0.04  -0.01
  56   6    -0.00   0.01  -0.03    -0.05  -0.01  -0.05    -0.04  -0.02  -0.03
  57   6    -0.00   0.01  -0.02    -0.04  -0.00  -0.04    -0.04  -0.01  -0.02
  58   7    -0.01   0.01  -0.04    -0.04  -0.01  -0.03    -0.02  -0.02  -0.00
  59   6    -0.00  -0.01   0.01    -0.05   0.01  -0.03    -0.04   0.01  -0.03
  60   6    -0.01  -0.01   0.02    -0.04   0.01  -0.02    -0.03   0.02  -0.03
  61   7    -0.01  -0.01   0.01    -0.03   0.01  -0.01    -0.02   0.02  -0.01
  62   1    -0.00  -0.01   0.02    -0.02   0.01  -0.01    -0.01   0.01  -0.02
  63   1    -0.00  -0.01   0.02    -0.01   0.01   0.00    -0.01   0.02  -0.01
  64   1    -0.01  -0.00   0.00     0.00   0.01   0.01     0.01   0.01   0.01
  65   1    -0.01   0.00  -0.01     0.00   0.00   0.01     0.01   0.00   0.02
  66   1    -0.00   0.00  -0.01    -0.00   0.00  -0.00     0.00  -0.00   0.01
  67   1    -0.01   0.01  -0.02     0.00  -0.00   0.00     0.01  -0.01   0.02
  68   1    -0.00   0.01  -0.04     0.00  -0.01  -0.00     0.01  -0.02   0.02
  69   1    -0.00   0.01  -0.04    -0.00  -0.01  -0.01     0.00  -0.02   0.02
  70   1    -0.00   0.01  -0.03    -0.01  -0.01  -0.01    -0.00  -0.02   0.01
  71   1    -0.00   0.01  -0.02    -0.01  -0.01  -0.02    -0.01  -0.01  -0.00
  72   1     0.00   0.00  -0.01    -0.02  -0.00  -0.02    -0.02  -0.01  -0.01
  73   1    -0.00   0.00  -0.01    -0.01  -0.00  -0.01    -0.00  -0.00   0.00
  74   1    -0.00  -0.00   0.01    -0.02   0.00  -0.01    -0.01   0.00  -0.01
  75   6     0.00   0.05  -0.07     0.02  -0.01   0.03     0.00   0.06   0.02
  76   6     0.00   0.06  -0.09     0.02  -0.02   0.03     0.00   0.07   0.03
  77   6    -0.00   0.08  -0.10     0.02  -0.03   0.03     0.00   0.07   0.03
  78   6    -0.00   0.08  -0.11     0.02  -0.03   0.02     0.01   0.07   0.03
  79   6    -0.00   0.08  -0.12     0.02  -0.04   0.01     0.00   0.07   0.03
  80   6    -0.00   0.08  -0.12     0.01  -0.05  -0.00     0.00   0.06   0.03
  81   6     0.00   0.01  -0.02     0.01  -0.02  -0.05     0.01  -0.07  -0.00
  82   6     0.00   0.00  -0.01     0.01  -0.01  -0.04     0.01  -0.08  -0.00
  83   6     0.00  -0.01   0.01     0.01  -0.00  -0.04     0.01  -0.09  -0.00
  84   6     0.00  -0.02   0.02     0.01   0.01  -0.03     0.01  -0.09  -0.01
  85   6    -0.00  -0.03   0.03     0.00   0.02  -0.02     0.01  -0.09  -0.01
  86   6    -0.00  -0.03   0.05     0.00   0.02  -0.01     0.01  -0.08  -0.01
  87   6    -0.01  -0.04   0.10    -0.02   0.02   0.05     0.00   0.07  -0.02
  88   6    -0.01  -0.04   0.09    -0.02   0.03   0.05     0.00   0.07  -0.01
  89   6    -0.01  -0.04   0.09    -0.02   0.04   0.04     0.00   0.07  -0.01
  90   6    -0.01  -0.03   0.08    -0.02   0.04   0.04     0.00   0.06  -0.01
  91   6    -0.01  -0.03   0.06    -0.02   0.03   0.03     0.00   0.06  -0.00
  92   6    -0.01  -0.02   0.05    -0.02   0.03   0.02     0.00   0.05   0.00
  93   6    -0.04   0.08  -0.08     0.03  -0.10  -0.07    -0.02  -0.10  -0.09
  94   6    -0.03   0.09  -0.09     0.03  -0.09  -0.05    -0.01  -0.05  -0.06
  95   6    -0.02   0.07  -0.09     0.02  -0.07  -0.03    -0.01  -0.01  -0.02
  96   6    -0.00   0.07  -0.11     0.01  -0.05  -0.01     0.00   0.05   0.02
  97   6     0.01   0.06  -0.11     0.01  -0.03  -0.00     0.01   0.09   0.06
  98   6     0.03   0.05  -0.12    -0.00  -0.01   0.02     0.02   0.15   0.10
  99   6     0.04   0.04  -0.12    -0.01   0.00   0.02     0.02   0.17   0.12
 100   6     0.03   0.04  -0.10    -0.00  -0.00   0.00     0.02   0.12   0.09
 101   7     0.02   0.05  -0.10     0.01  -0.03  -0.01     0.01   0.08   0.06
 102   6     0.04   0.02  -0.09    -0.01   0.01   0.00     0.02   0.13   0.10
 103   6     0.03   0.02  -0.08    -0.00   0.00  -0.01     0.02   0.08   0.08
 104   6     0.04   0.00  -0.07    -0.01   0.02  -0.00     0.03   0.09   0.10
 105   6     0.03   0.00  -0.05    -0.00   0.01  -0.02     0.02   0.04   0.07
 106   6     0.01   0.02  -0.05     0.00  -0.01  -0.03     0.01   0.00   0.03
 107   7     0.02   0.03  -0.07     0.00  -0.02  -0.03     0.01   0.03   0.04
 108   6     0.00   0.02  -0.04     0.01  -0.03  -0.05     0.00  -0.06  -0.00
 109   6    -0.01   0.03  -0.04     0.02  -0.05  -0.06    -0.00  -0.09  -0.04
 110   6    -0.03   0.04  -0.03     0.02  -0.07  -0.08    -0.01  -0.15  -0.08
 111   6    -0.04   0.05  -0.03     0.03  -0.09  -0.09    -0.02  -0.17  -0.10
 112   6    -0.03   0.05  -0.05     0.03  -0.09  -0.08    -0.01  -0.13  -0.08
 113   7    -0.02   0.05  -0.05     0.02  -0.07  -0.07    -0.01  -0.09  -0.05
 114   6    -0.04   0.06  -0.05     0.03  -0.10  -0.08    -0.02  -0.13  -0.09
 115   6    -0.03   0.07  -0.07     0.03  -0.09  -0.06    -0.02  -0.09  -0.07
 116   7    -0.02   0.07  -0.08     0.02  -0.07  -0.05    -0.01  -0.04  -0.03
 117   1    -0.02   0.03  -0.02     0.01  -0.04  -0.02    -0.01  -0.04  -0.03
 118   1    -0.01   0.03  -0.03     0.01  -0.03  -0.01    -0.00  -0.01  -0.02
 119   1     0.01   0.02  -0.04    -0.00  -0.00   0.01     0.01   0.05   0.03
 120   1     0.01   0.01  -0.04    -0.00   0.01   0.01     0.01   0.06   0.04
 121   1     0.00   0.01  -0.02     0.00  -0.01  -0.01     0.00   0.01   0.01
 122   1     0.01   0.00  -0.03    -0.00   0.01   0.00     0.01   0.05   0.04
 123   1     0.02  -0.00  -0.02    -0.00   0.01   0.00     0.01   0.04   0.04
 124   1     0.01  -0.00  -0.01    -0.00   0.00  -0.01     0.01   0.01   0.02
 125   1    -0.01   0.01  -0.00     0.01  -0.02  -0.03    -0.00  -0.05  -0.02
 126   1    -0.02   0.02  -0.01     0.01  -0.03  -0.03    -0.01  -0.06  -0.04
 127   1    -0.00   0.01  -0.02     0.00  -0.01  -0.01    -0.00  -0.01  -0.01
 128   1    -0.02   0.02  -0.01     0.01  -0.03  -0.03    -0.01  -0.05  -0.04
 129   6    -0.03   0.00   0.08    -0.00  -0.08  -0.07     0.02   0.06   0.06
 130   6    -0.02  -0.01   0.07    -0.00  -0.05  -0.05     0.02   0.02   0.04
 131   6    -0.01  -0.02   0.06    -0.00  -0.01  -0.02     0.01  -0.01   0.01
 132   6    -0.00  -0.03   0.05    -0.00   0.03   0.01     0.01  -0.06  -0.02
 133   6     0.01  -0.05   0.05    -0.01   0.07   0.04     0.00  -0.10  -0.05
 134   6     0.01  -0.06   0.04    -0.01   0.12   0.06     0.00  -0.15  -0.07
 135   6     0.02  -0.07   0.04    -0.01   0.15   0.09    -0.00  -0.16  -0.09
 136   6     0.01  -0.06   0.05    -0.01   0.12   0.09    -0.00  -0.12  -0.09
 137   7     0.01  -0.05   0.06    -0.01   0.08   0.06     0.00  -0.08  -0.07
 138   6     0.02  -0.07   0.05    -0.02   0.13   0.11    -0.00  -0.11  -0.10
 139   6     0.01  -0.05   0.06    -0.02   0.09   0.11    -0.01  -0.05  -0.10
 140   6    -0.00  -0.04   0.05    -0.03   0.03   0.12    -0.02   0.00  -0.12
 141   6    -0.01  -0.02   0.06    -0.03  -0.00   0.11    -0.02   0.05  -0.10
 142   6    -0.01  -0.04   0.07    -0.02   0.03   0.09    -0.01   0.03  -0.07
 143   7     0.00  -0.06   0.08    -0.02   0.09   0.10    -0.00  -0.02  -0.08
 144   6    -0.01  -0.03   0.09    -0.02   0.01   0.05    -0.00   0.07  -0.02
 145   6    -0.02  -0.02   0.10    -0.01  -0.02   0.01     0.01   0.10   0.02
 146   6    -0.03  -0.01   0.11    -0.01  -0.05  -0.02     0.01   0.14   0.05
 147   6    -0.03  -0.00   0.11    -0.01  -0.08  -0.05     0.02   0.15   0.08
 148   6    -0.03  -0.01   0.10    -0.01  -0.06  -0.03     0.01   0.11   0.06
 149   7    -0.02  -0.02   0.10    -0.01  -0.03   0.00     0.01   0.09   0.02
 150   6    -0.03  -0.00   0.10    -0.00  -0.08  -0.05     0.02   0.10   0.07
 151   6    -0.02  -0.01   0.08    -0.00  -0.06  -0.04     0.02   0.06   0.05
 152   7    -0.02  -0.02   0.08    -0.01  -0.02  -0.01     0.01   0.02   0.01
 153   1    -0.01   0.00   0.03    -0.00  -0.03  -0.03     0.01   0.03   0.03
 154   1    -0.01  -0.00   0.02     0.00  -0.02  -0.02     0.01   0.00   0.01
 155   1     0.01  -0.02   0.01    -0.00   0.04   0.02     0.00  -0.05  -0.02
 156   1     0.01  -0.02   0.01    -0.00   0.05   0.03    -0.00  -0.06  -0.03
 157   1    -0.00  -0.01   0.02    -0.00   0.01   0.01     0.00  -0.01  -0.01
 158   1     0.01  -0.02   0.02    -0.00   0.05   0.03    -0.00  -0.04  -0.03
 159   1    -0.00  -0.01   0.01    -0.01   0.01   0.04    -0.01  -0.00  -0.04
 160   1    -0.01  -0.00   0.02    -0.01  -0.01   0.03    -0.01   0.03  -0.03
 161   1    -0.01  -0.00   0.03    -0.00  -0.02  -0.01     0.00   0.05   0.02
 162   1    -0.01   0.00   0.04    -0.00  -0.03  -0.02     0.01   0.05   0.03
 163   1    -0.00  -0.01   0.02    -0.00  -0.00   0.01     0.00   0.02  -0.00
 164   1    -0.01   0.00   0.03    -0.00  -0.03  -0.02     0.01   0.04   0.03
                      7                      8                      9
                        a                      a                      a 
 Frequencies --     7.0315                 7.5304                 7.9524
 Red. masses --    11.2772                11.4902                11.5846
 Frc consts  --     0.0000                 0.0000                 0.0000
 IR Inten    --     1.1167                 9.3359                 3.1692
 Raman Activ --     0.0000                 0.0000                 0.0000
 Depolar     --     0.0000                 0.0000                 0.0000
 Atom AN      X      Y      Z        X      Y      Z        X      Y      Z
   1   6     0.03   0.00   0.04     0.02  -0.07  -0.06    -0.07  -0.02  -0.08
   2   6     0.02  -0.01   0.04     0.01  -0.08  -0.05    -0.06  -0.02  -0.09
   3   6     0.01  -0.01   0.02     0.00  -0.05  -0.03    -0.04  -0.01  -0.07
   4   6     0.00  -0.02   0.02    -0.01  -0.05  -0.01    -0.03  -0.01  -0.08
   5   6    -0.01  -0.03   0.00    -0.02  -0.03   0.01    -0.01  -0.00  -0.06
   6   6    -0.02  -0.04  -0.01    -0.03  -0.03   0.02     0.01   0.00  -0.07
   7   6    -0.03  -0.04  -0.02    -0.03  -0.00   0.04     0.02   0.01  -0.05
   8   6    -0.03  -0.03  -0.02    -0.02   0.01   0.04     0.02   0.01  -0.02
   9   7    -0.01  -0.03  -0.01    -0.02  -0.01   0.02     0.00   0.00  -0.03
  10   6    -0.03  -0.03  -0.03    -0.03   0.04   0.05     0.03   0.02   0.01
  11   6    -0.03  -0.02  -0.03    -0.02   0.06   0.05     0.03   0.02   0.05
  12   6    -0.04  -0.02  -0.04    -0.02   0.09   0.07     0.05   0.03   0.08
  13   6    -0.03  -0.01  -0.04    -0.01   0.10   0.07     0.05   0.03   0.11
  14   6    -0.02  -0.00  -0.03    -0.00   0.07   0.04     0.03   0.02   0.08
  15   7    -0.02  -0.01  -0.02    -0.01   0.05   0.04     0.02   0.02   0.05
  16   6    -0.01   0.01  -0.02     0.01   0.07   0.03     0.02   0.02   0.10
  17   6     0.01   0.01  -0.01     0.02   0.05   0.01    -0.00   0.01   0.07
  18   6     0.02   0.02  -0.00     0.03   0.05  -0.01    -0.02   0.01   0.09
  19   6     0.03   0.02   0.01     0.03   0.02  -0.03    -0.04   0.00   0.05
  20   6     0.02   0.01   0.01     0.02   0.01  -0.03    -0.03  -0.00   0.02
  21   7     0.01   0.01   0.00     0.02   0.03  -0.01    -0.02   0.01   0.04
  22   6     0.03   0.01   0.03     0.03  -0.02  -0.05    -0.05  -0.01  -0.02
  23   6     0.02   0.00   0.03     0.02  -0.04  -0.04    -0.05  -0.01  -0.04
  24   7     0.01  -0.01   0.02     0.01  -0.03  -0.03    -0.04  -0.01  -0.05
  25   1     0.01   0.00   0.01     0.01  -0.02  -0.02    -0.02  -0.01  -0.02
  26   1     0.01  -0.00   0.01     0.00  -0.03  -0.02    -0.02  -0.01  -0.03
  27   1    -0.01  -0.01  -0.00    -0.01  -0.01   0.01     0.00   0.00  -0.03
  28   1    -0.01  -0.01  -0.01    -0.01   0.00   0.02     0.01   0.00  -0.01
  29   1    -0.00  -0.00  -0.00    -0.00   0.00   0.00    -0.00   0.00  -0.00
  30   1    -0.01  -0.01  -0.01    -0.01   0.01   0.02     0.01   0.01   0.01
  31   1    -0.01  -0.01  -0.02    -0.01   0.03   0.03     0.02   0.01   0.03
  32   1    -0.01  -0.00  -0.01    -0.00   0.03   0.02     0.02   0.01   0.04
  33   1    -0.00   0.00  -0.01     0.00   0.03   0.01     0.01   0.01   0.04
  34   1     0.01   0.01  -0.00     0.01   0.02  -0.00    -0.00   0.00   0.03
  35   1     0.01   0.01   0.01     0.01   0.00  -0.01    -0.01  -0.00   0.01
  36   1     0.00   0.00  -0.00     0.00   0.01   0.00    -0.00   0.00   0.01
  37   1     0.01   0.01   0.01     0.01  -0.01  -0.02    -0.02  -0.00  -0.01
  38   6     0.02  -0.08   0.23     0.10  -0.05  -0.11     0.03   0.00  -0.02
  39   6     0.01  -0.07   0.18     0.07  -0.08  -0.09     0.03   0.01  -0.05
  40   6     0.01  -0.05   0.09     0.04  -0.06  -0.05     0.03   0.01  -0.05
  41   6    -0.00  -0.03   0.02     0.01  -0.08  -0.02     0.03   0.01  -0.08
  42   6    -0.01  -0.01  -0.06    -0.02  -0.07   0.02     0.03   0.01  -0.08
  43   6    -0.01  -0.00  -0.13    -0.06  -0.09   0.05     0.03   0.02  -0.12
  44   6    -0.02   0.02  -0.19    -0.08  -0.07   0.08     0.03   0.02  -0.10
  45   6    -0.01   0.02  -0.16    -0.06  -0.04   0.06     0.03   0.01  -0.06
  46   7    -0.01   0.00  -0.09    -0.02  -0.04   0.03     0.03   0.01  -0.05
  47   6    -0.02   0.04  -0.20    -0.07  -0.01   0.08     0.03   0.00  -0.03
  48   6    -0.01   0.05  -0.17    -0.05   0.03   0.07     0.02  -0.01   0.01
  49   6    -0.01   0.07  -0.22    -0.06   0.05   0.09     0.02  -0.01   0.04
  50   6    -0.00   0.07  -0.18    -0.04   0.08   0.07     0.02  -0.02   0.09
  51   6     0.00   0.04  -0.09    -0.00   0.07   0.03     0.02  -0.02   0.08
  52   7    -0.00   0.03  -0.10    -0.01   0.04   0.04     0.02  -0.01   0.04
  53   6     0.01   0.03  -0.03     0.03   0.09   0.00     0.02  -0.03   0.12
  54   6     0.01   0.01   0.05     0.06   0.08  -0.03     0.02  -0.03   0.11
  55   6     0.02  -0.00   0.12     0.10   0.10  -0.06     0.02  -0.04   0.15
  56   6     0.03  -0.03   0.19     0.12   0.08  -0.09     0.02  -0.03   0.13
  57   6     0.02  -0.03   0.16     0.10   0.04  -0.08     0.02  -0.02   0.08
  58   7     0.02  -0.01   0.08     0.07   0.05  -0.05     0.02  -0.02   0.08
  59   6     0.02  -0.05   0.21     0.11   0.02  -0.10     0.02  -0.01   0.05
  60   6     0.02  -0.06   0.18     0.09  -0.02  -0.09     0.02  -0.01   0.01
  61   7     0.01  -0.04   0.10     0.06  -0.03  -0.05     0.03  -0.00  -0.01
  62   1     0.01  -0.03   0.09     0.04  -0.01  -0.04     0.01  -0.00  -0.00
  63   1     0.00  -0.02   0.05     0.02  -0.03  -0.03     0.01   0.00  -0.02
  64   1    -0.00  -0.00  -0.04    -0.02  -0.03   0.02     0.01   0.01  -0.04
  65   1    -0.01   0.01  -0.07    -0.03  -0.02   0.03     0.01   0.01  -0.03
  66   1    -0.00  -0.00  -0.01    -0.00  -0.01   0.00     0.01  -0.00  -0.01
  67   1    -0.01   0.02  -0.08    -0.03  -0.00   0.03     0.01   0.00  -0.01
  68   1    -0.01   0.03  -0.08    -0.03   0.02   0.03     0.01  -0.00   0.01
  69   1    -0.00   0.02  -0.06    -0.01   0.03   0.02     0.01  -0.01   0.03
  70   1     0.00   0.01  -0.01     0.01   0.03   0.00     0.00  -0.01   0.04
  71   1     0.01   0.00   0.04     0.03   0.04  -0.02     0.00  -0.01   0.05
  72   1     0.01  -0.01   0.07     0.04   0.02  -0.03     0.01  -0.01   0.04
  73   1     0.00  -0.00   0.01     0.01   0.01  -0.01     0.01  -0.00   0.01
  74   1     0.01  -0.02   0.08     0.04   0.01  -0.04     0.01  -0.01   0.02
  75   6     0.00  -0.03   0.02    -0.01  -0.07  -0.02    -0.03  -0.01  -0.10
  76   6     0.00  -0.03   0.03    -0.01  -0.08  -0.02    -0.03  -0.01  -0.12
  77   6     0.00  -0.03   0.03    -0.01  -0.09  -0.03    -0.03  -0.01  -0.12
  78   6     0.01  -0.03   0.03    -0.01  -0.09  -0.03    -0.03  -0.01  -0.12
  79   6     0.00  -0.02   0.03    -0.01  -0.09  -0.03    -0.03  -0.01  -0.11
  80   6     0.00  -0.01   0.02    -0.01  -0.08  -0.03    -0.03  -0.01  -0.09
  81   6    -0.00   0.04  -0.02    -0.02   0.08   0.02    -0.02  -0.01   0.12
  82   6    -0.00   0.04  -0.02    -0.02   0.09   0.03    -0.02  -0.01   0.13
  83   6    -0.00   0.05  -0.02    -0.02   0.10   0.03    -0.02  -0.00   0.14
  84   6    -0.00   0.05  -0.02    -0.02   0.10   0.04    -0.02   0.00   0.14
  85   6    -0.00   0.04  -0.02    -0.02   0.10   0.04    -0.02   0.01   0.13
  86   6    -0.00   0.04  -0.01    -0.02   0.09   0.04    -0.02   0.01   0.11
  87   6    -0.00  -0.04   0.01     0.01  -0.10  -0.01     0.03   0.02  -0.12
  88   6    -0.00  -0.04   0.02     0.01  -0.12  -0.01     0.03   0.02  -0.13
  89   6    -0.00  -0.05   0.02     0.00  -0.13  -0.02     0.03   0.03  -0.14
  90   6    -0.00  -0.05   0.02     0.00  -0.14  -0.02     0.03   0.03  -0.14
  91   6    -0.00  -0.05   0.02     0.00  -0.13  -0.02     0.03   0.03  -0.13
  92   6    -0.00  -0.04   0.02     0.01  -0.12  -0.02     0.03   0.02  -0.11
  93   6     0.03  -0.11  -0.08     0.01  -0.09  -0.06    -0.08  -0.06  -0.08
  94   6     0.02  -0.09  -0.05     0.00  -0.09  -0.06    -0.07  -0.05  -0.09
  95   6     0.01  -0.04  -0.02    -0.00  -0.07  -0.04    -0.05  -0.03  -0.06
  96   6     0.00  -0.01   0.02    -0.01  -0.06  -0.03    -0.03  -0.02  -0.07
  97   6    -0.01   0.04   0.04    -0.02  -0.03  -0.02    -0.01  -0.00  -0.05
  98   6    -0.02   0.08   0.08    -0.02  -0.03  -0.01     0.02   0.01  -0.05
  99   6    -0.02   0.11   0.10    -0.03  -0.00   0.01     0.03   0.02  -0.02
 100   6    -0.02   0.10   0.07    -0.03   0.01   0.01     0.02   0.02   0.00
 101   7    -0.01   0.06   0.04    -0.02  -0.01  -0.01    -0.00  -0.00  -0.02
 102   6    -0.02   0.12   0.08    -0.03   0.04   0.02     0.03   0.02   0.03
 103   6    -0.02   0.11   0.06    -0.03   0.05   0.02     0.02   0.02   0.06
 104   6    -0.02   0.14   0.07    -0.03   0.08   0.04     0.04   0.03   0.09
 105   6    -0.02   0.11   0.04    -0.03   0.09   0.03     0.02   0.02   0.11
 106   6    -0.01   0.07   0.01    -0.02   0.06   0.02    -0.00   0.00   0.08
 107   7    -0.01   0.07   0.02    -0.02   0.04   0.01     0.00   0.00   0.06
 108   6    -0.00   0.03  -0.02    -0.01   0.05   0.01    -0.02  -0.01   0.09
 109   6     0.01  -0.01  -0.05    -0.01   0.03  -0.01    -0.04  -0.03   0.06
 110   6     0.02  -0.05  -0.08     0.00   0.02  -0.02    -0.06  -0.04   0.07
 111   6     0.02  -0.08  -0.10     0.01  -0.01  -0.04    -0.08  -0.05   0.04
 112   6     0.02  -0.07  -0.08     0.00  -0.02  -0.04    -0.07  -0.04   0.01
 113   7     0.01  -0.03  -0.05    -0.00   0.00  -0.02    -0.05  -0.03   0.03
 114   6     0.02  -0.09  -0.09     0.01  -0.05  -0.05    -0.08  -0.05  -0.02
 115   6     0.02  -0.08  -0.07     0.00  -0.06  -0.05    -0.07  -0.05  -0.04
 116   7     0.01  -0.04  -0.03    -0.00  -0.05  -0.04    -0.05  -0.03  -0.04
 117   1     0.01  -0.04  -0.03     0.00  -0.03  -0.02    -0.03  -0.02  -0.03
 118   1     0.01  -0.03  -0.01     0.00  -0.03  -0.02    -0.02  -0.01  -0.03
 119   1    -0.00   0.02   0.03    -0.01  -0.01  -0.00     0.01   0.00  -0.02
 120   1    -0.01   0.04   0.04    -0.01   0.00   0.00     0.02   0.01  -0.00
 121   1    -0.00   0.01   0.00    -0.00  -0.00  -0.00    -0.00  -0.00  -0.00
 122   1    -0.01   0.05   0.03    -0.01   0.01   0.01     0.02   0.01   0.01
 123   1    -0.01   0.05   0.03    -0.01   0.03   0.01     0.02   0.01   0.03
 124   1    -0.01   0.03   0.01    -0.01   0.03   0.01     0.01   0.01   0.04
 125   1     0.01  -0.01  -0.03     0.00   0.01  -0.00    -0.02  -0.01   0.03
 126   1     0.01  -0.03  -0.04     0.00  -0.01  -0.01    -0.03  -0.02   0.01
 127   1     0.00  -0.00  -0.01    -0.00   0.00  -0.00    -0.01  -0.01   0.01
 128   1     0.01  -0.04  -0.03     0.00  -0.02  -0.02    -0.03  -0.02  -0.01
 129   6    -0.03   0.02  -0.01    -0.06   0.16   0.10     0.07  -0.03   0.04
 130   6    -0.02   0.03  -0.01    -0.05   0.15   0.09     0.04  -0.01   0.07
 131   6    -0.01   0.03  -0.01    -0.03   0.10   0.06     0.02   0.00   0.06
 132   6    -0.00   0.03  -0.01    -0.02   0.07   0.04    -0.01   0.02   0.08
 133   6     0.01   0.03  -0.01     0.00   0.03   0.01    -0.04   0.04   0.08
 134   6     0.01   0.03  -0.01     0.01  -0.00  -0.00    -0.08   0.06   0.09
 135   6     0.02   0.03  -0.00     0.03  -0.05  -0.03    -0.09   0.07   0.07
 136   6     0.02   0.01   0.00     0.03  -0.05  -0.03    -0.07   0.06   0.04
 137   7     0.01   0.02  -0.00     0.01  -0.00  -0.00    -0.04   0.04   0.05
 138   6     0.02   0.00   0.01     0.04  -0.09  -0.04    -0.07   0.06   0.01
 139   6     0.02  -0.01   0.01     0.05  -0.07  -0.05    -0.03   0.04  -0.01
 140   6     0.02  -0.00   0.01     0.06  -0.01  -0.05     0.00   0.02   0.02
 141   6     0.01  -0.01   0.01     0.05  -0.00  -0.05     0.03   0.00  -0.01
 142   6     0.01  -0.02   0.01     0.03  -0.06  -0.03     0.01   0.02  -0.05
 143   7     0.01  -0.02   0.01     0.04  -0.10  -0.04    -0.03   0.04  -0.05
 144   6    -0.00  -0.03   0.01     0.01  -0.06  -0.01     0.03   0.01  -0.09
 145   6    -0.01  -0.02   0.01    -0.01  -0.02   0.02     0.05  -0.00  -0.09
 146   6    -0.02  -0.03   0.01    -0.04   0.00   0.05     0.08  -0.02  -0.11
 147   6    -0.03  -0.02   0.00    -0.05   0.05   0.08     0.10  -0.03  -0.10
 148   6    -0.02  -0.01   0.00    -0.04   0.06   0.07     0.08  -0.02  -0.06
 149   7    -0.01  -0.01   0.00    -0.02   0.02   0.04     0.06  -0.01  -0.06
 150   6    -0.03   0.00  -0.00    -0.05   0.10   0.09     0.08  -0.03  -0.03
 151   6    -0.02   0.01  -0.01    -0.04   0.11   0.08     0.06  -0.02   0.01
 152   7    -0.01   0.02  -0.01    -0.03   0.08   0.06     0.03  -0.00   0.02
 153   1    -0.01   0.01  -0.00    -0.02   0.05   0.04     0.03  -0.01   0.01
 154   1    -0.01   0.01  -0.00    -0.01   0.05   0.03     0.01  -0.00   0.03
 155   1     0.00   0.01  -0.00     0.00   0.00  -0.00    -0.03   0.02   0.03
 156   1     0.01   0.01   0.00     0.01  -0.02  -0.01    -0.03   0.02   0.02
 157   1     0.00   0.00   0.00     0.00   0.00   0.00    -0.00   0.01   0.01
 158   1     0.01  -0.00   0.00     0.01  -0.04  -0.01    -0.03   0.02  -0.00
 159   1     0.01   0.00   0.00     0.02   0.00  -0.02     0.00   0.00   0.02
 160   1     0.00  -0.00   0.00     0.02   0.01  -0.01     0.02  -0.00  -0.00
 161   1    -0.01  -0.01   0.00    -0.01  -0.01   0.01     0.03  -0.01  -0.04
 162   1    -0.01  -0.01   0.00    -0.02   0.02   0.03     0.03  -0.01  -0.03
 163   1    -0.00  -0.00   0.00    -0.00   0.01   0.01     0.01  -0.00  -0.01
 164   1    -0.01   0.00  -0.00    -0.02   0.04   0.03     0.03  -0.01  -0.01
                     10                     11                     12
                        a                      a                      a 
 Frequencies --    11.4827                15.0727                16.4835
 Red. masses --    11.6053                11.6343                11.6619
 Frc consts  --     0.0000                 0.0000                 0.0000
 IR Inten    --     6.2735                 1.7045                 0.5381
 Raman Activ --     0.0000                 0.0000                 0.0000
 Depolar     --     0.0000                 0.0000                 0.0000
 Atom AN      X      Y      Z        X      Y      Z        X      Y      Z
   1   6    -0.01   0.12   0.11    -0.07   0.06   0.02     0.05   0.02   0.12
   2   6     0.01   0.13   0.11    -0.06   0.07   0.02     0.04   0.01   0.14
   3   6     0.01   0.10   0.08    -0.05   0.06   0.01     0.02   0.00   0.11
   4   6     0.02   0.11   0.08    -0.03   0.07   0.00     0.00  -0.00   0.12
   5   6     0.03   0.09   0.06    -0.02   0.06   0.00    -0.02   0.00   0.12
   6   6     0.05   0.11   0.07    -0.00   0.07   0.01    -0.03   0.01   0.14
   7   6     0.06   0.08   0.04     0.01   0.06   0.01    -0.05   0.01   0.13
   8   6     0.04   0.04   0.02    -0.00   0.04   0.01    -0.05   0.01   0.09
   9   7     0.03   0.06   0.04    -0.02   0.05   0.01    -0.03   0.01   0.09
  10   6     0.04   0.00  -0.01     0.01   0.02   0.00    -0.07   0.01   0.05
  11   6     0.02  -0.04  -0.05    -0.00  -0.00  -0.00    -0.07  -0.00   0.00
  12   6     0.02  -0.08  -0.09     0.00  -0.02  -0.01    -0.09  -0.01  -0.04
  13   6     0.00  -0.11  -0.12    -0.01  -0.04  -0.01    -0.09  -0.03  -0.09
  14   6    -0.01  -0.09  -0.09    -0.03  -0.03  -0.01    -0.06  -0.02  -0.07
  15   7     0.01  -0.04  -0.05    -0.02  -0.01  -0.00    -0.06  -0.01  -0.01
  16   6    -0.02  -0.11  -0.10    -0.04  -0.04  -0.01    -0.05  -0.03  -0.10
  17   6    -0.03  -0.08  -0.07    -0.06  -0.03  -0.00    -0.03  -0.02  -0.07
  18   6    -0.05  -0.09  -0.07    -0.07  -0.04  -0.00    -0.01  -0.02  -0.09
  19   6    -0.04  -0.05  -0.03    -0.08  -0.02   0.01     0.01  -0.01  -0.05
  20   6    -0.03  -0.01   0.00    -0.07  -0.00   0.01     0.01   0.00   0.00
  21   7    -0.02  -0.03  -0.02    -0.06  -0.01   0.01    -0.01  -0.01  -0.02
  22   6    -0.02   0.04   0.05    -0.07   0.02   0.02     0.03   0.01   0.05
  23   6    -0.01   0.07   0.07    -0.06   0.04   0.02     0.03   0.02   0.09
  24   7     0.00   0.07   0.06    -0.05   0.04   0.01     0.01   0.01   0.09
  25   1    -0.00   0.04   0.04    -0.02   0.02   0.01     0.02   0.01   0.04
  26   1     0.00   0.05   0.04    -0.02   0.03   0.00     0.01   0.00   0.05
  27   1     0.02   0.04   0.03     0.00   0.02   0.00    -0.01   0.00   0.05
  28   1     0.02   0.02   0.01     0.01   0.02   0.00    -0.02   0.01   0.04
  29   1     0.01   0.01   0.01    -0.01   0.01   0.00    -0.01   0.00   0.02
  30   1     0.01   0.00  -0.01     0.01   0.01   0.00    -0.02   0.00   0.02
  31   1     0.01  -0.03  -0.03     0.00  -0.01  -0.00    -0.03  -0.00  -0.01
  32   1    -0.00  -0.04  -0.04    -0.00  -0.02  -0.01    -0.03  -0.01  -0.04
  33   1    -0.01  -0.04  -0.04    -0.01  -0.02  -0.00    -0.02  -0.01  -0.04
  34   1    -0.02  -0.04  -0.03    -0.02  -0.02  -0.00    -0.01  -0.01  -0.04
  35   1    -0.02  -0.01  -0.00    -0.03  -0.01   0.00     0.01  -0.00  -0.01
  36   1    -0.00  -0.00  -0.00    -0.01   0.00   0.00    -0.01  -0.00   0.00
  37   1    -0.01   0.01   0.02    -0.02   0.01   0.01     0.02   0.01   0.02
  38   6     0.06  -0.06  -0.06     0.04  -0.02   0.16    -0.02   0.08  -0.02
  39   6     0.04  -0.07  -0.08     0.04  -0.02   0.18    -0.00   0.10  -0.02
  40   6     0.01  -0.06  -0.07     0.05  -0.02   0.14     0.02   0.08  -0.01
  41   6    -0.01  -0.07  -0.08     0.05  -0.02   0.15     0.04   0.09  -0.01
  42   6    -0.04  -0.05  -0.07     0.06  -0.02   0.15     0.06   0.07  -0.02
  43   6    -0.06  -0.06  -0.09     0.06  -0.03   0.18     0.09   0.09  -0.02
  44   6    -0.08  -0.04  -0.07     0.07  -0.03   0.16     0.11   0.06  -0.03
  45   6    -0.06  -0.02  -0.05     0.06  -0.03   0.11     0.09   0.04  -0.02
  46   7    -0.04  -0.03  -0.05     0.06  -0.02   0.12     0.07   0.05  -0.02
  47   6    -0.07  -0.00  -0.02     0.07  -0.02   0.06     0.10   0.01  -0.01
  48   6    -0.06   0.02   0.01     0.07  -0.01  -0.01     0.08  -0.01  -0.00
  49   6    -0.07   0.04   0.04     0.08   0.01  -0.08     0.09  -0.04   0.01
  50   6    -0.05   0.05   0.07     0.08   0.02  -0.15     0.07  -0.06   0.02
  51   6    -0.03   0.03   0.06     0.07   0.02  -0.12     0.05  -0.04   0.02
  52   7    -0.04   0.02   0.02     0.08  -0.00  -0.04     0.07  -0.02   0.01
  53   6    -0.00   0.04   0.08     0.07   0.02  -0.17     0.03  -0.06   0.03
  54   6     0.02   0.03   0.06     0.07   0.02  -0.13     0.01  -0.04   0.03
  55   6     0.05   0.04   0.08     0.06   0.02  -0.17    -0.02  -0.05   0.03
  56   6     0.06   0.02   0.05     0.05   0.02  -0.10    -0.04  -0.03   0.02
  57   6     0.05   0.00   0.02     0.05   0.01  -0.02    -0.02  -0.00   0.01
  58   7     0.02   0.01   0.03     0.06   0.01  -0.05     0.01  -0.01   0.02
  59   6     0.06  -0.02  -0.01     0.04  -0.00   0.05    -0.03   0.03  -0.00
  60   6     0.04  -0.04  -0.04     0.04  -0.01   0.11    -0.01   0.05  -0.01
  61   7     0.02  -0.04  -0.05     0.05  -0.01   0.11     0.01   0.06  -0.01
  62   1     0.02  -0.02  -0.02     0.01  -0.01   0.05    -0.01   0.02  -0.01
  63   1     0.01  -0.03  -0.03     0.01  -0.01   0.06    -0.00   0.03  -0.01
  64   1    -0.02  -0.02  -0.03     0.02  -0.01   0.06     0.03   0.03  -0.01
  65   1    -0.03  -0.01  -0.02     0.02  -0.01   0.05     0.04   0.02  -0.01
  66   1    -0.01  -0.01  -0.01     0.02  -0.01   0.02     0.01   0.01  -0.00
  67   1    -0.03   0.00  -0.01     0.02  -0.01   0.02     0.03   0.00  -0.01
  68   1    -0.03   0.01   0.01     0.02   0.00  -0.02     0.03  -0.01   0.00
  69   1    -0.02   0.02   0.03     0.02   0.01  -0.06     0.02  -0.02   0.01
  70   1    -0.00   0.02   0.03     0.02   0.01  -0.07     0.01  -0.02   0.01
  71   1     0.01   0.01   0.03     0.02   0.01  -0.07    -0.01  -0.02   0.01
  72   1     0.02   0.01   0.02     0.01   0.00  -0.03    -0.02  -0.01   0.01
  73   1     0.00   0.00   0.00     0.02   0.00  -0.00     0.01   0.00   0.00
  74   1     0.02  -0.01  -0.00     0.01  -0.00   0.02    -0.01   0.01  -0.00
  75   6     0.03   0.13   0.09    -0.03   0.08  -0.00    -0.00  -0.02   0.12
  76   6     0.03   0.13   0.08    -0.03   0.07  -0.01    -0.01  -0.03   0.09
  77   6     0.02   0.12   0.08    -0.03   0.05  -0.01    -0.01  -0.04   0.06
  78   6     0.02   0.10   0.06    -0.04   0.03  -0.02    -0.02  -0.03   0.01
  79   6     0.02   0.08   0.04    -0.04   0.00  -0.02    -0.03  -0.03  -0.03
  80   6     0.02   0.04   0.02    -0.04  -0.02  -0.02    -0.03  -0.03  -0.07
  81   6     0.01  -0.07  -0.03    -0.02  -0.02   0.06    -0.03   0.11  -0.02
  82   6     0.01  -0.05  -0.01    -0.03   0.00   0.07    -0.03   0.11   0.02
  83   6     0.00  -0.02   0.00    -0.03   0.03   0.06    -0.03   0.09   0.05
  84   6    -0.00   0.01   0.02    -0.03   0.05   0.04    -0.03   0.06   0.08
  85   6    -0.01   0.03   0.04    -0.03   0.07   0.03    -0.03   0.03   0.10
  86   6    -0.01   0.06   0.05    -0.02   0.08   0.00    -0.02  -0.00   0.10
  87   6    -0.01  -0.03  -0.03     0.04   0.01  -0.05     0.04  -0.03  -0.00
  88   6    -0.01  -0.05  -0.05     0.04   0.00  -0.01     0.04   0.00  -0.01
  89   6    -0.01  -0.07  -0.07     0.04  -0.00   0.04     0.04   0.04  -0.00
  90   6    -0.02  -0.08  -0.09     0.05  -0.01   0.09     0.04   0.08  -0.01
  91   6    -0.02  -0.09  -0.09     0.05  -0.01   0.13     0.04   0.10  -0.01
  92   6    -0.02  -0.08  -0.09     0.05  -0.02   0.16     0.04   0.11  -0.01
  93   6    -0.00  -0.02  -0.01    -0.05  -0.06  -0.03    -0.01  -0.03  -0.10
  94   6     0.00   0.00   0.00    -0.05  -0.05  -0.03    -0.01  -0.04  -0.09
  95   6     0.01  -0.01  -0.01    -0.04  -0.05  -0.02    -0.02  -0.02  -0.09
  96   6     0.01   0.01   0.00    -0.04  -0.04  -0.02    -0.03  -0.03  -0.09
  97   6     0.02  -0.02  -0.01    -0.02  -0.05  -0.02    -0.04  -0.03  -0.09
  98   6     0.02  -0.02  -0.02    -0.01  -0.05  -0.03    -0.04  -0.05  -0.10
  99   6     0.02  -0.05  -0.04    -0.00  -0.06  -0.03    -0.04  -0.05  -0.11
 100   6     0.02  -0.06  -0.05    -0.01  -0.07  -0.01    -0.04  -0.03  -0.09
 101   7     0.02  -0.05  -0.03    -0.02  -0.06  -0.01    -0.04  -0.02  -0.10
 102   6     0.02  -0.09  -0.06    -0.00  -0.07  -0.01    -0.04  -0.01  -0.09
 103   6     0.02  -0.10  -0.06    -0.01  -0.06   0.01    -0.04   0.02  -0.07
 104   6     0.02  -0.12  -0.07    -0.00  -0.06   0.02    -0.04   0.05  -0.07
 105   6     0.02  -0.11  -0.06    -0.01  -0.05   0.04    -0.04   0.08  -0.05
 106   6     0.01  -0.09  -0.05    -0.02  -0.04   0.04    -0.03   0.07  -0.05
 107   7     0.01  -0.09  -0.06    -0.02  -0.06   0.02    -0.03   0.04  -0.07
 108   6     0.01  -0.08  -0.04    -0.02  -0.04   0.05    -0.02   0.09  -0.04
 109   6     0.01  -0.08  -0.04    -0.03  -0.04   0.04    -0.02   0.08  -0.05
 110   6     0.00  -0.09  -0.04    -0.04  -0.05   0.04    -0.02   0.09  -0.04
 111   6     0.00  -0.08  -0.05    -0.05  -0.06   0.02    -0.01   0.07  -0.05
 112   6     0.00  -0.08  -0.04    -0.05  -0.06   0.00    -0.01   0.04  -0.07
 113   7     0.01  -0.08  -0.05    -0.04  -0.05   0.01    -0.02   0.06  -0.07
 114   6     0.00  -0.06  -0.04    -0.05  -0.06  -0.01    -0.01   0.02  -0.09
 115   6     0.00  -0.04  -0.03    -0.05  -0.06  -0.02    -0.01  -0.01  -0.09
 116   7     0.01  -0.04  -0.02    -0.05  -0.06  -0.02    -0.03  -0.01  -0.10
 117   1    -0.00  -0.01  -0.00    -0.02  -0.02  -0.01     0.00  -0.01  -0.03
 118   1     0.00   0.01   0.00    -0.01  -0.01  -0.01    -0.00  -0.01  -0.03
 119   1     0.01   0.00  -0.00    -0.00  -0.01  -0.01    -0.01  -0.02  -0.03
 120   1     0.01  -0.02  -0.01     0.00  -0.02  -0.01    -0.01  -0.02  -0.03
 121   1     0.00  -0.01  -0.01    -0.01  -0.02  -0.00    -0.01  -0.00  -0.02
 122   1     0.01  -0.03  -0.02     0.00  -0.02  -0.00    -0.01  -0.01  -0.03
 123   1     0.01  -0.04  -0.02     0.00  -0.02   0.01    -0.01   0.01  -0.02
 124   1     0.01  -0.03  -0.02    -0.00  -0.01   0.01    -0.01   0.03  -0.01
 125   1     0.00  -0.03  -0.01    -0.01  -0.01   0.02    -0.00   0.03  -0.01
 126   1    -0.00  -0.03  -0.01    -0.02  -0.02   0.01    -0.00   0.02  -0.02
 127   1     0.00  -0.02  -0.01    -0.01  -0.01   0.00    -0.01   0.01  -0.02
 128   1    -0.00  -0.02  -0.01    -0.02  -0.02  -0.01    -0.00   0.00  -0.03
 129   6    -0.02   0.07   0.06     0.01   0.05  -0.04     0.02  -0.01   0.09
 130   6    -0.02   0.07   0.06    -0.00   0.06  -0.02     0.01  -0.01   0.10
 131   6    -0.01   0.07   0.06    -0.01   0.06  -0.03    -0.00  -0.02   0.08
 132   6    -0.01   0.07   0.06    -0.02   0.07  -0.01    -0.02  -0.03   0.08
 133   6    -0.02   0.08   0.06    -0.02   0.07  -0.02    -0.02  -0.05   0.06
 134   6    -0.02   0.09   0.07    -0.02   0.08  -0.01    -0.03  -0.06   0.06
 135   6    -0.03   0.09   0.06    -0.02   0.06  -0.02    -0.03  -0.09   0.03
 136   6    -0.02   0.08   0.06    -0.01   0.04  -0.03    -0.01  -0.09   0.02
 137   7    -0.02   0.08   0.06    -0.01   0.05  -0.03    -0.01  -0.07   0.04
 138   6    -0.02   0.07   0.05    -0.00   0.01  -0.05    -0.01  -0.11  -0.01
 139   6    -0.00   0.05   0.04     0.01   0.01  -0.06     0.01  -0.09  -0.02
 140   6     0.02   0.05   0.05     0.03   0.01  -0.05     0.02  -0.07  -0.01
 141   6     0.02   0.02   0.04     0.04   0.01  -0.06     0.03  -0.05  -0.02
 142   6     0.00   0.02   0.01     0.03   0.00  -0.07     0.03  -0.06  -0.02
 143   7    -0.01   0.03   0.02     0.01  -0.00  -0.08     0.01  -0.10  -0.02
 144   6    -0.00  -0.00  -0.01     0.03   0.00  -0.08     0.03  -0.05  -0.01
 145   6    -0.00   0.01   0.00     0.03  -0.00  -0.08     0.04  -0.05  -0.01
 146   6    -0.00   0.00  -0.00     0.02  -0.01  -0.09     0.04  -0.05  -0.00
 147   6    -0.01   0.02   0.01     0.02  -0.01  -0.09     0.04  -0.04   0.01
 148   6    -0.01   0.03   0.03     0.02   0.01  -0.09     0.04  -0.04   0.01
 149   7    -0.01   0.03   0.02     0.03   0.01  -0.09     0.04  -0.05   0.01
 150   6    -0.01   0.05   0.04     0.02   0.02  -0.07     0.04  -0.03   0.03
 151   6    -0.01   0.06   0.05     0.01   0.04  -0.05     0.02  -0.02   0.05
 152   7    -0.01   0.07   0.06    -0.00   0.05  -0.05     0.01  -0.03   0.05
 153   1    -0.01   0.02   0.02     0.01   0.01  -0.01     0.01  -0.00   0.03
 154   1    -0.00   0.02   0.02    -0.00   0.02  -0.00     0.00   0.00   0.04
 155   1    -0.01   0.03   0.02    -0.01   0.03  -0.00    -0.01  -0.02   0.02
 156   1    -0.01   0.03   0.02    -0.01   0.02  -0.01    -0.01  -0.03   0.01
 157   1    -0.00   0.02   0.02    -0.00   0.01  -0.01    -0.00  -0.02   0.01
 158   1    -0.01   0.02   0.01    -0.00   0.00  -0.02    -0.00  -0.04  -0.00
 159   1     0.01   0.02   0.02     0.01   0.01  -0.01     0.01  -0.02  -0.00
 160   1     0.01   0.00   0.01     0.02   0.00  -0.02     0.01  -0.01  -0.00
 161   1    -0.00  -0.00  -0.00     0.01  -0.01  -0.03     0.01  -0.02  -0.00
 162   1    -0.00   0.01   0.01     0.00  -0.00  -0.03     0.01  -0.01   0.00
 163   1    -0.00   0.01   0.01     0.01   0.01  -0.02     0.01  -0.01   0.00
 164   1    -0.00   0.02   0.01     0.01   0.00  -0.02     0.01  -0.01   0.01
                     13                     14                     15
                        a                      a                      a 
 Frequencies --    21.0630                22.2861                26.5408
 Red. masses --    11.6045                11.6168                11.5154
 Frc consts  --     0.0000                 0.0000                 0.0000
 IR Inten    --     5.0040                 8.8350                10.8918
 Raman Activ --     0.0000                 0.0000                 0.0000
 Depolar     --     0.0000                 0.0000                 0.0000
 Atom AN      X      Y      Z        X      Y      Z        X      Y      Z
   1   6    -0.07   0.09  -0.02    -0.09  -0.06  -0.10     0.09  -0.06   0.04
   2   6    -0.05   0.11  -0.04    -0.08  -0.05  -0.09     0.07  -0.07   0.05
   3   6    -0.03   0.09  -0.04    -0.07  -0.04  -0.06     0.04  -0.06   0.05
   4   6    -0.00   0.10  -0.06    -0.06  -0.03  -0.05     0.02  -0.07   0.06
   5   6     0.03   0.09  -0.06    -0.06  -0.03  -0.06    -0.00  -0.06   0.06
   6   6     0.06   0.10  -0.07    -0.07  -0.05  -0.08    -0.02  -0.07   0.07
   7   6     0.09   0.08  -0.06    -0.07  -0.05  -0.09    -0.04  -0.05   0.06
   8   6     0.07   0.05  -0.04    -0.06  -0.03  -0.07    -0.03  -0.04   0.05
   9   7     0.04   0.06  -0.04    -0.06  -0.03  -0.06    -0.01  -0.05   0.05
  10   6     0.09   0.02  -0.03    -0.06  -0.02  -0.05    -0.04  -0.02   0.03
  11   6     0.08  -0.00  -0.01    -0.05   0.00  -0.00    -0.03  -0.00   0.01
  12   6     0.09  -0.03  -0.01    -0.04   0.02   0.04    -0.05   0.02  -0.00
  13   6     0.07  -0.05   0.01    -0.03   0.05   0.09    -0.04   0.03  -0.03
  14   6     0.04  -0.04   0.00    -0.04   0.04   0.07    -0.01   0.02  -0.02
  15   7     0.05  -0.01  -0.01    -0.06   0.01   0.02    -0.01  -0.00   0.00
  16   6     0.01  -0.05   0.01    -0.04   0.06   0.11     0.01   0.02  -0.04
  17   6    -0.02  -0.04   0.02    -0.05   0.04   0.08     0.03   0.02  -0.03
  18   6    -0.05  -0.05   0.03    -0.04   0.05   0.09     0.06   0.02  -0.04
  19   6    -0.07  -0.02   0.03    -0.06   0.01   0.04     0.07   0.01  -0.03
  20   6    -0.05   0.01   0.01    -0.07  -0.01   0.00     0.07  -0.00  -0.01
  21   7    -0.02  -0.00   0.00    -0.07   0.00   0.03     0.04   0.00  -0.01
  22   6    -0.07   0.04   0.00    -0.08  -0.04  -0.04     0.08  -0.02   0.01
  23   6    -0.06   0.06  -0.01    -0.08  -0.05  -0.07     0.07  -0.04   0.03
  24   7    -0.03   0.07  -0.03    -0.07  -0.04  -0.06     0.05  -0.04   0.03
  25   1    -0.03   0.03  -0.00    -0.03  -0.02  -0.03     0.03  -0.02   0.01
  26   1    -0.02   0.04  -0.01    -0.03  -0.01  -0.03     0.02  -0.03   0.02
  27   1     0.02   0.04  -0.02    -0.02  -0.02  -0.03    -0.01  -0.02   0.02
  28   1     0.03   0.02  -0.02    -0.02  -0.02  -0.03    -0.02  -0.02   0.02
  29   1     0.01   0.01  -0.01    -0.02  -0.00  -0.01     0.00  -0.01   0.01
  30   1     0.03   0.01  -0.01    -0.02  -0.01  -0.02    -0.02  -0.00   0.01
  31   1     0.03  -0.01  -0.00    -0.01   0.00   0.01    -0.02   0.01  -0.00
  32   1     0.02  -0.02   0.00    -0.01   0.02   0.04    -0.01   0.01  -0.01
  33   1     0.00  -0.02   0.01    -0.01   0.02   0.04     0.00   0.01  -0.02
  34   1    -0.01  -0.02   0.01    -0.01   0.02   0.04     0.02   0.01  -0.02
  35   1    -0.03  -0.01   0.01    -0.02   0.00   0.01     0.03   0.00  -0.01
  36   1    -0.00   0.00  -0.00    -0.02  -0.00   0.00     0.01  -0.00   0.00
  37   1    -0.03   0.01   0.00    -0.02  -0.02  -0.02     0.03  -0.00   0.00
  38   6    -0.05   0.08  -0.07     0.03   0.05  -0.03    -0.03   0.05  -0.03
  39   6    -0.04   0.09  -0.07     0.03   0.06  -0.03    -0.02   0.05  -0.02
  40   6    -0.02   0.07  -0.05     0.04   0.05  -0.02    -0.01   0.05  -0.01
  41   6    -0.00   0.08  -0.04     0.05   0.05  -0.01     0.00   0.05  -0.00
  42   6     0.01   0.07  -0.05     0.07   0.04  -0.01     0.01   0.04  -0.01
  43   6     0.03   0.08  -0.06     0.09   0.05  -0.02     0.02   0.05  -0.01
  44   6     0.04   0.07  -0.07     0.10   0.04  -0.02     0.03   0.04  -0.02
  45   6     0.03   0.05  -0.06     0.09   0.02  -0.02     0.02   0.03  -0.02
  46   7     0.01   0.06  -0.05     0.07   0.02  -0.02     0.01   0.03  -0.02
  47   6     0.04   0.03  -0.05     0.09  -0.00  -0.02     0.03   0.02  -0.02
  48   6     0.02   0.00  -0.01     0.09  -0.01  -0.01     0.02   0.00  -0.01
  49   6     0.03  -0.03   0.02     0.09  -0.03   0.00     0.03  -0.01  -0.00
  50   6     0.01  -0.05   0.06     0.08  -0.04   0.02     0.01  -0.03   0.02
  51   6    -0.01  -0.03   0.05     0.07  -0.03   0.02     0.00  -0.02   0.01
  52   7     0.00  -0.00   0.01     0.08  -0.02   0.00     0.01  -0.00  -0.00
  53   6    -0.03  -0.05   0.07     0.06  -0.04   0.03    -0.01  -0.03   0.03
  54   6    -0.04  -0.03   0.06     0.05  -0.03   0.02    -0.02  -0.02   0.02
  55   6    -0.06  -0.04   0.07     0.03  -0.03   0.02    -0.03  -0.02   0.02
  56   6    -0.07  -0.02   0.03     0.01  -0.01   0.01    -0.04  -0.01   0.01
  57   6    -0.05   0.00  -0.00     0.03   0.01  -0.00    -0.03   0.01  -0.01
  58   7    -0.04  -0.00   0.02     0.05  -0.00   0.01    -0.02   0.00   0.00
  59   6    -0.06   0.03  -0.04     0.02   0.03  -0.01    -0.03   0.02  -0.02
  60   6    -0.05   0.05  -0.05     0.03   0.04  -0.02    -0.03   0.03  -0.02
  61   7    -0.03   0.06  -0.05     0.04   0.04  -0.02    -0.01   0.04  -0.02
  62   1    -0.02   0.02  -0.03     0.01   0.02  -0.01    -0.01   0.02  -0.01
  63   1    -0.01   0.03  -0.02     0.01   0.02  -0.01    -0.01   0.02  -0.01
  64   1     0.01   0.03  -0.02     0.03   0.02  -0.01     0.01   0.02  -0.00
  65   1     0.02   0.02  -0.02     0.03   0.01  -0.01     0.01   0.01  -0.01
  66   1     0.00   0.01  -0.01     0.01   0.00  -0.00     0.00   0.01  -0.00
  67   1     0.02   0.01  -0.02     0.03  -0.00  -0.01     0.01   0.00  -0.01
  68   1     0.01  -0.01   0.00     0.03  -0.01   0.00     0.01  -0.00  -0.00
  69   1     0.00  -0.02   0.02     0.02  -0.01   0.01     0.00  -0.01   0.01
  70   1    -0.01  -0.02   0.03     0.02  -0.01   0.01    -0.00  -0.01   0.01
  71   1    -0.02  -0.02   0.03     0.01  -0.02   0.01    -0.01  -0.01   0.01
  72   1    -0.02  -0.01   0.01    -0.00  -0.00   0.00    -0.01  -0.00   0.00
  73   1    -0.01   0.00  -0.00     0.02   0.00   0.00    -0.00   0.00  -0.00
  74   1    -0.02   0.01  -0.01     0.00   0.01  -0.01    -0.01   0.01  -0.01
  75   6    -0.00   0.11  -0.07    -0.05  -0.00  -0.03     0.02  -0.09   0.06
  76   6    -0.00   0.08  -0.06    -0.04   0.02   0.02     0.01  -0.05   0.02
  77   6     0.00   0.04  -0.04    -0.03   0.05   0.06     0.01  -0.01  -0.01
  78   6     0.01  -0.02  -0.01    -0.03   0.07   0.10     0.00   0.05  -0.06
  79   6     0.01  -0.06   0.01    -0.02   0.08   0.12    -0.00   0.09  -0.08
  80   6     0.01  -0.11   0.04    -0.02   0.08   0.13    -0.00   0.12  -0.09
  81   6    -0.00   0.07   0.06     0.01  -0.06  -0.13     0.00  -0.13   0.10
  82   6    -0.01   0.09   0.03     0.01  -0.04  -0.11    -0.00  -0.10   0.07
  83   6    -0.01   0.11   0.01     0.00  -0.02  -0.07    -0.00  -0.05   0.04
  84   6    -0.00   0.12  -0.03    -0.00   0.01  -0.03    -0.01   0.01  -0.01
  85   6    -0.00   0.11  -0.05    -0.01   0.03   0.01    -0.01   0.06  -0.04
  86   6     0.00   0.09  -0.07    -0.02   0.05   0.04    -0.01   0.10  -0.07
  87   6    -0.01  -0.10   0.08     0.04  -0.07   0.01    -0.01  -0.11   0.03
  88   6    -0.01  -0.06   0.08     0.04  -0.04   0.01    -0.01  -0.08   0.04
  89   6    -0.01  -0.03   0.07     0.05  -0.02   0.01    -0.00  -0.05   0.04
  90   6    -0.00   0.02   0.04     0.05   0.02   0.01    -0.00  -0.01   0.04
  91   6    -0.00   0.06   0.01     0.05   0.04   0.00    -0.00   0.02   0.03
  92   6    -0.00   0.09  -0.02     0.05   0.06  -0.00     0.00   0.05   0.01
  93   6     0.04  -0.12   0.01     0.04   0.06   0.07    -0.12   0.08  -0.04
  94   6     0.03  -0.13   0.02     0.02   0.08   0.11    -0.09   0.11  -0.06
  95   6     0.02  -0.11   0.03    -0.01   0.06   0.08    -0.04   0.09  -0.05
  96   6     0.01  -0.11   0.04    -0.02   0.07   0.10    -0.00   0.11  -0.07
  97   6     0.00  -0.10   0.04    -0.04   0.06   0.08     0.04   0.10  -0.05
  98   6    -0.01  -0.11   0.04    -0.04   0.07   0.10     0.08   0.12  -0.06
  99   6    -0.03  -0.09   0.04    -0.05   0.03   0.07     0.11   0.09  -0.04
 100   6    -0.02  -0.07   0.03    -0.05  -0.00   0.03     0.09   0.05  -0.02
 101   7    -0.00  -0.08   0.04    -0.04   0.02   0.05     0.05   0.06  -0.03
 102   6    -0.02  -0.04   0.04    -0.05  -0.04  -0.02     0.11   0.01   0.00
 103   6    -0.02  -0.01   0.05    -0.04  -0.07  -0.06     0.09  -0.04   0.03
 104   6    -0.03   0.02   0.06    -0.06  -0.09  -0.11     0.12  -0.08   0.05
 105   6    -0.02   0.04   0.07    -0.04  -0.09  -0.14     0.09  -0.12   0.07
 106   6    -0.01   0.03   0.06    -0.01  -0.07  -0.11     0.04  -0.09   0.06
 107   7    -0.01  -0.01   0.06    -0.02  -0.06  -0.07     0.04  -0.05   0.04
 108   6    -0.00   0.04   0.06     0.01  -0.07  -0.13    -0.00  -0.11   0.08
 109   6     0.01   0.02   0.06     0.02  -0.07  -0.12    -0.04  -0.09   0.07
 110   6     0.03   0.03   0.06     0.03  -0.09  -0.14    -0.08  -0.11   0.08
 111   6     0.04  -0.00   0.05     0.03  -0.07  -0.12    -0.11  -0.08   0.07
 112   6     0.03  -0.03   0.04     0.03  -0.04  -0.08    -0.09  -0.04   0.04
 113   7     0.02  -0.02   0.05     0.02  -0.05  -0.09    -0.05  -0.06   0.05
 114   6     0.04  -0.07   0.03     0.03  -0.01  -0.04    -0.12  -0.00   0.02
 115   6     0.03  -0.09   0.02     0.02   0.03   0.01    -0.10   0.04  -0.01
 116   7     0.02  -0.09   0.03    -0.01   0.04   0.03    -0.05   0.05  -0.02
 117   1     0.01  -0.04   0.00     0.02   0.02   0.02    -0.05   0.02  -0.01
 118   1     0.01  -0.04   0.00     0.01   0.03   0.04    -0.03   0.04  -0.02
 119   1    -0.00  -0.04   0.01    -0.01   0.03   0.04     0.02   0.04  -0.02
 120   1    -0.01  -0.03   0.01    -0.02   0.01   0.02     0.04   0.03  -0.01
 121   1     0.00  -0.02   0.01    -0.01  -0.00   0.01     0.01   0.01  -0.00
 122   1    -0.01  -0.01   0.01    -0.02  -0.01  -0.01     0.04   0.00   0.00
 123   1    -0.01   0.01   0.02    -0.02  -0.03  -0.04     0.05  -0.03   0.01
 124   1    -0.01   0.02   0.02    -0.01  -0.03  -0.05     0.03  -0.04   0.03
 125   1     0.01   0.02   0.02     0.01  -0.03  -0.05    -0.02  -0.04   0.03
 126   1     0.01  -0.00   0.01     0.01  -0.02  -0.04    -0.04  -0.02   0.02
 127   1     0.00  -0.01   0.01     0.01  -0.01  -0.02    -0.01  -0.01   0.01
 128   1     0.01  -0.02   0.01     0.01  -0.00  -0.01    -0.05  -0.00   0.01
 129   6    -0.09   0.05  -0.05    -0.02   0.08   0.07    -0.10   0.11  -0.04
 130   6    -0.06   0.07  -0.06    -0.02   0.08   0.08    -0.07   0.13  -0.05
 131   6    -0.02   0.05  -0.05    -0.02   0.06   0.06    -0.04   0.09  -0.05
 132   6     0.01   0.05  -0.06    -0.02   0.06   0.05    -0.01   0.10  -0.06
 133   6     0.04   0.02  -0.06    -0.01   0.05   0.05     0.02   0.08  -0.05
 134   6     0.08   0.02  -0.07    -0.00   0.05   0.05     0.05   0.09  -0.06
 135   6     0.11  -0.01  -0.06     0.01   0.03   0.05     0.07   0.06  -0.04
 136   6     0.09  -0.04  -0.04     0.01   0.01   0.05     0.06   0.03  -0.03
 137   7     0.05  -0.02  -0.05    -0.00   0.03   0.06     0.03   0.05  -0.04
 138   6     0.10  -0.07  -0.01     0.02  -0.03   0.04     0.07  -0.01  -0.01
 139   6     0.07  -0.07   0.00     0.04  -0.04   0.03     0.06  -0.03  -0.00
 140   6     0.05  -0.05  -0.02     0.06  -0.02   0.03     0.06  -0.02  -0.01
 141   6     0.02  -0.06   0.01     0.07  -0.03   0.02     0.03  -0.04  -0.00
 142   6     0.02  -0.09   0.04     0.05  -0.06   0.01     0.02  -0.07   0.01
 143   7     0.06  -0.10   0.04     0.03  -0.07   0.01     0.05  -0.07   0.01
 144   6    -0.01  -0.10   0.06     0.04  -0.07   0.00    -0.01  -0.10   0.01
 145   6    -0.04  -0.09   0.04     0.03  -0.06  -0.00    -0.04  -0.08  -0.00
 146   6    -0.08  -0.10   0.05     0.01  -0.07   0.00    -0.08  -0.10   0.00
 147   6    -0.10  -0.07   0.03    -0.01  -0.03   0.01    -0.10  -0.06  -0.01
 148   6    -0.08  -0.05   0.01    -0.00  -0.01   0.01    -0.08  -0.03  -0.02
 149   7    -0.04  -0.06   0.02     0.02  -0.03   0.00    -0.05  -0.05  -0.02
 150   6    -0.09  -0.02  -0.02    -0.01   0.03   0.03    -0.10   0.02  -0.03
 151   6    -0.07   0.01  -0.03    -0.01   0.05   0.05    -0.08   0.06  -0.03
 152   7    -0.03   0.01  -0.04    -0.02   0.05   0.04    -0.04   0.06  -0.04
 153   1    -0.03   0.02  -0.01    -0.01   0.03   0.02    -0.04   0.04  -0.01
 154   1    -0.02   0.03  -0.02    -0.01   0.03   0.03    -0.02   0.05  -0.02
 155   1     0.02   0.01  -0.02    -0.00   0.02   0.02     0.02   0.03  -0.02
 156   1     0.04  -0.01  -0.02     0.01   0.01   0.01     0.03   0.02  -0.01
 157   1     0.01  -0.01  -0.01    -0.00   0.00   0.02     0.00   0.01  -0.01
 158   1     0.03  -0.03  -0.00     0.00  -0.02   0.01     0.02  -0.01  -0.00
 159   1     0.02  -0.01  -0.01     0.02  -0.00   0.01     0.02   0.00  -0.00
 160   1    -0.00  -0.01   0.00     0.03  -0.01   0.01     0.01  -0.01  -0.00
 161   1    -0.03  -0.03   0.02     0.00  -0.03   0.00    -0.02  -0.04   0.00
 162   1    -0.04  -0.02   0.01    -0.01  -0.01   0.00    -0.04  -0.02  -0.00
 163   1    -0.01  -0.01   0.00     0.01  -0.00   0.00    -0.01  -0.01  -0.01
 164   1    -0.04  -0.00  -0.01    -0.01   0.01   0.01    -0.04   0.01  -0.01
                     16                     17                     18
                        a                      a                      a 
 Frequencies --    27.2963                36.7990                40.5920
[...]
  82   6     0.00   0.00   0.00     0.00  -0.00   0.00     0.00   0.00  -0.00
  83   6    -0.00  -0.00  -0.00     0.00  -0.00   0.00    -0.00  -0.00  -0.00
  84   6     0.00   0.00   0.00     0.00  -0.00   0.00    -0.00  -0.00  -0.00
  85   6    -0.00  -0.00  -0.00    -0.00  -0.00  -0.00     0.00   0.00   0.00
  86   6     0.00   0.00   0.00     0.00   0.00   0.00    -0.00  -0.00  -0.00
  87   6    -0.00   0.00   0.00     0.00  -0.00  -0.00    -0.00   0.00   0.00
  88   6     0.00  -0.00  -0.00    -0.00   0.00   0.00     0.00  -0.00  -0.00
  89   6    -0.00  -0.00   0.00     0.00  -0.00  -0.00    -0.00   0.00   0.00
  90   6    -0.00   0.00   0.00     0.00   0.00  -0.00     0.00  -0.00  -0.00
  91   6     0.00  -0.00   0.00    -0.00   0.00  -0.00    -0.00   0.00   0.00
  92   6    -0.00   0.00   0.00     0.00  -0.00  -0.00     0.00  -0.00  -0.00
  93   6     0.00   0.00  -0.00    -0.00   0.00  -0.00     0.00  -0.00   0.00
  94   6    -0.00   0.00  -0.00     0.00  -0.00   0.00    -0.00  -0.00  -0.00
  95   6    -0.00   0.00  -0.00     0.00  -0.00   0.00     0.00  -0.00   0.00
  96   6    -0.00  -0.00   0.00    -0.00  -0.00   0.00     0.00   0.00  -0.00
  97   6     0.00  -0.00   0.00     0.00   0.00  -0.00    -0.00   0.00  -0.00
  98   6    -0.00   0.00  -0.00    -0.00  -0.00   0.00    -0.00  -0.00   0.00
  99   6    -0.00   0.00  -0.00     0.00   0.00  -0.00     0.00   0.00  -0.00
 100   6     0.00   0.00  -0.00    -0.00   0.00  -0.00    -0.00  -0.00   0.00
 101   7     0.14  -0.09   0.11     0.00  -0.00   0.00     0.00  -0.00   0.00
 102   6     0.00  -0.00   0.00     0.00   0.00  -0.00     0.00  -0.00   0.00
 103   6    -0.00   0.00  -0.00     0.00  -0.00   0.00    -0.00  -0.00   0.00
 104   6    -0.00  -0.00   0.00    -0.00   0.00  -0.00     0.00  -0.00   0.00
 105   6    -0.00  -0.00   0.00     0.00   0.00  -0.00    -0.00  -0.00   0.00
 106   6     0.00  -0.00   0.00    -0.00  -0.00   0.00     0.00  -0.00   0.00
 107   7    -0.00  -0.00   0.00     0.00   0.00  -0.00    -0.00   0.00  -0.00
 108   6     0.00   0.00  -0.00    -0.00  -0.00   0.00     0.00   0.00  -0.00
 109   6    -0.00   0.00  -0.00    -0.00  -0.00  -0.00     0.00   0.00  -0.00
 110   6     0.00  -0.00   0.00    -0.00  -0.00   0.00    -0.00   0.00  -0.00
 111   6     0.00  -0.00   0.00    -0.00   0.00  -0.00    -0.00   0.00  -0.00
 112   6    -0.00  -0.00   0.00     0.00   0.00  -0.00    -0.00  -0.00   0.00
 113   7    -0.12   0.07  -0.10     0.00  -0.00   0.00     0.00  -0.00   0.00
 114   6    -0.00   0.00  -0.00    -0.00   0.00  -0.00     0.00   0.00  -0.00
 115   6     0.00  -0.00   0.00     0.00  -0.00   0.00    -0.00  -0.00   0.00
 116   7     0.00   0.00  -0.00    -0.00   0.00  -0.00    -0.00   0.00   0.00
 117   1     0.00   0.00  -0.00     0.00  -0.00   0.00    -0.00   0.00  -0.00
 118   1     0.00   0.00  -0.00    -0.00  -0.00   0.00    -0.00   0.00  -0.00
 119   1     0.00  -0.00   0.00    -0.00  -0.00   0.00     0.00  -0.00   0.00
 120   1    -0.00   0.00  -0.00     0.00  -0.00   0.00    -0.00  -0.00   0.00
 121   1    -0.51   0.32  -0.41    -0.00   0.00  -0.00    -0.00   0.00  -0.00
 122   1    -0.00   0.00  -0.00     0.00  -0.00   0.00    -0.00   0.00  -0.00
 123   1    -0.00  -0.00   0.00     0.00  -0.00   0.00    -0.00   0.00  -0.00
 124   1    -0.00  -0.00   0.00    -0.00  -0.00   0.00     0.00   0.00  -0.00
 125   1    -0.00   0.00  -0.00     0.00  -0.00   0.00     0.00   0.00  -0.00
 126   1     0.00   0.00  -0.00     0.00  -0.00   0.00    -0.00   0.00  -0.00
 127   1     0.44  -0.27   0.36    -0.00   0.00  -0.00    -0.00   0.00  -0.00
 128   1     0.00  -0.00   0.00     0.00  -0.00   0.00    -0.00   0.00  -0.00
 129   6     0.00   0.00  -0.00    -0.00   0.00  -0.00     0.00  -0.00   0.00
 130   6     0.00   0.00  -0.00     0.00  -0.00   0.00    -0.00  -0.00   0.00
 131   6    -0.00  -0.00   0.00     0.00   0.00  -0.00    -0.00  -0.00   0.00
 132   6    -0.00  -0.00  -0.00    -0.00  -0.00   0.00     0.00  -0.00   0.00
 133   6     0.00   0.00  -0.00     0.00  -0.00   0.00     0.00   0.00  -0.00
 134   6     0.00  -0.00   0.00    -0.00  -0.00   0.00    -0.00  -0.00  -0.00
 135   6     0.00  -0.00   0.00    -0.00  -0.00   0.00     0.00   0.00  -0.00
 136   6    -0.00   0.00  -0.00     0.00   0.00   0.00     0.00   0.00  -0.00
 137   7     0.00  -0.00   0.00    -0.00   0.00  -0.00     0.00  -0.00   0.00
 138   6    -0.00  -0.00   0.00    -0.00  -0.00  -0.00    -0.00  -0.00  -0.00
 139   6    -0.00   0.00  -0.00    -0.00   0.00   0.00     0.00   0.00   0.00
 140   6     0.00  -0.00  -0.00    -0.00   0.00  -0.00    -0.00  -0.00  -0.00
 141   6     0.00  -0.00  -0.00     0.00  -0.00   0.00     0.00  -0.00   0.00
 142   6     0.00  -0.00  -0.00    -0.00   0.00   0.00     0.00   0.00   0.00
 143   7    -0.00  -0.00   0.00    -0.00  -0.00  -0.00    -0.00  -0.00   0.00
 144   6    -0.00  -0.00   0.00    -0.00  -0.00   0.00    -0.00   0.00  -0.00
 145   6     0.00   0.00  -0.00     0.00  -0.00   0.00     0.00  -0.00   0.00
 146   6    -0.00   0.00  -0.00    -0.00   0.00  -0.00    -0.00   0.00  -0.00
 147   6    -0.00   0.00  -0.00    -0.00   0.00  -0.00    -0.00  -0.00   0.00
 148   6     0.00   0.00  -0.00     0.00  -0.00  -0.00     0.00   0.00  -0.00
 149   7    -0.00  -0.00   0.00     0.00  -0.00   0.00    -0.00  -0.00   0.00
 150   6    -0.00   0.00  -0.00     0.00   0.00  -0.00    -0.00  -0.00   0.00
 151   6     0.00  -0.00   0.00     0.00   0.00  -0.00     0.00  -0.00   0.00
 152   7    -0.00   0.00  -0.00    -0.00  -0.00   0.00     0.00   0.00  -0.00
 153   1    -0.00  -0.00   0.00    -0.00  -0.00   0.00     0.00   0.00  -0.00
 154   1    -0.00  -0.00  -0.00     0.00  -0.00   0.00     0.00   0.00  -0.00
 155   1    -0.00  -0.00  -0.00     0.00   0.00   0.00     0.00  -0.00   0.00
 156   1     0.00   0.00  -0.00     0.00  -0.00   0.00    -0.00  -0.00   0.00
 157   1    -0.00   0.00  -0.00     0.00  -0.00   0.00    -0.00   0.00  -0.00
 158   1     0.00  -0.00  -0.00    -0.00   0.00   0.00    -0.00   0.00  -0.00
 159   1    -0.00   0.00   0.00     0.00  -0.00   0.00    -0.00   0.00  -0.00
 160   1    -0.00   0.00   0.00     0.00  -0.00   0.00    -0.00   0.00  -0.00
 161   1     0.00  -0.00   0.00     0.00  -0.00   0.00     0.00   0.00   0.00
 162   1    -0.00  -0.00   0.00     0.00  -0.00   0.00    -0.00   0.00  -0.00
 163   1     0.00   0.00  -0.00    -0.00   0.00  -0.00     0.00  -0.00   0.00
 164   1    -0.00  -0.00   0.00    -0.00  -0.00   0.00     0.00   0.00  -0.00
                    484                    485                    486
                        a                      a                      a 
 Frequencies --  3354.5912              3357.5826              3409.0786
 Red. masses --     1.8885                 1.8872                 1.8725
 Frc consts  --     0.0000                 0.0000                 0.0000
 IR Inten    --   802.9613                 4.8268              1551.1048
 Raman Activ --     0.0000                 0.0000                 0.0000
 Depolar     --     0.0000                 0.0000                 0.0000
 Atom AN      X      Y      Z        X      Y      Z        X      Y      Z
   1   6    -0.00  -0.00   0.00     0.00  -0.00   0.00    -0.00   0.00   0.00
   2   6    -0.00  -0.00   0.00    -0.00   0.00  -0.00     0.00  -0.00   0.00
   3   6     0.00  -0.00  -0.00    -0.00  -0.00   0.00     0.00   0.00  -0.00
   4   6     0.00  -0.00   0.00     0.00  -0.00   0.00    -0.00  -0.00   0.00
   5   6     0.00   0.00  -0.00    -0.00   0.00  -0.00    -0.00  -0.00   0.00
   6   6     0.00  -0.00   0.00    -0.00   0.00  -0.00    -0.00  -0.00  -0.00
   7   6     0.00  -0.00   0.00     0.00  -0.00  -0.00    -0.00   0.00  -0.00
   8   6    -0.00  -0.00   0.00    -0.00   0.00  -0.00     0.00  -0.00  -0.00
   9   7    -0.03   0.03  -0.01     0.00  -0.00   0.00    -0.00   0.00  -0.00
  10   6     0.00  -0.00   0.00     0.00  -0.00   0.00    -0.00   0.00  -0.00
  11   6     0.00  -0.00   0.00    -0.00   0.00   0.00     0.00  -0.00  -0.00
  12   6     0.00  -0.00  -0.00     0.00  -0.00   0.00    -0.00   0.00  -0.00
  13   6    -0.00   0.00  -0.00    -0.00   0.00   0.00     0.00  -0.00  -0.00
  14   6    -0.00   0.00  -0.00    -0.00  -0.00   0.00     0.00  -0.00  -0.00
  15   7     0.00   0.00  -0.00     0.00  -0.00   0.00    -0.00  -0.00   0.00
  16   6     0.00  -0.00   0.00    -0.00   0.00   0.00     0.00  -0.00  -0.00
  17   6     0.00  -0.00   0.00    -0.00   0.00  -0.00    -0.00  -0.00   0.00
  18   6    -0.00   0.00  -0.00    -0.00   0.00   0.00     0.00  -0.00   0.00
  19   6    -0.00   0.00   0.00     0.00  -0.00   0.00    -0.00  -0.00   0.00
  20   6     0.00  -0.00  -0.00    -0.00   0.00   0.00     0.00   0.00  -0.00
  21   7     0.18  -0.16   0.07    -0.00   0.00  -0.00    -0.00   0.00  -0.00
  22   6     0.00  -0.00   0.00     0.00  -0.00   0.00    -0.00   0.00  -0.00
  23   6    -0.00   0.00  -0.00    -0.00  -0.00   0.00     0.00  -0.00   0.00
  24   7    -0.00  -0.00   0.00     0.00   0.00  -0.00    -0.00   0.00   0.00
  25   1     0.00   0.00  -0.00    -0.00   0.00  -0.00     0.00  -0.00   0.00
  26   1     0.00  -0.00  -0.00     0.00   0.00  -0.00    -0.00  -0.00   0.00
  27   1    -0.00   0.00   0.00     0.00  -0.00   0.00     0.00  -0.00  -0.00
  28   1    -0.00   0.00  -0.00    -0.00  -0.00   0.00     0.00  -0.00   0.00
  29   1     0.13  -0.11   0.04    -0.00   0.00  -0.00     0.00  -0.00   0.00
  30   1    -0.00   0.00  -0.00    -0.00  -0.00   0.00     0.00  -0.00   0.00
  31   1     0.00   0.00  -0.00    -0.00   0.00  -0.00    -0.00  -0.00   0.00
  32   1     0.00   0.00  -0.00     0.00   0.00  -0.00    -0.00  -0.00   0.00
  33   1    -0.00  -0.00   0.00     0.00  -0.00  -0.00    -0.00  -0.00   0.00
  34   1    -0.00   0.00   0.00     0.00  -0.00   0.00    -0.00   0.00   0.00
  35   1    -0.00   0.00  -0.00    -0.00  -0.00   0.00     0.00   0.00   0.00
  36   1    -0.69   0.61  -0.24     0.00  -0.00   0.00     0.00  -0.00   0.00
  37   1    -0.00   0.00  -0.00    -0.00  -0.00   0.00     0.00  -0.00   0.00
  38   6     0.00  -0.00   0.00    -0.00  -0.00  -0.00     0.00  -0.00   0.00
  39   6    -0.00   0.00   0.00    -0.00  -0.00  -0.00     0.00  -0.00  -0.00
  40   6     0.00  -0.00  -0.00     0.00  -0.00  -0.00     0.00  -0.00   0.00
  41   6     0.00  -0.00   0.00     0.00  -0.00  -0.00    -0.00  -0.00   0.00
  42   6    -0.00   0.00   0.00     0.00   0.00   0.00    -0.00   0.00  -0.00
  43   6    -0.00  -0.00  -0.00     0.00  -0.00  -0.00    -0.00  -0.00   0.00
  44   6     0.00   0.00   0.00     0.00  -0.00  -0.00     0.00   0.00   0.00
  45   6    -0.00  -0.00  -0.00    -0.00  -0.00  -0.00    -0.00  -0.00   0.00
  46   7    -0.00   0.00   0.00    -0.03   0.04   0.01     0.00   0.00   0.00
  47   6     0.00   0.00   0.00     0.00  -0.00  -0.00     0.00   0.00   0.00
  48   6    -0.00  -0.00  -0.00     0.00  -0.00  -0.00    -0.00  -0.00   0.00
  49   6     0.00  -0.00   0.00     0.00   0.00   0.00     0.00  -0.00   0.00
  50   6    -0.00   0.00   0.00     0.00   0.00   0.00    -0.00   0.00   0.00
  51   6    -0.00  -0.00   0.00    -0.00   0.00   0.00    -0.00  -0.00   0.00
  52   7     0.00   0.00   0.00     0.00   0.00   0.00    -0.00  -0.00   0.00
  53   6    -0.00  -0.00   0.00     0.00  -0.00  -0.00     0.00   0.00   0.00
  54   6    -0.00  -0.00   0.00     0.00  -0.00  -0.00    -0.00  -0.00   0.00
  55   6    -0.00   0.00   0.00    -0.00   0.00   0.00    -0.00  -0.00   0.00
  56   6    -0.00   0.00   0.00    -0.00   0.00   0.00     0.00   0.00   0.00
  57   6    -0.00  -0.00   0.00     0.00  -0.00  -0.00    -0.00   0.00   0.00
  58   7     0.00  -0.00  -0.00     0.15  -0.20  -0.04    -0.00   0.00   0.00
  59   6     0.00   0.00   0.00     0.00  -0.00  -0.00     0.00   0.00   0.00
  60   6    -0.00   0.00   0.00    -0.00   0.00   0.00     0.00  -0.00  -0.00
  61   7    -0.00  -0.00   0.00    -0.00  -0.00  -0.00    -0.00   0.00   0.00
  62   1    -0.00  -0.00   0.00    -0.00  -0.00  -0.00     0.00   0.00   0.00
  63   1     0.00  -0.00   0.00    -0.00  -0.00  -0.00    -0.00  -0.00   0.00
  64   1     0.00  -0.00  -0.00    -0.00   0.00   0.00    -0.00  -0.00   0.00
  65   1    -0.00  -0.00  -0.00    -0.00   0.00   0.00     0.00  -0.00   0.00
  66   1     0.00  -0.00  -0.00     0.12  -0.16  -0.03    -0.00   0.00   0.00
  67   1    -0.00  -0.00  -0.00     0.00   0.00   0.00    -0.00  -0.00  -0.00
  68   1     0.00  -0.00   0.00     0.00   0.00   0.00     0.00  -0.00   0.00
  69   1     0.00  -0.00   0.00     0.00   0.00   0.00     0.00  -0.00   0.00
  70   1     0.00  -0.00   0.00    -0.00   0.00  -0.00    -0.00  -0.00   0.00
  71   1     0.00  -0.00   0.00    -0.00   0.00   0.00     0.00  -0.00   0.00
  72   1    -0.00  -0.00  -0.00    -0.00   0.00   0.00     0.00  -0.00  -0.00
  73   1    -0.00   0.00   0.00    -0.57   0.74   0.14     0.00  -0.00  -0.00
  74   1    -0.00  -0.00   0.00     0.00   0.00   0.00     0.00  -0.00   0.00
  75   6    -0.00  -0.00   0.00    -0.00   0.00   0.00     0.00  -0.00  -0.00
  76   6     0.00  -0.00  -0.00     0.00  -0.00  -0.00    -0.00  -0.00   0.00
  77   6    -0.00   0.00   0.00    -0.00   0.00   0.00     0.00  -0.00  -0.00
  78   6     0.00   0.00  -0.00    -0.00   0.00  -0.00     0.00  -0.00   0.00
  79   6    -0.00   0.00   0.00     0.00   0.00  -0.00    -0.00  -0.00   0.00
  80   6     0.00   0.00  -0.00    -0.00   0.00   0.00     0.00  -0.00  -0.00
  81   6    -0.00  -0.00  -0.00    -0.00  -0.00  -0.00    -0.00  -0.00   0.00
  82   6     0.00   0.00  -0.00     0.00   0.00  -0.00     0.00   0.00   0.00
  83   6    -0.00   0.00  -0.00    -0.00  -0.00  -0.00    -0.00  -0.00   0.00
  84   6    -0.00   0.00  -0.00    -0.00  -0.00  -0.00    -0.00  -0.00  -0.00
  85   6     0.00   0.00   0.00     0.00   0.00   0.00     0.00   0.00   0.00
  86   6    -0.00  -0.00  -0.00    -0.00  -0.00  -0.00    -0.00  -0.00  -0.00
  87   6    -0.00   0.00   0.00     0.00  -0.00  -0.00    -0.00  -0.00  -0.00
  88   6    -0.00   0.00   0.00    -0.00   0.00   0.00     0.00  -0.00  -0.00
  89   6     0.00  -0.00  -0.00     0.00  -0.00  -0.00    -0.00   0.00   0.00
  90   6    -0.00   0.00   0.00    -0.00   0.00   0.00     0.00  -0.00  -0.00
  91   6     0.00  -0.00   0.00     0.00  -0.00  -0.00    -0.00   0.00   0.00
  92   6    -0.00   0.00   0.00    -0.00   0.00  -0.00     0.00  -0.00   0.00
  93   6     0.00   0.00  -0.00     0.00  -0.00   0.00    -0.00   0.00  -0.00
  94   6     0.00   0.00  -0.00    -0.00  -0.00   0.00     0.00  -0.00   0.00
  95   6    -0.00   0.00  -0.00    -0.00  -0.00   0.00     0.00   0.00  -0.00
  96   6    -0.00   0.00  -0.00     0.00   0.00  -0.00    -0.00   0.00   0.00
  97   6    -0.00   0.00  -0.00    -0.00   0.00  -0.00    -0.00  -0.00   0.00
  98   6     0.00  -0.00   0.00    -0.00  -0.00   0.00     0.00  -0.00   0.00
  99   6     0.00  -0.00   0.00     0.00   0.00  -0.00    -0.00  -0.00   0.00
 100   6    -0.00  -0.00   0.00    -0.00  -0.00   0.00     0.00   0.00  -0.00
 101   7    -0.00   0.00  -0.00     0.00  -0.00   0.00     0.00  -0.00   0.00
 102   6     0.00  -0.00   0.00     0.00   0.00  -0.00    -0.00   0.00  -0.00
 103   6    -0.00   0.00   0.00    -0.00   0.00  -0.00     0.00   0.00  -0.00
 104   6     0.00  -0.00   0.00     0.00   0.00  -0.00    -0.00  -0.00   0.00
 105   6    -0.00  -0.00   0.00    -0.00   0.00  -0.00    -0.00  -0.00   0.00
 106   6    -0.00  -0.00   0.00    -0.00  -0.00   0.00     0.00   0.00  -0.00
 107   7     0.00  -0.00  -0.00     0.00  -0.00   0.00    -0.00   0.00  -0.00
 108   6     0.00   0.00  -0.00     0.00   0.00  -0.00     0.00   0.00   0.00
 109   6     0.00   0.00  -0.00    -0.00   0.00  -0.00     0.00  -0.00   0.00
 110   6    -0.00   0.00  -0.00    -0.00  -0.00   0.00    -0.00   0.00  -0.00
 111   6    -0.00   0.00  -0.00     0.00  -0.00   0.00    -0.00   0.00  -0.00
 112   6    -0.00  -0.00   0.00    -0.00  -0.00   0.00     0.00  -0.00  -0.00
 113   7    -0.00   0.00  -0.00     0.00  -0.00   0.00     0.00  -0.00   0.00
 114   6     0.00  -0.00   0.00     0.00  -0.00   0.00    -0.00   0.00  -0.00
 115   6    -0.00   0.00  -0.00    -0.00   0.00  -0.00     0.00  -0.00  -0.00
 116   7     0.00  -0.00   0.00     0.00  -0.00   0.00    -0.00   0.00   0.00
 117   1    -0.00  -0.00   0.00    -0.00   0.00  -0.00    -0.00  -0.00   0.00
 118   1    -0.00   0.00   0.00     0.00   0.00  -0.00    -0.00  -0.00   0.00
 119   1    -0.00   0.00  -0.00     0.00  -0.00   0.00    -0.00   0.00   0.00
 120   1    -0.00   0.00  -0.00     0.00  -0.00   0.00    -0.00   0.00  -0.00
 121   1     0.00  -0.00   0.00    -0.00   0.00  -0.00    -0.00   0.00  -0.00
 122   1    -0.00   0.00  -0.00    -0.00  -0.00   0.00     0.00   0.00   0.00
 123   1     0.00   0.00  -0.00    -0.00  -0.00   0.00     0.00   0.00  -0.00
 124   1     0.00   0.00  -0.00    -0.00   0.00  -0.00     0.00   0.00   0.00
 125   1     0.00   0.00   0.00    -0.00   0.00  -0.00     0.00  -0.00   0.00
 126   1     0.00  -0.00   0.00    -0.00   0.00  -0.00     0.00  -0.00   0.00
 127   1     0.00  -0.00   0.00    -0.00   0.00  -0.00    -0.00   0.00  -0.00
 128   1    -0.00   0.00   0.00    -0.00   0.00  -0.00     0.00  -0.00   0.00
 129   6     0.00  -0.00   0.00     0.00  -0.00   0.00     0.00   0.00  -0.00
 130   6    -0.00   0.00  -0.00    -0.00  -0.00  -0.00     0.00   0.00  -0.00
 131   6    -0.00  -0.00   0.00    -0.00  -0.00   0.00     0.00   0.00  -0.00
 132   6     0.00   0.00  -0.00     0.00  -0.00   0.00    -0.00   0.00  -0.00
 133   6    -0.00   0.00  -0.00    -0.00   0.00  -0.00    -0.00  -0.00   0.00
 134   6    -0.00  -0.00   0.00    -0.00  -0.00  -0.00    -0.00   0.00  -0.00
 135   6     0.00  -0.00   0.00     0.00   0.00  -0.00    -0.00   0.00  -0.00
 136   6    -0.00  -0.00   0.00    -0.00   0.00  -0.00     0.00   0.00  -0.00
 137   7     0.00  -0.00   0.00     0.00  -0.00   0.00     0.00  -0.00   0.01
 138   6     0.00   0.00   0.00     0.00  -0.00  -0.00    -0.00   0.00  -0.00
 139   6    -0.00  -0.00  -0.00     0.00  -0.00  -0.00     0.00   0.00   0.00
 140   6     0.00  -0.00   0.00    -0.00   0.00   0.00    -0.00   0.00  -0.00
 141   6    -0.00   0.00  -0.00    -0.00  -0.00   0.00     0.00  -0.00   0.00
 142   6     0.00  -0.00  -0.00     0.00  -0.00  -0.00     0.00  -0.00   0.00
 143   7     0.00   0.00   0.00    -0.00  -0.00   0.00    -0.00  -0.00  -0.00
 144   6    -0.00   0.00   0.00    -0.00   0.00   0.00     0.00   0.00  -0.00
 145   6     0.00   0.00  -0.00     0.00   0.00  -0.00    -0.00   0.00  -0.00
 146   6    -0.00  -0.00   0.00     0.00  -0.00   0.00     0.00  -0.00   0.00
 147   6     0.00   0.00  -0.00     0.00  -0.00   0.00     0.00  -0.00   0.00
 148   6    -0.00  -0.00   0.00    -0.00   0.00  -0.00    -0.00   0.00  -0.00
 149   7    -0.00   0.00  -0.00    -0.00   0.00  -0.00    -0.16   0.12  -0.16
 150   6     0.00  -0.00   0.00    -0.00  -0.00   0.00    -0.00   0.00  -0.00
 151   6    -0.00   0.00  -0.00    -0.00  -0.00   0.00     0.00  -0.00   0.00
 152   7     0.00  -0.00   0.00     0.00   0.00   0.00     0.00   0.00  -0.00
 153   1     0.00   0.00  -0.00     0.00   0.00  -0.00    -0.00  -0.00   0.00
 154   1     0.00   0.00  -0.00     0.00   0.00  -0.00    -0.00   0.00  -0.00
 155   1    -0.00  -0.00  -0.00     0.00  -0.00   0.00     0.00  -0.00   0.00
 156   1     0.00   0.00  -0.00    -0.00  -0.00   0.00     0.00  -0.00   0.00
 157   1    -0.00   0.00  -0.00    -0.00   0.00  -0.00    -0.02   0.01  -0.03
 158   1     0.00  -0.00  -0.00    -0.00   0.00   0.00    -0.00   0.00   0.00
 159   1    -0.00   0.00  -0.00    -0.00   0.00  -0.00    -0.00   0.00  -0.00
 160   1    -0.00   0.00   0.00     0.00   0.00  -0.00     0.00   0.00  -0.01
 161   1     0.00   0.00   0.00    -0.00  -0.00  -0.00     0.00   0.00   0.00
 162   1    -0.00  -0.00   0.00    -0.00   0.00  -0.00     0.00  -0.00   0.00
 163   1     0.00  -0.00   0.00     0.00  -0.00   0.00     0.60  -0.47   0.60
 164   1    -0.00   0.00  -0.00     0.00   0.00  -0.00    -0.00  -0.00   0.00
