      -----------------------------------------------------------      
     |                   =====================                   |     
     |                           x T B                           |     
     |                   =====================                   |     
     |                         S. Grimme                         |     
     |          Mulliken Center for Theoretical Chemistry        |     
     |                    University of Bonn                     |     
      -----------------------------------------------------------      

   * xtb version 6.4.1 (bd6e46d) compiled by 'conda@4901f00b25ba' on 2021-06-10

   xtb is free software: you can redistribute it and/or modify it under
   the terms of the GNU Lesser General Public License as published by
   the Free Software Foundation, either version 3 of the License, or
   (at your option) any later version.
   
   xtb is distributed in the hope that it will be useful,
   but WITHOUT ANY WARRANTY; without even the implied warranty of
   MERCHANTABILITY or FITNESS FOR A PARTICULAR PURPOSE.  See the
   GNU Lesser General Public License for more details.
   
   Cite this work as:
   * C. Bannwarth, E. Caldeweyher, S. Ehlert, A. Hansen, P. Pracht,
     J. Seibert, S. Spicher, S. Grimme, WIREs Comput. Mol. Sci., 2020, 11,
     e01493. DOI: 10.1002/wcms.1493
   
   for GFN2-xTB:
   * C. Bannwarth, S. Ehlert and S. Grimme., J. Chem. Theory Comput., 2019,
     15, 1652-1671. DOI: 10.1021/acs.jctc.8b01176
   for GFN1-xTB:
   * S. Grimme, C. Bannwarth, P. Shushkov, J. Chem. Theory Comput., 2017,
     13, 1989-2009. DOI: 10.1021/acs.jctc.7b00118
   for GFN0-xTB:
   * P. Pracht, E. Caldeweyher, S. Ehlert, S. Grimme, ChemRxiv, 2019, preprint.
     DOI: 10.26434/chemrxiv.8326202.v1
   for GFN-FF:
   * S. Spicher and S. Grimme, Angew. Chem. Int. Ed., 2020, 59, 15665-15673.
     DOI: 10.1002/anie.202004239
   
   for DFT-D4:
   * E. Caldeweyher, C. Bannwarth and S. Grimme, J. Chem. Phys., 2017,
     147, 034112. DOI: 10.1063/1.4993215
   * E. Caldeweyher, S. Ehlert, A. Hansen, H. Neugebauer, S. Spicher,
     C. Bannwarth and S. Grimme, J. Chem. Phys., 2019, 150, 154122.
     DOI: 10.1063/1.5090222
   * E. Caldeweyher, J.-M. Mewes, S. Ehlert and S. Grimme, Phys. Chem. Chem. Phys.
     2020, 22, 8499-8512. DOI: 10.1039/D0CP00502A
   
   for sTDA-xTB:
   * S. Grimme and C. Bannwarth, J. Chem. Phys., 2016, 145, 054103.
     DOI: 10.1063/1.4959605
   
   in the mass-spec context:
   * V. Asgeirsson, C. Bauer and S. Grimme, Chem. Sci., 2017, 8, 4879.
     DOI: 10.1039/c7sc00601b
   * J. Koopman and S. Grimme, ACS Omega 2019, 4, 12, 15120-15133.
     DOI: 10.1021/acsomega.9b02011
   
   for metadynamics refer to:
   * S. Grimme, J. Chem. Theory Comput., 2019, 155, 2847-2862
     DOI: 10.1021/acs.jctc.9b00143
   
   for SPH calculations refer to:
   * S. Spicher and S. Grimme, J. Chem. Theory Comput., 2021, 17, 1701-1714
     DOI: 10.1021/acs.jctc.0c01306
   
   with help from (in alphabetical order)
   P. Atkinson, C. Bannwarth, F. Bohle, G. Brandenburg, E. Caldeweyher
   M. Checinski, S. Dohm, S. Ehlert, S. Ehrlich, I. Gerasimov, J. Koopman
   C. Lavigne, S. Lehtola, F. März, M. Müller, F. Musil, H. Neugebauer
   J. Pisarek, C. Plett, P. Pracht, J. Seibert, P. Shushkov, S. Spicher
   M. Stahn, M. Steiner, T. Strunk, J. Stückrath, T. Rose, and J. Unsleber
   
 * started run on 2021/11/18 at 17:52:22.452     

           -------------------------------------------------
          |                Calculation Setup                |
           -------------------------------------------------

          program call               : /home/jeff/miniconda3/bin/xtb input_structure_1.xyz --gfn 2 --ohess normal --parallel 1 --etemp 300 --chrg 0 --uhf 0 -I det_control.in
          hostname                   : jelfscompute1
          coordinate file            : input_structure_1.xyz
          omp threads                :                     1
          number of atoms            :                   164
          number of electrons        :                   522
          charge                     :                     0
          spin                       :                   0.0
          first test random number   :      0.39755812712615

   ID    Z sym.   atoms
    1    6 C      1-8, 10-14, 16-20, 22, 23, 38-45, 47-51, 53-57, 59, 60,
                  75-100, 102-106, 108-112, 114, 115, 129-136, 138-142,
                  144-148, 150, 151
    2    7 N      9, 15, 21, 24, 46, 52, 58, 61, 101, 107, 113, 116, 137,
                  143, 149, 152
    3    1 H      25-37, 62-74, 117-128, 153-164

molecular fragmentation (1/2 indicates fragments):
111111111111111111111111111111111111111111111111111111111111111111111111
121111111111111111111111111111111111111111111111111111111111111111111111
11111111111111111111
# atoms in fragment 1/2:   163     1
 fragment masses (1/2) :     1450.55        1.01
CMA distance (Bohr)    :  36.367
constraining FC (au)   :  0.0500

           -------------------------------------------------
          |                 G F N 2 - x T B                 |
           -------------------------------------------------

        Reference                      10.1021/acs.jctc.8b01176
      * Hamiltonian:
        H0-scaling (s, p, d)           1.850000    2.230000    2.230000
        zeta-weighting                 0.500000
      * Dispersion:
        s8                             2.700000
        a1                             0.520000
        a2                             5.000000
        s9                             5.000000
      * Repulsion:
        kExp                           1.500000    1.000000
        rExp                           1.000000
      * Coulomb:
        alpha                          2.000000
        third order                    shell-resolved
        anisotropic                    true
        a3                             3.000000
        a5                             4.000000
        cn-shift                       1.200000
        cn-exp                         4.000000
        max-rad                        5.000000


          ...................................................
          :                      SETUP                      :
          :.................................................:
          :  # basis functions                 506          :
          :  # atomic orbitals                 506          :
          :  # shells                          278          :
          :  # electrons                       522          :
          :  max. iterations                   250          :
          :  Hamiltonian                  GFN2-xTB          :
          :  restarted?                      false          :
          :  GBSA solvation                  false          :
          :  PC potential                    false          :
          :  electronic temp.          300.0000000     K    :
          :  accuracy                    1.0000000          :
          :  -> integral cutoff          0.2500000E+02      :
          :  -> integral neglect         0.1000000E-07      :
          :  -> SCF convergence          0.1000000E-05 Eh   :
          :  -> wf. convergence          0.1000000E-03 e    :
          :  Broyden damping             0.4000000          :
          ...................................................

 iter      E             dE          RMSdq      gap      omega  full diag
   1   -285.7112385 -0.285711E+03  0.551E+00    0.20       0.0  T
   2   -285.6905269  0.207116E-01  0.365E+00    0.27       1.0  T
   3   -280.5665552  0.512397E+01  0.367E+00    0.17       1.0  T
   4   -263.7696693  0.167969E+02  0.480E+00    0.28       1.0  T
   5   -282.3161070 -0.185464E+02  0.238E+00    0.08       1.0  T
   6   -284.1916418 -0.187553E+01  0.208E+00    0.14       1.0  T
   7   -286.0125695 -0.182093E+01  0.107E+00    0.15       1.0  T
   8   -286.1104635 -0.978940E-01  0.752E-01    0.17       1.0  T
   9   -285.9728159  0.137648E+00  0.772E-01    0.06       1.0  T
  10   -286.0279158 -0.550999E-01  0.723E-01    0.10       1.0  T
  11   -286.2447269 -0.216811E+00  0.419E-01    0.20       1.0  T
  12   -286.2641899 -0.194631E-01  0.305E-01    0.16       1.0  T
  13   -286.2562740  0.791588E-02  0.305E-01    0.17       1.0  T
  14   -286.2681254 -0.118513E-01  0.201E-01    0.17       1.0  T
  15   -286.2698437 -0.171836E-02  0.136E-01    0.14       1.0  T
  16   -286.2727605 -0.291680E-02  0.786E-02    0.15       1.0  T
  17   -286.2731665 -0.405951E-03  0.652E-02    0.15       1.0  T
  18   -286.2735345 -0.368008E-03  0.378E-02    0.15       1.0  T
  19   -286.2735809 -0.464362E-04  0.296E-02    0.15       1.0  T
  20   -286.2737097 -0.128820E-03  0.189E-02    0.15       1.0  T
  21   -286.2737556 -0.459141E-04  0.115E-02    0.15       1.0  T
  22   -286.2737610 -0.531162E-05  0.127E-02    0.15       1.0  T
  23   -286.2737830 -0.220073E-04  0.823E-03    0.15       1.0  T
  24   -286.2737929 -0.993620E-05  0.481E-03    0.15       1.6  T
  25   -286.2737961 -0.324101E-05  0.284E-03    0.15       2.8  T
  26   -286.2737975 -0.139001E-05  0.154E-03    0.15       5.1  T
  27   -286.2737979 -0.396399E-06  0.987E-04    0.15       7.9  T
  28   -286.2737981 -0.179638E-06  0.747E-04    0.15      10.4  T

   *** convergence criteria satisfied after 28 iterations ***

         #    Occupation            Energy/Eh            Energy/eV
      -------------------------------------------------------------
         1        2.0000           -0.7019033             -19.0998
       ...           ...                  ...                  ...
       255        2.0000           -0.3479107              -9.4671
       256        2.0000           -0.3470582              -9.4439
       257        2.0000           -0.3421621              -9.3107
       258        2.0000           -0.3399313              -9.2500
       259        2.0000           -0.3383662              -9.2074
       260        2.0000           -0.3371282              -9.1737
       261        1.8902           -0.3277966              -8.9198 (HOMO)
       262        0.1098           -0.3223890              -8.7727 (LUMO)
       263        0.0000           -0.3145573              -8.5595
       264        0.0000           -0.3118544              -8.4860
       265                         -0.3090804              -8.4105
       266                         -0.3054712              -8.3123
       ...                                ...                  ...
       506                          2.0279955              55.1846
      -------------------------------------------------------------
                  HL-Gap            0.0054075 Eh            0.1471 eV
             Fermi-level           -0.3250929 Eh           -8.8462 eV

 SCC (total)                   0 d,  0 h,  0 min,  1.955 sec
 SCC setup                      ...        0 min,  0.005 sec (  0.237%)
 Dispersion                     ...        0 min,  0.010 sec (  0.531%)
 classical contributions        ...        0 min,  0.001 sec (  0.068%)
 integral evaluation            ...        0 min,  0.079 sec (  4.062%)
 iterations                     ...        0 min,  1.611 sec ( 82.410%)
 molecular gradient             ...        0 min,  0.241 sec ( 12.347%)
 printout                       ...        0 min,  0.007 sec (  0.343%)

         :::::::::::::::::::::::::::::::::::::::::::::::::::::
         ::                     SUMMARY                     ::
         :::::::::::::::::::::::::::::::::::::::::::::::::::::
         :: total energy            -280.468578533373 Eh    ::
         :: gradient norm              0.918921008070 Eh/a0 ::
         :: HOMO-LUMO gap              0.147146686468 eV    ::
         ::.................................................::
         :: SCC energy              -286.273798106830 Eh    ::
         :: -> isotropic ES            0.153364866501 Eh    ::
         :: -> anisotropic ES          0.008037681050 Eh    ::
         :: -> anisotropic XC          0.218061954057 Eh    ::
         :: -> dispersion             -0.224441200768 Eh    ::
         :: repulsion energy           5.802691320775 Eh    ::
         :: add. restraining           0.000000000000 Eh    ::
         :: total charge               0.000000000010 e     ::
         :::::::::::::::::::::::::::::::::::::::::::::::::::::

      ----------------------------------------------------------- 
     |                   =====================                   |
     |                        A N C O P T                        |
     |                   =====================                   |
     |               Approximate Normal Coordinate               |
     |                Rational Function Optimizer                |
      ----------------------------------------------------------- 

          ...................................................
          :                      SETUP                      :
          :.................................................:
          :   optimization level            normal          :
          :   max. optcycles                   492          :
          :   ANC micro-cycles                  20          :
          :   degrees of freedom               486          :
          :.................................................:
          :   RF solver                   davidson          :
          :   write xtbopt.log                true          :
          :   linear?                        false          :
          :   energy convergence         0.5000000E-05 Eh   :
          :   grad. convergence          0.1000000E-02 Eh/α :
          :   maximium RF displ.         1.0000000          :
          :   Hlow (freq-cutoff)         0.1000000E-01      :
          :   Hmax (freq-cutoff)         5.0000000          :
          :   S6 in model hess.         20.0000000          :
          ...................................................

generating ANC from model Hessian ...
Using Lindh-Hessian (1995)
 Shifting diagonal of input Hessian by    9.9996795137748343E-003
 Lowest  eigenvalues of input Hessian
    0.000000    0.000000    0.000000    0.000000    0.000000    0.000000
    0.010000    0.010001    0.010002    0.010004    0.010006    0.010008
    0.010011    0.010020    0.010023    0.010027    0.010044    0.010072
 Highest eigenvalues
    2.650580    2.790650    2.977074    2.984060    3.084569    3.219005


........................................................................
.............................. CYCLE    1 ..............................
........................................................................
   1   -286.2737982 -0.286274E+03  0.544E-04    0.15       0.0  T
   2   -286.2737981  0.153045E-06  0.123E-03    0.15       6.3  T
   3   -286.2737983 -0.187541E-06  0.624E-04    0.15      12.5  T
   4   -286.2737979  0.332020E-06  0.135E-03    0.15       5.8  T
   5   -286.2737982 -0.301974E-06  0.804E-04    0.15       9.7  T
     SCC iter.                  ...        0 min,  0.286 sec
     gradient                   ...        0 min,  0.240 sec
 * total energy  :  -280.4685787 Eh     change       -0.1218625E-06 Eh
   gradient norm :     0.9189206 Eh/α   predicted     0.0000000E+00 (-100.00%)
   displ. norm   :     0.5475209 α      lambda       -0.4186860E+00
   maximum displ.:     0.1073797 α      in ANC's #348, #486, #416, ...

........................................................................
.............................. CYCLE    2 ..............................
........................................................................
   1   -286.2954501 -0.286295E+03  0.366E-01    0.15       0.0  T
   2   -286.2168463  0.786038E-01  0.544E-01    0.24       1.0  T
   3   -286.2429247 -0.260784E-01  0.477E-01    0.23       1.0  T
   4   -286.2773386 -0.344139E-01  0.320E-01    0.19       1.0  T
   5   -286.2862517 -0.891306E-02  0.253E-01    0.16       1.0  T
   6   -286.3014786 -0.152270E-01  0.989E-02    0.15       1.0  T
   7   -286.3034327 -0.195409E-02  0.418E-02    0.16       1.0  T
   8   -286.3037258 -0.293049E-03  0.254E-02    0.15       1.0  T
   9   -286.3038552 -0.129455E-03  0.146E-02    0.15       1.0  T
  10   -286.3038482  0.701739E-05  0.117E-02    0.15       1.0  T
  11   -286.3038867 -0.385252E-04  0.494E-03    0.15       1.6  T
  12   -286.3038932 -0.645814E-05  0.166E-03    0.15       4.7  T
  13   -286.3038941 -0.928597E-06  0.485E-04    0.15      16.1  T
  14   -286.3038941 -0.156205E-07  0.316E-04    0.15      24.7  T
     SCC iter.                  ...        0 min,  0.788 sec
     gradient                   ...        0 min,  0.241 sec
 * total energy  :  -280.7947257 Eh     change       -0.3261470E+00 Eh
   gradient norm :     0.4809638 Eh/α   predicted    -0.2721057E+00 ( -16.57%)
   displ. norm   :     0.6549649 α      lambda       -0.2769498E+00
   maximum displ.:     0.1355558 α      in ANC's #348, #330, #342, ...

........................................................................
.............................. CYCLE    3 ..............................
........................................................................
   1   -286.4316214 -0.286432E+03  0.408E-01    0.14       0.0  T
   2   -286.3609084  0.707130E-01  0.523E-01    0.22       1.0  T
   3   -286.3616640 -0.755602E-03  0.509E-01    0.25       1.0  T
   4   -286.3950341 -0.333701E-01  0.378E-01    0.21       1.0  T
   5   -286.4168485 -0.218144E-01  0.286E-01    0.16       1.0  T
   6   -286.4402140 -0.233656E-01  0.112E-01    0.15       1.0  T
   7   -286.4428018 -0.258780E-02  0.371E-02    0.14       1.0  T
   8   -286.4429242 -0.122343E-03  0.284E-02    0.14       1.0  T
   9   -286.4429399 -0.157281E-04  0.264E-02    0.15       1.0  T
  10   -286.4430201 -0.801908E-04  0.151E-02    0.14       1.0  T
  11   -286.4430930 -0.728756E-04  0.564E-03    0.14       1.4  T
  12   -286.4431003 -0.736432E-05  0.267E-03    0.14       2.9  T
  13   -286.4431027 -0.236924E-05  0.880E-04    0.14       8.9  T
  14   -286.4431029 -0.186740E-06  0.530E-04    0.14      14.7  T
  15   -286.4431029 -0.420193E-07  0.358E-04    0.14      21.8  T
     SCC iter.                  ...        0 min,  0.844 sec
     gradient                   ...        0 min,  0.241 sec
 * total energy  :  -280.9950547 Eh     change       -0.2003291E+00 Eh
   gradient norm :     0.2092353 Eh/α   predicted    -0.1978778E+00 (  -1.22%)
   displ. norm   :     0.6516797 α      lambda       -0.1118544E+00
   maximum displ.:     0.1269505 α      in ANC's #85, #86, #137, ...

........................................................................
.............................. CYCLE    4 ..............................
........................................................................
   1   -286.5322314 -0.286532E+03  0.314E-01    0.14       0.0  T
   2   -286.5229193  0.931211E-02  0.260E-01    0.14       1.0  T
   3   -286.5131204  0.979883E-02  0.295E-01    0.15       1.0  T
   4   -286.4660218  0.470986E-01  0.424E-01    0.22       1.0  T
   5   -286.5255886 -0.595668E-01  0.169E-01    0.17       1.0  T
   6   -286.5347202 -0.913154E-02  0.732E-02    0.14       1.0  T
   7   -286.5357660 -0.104583E-02  0.250E-02    0.14       1.0  T
   8   -286.5359409 -0.174920E-03  0.174E-02    0.14       1.0  T
   9   -286.5360011 -0.602154E-04  0.951E-03    0.14       1.0  T
  10   -286.5360057 -0.457400E-05  0.797E-03    0.14       1.0  T
  11   -286.5360153 -0.962578E-05  0.457E-03    0.14       1.7  T
  12   -286.5360222 -0.686697E-05  0.144E-03    0.14       5.4  T
  13   -286.5360230 -0.797526E-06  0.494E-04    0.14      15.8  T
  14   -286.5360231 -0.920031E-07  0.206E-04    0.14      37.9  T
     SCC iter.                  ...        0 min,  0.789 sec
     gradient                   ...        0 min,  0.241 sec
 * total energy  :  -281.0711138 Eh     change       -0.7605904E-01 Eh
   gradient norm :     0.1356378 Eh/α   predicted    -0.7967883E-01 (   4.76%)
   displ. norm   :     0.7332890 α      lambda       -0.6437517E-01
   maximum displ.:     0.1881397 α      in ANC's #85, #86, #137, ...

........................................................................
.............................. CYCLE    5 ..............................
........................................................................
   1   -286.5647566 -0.286565E+03  0.260E-01    0.16       0.0  T
   2   -286.5583927  0.636389E-02  0.201E-01    0.15       1.0  T
   3   -286.4803681  0.780246E-01  0.487E-01    0.29       1.0  T
   4   -286.5598125 -0.794444E-01  0.159E-01    0.17       1.0  T
   5   -286.5625761 -0.276358E-02  0.958E-02    0.16       1.0  T
   6   -286.5655424 -0.296632E-02  0.201E-02    0.15       1.0  T
   7   -286.5654816  0.607350E-04  0.215E-02    0.15       1.0  T
   8   -286.5656024 -0.120715E-03  0.926E-03    0.15       1.0  T
   9   -286.5655670  0.353115E-04  0.114E-02    0.15       1.0  T
  10   -286.5656189 -0.518315E-04  0.273E-03    0.15       2.9  T
  11   -286.5656203 -0.142926E-05  0.130E-03    0.15       6.0  T
  12   -286.5656208 -0.478168E-06  0.695E-04    0.15      11.2  T
  13   -286.5656209 -0.122048E-06  0.331E-04    0.15      23.6  T
     SCC iter.                  ...        0 min,  0.734 sec
     gradient                   ...        0 min,  0.240 sec
 * total energy  :  -281.1190228 Eh     change       -0.4790906E-01 Eh
   gradient norm :     0.1003585 Eh/α   predicted    -0.4949535E-01 (   3.31%)
   displ. norm   :     0.7811271 α      lambda       -0.4663485E-01
   maximum displ.:     0.2512648 α      in ANC's #85, #86, #89, ...

........................................................................
.............................. CYCLE    6 ..............................
........................................................................
   1   -286.6029937 -0.286603E+03  0.233E-01    0.17       0.0  T
   2   -286.6012234  0.177030E-02  0.151E-01    0.17       1.0  T
   3   -286.5539813  0.472421E-01  0.365E-01    0.22       1.0  T
   4   -286.5904474 -0.364660E-01  0.218E-01    0.19       1.0  T
   5   -286.6021038 -0.116565E-01  0.704E-02    0.18       1.0  T
   6   -286.6036635 -0.155964E-02  0.182E-02    0.17       1.0  T
   7   -286.6037421 -0.785816E-04  0.123E-02    0.17       1.0  T
   8   -286.6037795 -0.374379E-04  0.646E-03    0.17       1.2  T
   9   -286.6037863 -0.675646E-05  0.376E-03    0.17       2.1  T
  10   -286.6037880 -0.169117E-05  0.231E-03    0.17       3.4  T
  11   -286.6037890 -0.107536E-05  0.791E-04    0.17       9.9  T
  12   -286.6037892 -0.154140E-06  0.256E-04    0.17      30.5  T
  13   -286.6037892 -0.107430E-07  0.149E-04    0.17      52.3  T
     SCC iter.                  ...        0 min,  0.734 sec
     gradient                   ...        0 min,  0.241 sec
 * total energy  :  -281.1579634 Eh     change       -0.3894058E-01 Eh
   gradient norm :     0.0650381 Eh/α   predicted    -0.3754482E-01 (  -3.58%)
   displ. norm   :     0.8351885 α      lambda       -0.3687357E-01
   maximum displ.:     0.2734497 α      in ANC's #85, #89, #86, ...

........................................................................
.............................. CYCLE    7 ..............................
........................................................................
   1   -286.6478643 -0.286648E+03  0.216E-01    0.19       0.0  T
   2   -286.6455155  0.234881E-02  0.159E-01    0.19       1.0  T
   3   -286.6202376  0.252778E-01  0.314E-01    0.24       1.0  T
   4   -286.6306188 -0.103811E-01  0.212E-01    0.21       1.0  T
   5   -286.6479820 -0.173632E-01  0.553E-02    0.20       1.0  T
   6   -286.6485282 -0.546275E-03  0.211E-02    0.19       1.0  T
   7   -286.6486437 -0.115422E-03  0.108E-02    0.19       1.0  T
   8   -286.6486612 -0.175378E-04  0.608E-03    0.19       1.3  T
   9   -286.6486592  0.196974E-05  0.525E-03    0.19       1.5  T
  10   -286.6486648 -0.558021E-05  0.180E-03    0.19       4.3  T
  11   -286.6486654 -0.626469E-06  0.674E-04    0.19      11.6  T
  12   -286.6486656 -0.127705E-06  0.218E-04    0.19      35.9  T
     SCC iter.                  ...        0 min,  0.678 sec
     gradient                   ...        0 min,  0.240 sec
 * total energy  :  -281.1906800 Eh     change       -0.3271656E-01 Eh
   gradient norm :     0.0509858 Eh/α   predicted    -0.3129719E-01 (  -4.34%)
   displ. norm   :     0.8728539 α      lambda       -0.3141813E-01
   maximum displ.:     0.2718154 α      in ANC's #85, #89, #63, ...

........................................................................
.............................. CYCLE    8 ..............................
........................................................................
   1   -286.6826849 -0.286683E+03  0.211E-01    0.22       0.0  T
   2   -286.6788759  0.380904E-02  0.174E-01    0.22       1.0  T
   3   -286.6595850  0.192909E-01  0.293E-01    0.27       1.0  T
   4   -286.6724084 -0.128234E-01  0.168E-01    0.23       1.0  T
   5   -286.6830344 -0.106260E-01  0.432E-02    0.22       1.0  T
   6   -286.6834221 -0.387637E-03  0.156E-02    0.22       1.0  T
   7   -286.6834644 -0.423575E-04  0.879E-03    0.22       1.0  T
   8   -286.6834699 -0.552610E-05  0.547E-03    0.22       1.4  T
   9   -286.6834702 -0.280501E-06  0.357E-03    0.22       2.2  T
  10   -286.6834728 -0.263266E-05  0.102E-03    0.22       7.7  T
  11   -286.6834731 -0.214693E-06  0.423E-04    0.22      18.4  T
  12   -286.6834731 -0.437072E-07  0.190E-04    0.22      41.1  T
     SCC iter.                  ...        0 min,  0.679 sec
     gradient                   ...        0 min,  0.240 sec
 * total energy  :  -281.2191089 Eh     change       -0.2842891E-01 Eh
   gradient norm :     0.0463429 Eh/α   predicted    -0.2767742E-01 (  -2.64%)
   displ. norm   :     0.8897174 α      lambda       -0.2731493E-01
   maximum displ.:     0.2664773 α      in ANC's #85, #89, #32, ...

........................................................................
.............................. CYCLE    9 ..............................
........................................................................
   1   -286.7119156 -0.286712E+03  0.204E-01    0.25       0.0  T
   2   -286.7097390  0.217659E-02  0.154E-01    0.24       1.0  T
   3   -286.6963577  0.133813E-01  0.253E-01    0.29       1.0  T
   4   -286.7031325 -0.677477E-02  0.154E-01    0.25       1.0  T
   5   -286.7122788 -0.914627E-02  0.347E-02    0.25       1.0  T
   6   -286.7125548 -0.276062E-03  0.115E-02    0.24       1.0  T
   7   -286.7125738 -0.189405E-04  0.652E-03    0.24       1.2  T
   8   -286.7125771 -0.332151E-05  0.393E-03    0.24       2.0  T
   9   -286.7125776 -0.481810E-06  0.242E-03    0.24       3.2  T
  10   -286.7125787 -0.114619E-05  0.772E-04    0.24      10.1  T
  11   -286.7125789 -0.141056E-06  0.221E-04    0.24      35.3  T
  12   -286.7125789 -0.398472E-08  0.160E-04    0.24      48.8  T
     SCC iter.                  ...        0 min,  0.679 sec
     gradient                   ...        0 min,  0.240 sec
 * total energy  :  -281.2441068 Eh     change       -0.2499794E-01 Eh
   gradient norm :     0.0405493 Eh/α   predicted    -0.2446872E-01 (  -2.12%)
   displ. norm   :     0.8990637 α      lambda       -0.2423212E-01
   maximum displ.:     0.2633698 α      in ANC's #32, #85, #89, ...

........................................................................
.............................. CYCLE   10 ..............................
........................................................................
   1   -286.7386236 -0.286739E+03  0.194E-01    0.26       0.0  T
   2   -286.7379998  0.623836E-03  0.130E-01    0.26       1.0  T
   3   -286.7327760  0.522385E-02  0.182E-01    0.29       1.0  T
   4   -286.7308661  0.190990E-02  0.147E-01    0.26       1.0  T
   5   -286.7389252 -0.805917E-02  0.286E-02    0.26       1.0  T
   6   -286.7391497 -0.224439E-03  0.771E-03    0.26       1.0  T
   7   -286.7391591 -0.939659E-05  0.374E-03    0.26       2.1  T
   8   -286.7391602 -0.109148E-05  0.214E-03    0.26       3.7  T
   9   -286.7391603 -0.148992E-06  0.142E-03    0.26       5.5  T
  10   -286.7391607 -0.395327E-06  0.551E-04    0.26      14.2  T
  11   -286.7391608 -0.646615E-07  0.176E-04    0.26      44.4  T
     SCC iter.                  ...        0 min,  0.622 sec
     gradient                   ...        0 min,  0.240 sec
 * total energy  :  -281.2662194 Eh     change       -0.2211256E-01 Eh
   gradient norm :     0.0349886 Eh/α   predicted    -0.2190967E-01 (  -0.92%)
   displ. norm   :     0.9136249 α      lambda       -0.2211282E-01
   maximum displ.:     0.2784446 α      in ANC's #32, #85, #47, ...

........................................................................
.............................. CYCLE   11 ..............................
........................................................................
   1   -286.7579176 -0.286758E+03  0.198E-01    0.28       0.0  T
   2   -286.7577659  0.151671E-03  0.122E-01    0.27       1.0  T
   3   -286.7545626  0.320330E-02  0.148E-01    0.30       1.0  T
   4   -286.7548907 -0.328073E-03  0.998E-02    0.28       1.0  T
   5   -286.7580629 -0.317222E-02  0.311E-02    0.28       1.0  T
   6   -286.7583662 -0.303276E-03  0.798E-03    0.28       1.0  T
   7   -286.7583796 -0.134446E-04  0.377E-03    0.28       2.1  T
   8   -286.7583811 -0.143601E-05  0.213E-03    0.28       3.7  T
   9   -286.7583819 -0.879224E-06  0.917E-04    0.28       8.5  T
  10   -286.7583821 -0.169593E-06  0.422E-04    0.28      18.5  T
     SCC iter.                  ...        0 min,  0.565 sec
     gradient                   ...        0 min,  0.241 sec
 * total energy  :  -281.2854450 Eh     change       -0.1922560E-01 Eh
   gradient norm :     0.0403487 Eh/α   predicted    -0.2028534E-01 (   5.51%)
   displ. norm   :     0.8900061 α      lambda       -0.2020922E-01
   maximum displ.:     0.2872318 α      in ANC's #32, #47, #85, ...

........................................................................
.............................. CYCLE   12 ..............................
........................................................................
   1   -286.7843695 -0.286784E+03  0.180E-01    0.29       0.0  T
   2   -286.7841292  0.240364E-03  0.115E-01    0.29       1.0  T
   3   -286.7819274  0.220181E-02  0.125E-01    0.31       1.0  T
   4   -286.7845777 -0.265033E-02  0.286E-02    0.29       1.0  T
   5   -286.7846848 -0.107143E-03  0.152E-02    0.29       1.0  T
   6   -286.7847309 -0.460917E-04  0.985E-03    0.29       1.0  T
   7   -286.7847613 -0.303147E-04  0.253E-03    0.29       3.1  T
   8   -286.7847617 -0.472261E-06  0.153E-03    0.29       5.1  T
   9   -286.7847621 -0.364792E-06  0.610E-04    0.29      12.8  T
  10   -286.7847622 -0.660144E-07  0.268E-04    0.29      29.1  T
     SCC iter.                  ...        0 min,  0.565 sec
     gradient                   ...        0 min,  0.241 sec
 * total energy  :  -281.3028865 Eh     change       -0.1744152E-01 Eh
   gradient norm :     0.0301721 Eh/α   predicted    -0.1810859E-01 (   3.82%)
   displ. norm   :     0.9044120 α      lambda       -0.1714933E-01
   maximum displ.:     0.3540147 α      in ANC's #32, #26, #27, ...

........................................................................
.............................. CYCLE   13 ..............................
........................................................................
   1   -286.7924524 -0.286792E+03  0.177E-01    0.31       0.0  T
   2   -286.7922544  0.197966E-03  0.108E-01    0.31       1.0  T
   3   -286.7880077  0.424672E-02  0.123E-01    0.31       1.0  T
   4   -286.7898811 -0.187343E-02  0.963E-02    0.32       1.0  T
   5   -286.7927146 -0.283352E-02  0.180E-02    0.31       1.0  T
   6   -286.7927852 -0.705518E-04  0.575E-03    0.31       1.4  T
   7   -286.7927907 -0.556133E-05  0.279E-03    0.31       2.8  T
   8   -286.7927913 -0.593467E-06  0.164E-03    0.31       4.8  T
   9   -286.7927919 -0.534042E-06  0.649E-04    0.31      12.0  T
  10   -286.7927919 -0.858393E-07  0.297E-04    0.31      26.3  T
     SCC iter.                  ...        0 min,  0.565 sec
     gradient                   ...        0 min,  0.241 sec
 * total energy  :  -281.3182411 Eh     change       -0.1535454E-01 Eh
   gradient norm :     0.0330482 Eh/α   predicted    -0.1558841E-01 (   1.52%)
   displ. norm   :     0.9013969 α      lambda       -0.1633302E-01
   maximum displ.:     0.3196418 α      in ANC's #32, #26, #27, ...

........................................................................
.............................. CYCLE   14 ..............................
........................................................................
   1   -286.8211990 -0.286821E+03  0.169E-01    0.33       0.0  T
   2   -286.8211820  0.169495E-04  0.100E-01    0.33       1.0  T
   3   -286.8193500  0.183202E-02  0.909E-02    0.33       1.0  T
   4   -286.8211648 -0.181477E-02  0.257E-02    0.33       1.0  T
   5   -286.8213046 -0.139787E-03  0.140E-02    0.33       1.0  T
   6   -286.8213549 -0.503815E-04  0.567E-03    0.33       1.4  T
   7   -286.8213629 -0.799543E-05  0.239E-03    0.33       3.3  T
   8   -286.8213636 -0.684241E-06  0.133E-03    0.33       5.9  T
   9   -286.8213640 -0.392052E-06  0.393E-04    0.33      19.9  T
  10   -286.8213640 -0.254938E-07  0.196E-04    0.33      39.8  T
     SCC iter.                  ...        0 min,  0.564 sec
     gradient                   ...        0 min,  0.240 sec
 * total energy  :  -281.3327025 Eh     change       -0.1446141E-01 Eh
   gradient norm :     0.0302820 Eh/α   predicted    -0.1480194E-01 (   2.35%)
   displ. norm   :     0.9000112 α      lambda       -0.1494405E-01
   maximum displ.:     0.3535177 α      in ANC's #32, #26, #27, ...

........................................................................
.............................. CYCLE   15 ..............................
........................................................................
   1   -286.8463621 -0.286846E+03  0.158E-01    0.35       0.0  T
   2   -286.8463000  0.620624E-04  0.934E-02    0.35       1.0  T
   3   -286.8414881  0.481188E-02  0.115E-01    0.35       1.0  T
   4   -286.8459918 -0.450364E-02  0.411E-02    0.35       1.0  T
   5   -286.8464308 -0.439032E-03  0.107E-02    0.35       1.0  T
   6   -286.8464566 -0.258449E-04  0.319E-03    0.35       2.4  T
   7   -286.8464575 -0.907952E-06  0.202E-03    0.35       3.9  T
   8   -286.8464581 -0.540491E-06  0.905E-04    0.35       8.6  T
   9   -286.8464582 -0.127155E-06  0.388E-04    0.35      20.1  T
     SCC iter.                  ...        0 min,  0.509 sec
     gradient                   ...        0 min,  0.240 sec
 * total energy  :  -281.3462876 Eh     change       -0.1358515E-01 Eh
   gradient norm :     0.0258598 Eh/α   predicted    -0.1352451E-01 (  -0.45%)
   displ. norm   :     0.9218255 α      lambda       -0.1416014E-01
   maximum displ.:     0.3969349 α      in ANC's #32, #26, #27, ...

........................................................................
.............................. CYCLE   16 ..............................
........................................................................
   1   -286.8600864 -0.286860E+03  0.167E-01    0.37       0.0  T
   2   -286.8599875  0.989279E-04  0.997E-02    0.38       1.0  T
   3   -286.8541313  0.585624E-02  0.124E-01    0.37       1.0  T
   4   -286.8595387 -0.540742E-02  0.500E-02    0.38       1.0  T
   5   -286.8602001 -0.661409E-03  0.832E-03    0.37       1.0  T
   6   -286.8602101 -0.999858E-05  0.352E-03    0.37       2.2  T
   7   -286.8602112 -0.113874E-05  0.189E-03    0.37       4.1  T
   8   -286.8602115 -0.323426E-06  0.103E-03    0.37       7.6  T
   9   -286.8602118 -0.205043E-06  0.373E-04    0.37      20.9  T
  10   -286.8602118 -0.257122E-07  0.164E-04    0.37      47.6  T
     SCC iter.                  ...        0 min,  0.566 sec
     gradient                   ...        0 min,  0.240 sec
 * total energy  :  -281.3589884 Eh     change       -0.1270080E-01 Eh
   gradient norm :     0.0275438 Eh/α   predicted    -0.1309646E-01 (   3.12%)
   displ. norm   :     0.9175336 α      lambda       -0.1365261E-01
   maximum displ.:     0.3833908 α      in ANC's #32, #26, #27, ...

........................................................................
.............................. CYCLE   17 ..............................
........................................................................
   1   -286.8748541 -0.286875E+03  0.163E-01    0.41       0.0  T
   2   -286.8747781  0.759175E-04  0.978E-02    0.41       1.0  T
   3   -286.8724790  0.229916E-02  0.104E-01    0.40       1.0  T
   4   -286.8742754 -0.179644E-02  0.466E-02    0.41       1.0  T
   5   -286.8750077 -0.732243E-03  0.969E-03    0.41       1.0  T
   6   -286.8750293 -0.216031E-04  0.328E-03    0.41       2.4  T
   7   -286.8750301 -0.835192E-06  0.216E-03    0.41       3.6  T
   8   -286.8750307 -0.568333E-06  0.108E-03    0.41       7.3  T
   9   -286.8750309 -0.265019E-06  0.397E-04    0.41      19.7  T
  10   -286.8750310 -0.268888E-07  0.191E-04    0.41      40.9  T
     SCC iter.                  ...        0 min,  0.567 sec
     gradient                   ...        0 min,  0.240 sec
 * total energy  :  -281.3705621 Eh     change       -0.1157368E-01 Eh
   gradient norm :     0.0374082 Eh/α   predicted    -0.1257317E-01 (   8.64%)
   displ. norm   :     0.8821746 α      lambda       -0.1310240E-01
   maximum displ.:     0.3359367 α      in ANC's #32, #26, #27, ...

........................................................................
.............................. CYCLE   18 ..............................
........................................................................
   1   -286.8874378 -0.286887E+03  0.158E-01    0.44       0.0  T
   2   -286.8874080  0.297802E-04  0.955E-02    0.45       1.0  T
   3   -286.8856955  0.171257E-02  0.908E-02    0.44       1.0  T
   4   -286.8873073 -0.161183E-02  0.278E-02    0.45       1.0  T
   5   -286.8875072 -0.199884E-03  0.131E-02    0.44       1.0  T
   6   -286.8875652 -0.580006E-04  0.307E-03    0.44       2.5  T
   7   -286.8875659 -0.702391E-06  0.214E-03    0.44       3.7  T
   8   -286.8875665 -0.652444E-06  0.982E-04    0.44       8.0  T
   9   -286.8875667 -0.212194E-06  0.305E-04    0.44      25.6  T
     SCC iter.                  ...        0 min,  0.509 sec
     gradient                   ...        0 min,  0.241 sec
 * total energy  :  -281.3816009 Eh     change       -0.1103884E-01 Eh
   gradient norm :     0.0297001 Eh/α   predicted    -0.1164957E-01 (   5.53%)
   displ. norm   :     0.8984217 α      lambda       -0.1160562E-01
   maximum displ.:     0.3794280 α      in ANC's #32, #26, #27, ...

........................................................................
.............................. CYCLE   19 ..............................
........................................................................
   1   -286.8975837 -0.286898E+03  0.156E-01    0.48       0.0  T
   2   -286.8975501  0.335574E-04  0.930E-02    0.48       1.0  T
   3   -286.8962420  0.130813E-02  0.914E-02    0.47       1.0  T
   4   -286.8974763 -0.123431E-02  0.268E-02    0.48       1.0  T
   5   -286.8976810 -0.204695E-03  0.735E-03    0.48       1.1  T
   6   -286.8976961 -0.150530E-04  0.307E-03    0.48       2.5  T
   7   -286.8976973 -0.120633E-05  0.198E-03    0.48       3.9  T
   8   -286.8976980 -0.775066E-06  0.754E-04    0.48      10.4  T
   9   -286.8976981 -0.976759E-07  0.364E-04    0.48      21.4  T
     SCC iter.                  ...        0 min,  0.509 sec
     gradient                   ...        0 min,  0.240 sec
 * total energy  :  -281.3915527 Eh     change       -0.9951792E-02 Eh
   gradient norm :     0.0318560 Eh/α   predicted    -0.1048662E-01 (   5.37%)
   displ. norm   :     0.8933257 α      lambda       -0.1141318E-01
   maximum displ.:     0.4172802 α      in ANC's #32, #26, #27, ...

........................................................................
.............................. CYCLE   20 ..............................
........................................................................
   1   -286.9085422 -0.286909E+03  0.156E-01    0.51       0.0  T
   2   -286.9085470 -0.482912E-05  0.930E-02    0.51       1.0  T
   3   -286.9073201  0.122688E-02  0.707E-02    0.51       1.0  T
   4   -286.9084038 -0.108369E-02  0.246E-02    0.51       1.0  T
   5   -286.9086039 -0.200124E-03  0.696E-03    0.51       1.1  T
   6   -286.9086177 -0.137661E-04  0.272E-03    0.51       2.9  T
   7   -286.9086183 -0.594667E-06  0.163E-03    0.51       4.8  T
   8   -286.9086187 -0.371863E-06  0.711E-04    0.51      11.0  T
   9   -286.9086188 -0.973915E-07  0.248E-04    0.51      31.4  T
     SCC iter.                  ...        0 min,  0.509 sec
     gradient                   ...        0 min,  0.240 sec
 * total energy  :  -281.4010392 Eh     change       -0.9486475E-02 Eh
   gradient norm :     0.0311085 Eh/α   predicted    -0.1026063E-01 (   8.16%)
   displ. norm   :     0.8681838 α      lambda       -0.1083365E-01
   maximum displ.:     0.3235235 α      in ANC's #32, #26, #27, ...
 * RMSD in coord.:     1.0661441 α      energy gain  -0.9324607E+00 Eh

generating ANC from model Hessian ...
Using Lindh-Hessian (1995)
 Shifting diagonal of input Hessian by    1.0001444266708728E-002
 Lowest  eigenvalues of input Hessian
    0.010000    0.000000    0.000000    0.000000    0.000000    0.000000
    0.000000    0.010004    0.010004    0.010007    0.010008    0.010009
    0.010013    0.010014    0.010017    0.010031    0.010053    0.010063
 Highest eigenvalues
    2.651551    2.661289    2.691969    2.975274    2.980983    3.013475


........................................................................
.............................. CYCLE   21 ..............................
........................................................................
   1   -286.9220674 -0.286922E+03  0.146E-01    0.54       0.0  T
   2   -286.9220071  0.602679E-04  0.881E-02    0.55       1.0  T
   3   -286.9198618  0.214534E-02  0.920E-02    0.54       1.0  T
   4   -286.9218766 -0.201485E-02  0.290E-02    0.54       1.0  T
   5   -286.9221520 -0.275393E-03  0.701E-03    0.55       1.1  T
   6   -286.9221638 -0.118256E-04  0.255E-03    0.55       3.1  T
   7   -286.9221641 -0.250186E-06  0.187E-03    0.55       4.2  T
   8   -286.9221646 -0.557340E-06  0.795E-04    0.55       9.8  T
   9   -286.9221648 -0.126515E-06  0.256E-04    0.55      30.6  T
     SCC iter.                  ...        0 min,  0.509 sec
     gradient                   ...        0 min,  0.240 sec
 * total energy  :  -281.4089780 Eh     change       -0.7938758E-02 Eh
   gradient norm :     0.0489399 Eh/α   predicted     0.0000000E+00 (-100.00%)
   displ. norm   :     0.5290114 α      lambda       -0.7667754E-02
   maximum displ.:     0.2372346 α      in ANC's #31, #26, #27, ...

........................................................................
.............................. CYCLE   22 ..............................
........................................................................
   1   -286.9314925 -0.286931E+03  0.886E-02    0.56       0.0  T
   2   -286.9314982 -0.567645E-05  0.531E-02    0.56       1.0  T
   3   -286.9312554  0.242814E-03  0.311E-02    0.56       1.0  T
   4   -286.9314822 -0.226801E-03  0.104E-02    0.56       1.0  T
   5   -286.9315110 -0.287922E-04  0.375E-03    0.56       2.1  T
   6   -286.9315153 -0.438534E-05  0.167E-03    0.56       4.7  T
   7   -286.9315158 -0.430945E-06  0.948E-04    0.56       8.2  T
   8   -286.9315159 -0.104688E-06  0.430E-04    0.56      18.1  T
     SCC iter.                  ...        0 min,  0.453 sec
     gradient                   ...        0 min,  0.240 sec
 * total energy  :  -281.4156250 Eh     change       -0.6647060E-02 Eh
   gradient norm :     0.0186983 Eh/α   predicted    -0.4909967E-02 ( -26.13%)
   displ. norm   :     0.8479275 α      lambda       -0.9200052E-02
   maximum displ.:     0.3823575 α      in ANC's #31, #26, #27, ...

........................................................................
.............................. CYCLE   23 ..............................
........................................................................
   1   -286.9407292 -0.286941E+03  0.136E-01    0.58       0.0  T
   2   -286.9407227  0.644881E-05  0.808E-02    0.58       1.0  T
   3   -286.9395421  0.118058E-02  0.636E-02    0.58       1.0  T
   4   -286.9406167 -0.107454E-02  0.232E-02    0.58       1.0  T
   5   -286.9407833 -0.166658E-03  0.531E-03    0.58       1.5  T
   6   -286.9407885 -0.521341E-05  0.221E-03    0.58       3.5  T
   7   -286.9407888 -0.217097E-06  0.149E-03    0.58       5.2  T
   8   -286.9407891 -0.355333E-06  0.598E-04    0.58      13.1  T
   9   -286.9407892 -0.708092E-07  0.252E-04    0.58      31.0  T
     SCC iter.                  ...        0 min,  0.509 sec
     gradient                   ...        0 min,  0.240 sec
 * total energy  :  -281.4235133 Eh     change       -0.7888238E-02 Eh
   gradient norm :     0.0249515 Eh/α   predicted    -0.7907358E-02 (   0.24%)
   displ. norm   :     0.8881094 α      lambda       -0.8547801E-02
   maximum displ.:     0.4090957 α      in ANC's #31, #26, #27, ...

........................................................................
.............................. CYCLE   24 ..............................
........................................................................
   1   -286.9418501 -0.286942E+03  0.151E-01    0.61       0.0  T
   2   -286.9418010  0.491295E-04  0.905E-02    0.61       1.0  T
   3   -286.9393074  0.249360E-02  0.902E-02    0.61       1.0  T
   4   -286.9416947 -0.238734E-02  0.287E-02    0.61       1.0  T
   5   -286.9419291 -0.234425E-03  0.501E-03    0.61       1.6  T
   6   -286.9419332 -0.408027E-05  0.239E-03    0.61       3.3  T
   7   -286.9419334 -0.211426E-06  0.163E-03    0.61       4.8  T
   8   -286.9419338 -0.406853E-06  0.639E-04    0.61      12.2  T
   9   -286.9419339 -0.770391E-07  0.308E-04    0.61      25.3  T
     SCC iter.                  ...        0 min,  0.510 sec
     gradient                   ...        0 min,  0.241 sec
 * total energy  :  -281.4310141 Eh     change       -0.7500797E-02 Eh
   gradient norm :     0.0373935 Eh/α   predicted    -0.7644896E-02 (   1.92%)
   displ. norm   :     0.8671338 α      lambda       -0.8199852E-02
   maximum displ.:     0.3818879 α      in ANC's #31, #26, #27, ...

........................................................................
.............................. CYCLE   25 ..............................
........................................................................
   1   -286.9464303 -0.286946E+03  0.132E-01    0.64       0.0  T
   2   -286.9464007  0.296099E-04  0.788E-02    0.64       1.0  T
   3   -286.9448556  0.154506E-02  0.750E-02    0.64       1.0  T
   4   -286.9463142 -0.145855E-02  0.246E-02    0.64       1.0  T
   5   -286.9464967 -0.182499E-03  0.509E-03    0.64       1.5  T
   6   -286.9465024 -0.570993E-05  0.203E-03    0.64       3.8  T
   7   -286.9465026 -0.190331E-06  0.142E-03    0.64       5.5  T
   8   -286.9465029 -0.329139E-06  0.489E-04    0.64      16.0  T
   9   -286.9465030 -0.431070E-07  0.231E-04    0.64      33.8  T
     SCC iter.                  ...        0 min,  0.509 sec
     gradient                   ...        0 min,  0.241 sec
 * total energy  :  -281.4387199 Eh     change       -0.7705831E-02 Eh
   gradient norm :     0.0333036 Eh/α   predicted    -0.7182747E-02 (  -6.79%)
   displ. norm   :     0.8607291 α      lambda       -0.8869920E-02
   maximum displ.:     0.3747595 α      in ANC's #31, #27, #26, ...

........................................................................
.............................. CYCLE   26 ..............................
........................................................................
   1   -286.9652218 -0.286965E+03  0.139E-01    0.66       0.0  T
   2   -286.9651940  0.278215E-04  0.837E-02    0.67       1.0  T
   3   -286.9636634  0.153054E-02  0.747E-02    0.67       1.0  T
   4   -286.9651188 -0.145535E-02  0.224E-02    0.66       1.0  T
   5   -286.9652801 -0.161287E-03  0.488E-03    0.67       1.6  T
   6   -286.9652843 -0.420750E-05  0.229E-03    0.67       3.4  T
   7   -286.9652845 -0.237863E-06  0.158E-03    0.67       4.9  T
   8   -286.9652850 -0.462441E-06  0.551E-04    0.67      14.2  T
   9   -286.9652850 -0.638653E-07  0.220E-04    0.67      35.6  T
     SCC iter.                  ...        0 min,  0.509 sec
     gradient                   ...        0 min,  0.240 sec
 * total energy  :  -281.4462664 Eh     change       -0.7546536E-02 Eh
   gradient norm :     0.0159980 Eh/α   predicted    -0.7720624E-02 (   2.31%)
   displ. norm   :     0.9092805 α      lambda       -0.7937452E-02
   maximum displ.:     0.3723713 α      in ANC's #31, #26, #27, ...

........................................................................
.............................. CYCLE   27 ..............................
........................................................................
   1   -286.9699578 -0.286970E+03  0.160E-01    0.69       0.0  T
   2   -286.9699613 -0.347331E-05  0.943E-02    0.69       1.0  T
   3   -286.9693412  0.620043E-03  0.517E-02    0.69       1.0  T
   4   -286.9699310 -0.589768E-03  0.141E-02    0.69       1.0  T
   5   -286.9699935 -0.625066E-04  0.438E-03    0.69       1.8  T
   6   -286.9699965 -0.301680E-05  0.236E-03    0.69       3.3  T
   7   -286.9699968 -0.294933E-06  0.160E-03    0.69       4.9  T
   8   -286.9699974 -0.564082E-06  0.447E-04    0.69      17.5  T
   9   -286.9699974 -0.365009E-07  0.206E-04    0.69      38.0  T
     SCC iter.                  ...        0 min,  0.509 sec
     gradient                   ...        0 min,  0.240 sec
 * total energy  :  -281.4529444 Eh     change       -0.6678016E-02 Eh
   gradient norm :     0.0211955 Eh/α   predicted    -0.7250038E-02 (   8.57%)
   displ. norm   :     0.9080155 α      lambda       -0.7447723E-02
   maximum displ.:     0.4225942 α      in ANC's #31, #27, #26, ...

........................................................................
.............................. CYCLE   28 ..............................
........................................................................
   1   -286.9586511 -0.286959E+03  0.149E-01    0.72       0.0  T
   2   -286.9586527 -0.167945E-05  0.876E-02    0.72       1.0  T
   3   -286.9580011  0.651664E-03  0.562E-02    0.72       1.0  T
   4   -286.9586643 -0.663188E-03  0.110E-02    0.72       1.0  T
   5   -286.9586895 -0.251968E-04  0.376E-03    0.72       2.1  T
   6   -286.9586906 -0.109624E-05  0.247E-03    0.72       3.2  T
   7   -286.9586911 -0.516768E-06  0.164E-03    0.72       4.8  T
   8   -286.9586918 -0.779821E-06  0.436E-04    0.72      17.9  T
   9   -286.9586919 -0.402545E-07  0.227E-04    0.72      34.3  T
     SCC iter.                  ...        0 min,  0.510 sec
     gradient                   ...        0 min,  0.240 sec
 * total energy  :  -281.4593403 Eh     change       -0.6395857E-02 Eh
   gradient norm :     0.0207853 Eh/α   predicted    -0.6794154E-02 (   6.23%)
   displ. norm   :     0.8486508 α      lambda       -0.6863542E-02
   maximum displ.:     0.3417999 α      in ANC's #27, #31, #26, ...

........................................................................
.............................. CYCLE   29 ..............................
........................................................................
   1   -286.9764773 -0.286976E+03  0.134E-01    0.74       0.0  T
   2   -286.9764891 -0.117595E-04  0.780E-02    0.74       1.0  T
   3   -286.9761994  0.289716E-03  0.361E-02    0.74       1.0  T
   4   -286.9764832 -0.283809E-03  0.940E-03    0.74       1.0  T
   5   -286.9765042 -0.210337E-04  0.384E-03    0.74       2.0  T
   6   -286.9765074 -0.320538E-05  0.190E-03    0.74       4.1  T
   7   -286.9765078 -0.389992E-06  0.122E-03    0.74       6.4  T
   8   -286.9765081 -0.326283E-06  0.457E-04    0.74      17.1  T
   9   -286.9765082 -0.441383E-07  0.152E-04    0.74      51.3  T
     SCC iter.                  ...        0 min,  0.510 sec
     gradient                   ...        0 min,  0.240 sec
 * total energy  :  -281.4653164 Eh     change       -0.5976139E-02 Eh
   gradient norm :     0.0156277 Eh/α   predicted    -0.5903359E-02 (  -1.22%)
   displ. norm   :     0.8968823 α      lambda       -0.6380533E-02
   maximum displ.:     0.3650729 α      in ANC's #31, #26, #27, ...

........................................................................
.............................. CYCLE   30 ..............................
........................................................................
   1   -286.9936900 -0.286994E+03  0.146E-01    0.76       0.0  T
   2   -286.9936955 -0.546701E-05  0.859E-02    0.76       1.0  T
   3   -286.9931649  0.530627E-03  0.444E-02    0.76       1.0  T
   4   -286.9936732 -0.508329E-03  0.120E-02    0.76       1.0  T
   5   -286.9937185 -0.452821E-04  0.357E-03    0.76       2.2  T
   6   -286.9937202 -0.167297E-05  0.213E-03    0.76       3.7  T
   7   -286.9937207 -0.572789E-06  0.109E-03    0.76       7.1  T
   8   -286.9937210 -0.245795E-06  0.411E-04    0.76      19.0  T
   9   -286.9937210 -0.374433E-07  0.146E-04    0.76      53.5  T
     SCC iter.                  ...        0 min,  0.509 sec
     gradient                   ...        0 min,  0.240 sec
 * total energy  :  -281.4709119 Eh     change       -0.5595493E-02 Eh
   gradient norm :     0.0136957 Eh/α   predicted    -0.5756511E-02 (   2.88%)
   displ. norm   :     0.9273505 α      lambda       -0.6003140E-02
   maximum displ.:     0.3829402 α      in ANC's #31, #27, #26, ...

........................................................................
.............................. CYCLE   31 ..............................
........................................................................
   1   -286.9873846 -0.286987E+03  0.152E-01    0.78       0.0  T
   2   -286.9874014 -0.168252E-04  0.894E-02    0.78       1.0  T
   3   -286.9870349  0.366457E-03  0.431E-02    0.78       1.0  T
   4   -286.9873919 -0.356985E-03  0.109E-02    0.78       1.0  T
   5   -286.9874239 -0.320239E-04  0.519E-03    0.78       1.5  T
   6   -286.9874312 -0.723471E-05  0.202E-03    0.78       3.9  T
   7   -286.9874314 -0.209208E-06  0.114E-03    0.78       6.9  T
   8   -286.9874316 -0.231418E-06  0.370E-04    0.78      21.1  T
   9   -286.9874316 -0.231184E-07  0.159E-04    0.78      49.2  T
     SCC iter.                  ...        0 min,  0.508 sec
     gradient                   ...        0 min,  0.240 sec
 * total energy  :  -281.4758507 Eh     change       -0.4938801E-02 Eh
   gradient norm :     0.0189605 Eh/α   predicted    -0.5582854E-02 (  13.04%)
   displ. norm   :     0.8505611 α      lambda       -0.5298475E-02
   maximum displ.:     0.3297123 α      in ANC's #27, #26, #24, ...

........................................................................
.............................. CYCLE   32 ..............................
........................................................................
   1   -286.9964788 -0.286996E+03  0.132E-01    0.79       0.0  T
   2   -286.9964895 -0.107311E-04  0.773E-02    0.80       1.0  T
   3   -286.9963237  0.165879E-03  0.279E-02    0.79       1.0  T
   4   -286.9964861 -0.162431E-03  0.830E-03    0.79       1.0  T
   5   -286.9965011 -0.150388E-04  0.225E-03    0.79       3.5  T
   6   -286.9965016 -0.431556E-06  0.138E-03    0.79       5.6  T
   7   -286.9965017 -0.141516E-06  0.736E-04    0.79      10.6  T
   8   -286.9965018 -0.106927E-06  0.334E-04    0.79      23.4  T
     SCC iter.                  ...        0 min,  0.452 sec
     gradient                   ...        0 min,  0.240 sec
 * total energy  :  -281.4805213 Eh     change       -0.4670512E-02 Eh
   gradient norm :     0.0121313 Eh/α   predicted    -0.4565832E-02 (  -2.24%)
   displ. norm   :     0.8821939 α      lambda       -0.4764072E-02
   maximum displ.:     0.3393324 α      in ANC's #27, #31, #26, ...

........................................................................
.............................. CYCLE   33 ..............................
........................................................................
   1   -287.0159439 -0.287016E+03  0.140E-01    0.81       0.0  T
   2   -287.0159579 -0.140034E-04  0.816E-02    0.81       1.0  T
   3   -287.0157316  0.226266E-03  0.309E-02    0.81       1.0  T
   4   -287.0159387 -0.207043E-03  0.108E-02    0.81       1.0  T
   5   -287.0159713 -0.326197E-04  0.304E-03    0.81       2.6  T
   6   -287.0159729 -0.158029E-05  0.167E-03    0.81       4.7  T
   7   -287.0159732 -0.292265E-06  0.961E-04    0.81       8.1  T
   8   -287.0159734 -0.200998E-06  0.383E-04    0.81      20.4  T
     SCC iter.                  ...        0 min,  0.452 sec
     gradient                   ...        0 min,  0.240 sec
 * total energy  :  -281.4846195 Eh     change       -0.4098229E-02 Eh
   gradient norm :     0.0123664 Eh/α   predicted    -0.4235902E-02 (   3.36%)
   displ. norm   :     0.9102712 α      lambda       -0.4449069E-02
   maximum displ.:     0.3413971 α      in ANC's #27, #26, #31, ...

........................................................................
.............................. CYCLE   34 ..............................
........................................................................
   1   -287.0069182 -0.287007E+03  0.148E-01    0.82       0.0  T
   2   -287.0069324 -0.142254E-04  0.870E-02    0.82       1.0  T
   3   -287.0066870  0.245413E-03  0.348E-02    0.82       1.0  T
   4   -287.0069275 -0.240539E-03  0.100E-02    0.82       1.0  T
   5   -287.0069500 -0.224801E-04  0.332E-03    0.82       2.4  T
   6   -287.0069513 -0.132672E-05  0.182E-03    0.82       4.3  T
   7   -287.0069515 -0.204481E-06  0.100E-03    0.82       7.8  T
   8   -287.0069517 -0.226126E-06  0.382E-04    0.82      20.4  T
   9   -287.0069518 -0.360384E-07  0.159E-04    0.82      49.1  T
     SCC iter.                  ...        0 min,  0.509 sec
     gradient                   ...        0 min,  0.240 sec
 * total energy  :  -281.4882634 Eh     change       -0.3643933E-02 Eh
   gradient norm :     0.0156015 Eh/α   predicted    -0.4067768E-02 (  11.63%)
   displ. norm   :     0.8532829 α      lambda       -0.3896710E-02
   maximum displ.:     0.3578224 α      in ANC's #27, #26, #24, ...

........................................................................
.............................. CYCLE   35 ..............................
........................................................................
   1   -287.0064244 -0.287006E+03  0.135E-01    0.83       0.0  T
   2   -287.0064297 -0.531433E-05  0.799E-02    0.83       1.0  T
   3   -287.0061651  0.264547E-03  0.311E-02    0.83       1.0  T
   4   -287.0064171 -0.251996E-03  0.918E-03    0.83       1.0  T
   5   -287.0064437 -0.266054E-04  0.258E-03    0.83       3.0  T
   6   -287.0064446 -0.880609E-06  0.141E-03    0.83       5.5  T
   7   -287.0064447 -0.119260E-06  0.741E-04    0.83      10.5  T
   8   -287.0064448 -0.103309E-06  0.295E-04    0.83      26.5  T
     SCC iter.                  ...        0 min,  0.452 sec
     gradient                   ...        0 min,  0.240 sec
 * total energy  :  -281.4913535 Eh     change       -0.3090093E-02 Eh
   gradient norm :     0.0164040 Eh/α   predicted    -0.3366935E-02 (   8.96%)
   displ. norm   :     0.8145895 α      lambda       -0.3625706E-02
   maximum displ.:     0.2777358 α      in ANC's #27, #26, #24, ...

........................................................................
.............................. CYCLE   36 ..............................
........................................................................
   1   -287.0238592 -0.287024E+03  0.130E-01    0.83       0.0  T
   2   -287.0238703 -0.111017E-04  0.762E-02    0.83       1.0  T
   3   -287.0237181  0.152197E-03  0.247E-02    0.83       1.0  T
   4   -287.0238634 -0.145206E-03  0.806E-03    0.83       1.0  T
   5   -287.0238805 -0.171286E-04  0.261E-03    0.83       3.0  T
   6   -287.0238816 -0.111736E-05  0.142E-03    0.83       5.5  T
   7   -287.0238818 -0.174532E-06  0.826E-04    0.83       9.5  T
   8   -287.0238819 -0.158342E-06  0.274E-04    0.83      28.5  T
     SCC iter.                  ...        0 min,  0.452 sec
     gradient                   ...        0 min,  0.240 sec
 * total energy  :  -281.4942213 Eh     change       -0.2867769E-02 Eh
   gradient norm :     0.0175931 Eh/α   predicted    -0.3015787E-02 (   5.16%)
   displ. norm   :     0.8439065 α      lambda       -0.3232238E-02
   maximum displ.:     0.3384548 α      in ANC's #27, #26, #31, ...

........................................................................
.............................. CYCLE   37 ..............................
........................................................................
   1   -287.0195138 -0.287020E+03  0.130E-01    0.84       0.0  T
   2   -287.0195250 -0.112346E-04  0.763E-02    0.84       1.0  T
   3   -287.0193358  0.189206E-03  0.290E-02    0.84       1.0  T
   4   -287.0195269 -0.191111E-03  0.776E-03    0.84       1.0  T
   5   -287.0195399 -0.129551E-04  0.252E-03    0.84       3.1  T
   6   -287.0195399 -0.615892E-07  0.200E-03    0.84       3.9  T
   7   -287.0195407 -0.795765E-06  0.714E-04    0.84      10.9  T
   8   -287.0195408 -0.106619E-06  0.256E-04    0.84      30.5  T
     SCC iter.                  ...        0 min,  0.453 sec
     gradient                   ...        0 min,  0.240 sec
 * total energy  :  -281.4967102 Eh     change       -0.2488931E-02 Eh
   gradient norm :     0.0185798 Eh/α   predicted    -0.2767091E-02 (  11.18%)
   displ. norm   :     0.8105506 α      lambda       -0.2867998E-02
   maximum displ.:     0.3210880 α      in ANC's #27, #26, #24, ...

........................................................................
.............................. CYCLE   38 ..............................
........................................................................
   1   -287.0196008 -0.287020E+03  0.117E-01    0.85       0.0  T
   2   -287.0196042 -0.341513E-05  0.690E-02    0.85       1.0  T
   3   -287.0193448  0.259367E-03  0.302E-02    0.85       1.0  T
   4   -287.0196010 -0.256200E-03  0.774E-03    0.85       1.0  T
   5   -287.0196192 -0.182261E-04  0.232E-03    0.85       3.4  T
   6   -287.0196200 -0.807466E-06  0.124E-03    0.85       6.3  T
   7   -287.0196201 -0.788935E-07  0.778E-04    0.85      10.0  T
   8   -287.0196202 -0.110811E-06  0.248E-04    0.85      31.4  T
     SCC iter.                  ...        0 min,  0.453 sec
     gradient                   ...        0 min,  0.239 sec
 * total energy  :  -281.4989650 Eh     change       -0.2254757E-02 Eh
   gradient norm :     0.0142196 Eh/α   predicted    -0.2376129E-02 (   5.38%)
   displ. norm   :     0.7970270 α      lambda       -0.2636879E-02
   maximum displ.:     0.2861251 α      in ANC's #27, #24, #26, ...

........................................................................
.............................. CYCLE   39 ..............................
........................................................................
   1   -287.0319533 -0.287032E+03  0.118E-01    0.85       0.0  T
   2   -287.0319552 -0.198422E-05  0.699E-02    0.85       1.0  T
   3   -287.0316486  0.306685E-03  0.341E-02    0.85       1.0  T
   4   -287.0319577 -0.309178E-03  0.734E-03    0.85       1.1  T
   5   -287.0319707 -0.129310E-04  0.237E-03    0.85       3.3  T
   6   -287.0319713 -0.659259E-06  0.124E-03    0.85       6.3  T
   7   -287.0319714 -0.640009E-07  0.847E-04    0.85       9.2  T
   8   -287.0319715 -0.147640E-06  0.259E-04    0.85      30.2  T
     SCC iter.                  ...        0 min,  0.451 sec
     gradient                   ...        0 min,  0.240 sec
 * total energy  :  -281.5009532 Eh     change       -0.1988256E-02 Eh
   gradient norm :     0.0167483 Eh/α   predicted    -0.2155981E-02 (   8.44%)
   displ. norm   :     0.7974518 α      lambda       -0.2394775E-02
   maximum displ.:     0.3132586 α      in ANC's #27, #26, #24, ...

........................................................................
.............................. CYCLE   40 ..............................
........................................................................
   1   -287.0283908 -0.287028E+03  0.115E-01    0.85       0.0  T
   2   -287.0283931 -0.224963E-05  0.678E-02    0.85       1.0  T
   3   -287.0281098  0.283276E-03  0.327E-02    0.85       1.0  T
   4   -287.0283936 -0.283782E-03  0.705E-03    0.85       1.1  T
   5   -287.0284074 -0.137997E-04  0.256E-03    0.85       3.1  T
   6   -287.0284086 -0.125192E-05  0.122E-03    0.85       6.4  T
   7   -287.0284088 -0.125429E-06  0.646E-04    0.85      12.1  T
   8   -287.0284088 -0.638665E-07  0.248E-04    0.85      31.4  T
     SCC iter.                  ...        0 min,  0.452 sec
     gradient                   ...        0 min,  0.239 sec
 * total energy  :  -281.5027980 Eh     change       -0.1844751E-02 Eh
   gradient norm :     0.0121193 Eh/α   predicted    -0.1958848E-02 (   6.18%)
   displ. norm   :     0.7915637 α      lambda       -0.2054094E-02
   maximum displ.:     0.2945021 α      in ANC's #27, #26, #12, ...

........................................................................
.............................. CYCLE   41 ..............................
........................................................................
   1   -287.0412654 -0.287041E+03  0.110E-01    0.85       0.0  T
   2   -287.0412690 -0.356550E-05  0.649E-02    0.85       1.0  T
   3   -287.0410293  0.239625E-03  0.343E-02    0.85       1.0  T
   4   -287.0412747 -0.245402E-03  0.617E-03    0.85       1.3  T
   5   -287.0412825 -0.776831E-05  0.252E-03    0.85       3.1  T
   6   -287.0412838 -0.124864E-05  0.123E-03    0.85       6.3  T
   7   -287.0412839 -0.195398E-06  0.600E-04    0.85      13.0  T
   8   -287.0412840 -0.528588E-07  0.324E-04    0.85      24.1  T
     SCC iter.                  ...        0 min,  0.452 sec
     gradient                   ...        0 min,  0.239 sec
 * total energy  :  -281.5042967 Eh     change       -0.1498708E-02 Eh
   gradient norm :     0.0152370 Eh/α   predicted    -0.1670571E-02 (  11.47%)
   displ. norm   :     0.7995788 α      lambda       -0.1969988E-02
   maximum displ.:     0.3130953 α      in ANC's #27, #24, #26, ...

........................................................................
.............................. CYCLE   42 ..............................
........................................................................
   1   -287.0227707 -0.287023E+03  0.118E-01    0.85       0.0  T
   2   -287.0227744 -0.368847E-05  0.698E-02    0.85       1.0  T
   3   -287.0226156  0.158839E-03  0.285E-02    0.85       1.0  T
   4   -287.0227787 -0.163121E-03  0.536E-03    0.85       1.5  T
   5   -287.0227841 -0.536292E-05  0.203E-03    0.85       3.8  T
   6   -287.0227845 -0.393821E-06  0.116E-03    0.85       6.7  T
   7   -287.0227846 -0.150838E-06  0.536E-04    0.85      14.6  T
   8   -287.0227847 -0.481978E-07  0.189E-04    0.85      41.4  T
     SCC iter.                  ...        0 min,  0.452 sec
     gradient                   ...        0 min,  0.239 sec
 * total energy  :  -281.5055520 Eh     change       -0.1255323E-02 Eh
   gradient norm :     0.0167185 Eh/α   predicted    -0.1614727E-02 (  28.63%)
   displ. norm   :     0.6671987 α      lambda       -0.1685355E-02
   maximum displ.:     0.2406789 α      in ANC's #27, #11, #4, ...
 * RMSD in coord.:     1.3440247 α      energy gain  -0.1045128E+00 Eh

generating ANC from model Hessian ...
Using Lindh-Hessian (1995)
 Shifting diagonal of input Hessian by    1.0008962398757633E-002
 Lowest  eigenvalues of input Hessian
    0.010000    0.010009    0.000000    0.000000    0.000000    0.000000
    0.000000    0.000000    0.010011    0.010013    0.010014    0.010019
    0.010019    0.010021    0.010023    0.010032    0.010054    0.010068
 Highest eigenvalues
    2.675513    2.678979    2.688375    2.977918    2.988277    3.021025


........................................................................
.............................. CYCLE   43 ..............................
........................................................................
   1   -287.0352083 -0.287035E+03  0.920E-02    0.85       0.0  T
   2   -287.0352101 -0.178912E-05  0.547E-02    0.85       1.0  T
   3   -287.0349416  0.268481E-03  0.335E-02    0.85       1.0  T
   4   -287.0352093 -0.267636E-03  0.758E-03    0.85       1.0  T
   5   -287.0352239 -0.146055E-04  0.201E-03    0.85       3.9  T
   6   -287.0352246 -0.696443E-06  0.107E-03    0.85       7.3  T
   7   -287.0352247 -0.132066E-06  0.599E-04    0.85      13.0  T
   8   -287.0352247 -0.473677E-07  0.264E-04    0.85      29.5  T
     SCC iter.                  ...        0 min,  0.453 sec
     gradient                   ...        0 min,  0.239 sec
 * total energy  :  -281.5066555 Eh     change       -0.1103509E-02 Eh
   gradient norm :     0.0176417 Eh/α   predicted     0.0000000E+00 (-100.00%)
   displ. norm   :     0.2039484 α      lambda       -0.8786466E-03
   maximum displ.:     0.0798114 α      in ANC's #25, #12, #23, ...

........................................................................
.............................. CYCLE   44 ..............................
........................................................................
   1   -287.0362691 -0.287036E+03  0.656E-02    0.85       0.0  T
   2   -287.0362666  0.248436E-05  0.398E-02    0.85       1.0  T
   3   -287.0360705  0.196165E-03  0.292E-02    0.85       1.0  T
   4   -287.0362736 -0.203130E-03  0.499E-03    0.85       1.6  T
   5   -287.0362791 -0.555405E-05  0.185E-03    0.85       4.2  T
   6   -287.0362797 -0.608717E-06  0.913E-04    0.85       8.6  T
   7   -287.0362798 -0.889539E-07  0.597E-04    0.85      13.1  T
     SCC iter.                  ...        0 min,  0.396 sec
     gradient                   ...        0 min,  0.239 sec
 * total energy  :  -281.5070180 Eh     change       -0.3625162E-03 Eh
   gradient norm :     0.0088340 Eh/α   predicted    -0.4576221E-03 (  26.23%)
   displ. norm   :     0.4087581 α      lambda       -0.1622606E-02
   maximum displ.:     0.1606802 α      in ANC's #23, #12, #14, ...

........................................................................
.............................. CYCLE   45 ..............................
........................................................................
   1   -287.0420154 -0.287042E+03  0.956E-02    0.85       0.0  T
   2   -287.0420177 -0.225993E-05  0.576E-02    0.85       1.0  T
   3   -287.0416299  0.387729E-03  0.394E-02    0.85       1.0  T
   4   -287.0420132 -0.383222E-03  0.102E-02    0.85       1.0  T
   5   -287.0420423 -0.291191E-04  0.331E-03    0.85       2.4  T
   6   -287.0420445 -0.222485E-05  0.147E-03    0.85       5.3  T
   7   -287.0420446 -0.128141E-06  0.998E-04    0.85       7.8  T
   8   -287.0420448 -0.148218E-06  0.366E-04    0.85      21.4  T
     SCC iter.                  ...        0 min,  0.451 sec
     gradient                   ...        0 min,  0.239 sec
 * total energy  :  -281.5074931 Eh     change       -0.4750952E-03 Eh
   gradient norm :     0.0237819 Eh/α   predicted    -0.9468609E-03 (  99.30%)
   displ. norm   :     0.1967207 α      lambda       -0.8994972E-03
   maximum displ.:     0.0842018 α      in ANC's #12, #23, #14, ...

........................................................................
.............................. CYCLE   46 ..............................
........................................................................
   1   -287.0422691 -0.287042E+03  0.597E-02    0.85       0.0  T
   2   -287.0422682  0.910258E-06  0.359E-02    0.85       1.0  T
   3   -287.0421818  0.863654E-04  0.201E-02    0.85       1.0  T
   4   -287.0422713 -0.894460E-04  0.216E-03    0.85       3.6  T
   5   -287.0422720 -0.787553E-06  0.117E-03    0.85       6.7  T
   6   -287.0422723 -0.205160E-06  0.614E-04    0.85      12.7  T
   7   -287.0422723 -0.177786E-07  0.322E-04    0.85      24.3  T
     SCC iter.                  ...        0 min,  0.396 sec
     gradient                   ...        0 min,  0.239 sec
 * total energy  :  -281.5080811 Eh     change       -0.5879581E-03 Eh
   gradient norm :     0.0129541 Eh/α   predicted    -0.4671542E-03 ( -20.55%)
   displ. norm   :     0.4014070 α      lambda       -0.1210981E-02
   maximum displ.:     0.1628152 α      in ANC's #23, #12, #14, ...

........................................................................
.............................. CYCLE   47 ..............................
........................................................................
   1   -287.0363404 -0.287036E+03  0.860E-02    0.85       0.0  T
   2   -287.0363391  0.129876E-05  0.517E-02    0.85       1.0  T
   3   -287.0361319  0.207171E-03  0.303E-02    0.85       1.0  T
   4   -287.0363457 -0.213853E-03  0.395E-03    0.85       2.0  T
   5   -287.0363486 -0.284901E-05  0.187E-03    0.85       4.2  T
   6   -287.0363493 -0.677674E-06  0.903E-04    0.85       8.6  T
   7   -287.0363493 -0.675137E-07  0.452E-04    0.85      17.3  T
     SCC iter.                  ...        0 min,  0.396 sec
     gradient                   ...        0 min,  0.239 sec
 * total energy  :  -281.5084391 Eh     change       -0.3579774E-03 Eh
   gradient norm :     0.0167723 Eh/α   predicted    -0.7030541E-03 (  96.40%)
   displ. norm   :     0.4037403 α      lambda       -0.1167226E-02
   maximum displ.:     0.1717191 α      in ANC's #12, #23, #14, ...

........................................................................
.............................. CYCLE   48 ..............................
........................................................................
   1   -287.0354529 -0.287035E+03  0.851E-02    0.85       0.0  T
   2   -287.0354538 -0.919431E-06  0.506E-02    0.85       1.0  T
   3   -287.0353825  0.713095E-04  0.158E-02    0.85       1.0  T
   4   -287.0354553 -0.727484E-04  0.347E-03    0.85       2.3  T
   5   -287.0354579 -0.260957E-05  0.138E-03    0.85       5.7  T
   6   -287.0354580 -0.122935E-06  0.818E-04    0.85       9.5  T
   7   -287.0354581 -0.711816E-07  0.527E-04    0.85      14.8  T
     SCC iter.                  ...        0 min,  0.396 sec
     gradient                   ...        0 min,  0.239 sec
 * total energy  :  -281.5090945 Eh     change       -0.6554039E-03 Eh
   gradient norm :     0.0146640 Eh/α   predicted    -0.6787459E-03 (   3.56%)
   displ. norm   :     0.4723779 α      lambda       -0.1090213E-02
   maximum displ.:     0.2038299 α      in ANC's #12, #23, #14, ...

........................................................................
.............................. CYCLE   49 ..............................
........................................................................
   1   -287.0363820 -0.287036E+03  0.894E-02    0.85       0.0  T
   2   -287.0363835 -0.151348E-05  0.532E-02    0.85       1.0  T
   3   -287.0362550  0.128444E-03  0.222E-02    0.84       1.0  T
   4   -287.0363864 -0.131389E-03  0.442E-03    0.85       1.8  T
   5   -287.0363914 -0.501547E-05  0.190E-03    0.85       4.1  T
   6   -287.0363920 -0.588472E-06  0.993E-04    0.85       7.9  T
   7   -287.0363921 -0.739898E-07  0.615E-04    0.85      12.7  T
     SCC iter.                  ...        0 min,  0.395 sec
     gradient                   ...        0 min,  0.239 sec
 * total energy  :  -281.5096389 Eh     change       -0.5444267E-03 Eh
   gradient norm :     0.0083391 Eh/α   predicted    -0.6667420E-03 (  22.47%)
   displ. norm   :     0.5049829 α      lambda       -0.9595848E-03
   maximum displ.:     0.2311176 α      in ANC's #12, #23, #14, ...

........................................................................
.............................. CYCLE   50 ..............................
........................................................................
   1   -287.0375943 -0.287038E+03  0.832E-02    0.85       0.0  T
   2   -287.0375944 -0.179256E-06  0.495E-02    0.85       1.0  T
   3   -287.0374965  0.979837E-04  0.198E-02    0.85       1.0  T
   4   -287.0375978 -0.101301E-03  0.312E-03    0.85       2.5  T
   5   -287.0375993 -0.154012E-05  0.166E-03    0.85       4.7  T
   6   -287.0375995 -0.169326E-06  0.969E-04    0.85       8.1  T
   7   -287.0375996 -0.151629E-06  0.469E-04    0.85      16.6  T
     SCC iter.                  ...        0 min,  0.396 sec
     gradient                   ...        0 min,  0.239 sec
 * total energy  :  -281.5100944 Eh     change       -0.4554756E-03 Eh
   gradient norm :     0.0144980 Eh/α   predicted    -0.6021423E-03 (  32.20%)
   displ. norm   :     0.5146141 α      lambda       -0.1152904E-02
   maximum displ.:     0.2295755 α      in ANC's #12, #23, #14, ...

........................................................................
.............................. CYCLE   51 ..............................
........................................................................
   1   -287.0373993 -0.287037E+03  0.895E-02    0.85       0.0  T
   2   -287.0374012 -0.187107E-05  0.531E-02    0.85       1.0  T
   3   -287.0373545  0.467192E-04  0.147E-02    0.85       1.0  T
   4   -287.0374027 -0.482291E-04  0.298E-03    0.85       2.6  T
   5   -287.0374040 -0.129268E-05  0.164E-03    0.85       4.8  T
   6   -287.0374043 -0.304534E-06  0.942E-04    0.85       8.3  T
   7   -287.0374044 -0.110612E-06  0.402E-04    0.85      19.4  T
     SCC iter.                  ...        0 min,  0.395 sec
     gradient                   ...        0 min,  0.239 sec
 * total energy  :  -281.5108296 Eh     change       -0.7352466E-03 Eh
   gradient norm :     0.0066185 Eh/α   predicted    -0.7291155E-03 (  -0.83%)
   displ. norm   :     0.6290624 α      lambda       -0.7959800E-03
   maximum displ.:     0.2954132 α      in ANC's #12, #23, #14, ...

........................................................................
.............................. CYCLE   52 ..............................
........................................................................
   1   -287.0370014 -0.287037E+03  0.866E-02    0.85       0.0  T
   2   -287.0370037 -0.233494E-05  0.510E-02    0.85       1.0  T
   3   -287.0369826  0.210980E-04  0.960E-03    0.85       1.0  T
   4   -287.0370045 -0.218290E-04  0.262E-03    0.85       3.0  T
   5   -287.0370055 -0.108808E-05  0.130E-03    0.85       6.0  T
   6   -287.0370057 -0.119532E-06  0.776E-04    0.85      10.1  T
   7   -287.0370058 -0.955740E-07  0.276E-04    0.85      28.3  T
     SCC iter.                  ...        0 min,  0.395 sec
     gradient                   ...        0 min,  0.240 sec
 * total energy  :  -281.5114188 Eh     change       -0.5892235E-03 Eh
   gradient norm :     0.0100649 Eh/α   predicted    -0.5554869E-03 (  -5.73%)
   displ. norm   :     0.6999258 α      lambda       -0.8016438E-03
   maximum displ.:     0.3427902 α      in ANC's #12, #23, #14, ...

........................................................................
.............................. CYCLE   53 ..............................
........................................................................
   1   -287.0389158 -0.287039E+03  0.797E-02    0.85       0.0  T
   2   -287.0389174 -0.157625E-05  0.468E-02    0.85       1.0  T
[...]
 169: 10.56 170:  2.20 171:  1.36 172:  6.89 173: 13.70 174:  9.72 175:  3.40 176: 10.34
 177: 11.64 178: 12.17 179:  4.42 180:  3.33 181:  2.33 182:  7.18 183: 48.70 184:  4.16
 185:  3.40 186:  0.19 187:  0.75 188:419.81 189:  8.38 190:  3.93 191:  2.53 192: 14.99
 193: 16.37 194:101.53 195: 59.87 196: 58.53 197:632.74 198:287.56 199:180.09 200: 30.83
 201:101.36 202: 26.21 203:  8.71 204: 51.40 205:  3.13 206: 17.40 207:139.85 208: 78.57
 209: 98.77 210: 55.89 211:  9.95 212: 18.94 213: 75.61 214:  6.37 215:313.45 216: 93.41
 217: 64.10 218:  6.99 219: 25.52 220:  0.34 221: 13.03 222: 20.91 223: 83.56 224:100.48
 225:103.54 226:  1.96 227:  6.35 228: 14.75 229: 50.01 230: 14.09 231:288.97 232: 11.34
 233: 32.75 234: 20.20 235: 11.83 236: 13.26 237: 47.07 238: 40.83 239:252.03 240:  7.01
 241: 50.55 242: 31.81 243:  2.60 244: 91.05 245:160.44 246:101.51 247: 88.45 248:114.48
 249: 26.63 250: 47.78 251: 13.91 252:104.33 253:  0.97 254: 45.69 255: 95.80 256: 35.34
 257: 17.41 258: 26.33 259: 16.28 260: 65.21 261: 17.62 262: 47.05 263:  6.89 264:  4.46
 265:  5.53 266: 16.66 267: 17.71 268: 83.20 269:  2.18 270: 13.83 271:  3.97 272:117.29
 273:115.33 274:****** 275:****** 276: 97.05 277:769.41 278: 27.94 279:785.13 280: 19.30
 281:474.93 282: 16.87 283:382.34 284:  2.41 285:  6.12 286:434.95 287: 11.30 288: 10.15
 289: 11.84 290: 10.36 291:  2.04 292:  2.75 293: 16.67 294:111.24 295:126.33 296:146.86
 297:553.98 298: 20.70 299: 58.45 300:108.26 301: 18.52 302: 16.04 303: 15.85 304:  1.30
 305:137.89 306: 58.73 307: 94.45 308: 15.66 309: 81.46 310: 54.88 311: 21.86 312: 74.00
 313: 55.61 314: 27.83 315: 34.59 316: 84.18 317: 87.95 318: 84.88 319:404.03 320: 39.44
 321:102.76 322: 27.12 323:162.69 324:166.40 325: 46.74 326:266.88 327: 27.55 328:858.24
 329: 19.09 330: 63.41 331:156.42 332:140.19 333: 37.76 334:  7.22 335: 37.58 336: 45.59
 337: 22.44 338:446.52 339:273.66 340: 93.53 341:364.56 342: 54.28 343: 10.81 344:404.75
 345: 36.75 346: 25.39 347:100.54 348: 11.80 349:  2.73 350: 83.24 351:  7.23 352:  3.71
 353: 15.34 354:  2.34 355:  0.14 356:  7.57 357:  9.23 358:  6.79 359: 62.90 360:106.90
 361:317.24 362: 45.02 363: 49.17 364:102.04 365: 65.43 366:  2.40 367: 64.36 368:186.90
 369:104.03 370:181.78 371:116.52 372: 43.50 373: 17.99 374:142.65 375:114.51 376:154.32
 377: 15.05 378:  8.91 379:  0.27 380:108.74 381: 20.43 382:122.75 383: 39.71 384: 25.26
 385: 25.34 386:  5.65 387: 89.66 388:  0.44 389:289.62 390:  5.39 391: 40.21 392: 76.34
 393: 68.04 394: 13.94 395: 12.94 396: 84.13 397: 15.88 398: 25.74 399:  0.56 400: 55.66
 401: 11.21 402: 31.27 403:  8.55 404: 41.39 405: 32.72 406: 10.06 407: 40.67 408: 26.89
 409: 13.53 410:122.71 411:  4.23 412: 22.73 413: 20.42 414:  8.15 415:  4.61 416:201.07
 417:189.19 418:156.16 419: 12.61 420: 82.10 421: 22.55 422: 12.44 423: 30.01 424:  4.46
 425: 20.17 426:  7.38 427:237.48 428:310.49 429: 52.31 430:  5.81 431:  1.29 432: 55.95
 433: 39.29 434:515.89 435:204.15 436: 46.46 437: 15.78 438:  0.39 439:  3.32 440:  1.25
 441:  0.90 442:  3.25 443:****** 444:  3.06 445:****** 446:****** 447: 55.62 448:  2.36
 449: 16.60 450:  5.09 451: 32.68 452:  3.02 453: 11.61 454: 15.53 455: 16.50 456: 12.51
 457: 34.49 458: 17.07 459:  3.73 460: 39.20 461: 86.16 462:205.04 463:297.58 464: 19.06
 465: 10.86 466:356.27 467:270.23 468:  1.34 469: 23.06 470: 34.55 471: 15.06 472:  9.29
 473: 49.78 474: 29.22 475: 13.92 476: 32.89 477:106.97 478:107.36 479: 72.71 480: 10.94
 481: 22.28 482: 27.04 483: 28.95 484: 43.27 485:****** 486:****** 487:  8.52 488:******
 489: 18.61 490:802.96 491:  4.83 492:******
 Raman intensities (amu)
   1:  0.00   2:  0.00   3:  0.00   4:  0.00   5:  0.00   6:  0.00   7:  0.00   8:  0.00
   9:  0.00  10:  0.00  11:  0.00  12:  0.00  13:  0.00  14:  0.00  15:  0.00  16:  0.00
  17:  0.00  18:  0.00  19:  0.00  20:  0.00  21:  0.00  22:  0.00  23:  0.00  24:  0.00
  25:  0.00  26:  0.00  27:  0.00  28:  0.00  29:  0.00  30:  0.00  31:  0.00  32:  0.00
  33:  0.00  34:  0.00  35:  0.00  36:  0.00  37:  0.00  38:  0.00  39:  0.00  40:  0.00
  41:  0.00  42:  0.00  43:  0.00  44:  0.00  45:  0.00  46:  0.00  47:  0.00  48:  0.00
  49:  0.00  50:  0.00  51:  0.00  52:  0.00  53:  0.00  54:  0.00  55:  0.00  56:  0.00
  57:  0.00  58:  0.00  59:  0.00  60:  0.00  61:  0.00  62:  0.00  63:  0.00  64:  0.00
  65:  0.00  66:  0.00  67:  0.00  68:  0.00  69:  0.00  70:  0.00  71:  0.00  72:  0.00
  73:  0.00  74:  0.00  75:  0.00  76:  0.00  77:  0.00  78:  0.00  79:  0.00  80:  0.00
  81:  0.00  82:  0.00  83:  0.00  84:  0.00  85:  0.00  86:  0.00  87:  0.00  88:  0.00
  89:  0.00  90:  0.00  91:  0.00  92:  0.00  93:  0.00  94:  0.00  95:  0.00  96:  0.00
  97:  0.00  98:  0.00  99:  0.00 100:  0.00 101:  0.00 102:  0.00 103:  0.00 104:  0.00
 105:  0.00 106:  0.00 107:  0.00 108:  0.00 109:  0.00 110:  0.00 111:  0.00 112:  0.00
 113:  0.00 114:  0.00 115:  0.00 116:  0.00 117:  0.00 118:  0.00 119:  0.00 120:  0.00
 121:  0.00 122:  0.00 123:  0.00 124:  0.00 125:  0.00 126:  0.00 127:  0.00 128:  0.00
 129:  0.00 130:  0.00 131:  0.00 132:  0.00 133:  0.00 134:  0.00 135:  0.00 136:  0.00
 137:  0.00 138:  0.00 139:  0.00 140:  0.00 141:  0.00 142:  0.00 143:  0.00 144:  0.00
 145:  0.00 146:  0.00 147:  0.00 148:  0.00 149:  0.00 150:  0.00 151:  0.00 152:  0.00
 153:  0.00 154:  0.00 155:  0.00 156:  0.00 157:  0.00 158:  0.00 159:  0.00 160:  0.00
 161:  0.00 162:  0.00 163:  0.00 164:  0.00 165:  0.00 166:  0.00 167:  0.00 168:  0.00
 169:  0.00 170:  0.00 171:  0.00 172:  0.00 173:  0.00 174:  0.00 175:  0.00 176:  0.00
 177:  0.00 178:  0.00 179:  0.00 180:  0.00 181:  0.00 182:  0.00 183:  0.00 184:  0.00
 185:  0.00 186:  0.00 187:  0.00 188:  0.00 189:  0.00 190:  0.00 191:  0.00 192:  0.00
 193:  0.00 194:  0.00 195:  0.00 196:  0.00 197:  0.00 198:  0.00 199:  0.00 200:  0.00
 201:  0.00 202:  0.00 203:  0.00 204:  0.00 205:  0.00 206:  0.00 207:  0.00 208:  0.00
 209:  0.00 210:  0.00 211:  0.00 212:  0.00 213:  0.00 214:  0.00 215:  0.00 216:  0.00
 217:  0.00 218:  0.00 219:  0.00 220:  0.00 221:  0.00 222:  0.00 223:  0.00 224:  0.00
 225:  0.00 226:  0.00 227:  0.00 228:  0.00 229:  0.00 230:  0.00 231:  0.00 232:  0.00
 233:  0.00 234:  0.00 235:  0.00 236:  0.00 237:  0.00 238:  0.00 239:  0.00 240:  0.00
 241:  0.00 242:  0.00 243:  0.00 244:  0.00 245:  0.00 246:  0.00 247:  0.00 248:  0.00
 249:  0.00 250:  0.00 251:  0.00 252:  0.00 253:  0.00 254:  0.00 255:  0.00 256:  0.00
 257:  0.00 258:  0.00 259:  0.00 260:  0.00 261:  0.00 262:  0.00 263:  0.00 264:  0.00
 265:  0.00 266:  0.00 267:  0.00 268:  0.00 269:  0.00 270:  0.00 271:  0.00 272:  0.00
 273:  0.00 274:  0.00 275:  0.00 276:  0.00 277:  0.00 278:  0.00 279:  0.00 280:  0.00
 281:  0.00 282:  0.00 283:  0.00 284:  0.00 285:  0.00 286:  0.00 287:  0.00 288:  0.00
 289:  0.00 290:  0.00 291:  0.00 292:  0.00 293:  0.00 294:  0.00 295:  0.00 296:  0.00
 297:  0.00 298:  0.00 299:  0.00 300:  0.00 301:  0.00 302:  0.00 303:  0.00 304:  0.00
 305:  0.00 306:  0.00 307:  0.00 308:  0.00 309:  0.00 310:  0.00 311:  0.00 312:  0.00
 313:  0.00 314:  0.00 315:  0.00 316:  0.00 317:  0.00 318:  0.00 319:  0.00 320:  0.00
 321:  0.00 322:  0.00 323:  0.00 324:  0.00 325:  0.00 326:  0.00 327:  0.00 328:  0.00
 329:  0.00 330:  0.00 331:  0.00 332:  0.00 333:  0.00 334:  0.00 335:  0.00 336:  0.00
Refinement of some symmetry elements was terminated before convergence was reached.
Some symmetry elements may remain unidentified.
Molecule has no symmetry elements
It seems to be the C1 point group
 337:  0.00 338:  0.00 339:  0.00 340:  0.00 341:  0.00 342:  0.00 343:  0.00 344:  0.00
 345:  0.00 346:  0.00 347:  0.00 348:  0.00 349:  0.00 350:  0.00 351:  0.00 352:  0.00
 353:  0.00 354:  0.00 355:  0.00 356:  0.00 357:  0.00 358:  0.00 359:  0.00 360:  0.00
 361:  0.00 362:  0.00 363:  0.00 364:  0.00 365:  0.00 366:  0.00 367:  0.00 368:  0.00
 369:  0.00 370:  0.00 371:  0.00 372:  0.00 373:  0.00 374:  0.00 375:  0.00 376:  0.00
 377:  0.00 378:  0.00 379:  0.00 380:  0.00 381:  0.00 382:  0.00 383:  0.00 384:  0.00
 385:  0.00 386:  0.00 387:  0.00 388:  0.00 389:  0.00 390:  0.00 391:  0.00 392:  0.00
 393:  0.00 394:  0.00 395:  0.00 396:  0.00 397:  0.00 398:  0.00 399:  0.00 400:  0.00
 401:  0.00 402:  0.00 403:  0.00 404:  0.00 405:  0.00 406:  0.00 407:  0.00 408:  0.00
 409:  0.00 410:  0.00 411:  0.00 412:  0.00 413:  0.00 414:  0.00 415:  0.00 416:  0.00
 417:  0.00 418:  0.00 419:  0.00 420:  0.00 421:  0.00 422:  0.00 423:  0.00 424:  0.00
 425:  0.00 426:  0.00 427:  0.00 428:  0.00 429:  0.00 430:  0.00 431:  0.00 432:  0.00
 433:  0.00 434:  0.00 435:  0.00 436:  0.00 437:  0.00 438:  0.00 439:  0.00 440:  0.00
 441:  0.00 442:  0.00 443:  0.00 444:  0.00 445:  0.00 446:  0.00 447:  0.00 448:  0.00
 449:  0.00 450:  0.00 451:  0.00 452:  0.00 453:  0.00 454:  0.00 455:  0.00 456:  0.00
 457:  0.00 458:  0.00 459:  0.00 460:  0.00 461:  0.00 462:  0.00 463:  0.00 464:  0.00
 465:  0.00 466:  0.00 467:  0.00 468:  0.00 469:  0.00 470:  0.00 471:  0.00 472:  0.00
 473:  0.00 474:  0.00 475:  0.00 476:  0.00 477:  0.00 478:  0.00 479:  0.00 480:  0.00
 481:  0.00 482:  0.00 483:  0.00 484:  0.00 485:  0.00 486:  0.00 487:  0.00 488:  0.00
 489:  0.00 490:  0.00 491:  0.00 492:  0.00
 output can be read by thermo (or use thermo option).
 writing <g98.out> molden fake output.
 recommended (thermochemical) frequency scaling factor: 1.0
           -------------------------------------------------
          |             Thermodynamic Functions             |
           -------------------------------------------------

c1  symmetry found (for desy threshold:  0.10E+00) used in thermo
 inverting freq            1   2.1065223782463613     
 inverting freq            2   1.5866289830504947     

          ...................................................
          :                      SETUP                      :
          :.................................................:
          :  # frequencies                         486      :
          :  # imaginary freq.                       0      :
          :  linear?                             false      :
          :  only rotor calc.                    false      :
          :  symmetry                               c1      :
          :  rotational number                       1      :
          :  scaling factor                  1.0000000      :
          :  rotor cutoff                   50.0000000 cm⁻¹ :
          :  imag. cutoff                  -20.0000000 cm⁻¹ :
          :.................................................:

    mode    ω/cm⁻¹     T·S(HO)/kcal·mol⁻¹    T·S(FR)/kcal·mol⁻¹   T·S(vib)
   ------------------------------------------------------------------------
       1      2.11    -3.31126 (  0.00%)    -1.99474 (100.00%)    -1.99474
       2      1.59    -3.47918 (  0.00%)    -2.07870 (100.00%)    -2.07870
       3      2.56    -3.19572 (  0.00%)    -1.93697 (100.00%)    -1.93698
       4      4.00    -2.93188 (  0.00%)    -1.80505 (100.00%)    -1.80510
       5      5.09    -2.78903 (  0.01%)    -1.73362 ( 99.99%)    -1.73374
       6      5.87    -2.70387 (  0.02%)    -1.69104 ( 99.98%)    -1.69123
       7      7.03    -2.59712 (  0.04%)    -1.63766 ( 99.96%)    -1.63804
       8      7.53    -2.55652 (  0.05%)    -1.61736 ( 99.95%)    -1.61784
       9      7.95    -2.52422 (  0.06%)    -1.60121 ( 99.94%)    -1.60180
      10     11.48    -2.30659 (  0.28%)    -1.49238 ( 99.72%)    -1.49463
      11     15.07    -2.14547 (  0.82%)    -1.41179 ( 99.18%)    -1.41779
      12     16.48    -2.09248 (  1.17%)    -1.38528 ( 98.83%)    -1.39353
      13     21.06    -1.94733 (  3.05%)    -1.31265 ( 96.95%)    -1.33203
      14     22.29    -1.91392 (  3.80%)    -1.29593 ( 96.20%)    -1.31940
      15     26.54    -1.81051 (  7.36%)    -1.24417 ( 92.64%)    -1.28583
      16     27.30    -1.79391 (  8.16%)    -1.23586 ( 91.84%)    -1.28138
      17     36.80    -1.61727 ( 22.68%)    -1.14736 ( 77.32%)    -1.25396
      18     40.59    -1.55932 ( 30.28%)    -1.11830 ( 69.72%)    -1.25186
      19     42.09    -1.53793 ( 33.43%)    -1.10757 ( 66.57%)    -1.25143
      20     42.60    -1.53077 ( 34.51%)    -1.10398 ( 65.49%)    -1.25129
      21     42.76    -1.52864 ( 34.84%)    -1.10291 ( 65.16%)    -1.25124
      22     47.31    -1.46889 ( 44.50%)    -1.07292 ( 55.50%)    -1.24911
      23     50.12    -1.43484 ( 50.25%)    -1.05582 ( 49.75%)    -1.24627
      24     55.34    -1.37654 ( 60.00%)    -1.02651 ( 40.00%)    -1.23654
      25     58.77    -1.34114 ( 65.61%)    -1.00869 ( 34.39%)    -1.22683
      26     61.82    -1.31136 ( 70.03%)    -0.99370 ( 29.97%)    -1.21615
      27     68.33    -1.25248 ( 77.72%)    -0.96402 ( 22.28%)    -1.18821
      28     73.99    -1.20584 ( 82.74%)    -0.94047 ( 17.26%)    -1.16004
      29     78.07    -1.17434 ( 85.60%)    -0.92454 ( 14.40%)    -1.13837
      30     80.50    -1.15641 ( 87.05%)    -0.91547 ( 12.95%)    -1.12520
      31     86.07    -1.11729 ( 89.78%)    -0.89564 ( 10.22%)    -1.09463
      32     87.17    -1.10987 ( 90.23%)    -0.89187 (  9.77%)    -1.08858
      33     90.42    -1.08851 ( 91.45%)    -0.88104 (  8.55%)    -1.07078
      34     93.34    -1.06998 ( 92.39%)    -0.87161 (  7.61%)    -1.05489
      35     96.90    -1.04824 ( 93.38%)    -0.86055 (  6.62%)    -1.03581
      36     97.66    -1.04369 ( 93.57%)    -0.85824 (  6.43%)    -1.03177
      37    100.78    -1.02538 ( 94.29%)    -0.84890 (  5.71%)    -1.01530
      38    106.16    -0.99523 ( 95.31%)    -0.83352 (  4.69%)    -0.98765
      39    112.75    -0.96034 ( 96.28%)    -0.81566 (  3.72%)    -0.95495
      40    115.66    -0.94564 ( 96.62%)    -0.80812 (  3.38%)    -0.94100
      41    115.94    -0.94424 ( 96.66%)    -0.80740 (  3.34%)    -0.93966
      42    117.14    -0.93828 ( 96.79%)    -0.80434 (  3.21%)    -0.93397
      43    117.55    -0.93625 ( 96.83%)    -0.80330 (  3.17%)    -0.93204
      44    120.01    -0.92430 ( 97.08%)    -0.79716 (  2.92%)    -0.92059
      45    137.59    -0.84587 ( 98.29%)    -0.75667 (  1.71%)    -0.84434
      46    141.77    -0.82882 ( 98.48%)    -0.74782 (  1.52%)    -0.82759
      47    141.87    -0.82839 ( 98.48%)    -0.74759 (  1.52%)    -0.82717
      48    142.63    -0.82536 ( 98.51%)    -0.74602 (  1.49%)    -0.82418
      49    143.24    -0.82295 ( 98.54%)    -0.74476 (  1.46%)    -0.82180
      50    143.73    -0.82098 ( 98.56%)    -0.74374 (  1.44%)    -0.81987
      51    153.43    -0.78391 ( 98.88%)    -0.72440 (  1.12%)    -0.78325
      52    155.61    -0.77593 ( 98.95%)    -0.72022 (  1.05%)    -0.77534
      53    163.12    -0.74935 ( 99.12%)    -0.70626 (  0.88%)    -0.74898
      54    165.99    -0.73954 ( 99.18%)    -0.70109 (  0.82%)    -0.73923
      55    172.29    -0.71864 ( 99.30%)    -0.69005 (  0.70%)    -0.71844
      56    180.39    -0.69301 ( 99.41%)    -0.67644 (  0.59%)    -0.69291
      57    182.07    -0.68785 ( 99.43%)    -0.67370 (  0.57%)    -0.68777
      58    182.46    -0.68667 ( 99.44%)    -0.67307 (  0.56%)    -0.68660
      59    183.51    -0.68348 ( 99.45%)    -0.67136 (  0.55%)    -0.68341
      60    184.96    -0.67911 ( 99.47%)    -0.66903 (  0.53%)    -0.67906
      61    186.02    -0.67593 ( 99.48%)    -0.66733 (  0.52%)    -0.67589
      62    198.64    -0.63972 ( 99.60%)    -0.64789 (  0.40%)    -0.63976
      63    200.50    -0.63461 ( 99.61%)    -0.64513 (  0.39%)    -0.63465
      64    201.91    -0.63076 ( 99.63%)    -0.64305 (  0.37%)    -0.63081
      65    203.18    -0.62734 ( 99.63%)    -0.64120 (  0.37%)    -0.62739
      66    203.47    -0.62657 ( 99.64%)    -0.64078 (  0.36%)    -0.62662
      67    204.90    -0.62272 ( 99.65%)    -0.63870 (  0.35%)    -0.62277
      68    214.65    -0.59742 ( 99.71%)    -0.62493 (  0.29%)    -0.59750
      69    225.51    -0.57078 ( 99.76%)    -0.61031 (  0.24%)    -0.57088
      70    229.87    -0.56052 ( 99.78%)    -0.60464 (  0.22%)    -0.56062
      71    245.96    -0.52455 ( 99.83%)    -0.58459 (  0.17%)    -0.52465
      72    258.15    -0.49917 ( 99.86%)    -0.57026 (  0.14%)    -0.49927
      73    260.87    -0.49371 ( 99.87%)    -0.56715 (  0.13%)    -0.49381
      74    265.00    -0.48556 ( 99.87%)    -0.56250 (  0.13%)    -0.48566
      75    265.22    -0.48514 ( 99.87%)    -0.56226 (  0.13%)    -0.48524
      76    265.49    -0.48462 ( 99.87%)    -0.56196 (  0.13%)    -0.48471
      77    267.32    -0.48106 ( 99.88%)    -0.55992 (  0.12%)    -0.48115
      78    268.08    -0.47959 ( 99.88%)    -0.55908 (  0.12%)    -0.47968
      79    271.68    -0.47271 ( 99.89%)    -0.55513 (  0.11%)    -0.47280
      80    275.46    -0.46562 ( 99.89%)    -0.55104 (  0.11%)    -0.46572
      81    279.62    -0.45796 ( 99.90%)    -0.54660 (  0.10%)    -0.45805
      82    284.55    -0.44906 ( 99.90%)    -0.54142 (  0.10%)    -0.44915
      83    287.33    -0.44414 ( 99.91%)    -0.53854 (  0.09%)    -0.44423
      84    290.72    -0.43821 ( 99.91%)    -0.53506 (  0.09%)    -0.43830
      85    293.98    -0.43260 ( 99.92%)    -0.53176 (  0.08%)    -0.43268
      86    298.21    -0.42544 ( 99.92%)    -0.52753 (  0.08%)    -0.42552
   ------------------------------------------------------------------------

   temp. (K)  partition function   enthalpy   heat capacity  entropy
                                   cal/mol     cal/K/mol   cal/K/mol   J/K/mol
 298.15  VIB  0.802E+52            57924.149    369.062    374.509
         ROT  0.318E+10              888.752      2.981     46.463
         INT  0.255E+62            58812.901    372.043    420.972
         TR   0.535E+29             1481.254      4.968     47.671
         TOT                       60294.1549   377.0113   468.6430  1960.8022

       T/K    H(0)-H(T)+PV         H(T)/Eh          T*S/Eh         G(T)/Eh
   ------------------------------------------------------------------------
    298.15    0.960849E-01    0.126002E+01    0.222667E+00    0.103735E+01
   ------------------------------------------------------------------------

         :::::::::::::::::::::::::::::::::::::::::::::::::::::
         ::                  THERMODYNAMIC                  ::
         :::::::::::::::::::::::::::::::::::::::::::::::::::::
         :: total free energy        -280.515139102452 Eh   ::
         ::.................................................::
         :: total energy             -281.552490391213 Eh   ::
         :: zero point energy           1.163933837434 Eh   ::
         :: G(RRHO) w/o ZPVE           -0.126582548674 Eh   ::
         :: G(RRHO) contrib.            1.037351288761 Eh   ::
         :::::::::::::::::::::::::::::::::::::::::::::::::::::

optimized geometry written to: xtbopt.xyz


           -------------------------------------------------
          | TOTAL ENERGY             -281.552490391213 Eh   |
          | TOTAL ENTHALPY           -280.292471701814 Eh   |
          | TOTAL FREE ENERGY        -280.515139102452 Eh   |
          | GRADIENT NORM               0.000687007801 Eh/α |
          | HOMO-LUMO GAP               0.798996039560 eV   |
           -------------------------------------------------

------------------------------------------------------------------------
 * finished run on 2021/11/18 at 18:05:06.011     
------------------------------------------------------------------------
 total:
 * wall-time:     0 d,  0 h, 12 min, 43.559 sec
 *  cpu-time:     0 d,  0 h, 12 min, 43.531 sec
 * ratio c/w:     1.000 speedup
 SCF:
 * wall-time:     0 d,  0 h,  0 min,  1.957 sec
 *  cpu-time:     0 d,  0 h,  0 min,  1.957 sec
 * ratio c/w:     1.000 speedup
 ANC optimizer:
 * wall-time:     0 d,  0 h,  3 min, 36.509 sec
 *  cpu-time:     0 d,  0 h,  3 min, 36.471 sec
 * ratio c/w:     1.000 speedup
 analytical hessian:
 * wall-time:     0 d,  0 h,  9 min,  4.815 sec
 *  cpu-time:     0 d,  0 h,  9 min,  4.826 sec
 * ratio c/w:     1.000 speedup

