164
 energy: -280.468578655236 gnorm: 0.918920624648 xtb: 6.4.1 (bd6e46d)
C        16.45544500000000   -2.30337100000000   -1.37396900000000
C        16.03444500000000   -1.23107800000000   -2.00572000000000
C        16.71826200000000   -0.08916700000000   -1.52306200000000
C        16.68302500000000    1.31286800000000   -1.73353100000000
C        17.62697800000000    2.21969400000000   -1.27854200000000
C        17.20728700000000    3.32345700000000   -0.45255100000000
C        18.32786000000000    4.00824500000000   -0.04809700000000
C        19.41832300000000    3.24887100000000   -0.68131400000000
N        18.92319900000000    2.28100200000000   -1.33231000000000
C        20.69185600000000    3.71181300000000   -0.38570600000000
C        21.79572800000000    2.89188300000000   -0.03461700000000
C        23.21321200000000    3.11089100000000    0.11008500000000
C        23.79441400000000    1.97745800000000    0.47057200000000
C        22.74625600000000    0.99599400000000    0.56780100000000
N        21.53680600000000    1.58229500000000    0.23861700000000
C        22.64171000000000   -0.35383400000000    0.83538300000000
C        21.49360500000000   -1.14368500000000    0.99800100000000
C        21.57097300000000   -2.24413700000000    1.90940200000000
C        20.28218900000000   -2.83945900000000    1.80976700000000
C        19.57903900000000   -2.07136800000000    0.88055500000000
N        20.32413700000000   -1.05440700000000    0.40550200000000
C        18.25508400000000   -2.45725400000000    0.50768800000000
C        17.46680500000000   -1.86609500000000   -0.41741700000000
N        17.56297500000000   -0.53746400000000   -0.57337400000000
H        16.13878300000000   -3.34443900000000   -1.47436300000000
H        15.27258000000000   -1.24894700000000   -2.77207200000000
H        16.16707900000000    3.59544500000000   -0.18727100000000
H        18.39992000000000    4.86667500000000    0.58355900000000
H        19.55518800000000    1.53188100000000   -1.98381800000000
H        20.94932600000000    4.78356500000000   -0.43925700000000
H        23.74196800000000    4.07512100000000   -0.02822600000000
H        24.81035200000000    1.80708500000000    0.65902900000000
H        23.67511700000000   -0.81260300000000    0.96399100000000
H        22.36454700000000   -2.59955200000000    2.51888400000000
H        20.00879700000000   -3.73069700000000    2.40138200000000
H        20.00800600000000   -0.30336600000000   -0.33504900000000
H        17.77728900000000   -3.33428600000000    1.00309200000000
C       -18.11144300000000    3.30648600000000   -0.89728400000000
C       -17.31144600000000    2.67269200000000   -1.81615700000000
C       -17.20535900000000    1.28280100000000   -1.44293500000000
C       -16.74249500000000    0.04649800000000   -2.00060600000000
C       -17.40045700000000   -1.19720300000000   -1.67995500000000
C       -16.79939700000000   -2.21821200000000   -0.84312400000000
C       -17.79118900000000   -3.12842900000000   -0.66173600000000
C       -18.94624100000000   -2.74496400000000   -1.31210800000000
N       -18.66647400000000   -1.57566700000000   -1.91310700000000
C       -20.18713000000000   -3.43104000000000   -1.27524900000000
C       -21.42852400000000   -2.81813000000000   -0.95948200000000
C       -22.55185800000000   -2.38448400000000   -1.66024700000000
C       -23.36507600000000   -1.70553300000000   -0.95939000000000
C       -22.80077500000001   -1.63361200000000    0.32683600000000
N       -21.57472000000000   -2.33928700000000    0.41057100000000
C       -23.11802100000000   -0.85579500000000    1.47375700000000
C       -22.13679200000000    0.16130700000000    1.92980800000000
C       -21.68687300000000    0.40199800000000    3.19493700000000
C       -20.57438400000000    1.26984700000000    3.12038900000000
C       -20.38797200000000    1.53730200000000    1.81088700000000
N       -21.41456000000000    0.82541800000000    1.08924600000000
C       -19.46583500000000    1.90376400000000    0.94170700000000
C       -18.51912400000001    2.28368600000000    0.05593800000000
N       -17.90100200000000    1.19801800000000   -0.39934900000000
H       -18.43582600000000    4.31759800000000   -0.86331500000000
H       -16.83433300000000    3.07442900000000   -2.67925800000000
H       -15.74676000000000   -2.18453800000000   -0.50256800000000
H       -17.62142200000000   -4.03380600000000   -0.03607400000000
H       -19.38673200000000   -1.01453200000000   -2.60362600000000
H       -20.30533900000000   -4.46345900000000   -1.49245800000000
H       -22.77845200000000   -2.59323900000000   -2.75882000000000
H       -24.34603700000000   -1.23479900000000   -1.23255400000000
H       -23.98909200000000   -0.94528400000000    2.03260300000000
H       -22.08303000000000   -0.01376300000000    4.11807000000000
H       -20.01429900000000    1.62131600000000    3.96708300000000
H       -21.51203500000000    0.98843800000000   -0.04298900000000
H       -18.93610600000000    2.93985500000000    1.81621400000000
C        15.42905400000000    1.65060000000000   -2.41285900000000
C        14.33787700000000    1.81378800000000   -2.86289500000000
C        12.98232500000000    1.74931000000000   -3.19564300000000
C        11.82583200000000    1.51592800000000   -3.28413500000000
C        10.51349800000000    1.10080600000000   -3.09798900000000
C         9.52206500000000    0.61893800000000   -2.67986000000000
C         3.15261000000000    0.54116500000000    3.95295600000000
C         2.12217300000000    0.43259600000000    4.49474500000000
C         0.79338300000000    0.26274200000000    4.81198600000000
C        -0.37878500000000    0.08588700000000    4.76179800000000
C        -1.65267900000000   -0.15117100000000    4.34986400000000
C        -2.62000600000000   -0.33661200000000    3.71800100000000
C        -9.83358700000000    0.07593300000000   -3.61231700000000
C       -10.88627100000000    0.18487300000000   -4.05607600000000
C       -12.25094600000000    0.24244300000000   -4.18746900000000
C       -13.38939700000000    0.24458900000000   -3.96434800000000
C       -14.64914700000000    0.20025100000000   -3.40674800000000
C       -15.63102800000000    0.14478200000000   -2.79972900000000
C         5.43658000000000   -0.25984200000000   -3.91053100000000
C         6.72699200000000   -0.16146000000000   -3.94317200000000
C         7.23576100000000   -0.13108100000000   -2.55816500000000
C         8.40237400000000   -0.02272500000000   -1.93773100000000
C         8.76094600000000   -0.39010800000000   -0.58840000000000
C        10.00347800000000   -0.99802900000000   -0.35659300000000
C        10.08186300000000   -1.16894500000000    0.99443900000000
C         8.86847800000000   -0.65239500000000    1.53866900000000
N         8.09283300000000   -0.18966400000000    0.57099700000000
C         8.72184400000000   -0.67871100000000    2.94293800000000
C         7.65369700000000   -0.13835800000000    3.62941300000000
C         7.38886000000000    0.41562700000000    4.95152800000000
C         6.13395700000000    0.78408100000000    4.99367500000000
C         5.53423300000000    0.48759300000000    3.67420500000000
N         6.52083800000000   -0.05414100000000    2.97079700000000
C         4.34253100000000    0.58557400000000    3.06566300000000
C         4.03476400000000    0.66267900000000    1.66953800000000
C         3.14728800000000    1.62769200000000    1.19409500000000
C         2.95966300000000    1.39992300000000   -0.13305400000000
C         3.78119000000000    0.25579200000000   -0.44855500000000
N         4.41591100000000   -0.17710900000000    0.68123800000000
C         3.83771800000000   -0.23275100000000   -1.76006800000000
C         5.02425900000000   -0.28008200000000   -2.54222700000000
N         6.12682500000000   -0.20682500000000   -1.78815400000000
H         4.74495500000000   -0.27928400000000   -4.71425100000000
H         7.40092500000000   -0.09228900000000   -4.78514800000000
H        10.78190000000000   -1.26821000000000   -1.07110900000000
H        10.94046700000000   -1.61660900000000    1.52400300000000
H         7.07688300000000    0.27528600000000    0.67851000000000
H         9.43212600000000   -1.11376700000000    3.61778100000000
H         8.09857200000000    0.51677100000000    5.74566900000000
H         5.58041700000000    1.24797800000000    5.79910700000000
H         2.63757700000000    2.46078400000000    1.73781800000000
H         2.32520600000000    1.96562800000000   -0.81712100000000
H         5.08986400000000   -1.05293500000000    0.75798300000000
H         2.96302200000000   -0.60820400000000   -2.29368600000000
C        -2.42533300000000   -0.93396400000000   -0.55442000000000
C        -2.27510200000000   -1.25057300000000    0.69510400000000
C        -3.30087400000000   -0.53896900000000    1.38373000000000
C        -3.62997900000000   -0.51511700000000    2.78650600000000
C        -5.02981400000000   -0.51847000000000    3.20180400000000
C        -5.60149400000000    0.48210900000000    3.94178800000000
C        -6.98604400000000    0.49412900000000    3.55593600000000
C        -7.11676200000000   -0.48544000000000    2.63907200000000
N        -5.88541600000000   -1.14482300000000    2.43719300000000
C        -7.89478900000000   -0.60168100000000    1.56414800000000
C        -8.78067300000000   -0.95392100000000    0.56771600000000
C        -9.48372800000000   -2.19548400000000    0.16014600000000
C        -9.65296500000000   -2.07496300000000   -1.21089000000000
C        -9.10354300000000   -0.82575300000000   -1.60601100000000
N        -8.65418600000000   -0.27594800000000   -0.53395800000000
C        -8.76351800000000   -0.08782600000000   -2.85603100000000
C        -7.44482000000000    0.46262600000000   -2.88445000000000
C        -7.24276400000000    1.84998600000000   -2.92396200000000
C        -5.93041000000000    2.04042100000000   -2.60080100000000
C        -5.30850500000000    0.76210500000000   -2.36777500000000
N        -6.29724500000000   -0.15498000000000   -2.57505900000000
C        -4.02209500000000    0.61206100000000   -1.90157500000000
C        -3.51440700000000   -0.04440900000000   -0.77964400000000
N        -3.99551400000000    0.14451900000000    0.46231100000000
H        -1.74168800000000   -1.36331000000000   -1.35527700000000
H        -1.53867900000000   -1.91961300000000    1.19058400000000
H        -5.12943900000000    1.14690300000000    4.64880300000000
H        -7.71695500000000    1.18392800000000    3.94104500000000
H        -5.82999300000000   -2.13928500000000    1.85771300000000
H        -7.99068000000000    0.67758100000000    1.18862100000000
H        -9.70655400000000   -2.93015000000000    0.82342800000000
H       -10.09672800000000   -2.78099300000000   -1.87343900000000
H        -7.98859000000000    2.64084400000000   -3.14058600000000
H        -5.46834300000000    3.01390700000000   -2.53488600000000
H        -6.10609600000000   -1.28490000000000   -2.57375500000000
H        -3.17999400000000    1.10773900000000   -2.45121500000000
164
 energy: -280.794725651882 gnorm: 0.480963779379 xtb: 6.4.1 (bd6e46d)
C        16.45031087038856   -2.31411878506473   -1.36230134749335
C        16.02139173634703   -1.23090073608236   -2.01604265771751
C        16.73057756533397   -0.09003626827991   -1.52117839558511
C        16.66462461480133    1.29864386782145   -1.75001752155678
C        17.60452855241926    2.22320145203012   -1.27575842441165
C        17.20044001587007    3.33158859742943   -0.45904636286262
C        18.32557921723275    4.00357827137060   -0.06371410704946
C        19.42859121013565    3.27158974968693   -0.66549813870017
N        18.93389963461463    2.25662347766151   -1.33799226704507
C        20.71919370596828    3.71570831941435   -0.38855607599758
C        21.79201127026374    2.88511832560264   -0.04268910366560
C        23.21207746950167    3.12666527211040    0.11127288405807
C        23.79003275538269    1.97325113294023    0.46974188975073
C        22.72751578045296    0.99634838758223    0.55432259225519
N        21.53563892789570    1.58538737169806    0.23324337365061
C        22.66371645008773   -0.35219399528616    0.83561279814229
C        21.51652713456957   -1.14495223207261    0.99968368664310
C        21.55779625794566   -2.25123726397208    1.89795890184427
C        20.29387030782988   -2.83740885228243    1.81682547428737
C        19.55740515733436   -2.08025017315641    0.88551992834767
N        20.31734909062934   -1.05408073211625    0.40625752780250
C        18.25452095648517   -2.46795344995012    0.51237992938337
C        17.46325025504322   -1.84901535248827   -0.42310467944665
N        17.59049740467267   -0.52209980964943   -0.57913568885690
H        16.14083304764505   -3.34357506597314   -1.47382507075071
H        15.26843211177410   -1.24465282054740   -2.77921216478703
H        16.17521518011615    3.58956456270463   -0.19012988475050
H        18.40126258151263    4.86046238963570    0.57919312703929
H        19.53558853181763    1.55412759511586   -1.95767675900264
H        20.94562279825962    4.78188185663716   -0.43202942607889
H        23.73510003540228    4.07296784697145   -0.02915349253945
H        24.81850560187124    1.80119626919297    0.66141537794281
H        23.66391000191517   -0.81421113249546    0.97494679401045
H        22.36264233333932   -2.59550196090942    2.51468796613910
H        20.00791591595260   -3.71912137173115    2.39308498029793
H        20.01374455094423   -0.32313756962962   -0.30802750057720
H        17.79190796533509   -3.33723879584492    0.99843626640234
C       -18.09999629910333    3.30688004919257   -0.90340087659770
C       -17.30196577521676    2.68245264685385   -1.81949613102224
C       -17.21248542073696    1.27749293468092   -1.44917997572031
C       -16.75708973683399    0.05818579680662   -2.00306147970668
C       -17.39630317644941   -1.19401508872677   -1.67027259376599
C       -16.79660547339429   -2.21095428662916   -0.85734109822541
C       -17.77862685137331   -3.14475367528063   -0.65899098378529
C       -18.95265489848495   -2.75066222912619   -1.30487484880591
N       -18.67803851320098   -1.55944377404986   -1.90966944183429
C       -20.19424676771138   -3.42774976522314   -1.27946427856071
C       -21.42573820536035   -2.80625130022748   -0.94789305403957
C       -22.55268370398947   -2.40937442820482   -1.68893662391011
C       -23.39147428928748   -1.69936678378980   -0.94174449455129
C       -22.79064296267397   -1.62905215168231    0.34089611164267
N       -21.57614618911901   -2.30328585536329    0.37049648935340
C       -23.10852089886507   -0.84742742589826    1.47878148966551
C       -22.14930598065211    0.13584839962572    1.92209621436648
C       -21.69058676161025    0.40583430590547    3.20922292339130
C       -20.59332437098031    1.26164554863483    3.13199888616385
C       -20.39875634163312    1.52745990419805    1.79340896425830
N       -21.40799538907200    0.82641199998763    1.06706786815020
C       -19.44321419097639    1.97207752228474    0.97692115642590
C       -18.51251270322435    2.26905863752309    0.02671710261908
N       -17.92781187389578    1.14849859549948   -0.37942154473748
H       -18.43435898347773    4.32109989246635   -0.86726628589673
H       -16.83315128672598    3.08530452242687   -2.68642637774430
H       -15.76186213424778   -2.18220013996525   -0.50652551840833
H       -17.62714935664811   -4.03014584051518   -0.03983457076156
H       -19.36370894054259   -1.02975383631370   -2.57577278669966
H       -20.29550788609981   -4.47227851160926   -1.49744791024217
H       -22.76421244278714   -2.59759657946691   -2.75692646916687
H       -24.33958841843592   -1.23312240793663   -1.22551299954348
H       -24.00169904536230   -0.94570685213869    2.03851208754130
H       -22.08153499544060   -0.01392510340195    4.11901834546513
H       -20.01673738605943    1.61975586079876    3.96555096042594
H       -21.50866231510504    0.97551451727434   -0.00573192414398
H       -18.94640330879396    2.93425017516599    1.81422714483248
C        15.43876643884975    1.65456979279530   -2.39803302785942
C        14.32871759879421    1.81249675863661   -2.86694125610006
C        13.00129626072060    1.75178853717094   -3.19362350071531
C        11.81291576140345    1.51529935623473   -3.28441290943330
C        10.52693766258369    1.10419783434076   -3.09882655933465
C         9.51285023871804    0.59342364812784   -2.67135428346612
C         3.17369166413309    0.55918228867009    3.93437919079872
C         2.11014044531359    0.43286142283412    4.50184392201473
C         0.81122713263960    0.26397046698560    4.81668976257286
C        -0.38707392070976    0.08516801469197    4.76747174435127
C        -1.63622609249881   -0.14831464782625    4.36234742236579
C        -2.63456656744812   -0.34739593926993    3.70193726834866
C        -9.80789439759185    0.08121249219861   -3.60876333130505
C       -10.91600300190110    0.18814310295617   -4.08092288249990
C       -12.23357876535216    0.24461643124554   -4.20311968059576
C       -13.41531411178562    0.24655568478002   -3.96612700132127
C       -14.63063505265344    0.20186576174769   -3.42642055000136
C       -15.65437151808762    0.13683562004434   -2.79273738469508
C         5.42183066381639   -0.26488319513588   -3.91075438344982
C         6.74262239248352   -0.15447366231189   -3.94592603084089
C         7.21356554975366   -0.12403920271010   -2.55630117488972
C         8.42049523814633   -0.00921170115561   -1.94454917734395
C         8.76314697020544   -0.37883242737593   -0.60254385132022
C        10.00840005091065   -0.99074547428823   -0.35457760886824
C        10.08482208682591   -1.17337543136621    0.99751643446689
C         8.87688998973944   -0.66318789670203    1.55794202694278
N         8.08736480853706   -0.19283474499287    0.56678074244471
C         8.72520518754360   -0.67551056091003    2.95094431415869
C         7.64431525550943   -0.13583212992897    3.62457928641111
C         7.39640214200561    0.40905789256151    4.95620222534761
C         6.11909423900561    0.78375122751524    4.99730665518616
C         5.54582874053823    0.47649199016495    3.67812463897907
N         6.52082151953794   -0.04593211944340    2.93610931901941
C         4.32523843887573    0.58330293274516    3.08294255995779
C         4.02776634836756    0.66106889968287    1.68443744456121
C         3.14000684928202    1.62784253060234    1.19855746491057
C         2.95860218872134    1.38515785272298   -0.13764418920914
C         3.77156229591266    0.25329540195217   -0.45516070690997
N         4.42103083222059   -0.16740009598282    0.67624390899671
C         3.84076051622815   -0.24296599585743   -1.77814951209443
C         5.02639181231957   -0.28670866218513   -2.52019168213079
N         6.13057815095174   -0.20960288283024   -1.76567994898871
H         4.73606219565435   -0.28212258660376   -4.72233058826625
H         7.40435738505868   -0.09153995684580   -4.78870295531618
H        10.77389583105576   -1.26438165178005   -1.06978977909922
H        10.92975583152332   -1.61352765380830    1.52357248001739
H         7.10995394783376    0.25747997996867    0.67598326714754
H         9.44814907916474   -1.11271452231491    3.61209166910943
H         8.10634798911998    0.51582841624963    5.74790970206899
H         5.57762531723635    1.24954427613949    5.80001557895669
H         2.64818231370021    2.44874444849500    1.73693617666221
H         2.33414734026350    1.95627022410678   -0.81626340695928
H         5.06948138366380   -1.01896879539587    0.75434930844423
H         2.95502063812855   -0.59169277944064   -2.29764222969043
C        -2.40144252649653   -0.94048073392406   -0.57859246623645
C        -2.25992004323883   -1.25064888099569    0.71126025658746
C        -3.30789602199175   -0.53709164914159    1.38681408408081
C        -3.63003277789263   -0.51858115231004    2.77792348188169
C        -5.01127952083896   -0.51397596674344    3.19227531020753
C        -5.60680833988867    0.47902563153164    3.94844353878388
C        -6.97024134175218    0.49357460526882    3.57048635926159
C        -7.11585816617957   -0.49587394534551    2.63719318616928
N        -5.90160349256888   -1.16119530341635    2.43641463460180
C        -7.94902693439397   -0.55365102517802    1.55096432082970
C        -8.77150433294650   -0.97669437399845    0.55497092572760
C        -9.47325981132369   -2.19925414003018    0.14783193404634
C        -9.65835635288121   -2.08301344023089   -1.20520306996235
C        -9.08588127514873   -0.83002157617371   -1.60362179199155
N        -8.64571810249197   -0.23329798236494   -0.54253845739586
C        -8.74007859275233   -0.11042908213361   -2.84165141206066
C        -7.45102442735518    0.45906406649004   -2.88139273652682
C        -7.23876992343792    1.85123676163406   -2.93447197425638
C        -5.92394159549394    2.04325773616128   -2.61424883982782
C        -5.31019860038484    0.77224104666100   -2.36397602845358
N        -6.29253247232578   -0.16475607991423   -2.56047112174683
C        -4.00711995802960    0.60926092700177   -1.90322298715950
C        -3.51561432746591   -0.05629779044709   -0.76532482377652
N        -4.02883137616322    0.13717865575666    0.46789022595318
H        -1.74750119229424   -1.35971757717018   -1.35898014960665
H        -1.54325842150976   -1.91627930647448    1.18975388321988
H        -5.13087697812758    1.14461567741711    4.64585366596164
H        -7.71237528710533    1.18076122154113    3.93945298758482
H        -5.82892721505611   -2.09859259157391    1.87537805891114
H        -7.98085135898489    0.65403993568873    1.19457963032159
H        -9.71593812229657   -2.95032587194623    0.83043229760925
H       -10.10320864390183   -2.78769630994034   -1.87277396620139
H        -7.98149053378131    2.62813601619690   -3.13676924170065
H        -5.46279549692846    3.01052325290305   -2.53166798150132
H        -6.11509807725039   -1.24437852745990   -2.56659513532301
H        -3.18805937780866    1.11031455090572   -2.45136342510221
164
 energy: -280.995054738310 gnorm: 0.209235331234 xtb: 6.4.1 (bd6e46d)
C        16.44750242355035   -2.31896589985934   -1.34737927144203
C        16.00983217948723   -1.23106706587757   -2.02332752404606
C        16.74697767151110   -0.09235588064911   -1.52054957451858
C        16.64157164678420    1.28671553294134   -1.77320506920101
C        17.58217257840136    2.23216435060433   -1.27093822238580
C        17.19363627535872    3.33771692390138   -0.46866418995953
C        18.32667343268585    3.99791195468080   -0.08267751616646
C        19.42992368761616    3.29453414313747   -0.64965770905890
N        18.94471099148486    2.22996321593289   -1.34169192324826
C        20.74634881697735    3.71649673009965   -0.39623444760081
C        21.78723314730684    2.87612388564072   -0.05159455870106
C        23.21272988013569    3.14006539479159    0.11304007020987
C        23.78356822072716    1.96912152557259    0.46750867813599
C        22.70234903444946    0.99730852347720    0.53566561850246
N        21.53372984391793    1.58460870570062    0.22170404737235
C        22.68600897443926   -0.35230690531283    0.83625689796103
C        21.54083838543421   -1.14695655932532    1.00020908300954
C        21.54457383790461   -2.26170388681670    1.88517054880278
C        20.30829296191613   -2.83509361293031    1.82416127963861
C        19.53456149691889   -2.08875102818544    0.89053119280198
N        20.31197105267934   -1.05473897969283    0.41061351147814
C        18.25506695776281   -2.47855734369418    0.51494658721980
C        17.46312569052411   -1.82865583714324   -0.43017547364784
N        17.62107976758993   -0.50845861049963   -0.58800765275623
H        16.14330912429788   -3.34009758616811   -1.47134928516870
H        15.26433762770462   -1.23810731645875   -2.78607966104665
H        16.18214019372205    3.58272603016539   -0.19485988620973
H        18.40395778921975    4.85256688148781    0.57205746461529
H        19.50587373859384    1.58725743385144   -1.91775130622250
H        20.94063467842192    4.78052522710593   -0.42419006882222
H        23.72738094639046    4.07157856043181   -0.02979058188121
H        24.82243079147323    1.79507114539782    0.66345146196300
H        23.65256067617962   -0.81567997431289    0.99145448497278
H        22.36144785443889   -2.58954470642604    2.50820101302630
H        20.00356428879508   -3.70696440301202    2.38412184393964
H        20.02128109142590   -0.34729627316147   -0.27328703363026
H        17.80825325142261   -3.34182618172856    0.99195089150158
C       -18.08939595302608    3.30189781560933   -0.90648751225678
C       -17.29275749527417    2.68678123078046   -1.82092000383550
C       -17.22549710506471    1.27465182690235   -1.45864963518645
C       -16.76270917822488    0.07388668379728   -2.01570244928216
C       -17.38987090401961   -1.19192011535794   -1.65806260380938
C       -16.79742409640433   -2.19970063536914   -0.87356121256155
C       -17.76588483233921   -3.16061081986250   -0.66036343337864
C       -18.95710798807183   -2.75630151931909   -1.29486672618485
N       -18.69036604705629   -1.54133766635545   -1.90235170717817
C       -20.20554613936429   -3.41959786313525   -1.28523329985287
C       -21.42648723661362   -2.78156711763852   -0.92815596287786
C       -22.56489546068573   -2.43359107435661   -1.71250337199722
C       -23.41065927305159   -1.70139954558485   -0.92927876154423
C       -22.77137885879507   -1.62262273244507    0.34628665686070
N       -21.57375744647247   -2.26212061898515    0.32831193510152
C       -23.09606696466012   -0.83553648834328    1.48342266973482
C       -22.16148162638412    0.10875571341395    1.91276804464340
C       -21.69503637883722    0.41522056411139    3.22009655698647
C       -20.61706501803085    1.25380694305767    3.13856737480848
C       -20.40881161397015    1.50930635970834    1.76881467885794
N       -21.39386768838603    0.82239071452671    1.04651042406940
C       -19.40413117508844    2.08908237584621    1.05571960035608
C       -18.51168285435649    2.24705083843862   -0.01146600003268
N       -17.96546931855433    1.09499930705695   -0.37013271210497
H       -18.43166177406230    4.31975749046180   -0.86847378042047
H       -16.82998751178264    3.09289639909690   -2.69196487499829
H       -15.77896732438119   -2.18067604996542   -0.51103638768072
H       -17.63442870966506   -4.02801635102835   -0.04544589458135
H       -19.33391679754926   -1.04931862548174   -2.53635010023555
H       -20.28468641218545   -4.47651806858705   -1.50549498288212
H       -22.75193963404655   -2.60328129698544   -2.75267191572751
H       -24.33069735062719   -1.23553006355456   -1.22167600021933
H       -24.00986883684580   -0.95057632155278    2.04139820483595
H       -22.08244564399725   -0.01494987704209    4.11889186546230
H       -20.01960887121544    1.61898381497454    3.95760918434852
H       -21.50266896566088    0.95479594721293    0.04383657322339
H       -18.96922212839824    2.91176426578268    1.79727453609682
C        15.44011140882966    1.65930326512419   -2.38690982265321
C        14.31682004694481    1.80610559378436   -2.86808907095413
C        13.01286773035664    1.74981108099109   -3.18627226050609
C        11.80499581382010    1.51177840101450   -3.27866480340881
C        10.54095008319661    1.10272004636200   -3.09291045730717
C         9.51628706848692    0.57137592202832   -2.66525202950392
C         3.18081445727341    0.57436968910963    3.92097580515463
C         2.10247375745122    0.43438893684077    4.50053538845153
C         0.82961175313060    0.26520425462796    4.81300635813506
C        -0.39251679762417    0.08379161463732    4.76572661527427
C        -1.62261709017711   -0.14726976975677    4.36633621006475
C        -2.63289132095202   -0.35508709160419    3.69240443568303
C        -9.80244531752400    0.09109975847915   -3.61252634453416
C       -10.93246531406065    0.18830466445914   -4.09242575708959
C       -12.22096955977367    0.24665113901769   -4.20773300004151
C       -13.43069993515770    0.24635370058395   -3.96316551929173
C       -14.61738564007040    0.20389871279058   -3.43941753134273
C       -15.65976803855881    0.12591921313085   -2.79843669250953
C         5.41012893511859   -0.27300750122383   -3.90625201940048
C         6.75343143348878   -0.14673181637783   -3.94179571699050
C         7.19159529149673   -0.11448253310851   -2.55104024118600
C         8.44822281920261    0.00949797867218   -1.95954935574841
C         8.76699985952752   -0.36638904563466   -0.61738565517528
C        10.01414595969827   -0.98125615952730   -0.35047925819144
C        10.08694059801610   -1.17780922482151    0.99883315531853
C         8.88636288752854   -0.67630364925760    1.57643062519963
N         8.08419786045898   -0.19825071642696    0.56121476678183
C         8.72742981616271   -0.66981079758122    2.95996419158957
C         7.63219768290463   -0.13077976788461    3.61939613477583
C         7.40104248658702    0.40002971003828    4.95701233766387
C         6.10458828210311    0.77954609260665    4.99523306198928
C         5.55765921057194    0.46726530801109    3.68145687812074
N         6.51620922787234   -0.03450163948632    2.90088871345965
C         4.29559877951221    0.58125779167244    3.11104378078471
C         4.01817099252724    0.65991829249444    1.69995537265723
C         3.13186921927625    1.62485458868706    1.20167586194686
C         2.95856646385858    1.36660657173397   -0.14304837372256
C         3.75883834514411    0.25052850367248   -0.46094434935168
N         4.42483014196408   -0.15543118378436    0.67178266304046
C         3.84518867889911   -0.25474799860334   -1.79871715972722
C         5.03122100560379   -0.29478856470895   -2.49550806631716
N         6.14264943462432   -0.20817086914478   -1.74194975029692