164
 energy: -281.552490391345 gnorm: 0.000687006331 xtb: 6.4.1 (bd6e46d)
C        21.64576150706393   -2.35820180239349    1.54704132883354
C        20.61800560471899   -1.54369079960351    1.23806336950098
C        21.17277213992801   -0.50844936919608    0.38433000093817
C        20.40174319399316    0.53949714203506   -0.15782874306877
C        20.91389221766270    1.55351472210919   -0.98447776985272
C        20.19891599652746    2.63743209511897   -1.56053271812987
C        21.08886436572541    3.37632076934522   -2.28561314441750
C        22.36594490324917    2.75877210691722   -2.16898563633936
N        22.20830646938242    1.66415738592809   -1.37396358966340
C        23.54722094300840    3.18822212740583   -2.75558745983438
C        24.79975436073666    2.59759446995482   -2.66106832199883
C        25.97569107746933    3.13780283523755   -3.32829540555285
C        26.99444979043235    2.31427248968807   -3.01983823443133
C        26.43313102684733    1.27832302589406   -2.16659668842641
N        25.11274434715977    1.48065787327279   -1.97239398685152
C        27.18307934225882    0.23439935751083   -1.63968828061786
C        26.69441527436652   -0.77336904689198   -0.82261135215227
C        27.40908955746789   -1.86575101987214   -0.25295894596317
C        26.52445335032934   -2.60095798166461    0.47913495893180
C        25.24671737797062   -1.97743952571629    0.37578391093556
N        25.40132900446058   -0.88436574069501   -0.41659495308651
C        24.06672625588897   -2.40154795838385    0.96877429880814
C        22.81468486866881   -1.81198171842682    0.87839107860593
N        22.48839596254345   -0.69356513423487    0.18698534024586
H        21.64791246429602   -3.24104343296796    2.15700474443450
H        19.58921463902503   -1.60586740130597    1.53591460612987
H        19.14927238179325    2.81562797140964   -1.42977790510044
H        20.88971017791997    4.26549190531824   -2.85146160102432
H        22.93752898628113    1.01452234304176   -1.10304182063087
H        23.48105975728962    4.08453209804566   -3.35679438747666
H        25.97973055277505    4.02201338161531   -3.93660171850927
H        28.02421156782461    2.36881257288474   -3.31715210752558
H        28.23445806408041    0.20507138325588   -1.88674490993185
H        28.45636503944140   -2.05112396253597   -0.39268631800988
H        26.72389311915429   -3.49230090897286    1.04186380478369
H        24.67551617079023   -0.22983457414751   -0.68271098239027
H        24.13125701929438   -3.29787087159763    1.57031416270535
C       -21.05354787334533    2.99519826602762    0.42841547672017
C       -20.18682507639605    1.98524991888392    0.21940781677618
C       -20.99874366951514    0.81869773322614   -0.07866267391214
C       -20.45226264292319   -0.45275916664578   -0.34602476786447
C       -21.21409829875332   -1.60185562428561   -0.61471350608110
C       -20.73205510745675   -2.91194431440404   -0.87905068424084
C       -21.81680563453404   -3.71170907385263   -1.09605098857021
C       -22.98435306144143   -2.90672389705301   -0.97214906388267
N       -22.56825429590467   -1.64362196205245   -0.67785808052244
C       -24.29691238090971   -3.32503041326296   -1.13246238895288
C       -25.44646462714741   -2.55342526881252   -1.03086569882498
C       -26.78043875897648   -3.10002878126010   -1.23483315443644
C       -27.63670540009609   -2.07634840977800   -1.06125510921986
C       -26.81949981759037   -0.91357856116199   -0.75064423359343
N       -25.50894093785048   -1.23714124888269   -0.74277676087538
C       -27.34936760530760    0.34480415406448   -0.49493582682459
C       -26.61425865203866    1.47951473618923   -0.18820955242093
C       -27.09823732695218    2.78919975193075    0.09309869696998
C       -26.01844667279549    3.58406459676015    0.34084589229712
C       -24.84703441378646    2.78151156866381    0.21571064676254
N       -25.25797102423603    1.52581782822009   -0.10183305691294
C       -23.53410611598562    3.19823686134287    0.37867951312441
C       -22.38292842940636    2.43579547963895    0.24982253167369
N       -22.30798410035961    1.11762601206793   -0.05400878503844
H       -20.85011273382488    4.01928033295068    0.67588718791525
H       -19.11474834086936    1.99169568760525    0.25820821314260
H       -19.69619981937312   -3.19006620768173   -0.89653335750518
H       -21.81895560295623   -4.76004076228245   -1.32290059660853
H       -23.16663316214117   -0.83919744143127   -0.52935805060987
H       -24.43750376391668   -4.37072535316695   -1.36886488493041
H       -26.98959360077328   -4.12467935770946   -1.47605973211898
H       -28.70786273972454   -2.06973351582719   -1.12720960834058
H       -28.42415675675239    0.44759936364991   -0.53486205831692
H       -28.13347806429842    3.07008160138496    0.10176029557781
H       -26.01855521118735    4.62822775667010    0.58711917275305
H       -24.66062334881046    0.72267469411232   -0.25722978580562
H       -23.39240756337238    4.24036341225715    0.63015857682903
C        19.03693671910357    0.57237991571374    0.13292589267259
C        17.84184977919734    0.58772430413603    0.37998696319727
C        16.52944121914810    0.60288684244855    0.62685429476751
C        15.32318014966353    0.60639462190767    0.84020026736682
C        14.00213054414220    0.61565227001613    1.03438189417612
C        12.79164434757254    0.61750132720102    1.19279476995095
C         2.98851749739505    0.27751940446316    1.57778303362580
C         1.77351739632571    0.16094291533210    1.53992016567968
C         0.44794671620897    0.03022916918492    1.45841663308027
C        -0.76601281696293   -0.09219018166821    1.34297380919437
C        -2.08127932052770   -0.22937421936632    1.16501957625685
C        -3.27926711217018   -0.34723697444909    0.95822030586111
C       -12.75209935738133   -0.92604247231378   -0.79181079170834
C       -13.96731603880665   -0.88996733507213   -0.65129809860410
C       -15.29267980797521   -0.82564802525401   -0.53253414884397
C       -16.51493539424442   -0.76174096293935   -0.45816926961105
C       -17.84482860523827   -0.66932322133421   -0.39329248416536
C       -19.06198131285154   -0.57954366662583   -0.35897548311597
C        10.22950939384081    2.77397077034022   -1.29628061920971
C        11.25524997924775    2.20501923200958   -0.63319613077193
C        10.65372819060591    1.38350941636378    0.40082198120822
C        11.40298801393640    0.61825382590597    1.31842900245936
C        10.82659180415894   -0.14929403637264    2.34470877742266
C        11.49195907725483   -0.91895533145365    3.33404794824356
C        10.53198148162780   -1.48247885179635    4.12582875279097
C         9.26169183229459   -1.07287557163049    3.63246005272725
N         9.49249850383782   -0.26758165050324    2.55934287268084
C         8.02611818790641   -1.44372256705147    4.14623155861783
C         6.76431403515897   -1.10624355575377    3.68384735704038
C         5.54915442042334   -1.60545722792628    4.30573610707077
C         4.52347750612981   -1.10738882115262    3.58758305627790
C         5.12491325527797   -0.30249752072303    2.54083357529351
N         6.46537402134822   -0.31797035457557    2.62293205211783
C         4.37709214808871    0.39737547643147    1.57233664186645
C         4.95494598136991    1.20834370714468    0.57936120763819
C         4.28906421980771    1.97326953752913   -0.41326715182027
C         5.24833648223144    2.60585325830216   -1.15187526957357
C         6.51831004872345    2.23500225474541   -0.62881473559845
N         6.28830981328952    1.39340608516884    0.41649290368570
C         7.75320302885344    2.64679347208692   -1.11103770793986
C         9.01458620692070    2.28698965205602   -0.66522747933624
N         9.31308563185970    1.45286681089239    0.36021915758301
H        10.25613020871235    3.45018206885436   -2.12899281782797
H        12.31039092194439    2.30977160922378   -0.79591987315508
H        12.55662770181077   -1.01776859972332    3.41944676017961
H        10.68009362288115   -2.12463864908663    4.97215193905408
H         8.79853773468516    0.19227386838524    1.97985248705724
H         8.05559138777123   -2.09296660093400    5.01097599114067
H         5.52254898847724   -2.24747789770556    5.16511567003183
H         3.46814231300427   -1.24449643667863    3.72410375078009
H         3.22466940241780    2.02624726386590   -0.53410552015779
H         5.09990266900984    3.26592209247000   -1.98421003501379
H         6.98232992997822    0.94832807492700    1.00736430745359
H         7.72380922138533    3.32481777272167   -1.95336174630192
C        -5.15679055069417    1.52250465325358   -2.22088524734460
C        -4.33003992525060    0.97987270172610   -1.30703483836283
C        -5.15825505996709    0.14183017947955   -0.45999252788596
C        -4.63514419002793   -0.50902854246078    0.68048850166020
C        -5.40161465663682   -1.28070745287527    1.58036454819238
C        -5.07804444413814   -1.79792168009762    2.85838435675091
C        -6.21510955637064   -2.37131555682139    3.37183420968023
C        -7.24066111513319   -2.26592204748806    2.40015624910256
N        -6.69007443962583   -1.60256728904873    1.33440983605005
C        -8.58680130338732   -2.64163174730962    2.41005933572774
C        -9.25425832530376   -2.69658419368395    1.18987968465373
C        -8.59543597282535   -3.01544786178328   -0.06536087593082
C        -9.41625320640006   -2.56230035347540   -1.03797087955521
C       -10.54999247210698   -1.97363928890002   -0.34640039679785
N       -10.48873221186613   -2.17958749956349    0.96464900563938
C       -11.39025140163329   -1.00969004569232   -0.99449154203607
C       -10.69848934364291   -0.07734316283088   -1.78908731660101
C       -11.15693836038650    0.86822699766811   -2.74221094261851
C       -10.06779550979714    1.54137567060882   -3.22716200311288
C        -8.91393428355514    1.05201967388430   -2.55399353163567
N        -9.34373438547807    0.08374017761183   -1.70544591762476
C        -7.58472569742476    1.43847925949110   -2.67360099481538
C        -6.48507463176696    1.00782943655151   -1.93611747355735
N        -6.44432747243993    0.15847105156443   -0.87468571992555
H        -4.92635356592710    2.20428238459834   -3.01683326202010
H        -3.27338143201255    1.11746209418085   -1.18439475375065
H        -4.11784631773802   -1.72028464965293    3.33020629450691
H        -6.32203331711930   -2.85379612755209    4.32370438892281
H        -7.15868163907584   -1.25988532514342    0.50286745364350
H        -9.11324003418218   -2.74493351093233    3.34559371523785
H        -7.67969246755963   -3.56685815075774   -0.15935718328771
H        -9.31590940349955   -2.64403388560143   -2.10384917874130
H       -12.18260407942365    0.98971248267294   -3.03206800355352
H       -10.06258114968920    2.31107352805774   -3.97424592819724
H        -8.70892970531583   -0.40262945721958   -1.08928286508335
H        -7.37539089495023    2.18770308373395   -3.42483248557614
