      -----------------------------------------------------------      
     |                   =====================                   |     
     |                           x T B                           |     
     |                   =====================                   |     
     |                         S. Grimme                         |     
     |          Mulliken Center for Theoretical Chemistry        |     
     |                    University of Bonn                     |     
      -----------------------------------------------------------      

   * xtb version 6.4.1 (bd6e46d) compiled by 'conda@4901f00b25ba' on 2021-06-10

   xtb is free software: you can redistribute it and/or modify it under
   the terms of the GNU Lesser General Public License as published by
   the Free Software Foundation, either version 3 of the License, or
   (at your option) any later version.
   
   xtb is distributed in the hope that it will be useful,
   but WITHOUT ANY WARRANTY; without even the implied warranty of
   MERCHANTABILITY or FITNESS FOR A PARTICULAR PURPOSE.  See the
   GNU Lesser General Public License for more details.
   
   Cite this work as:
   * C. Bannwarth, E. Caldeweyher, S. Ehlert, A. Hansen, P. Pracht,
     J. Seibert, S. Spicher, S. Grimme, WIREs Comput. Mol. Sci., 2020, 11,
     e01493. DOI: 10.1002/wcms.1493
   
   for GFN2-xTB:
   * C. Bannwarth, S. Ehlert and S. Grimme., J. Chem. Theory Comput., 2019,
     15, 1652-1671. DOI: 10.1021/acs.jctc.8b01176
   for GFN1-xTB:
   * S. Grimme, C. Bannwarth, P. Shushkov, J. Chem. Theory Comput., 2017,
     13, 1989-2009. DOI: 10.1021/acs.jctc.7b00118
   for GFN0-xTB:
   * P. Pracht, E. Caldeweyher, S. Ehlert, S. Grimme, ChemRxiv, 2019, preprint.
     DOI: 10.26434/chemrxiv.8326202.v1
   for GFN-FF:
   * S. Spicher and S. Grimme, Angew. Chem. Int. Ed., 2020, 59, 15665-15673.
     DOI: 10.1002/anie.202004239
   
   for DFT-D4:
   * E. Caldeweyher, C. Bannwarth and S. Grimme, J. Chem. Phys., 2017,
     147, 034112. DOI: 10.1063/1.4993215
   * E. Caldeweyher, S. Ehlert, A. Hansen, H. Neugebauer, S. Spicher,
     C. Bannwarth and S. Grimme, J. Chem. Phys., 2019, 150, 154122.
     DOI: 10.1063/1.5090222
   * E. Caldeweyher, J.-M. Mewes, S. Ehlert and S. Grimme, Phys. Chem. Chem. Phys.
     2020, 22, 8499-8512. DOI: 10.1039/D0CP00502A
   
   for sTDA-xTB:
   * S. Grimme and C. Bannwarth, J. Chem. Phys., 2016, 145, 054103.
     DOI: 10.1063/1.4959605
   
   in the mass-spec context:
   * V. Asgeirsson, C. Bauer and S. Grimme, Chem. Sci., 2017, 8, 4879.
     DOI: 10.1039/c7sc00601b
   * J. Koopman and S. Grimme, ACS Omega 2019, 4, 12, 15120-15133.
     DOI: 10.1021/acsomega.9b02011
   
   for metadynamics refer to:
   * S. Grimme, J. Chem. Theory Comput., 2019, 155, 2847-2862
     DOI: 10.1021/acs.jctc.9b00143
   
   for SPH calculations refer to:
   * S. Spicher and S. Grimme, J. Chem. Theory Comput., 2021, 17, 1701-1714
     DOI: 10.1021/acs.jctc.0c01306
   
   with help from (in alphabetical order)
   P. Atkinson, C. Bannwarth, F. Bohle, G. Brandenburg, E. Caldeweyher
   M. Checinski, S. Dohm, S. Ehlert, S. Ehrlich, I. Gerasimov, J. Koopman
   C. Lavigne, S. Lehtola, F. März, M. Müller, F. Musil, H. Neugebauer
   J. Pisarek, C. Plett, P. Pracht, J. Seibert, P. Shushkov, S. Spicher
   M. Stahn, M. Steiner, T. Strunk, J. Stückrath, T. Rose, and J. Unsleber
   
 * started run on 2021/11/21 at 21:09:20.311     

           -------------------------------------------------
          |                Calculation Setup                |
           -------------------------------------------------

          program call               : /home/jeff/miniconda3/bin/xtb /home/jeff/chem/final-year-proejct/free_base/_4_2_outenergy/input_structure.xyz --gfn 2 --parallel 1 --etemp 300 --chrg 0 --uhf 0 -I det_control.in
          coordinate file            : /home/jeff/chem/final-year-proejct/free_base/_4_2_outenergy/input_structure.xyz
          omp threads                :                     1
          number of atoms            :                    78
          number of electrons        :                   242
          charge                     :                     0
          spin                       :                   0.0
          first test random number   :      0.34277710502430

   ID    Z sym.   atoms
    1    6 C      1-8, 10-14, 16-20, 22, 23, 38-49, 51-55, 57-61, 63, 64
    2    7 N      9, 15, 21, 24, 50, 56, 62, 65
    3    1 H      25-37, 66-78

           -------------------------------------------------
          |                 G F N 2 - x T B                 |
           -------------------------------------------------

        Reference                      10.1021/acs.jctc.8b01176
      * Hamiltonian:
        H0-scaling (s, p, d)           1.850000    2.230000    2.230000
        zeta-weighting                 0.500000
      * Dispersion:
        s8                             2.700000
        a1                             0.520000
        a2                             5.000000
        s9                             5.000000
      * Repulsion:
        kExp                           1.500000    1.000000
        rExp                           1.000000
      * Coulomb:
        alpha                          2.000000
        third order                    shell-resolved
        anisotropic                    true
        a3                             3.000000
        a5                             4.000000
        cn-shift                       1.200000
        cn-exp                         4.000000
        max-rad                        5.000000


          ...................................................
          :                      SETUP                      :
          :.................................................:
          :  # basis functions                 234          :
          :  # atomic orbitals                 234          :
          :  # shells                          130          :
          :  # electrons                       242          :
          :  max. iterations                   250          :
          :  Hamiltonian                  GFN2-xTB          :
          :  restarted?                      false          :
          :  GBSA solvation                  false          :
          :  PC potential                    false          :
          :  electronic temp.          300.0000000     K    :
          :  accuracy                    1.0000000          :
          :  -> integral cutoff          0.2500000E+02      :
          :  -> integral neglect         0.1000000E-07      :
          :  -> SCF convergence          0.1000000E-05 Eh   :
          :  -> wf. convergence          0.1000000E-03 e    :
          :  Broyden damping             0.4000000          :
          ...................................................

 iter      E             dE          RMSdq      gap      omega  full diag
   1   -132.9219077 -0.132922E+03  0.517E+00    0.87       0.0  T
   2   -133.1154224 -0.193515E+00  0.337E+00    1.12       1.0  T
   3   -133.0706608  0.447616E-01  0.146E+00    0.98       1.0  T
   4   -133.0854658 -0.148050E-01  0.706E-01    1.09       1.0  T
   5   -133.1460740 -0.606081E-01  0.253E-01    1.11       1.0  T
   6   -133.1543796 -0.830563E-02  0.729E-02    1.11       1.0  T
   7   -133.1545672 -0.187623E-03  0.387E-02    1.10       1.0  T
   8   -133.1546492 -0.819378E-04  0.172E-02    1.10       1.0  T
   9   -133.1546571 -0.794614E-05  0.961E-03    1.10       1.2  T
  10   -133.1546618 -0.465743E-05  0.263E-03    1.10       4.3  T
  11   -133.1546623 -0.508325E-06  0.121E-03    1.10       9.4  T
  12   -133.1546624 -0.137844E-06  0.432E-04    1.10      26.2  T
  13   -133.1546624 -0.658997E-08  0.230E-04    1.10      49.2  T

   *** convergence criteria satisfied after 13 iterations ***

         #    Occupation            Energy/Eh            Energy/eV
      -------------------------------------------------------------
         1        2.0000           -0.6833440             -18.5947
       ...           ...                  ...                  ...
       115        2.0000           -0.3713613             -10.1053
       116        2.0000           -0.3705054             -10.0820
       117        2.0000           -0.3705034             -10.0819
       118        2.0000           -0.3681537             -10.0180
       119        2.0000           -0.3679582             -10.0127
       120        2.0000           -0.3623673              -9.8605
       121        2.0000           -0.3487971              -9.4913 (HOMO)
       122                         -0.3082356              -8.3875 (LUMO)
       123                         -0.2973607              -8.0916
       124                         -0.2968578              -8.0779
       125                         -0.2931093              -7.9759
       126                         -0.2628709              -7.1531
       ...                                ...                  ...
       234                          1.6352342              44.4970
      -------------------------------------------------------------
                  HL-Gap            0.0405615 Eh            1.1037 eV
             Fermi-level           -0.3285163 Eh           -8.9394 eV

 SCC (total)                   0 d,  0 h,  0 min,  0.238 sec
 SCC setup                      ...        0 min,  0.001 sec (  0.452%)
 Dispersion                     ...        0 min,  0.002 sec (  0.969%)
 classical contributions        ...        0 min,  0.000 sec (  0.172%)
 integral evaluation            ...        0 min,  0.021 sec (  8.662%)
 iterations                     ...        0 min,  0.134 sec ( 56.114%)
 molecular gradient             ...        0 min,  0.079 sec ( 33.172%)
 printout                       ...        0 min,  0.001 sec (  0.453%)

         :::::::::::::::::::::::::::::::::::::::::::::::::::::
         ::                     SUMMARY                     ::
         :::::::::::::::::::::::::::::::::::::::::::::::::::::
         :: total energy            -130.728887814337 Eh    ::
         :: gradient norm              0.000356074000 Eh/a0 ::
         :: HOMO-LUMO gap              1.103733636903 eV    ::
         ::.................................................::
         :: SCC energy              -133.154662428274 Eh    ::
         :: -> isotropic ES            0.068251762415 Eh    ::
         :: -> anisotropic ES         -0.005056051396 Eh    ::
         :: -> anisotropic XC          0.088668993671 Eh    ::
         :: -> dispersion             -0.104896053220 Eh    ::
         :: repulsion energy           2.426931836749 Eh    ::
         :: add. restraining           0.000000000000 Eh    ::
         :: total charge              -0.000000000000 e     ::
         :::::::::::::::::::::::::::::::::::::::::::::::::::::

           -------------------------------------------------
          |                Property Printout                |
           -------------------------------------------------

    * Orbital Energies and Occupations

         #    Occupation            Energy/Eh            Energy/eV
      -------------------------------------------------------------
         1        2.0000           -0.6833440             -18.5947
       ...           ...                  ...                  ...
       109        2.0000           -0.3917053             -10.6588
       110        2.0000           -0.3885279             -10.5724
       111        2.0000           -0.3875703             -10.5463
       112        2.0000           -0.3874679             -10.5435
       113        2.0000           -0.3872925             -10.5388
       114        2.0000           -0.3714775             -10.1084
       115        2.0000           -0.3713613             -10.1053
       116        2.0000           -0.3705054             -10.0820
       117        2.0000           -0.3705034             -10.0819
       118        2.0000           -0.3681537             -10.0180
       119        2.0000           -0.3679582             -10.0127
       120        2.0000           -0.3623673              -9.8605
       121        2.0000           -0.3487971              -9.4913 (HOMO)
       122                         -0.3082356              -8.3875 (LUMO)
       123                         -0.2973607              -8.0916
       124                         -0.2968578              -8.0779
       125                         -0.2931093              -7.9759
       126                         -0.2628709              -7.1531
       127                         -0.2541758              -6.9165
       128                         -0.2240061              -6.0955
       129                         -0.2049345              -5.5766
       130                         -0.1892450              -5.1496
       131                         -0.1878941              -5.1129
       132                         -0.1714620              -4.6657
       ...                                ...                  ...
       234                          1.6352342              44.4970
      -------------------------------------------------------------
                  HL-Gap            0.0405615 Eh            1.1037 eV
             Fermi-level           -0.3285163 Eh           -8.9394 eV

     #   Z          covCN         q      C6AA      α(0)
     1   6 C        3.016    -0.055    29.341     8.885
     2   6 C        3.009    -0.053    29.300     8.879
     3   6 C        3.196     0.087    25.569     8.244
     4   6 C        2.952     0.012    27.749     8.640
     5   6 C        3.097     0.064    26.452     8.429
     6   6 C        3.027    -0.050    29.207     8.865
     7   6 C        3.034    -0.052    29.254     8.872
     8   6 C        3.073     0.064    26.488     8.439
     9   7 N        2.785    -0.081    22.815     7.094
    10   6 C        2.899    -0.055    29.369     8.886
    11   6 C        3.171     0.087    25.719     8.285
    12   6 C        3.012    -0.054    29.317     8.882
    13   6 C        3.010    -0.054    29.319     8.882
    14   6 C        3.174     0.086    25.708     8.281
    15   7 N        1.870    -0.321    29.180     8.007
    16   6 C        2.899    -0.057    29.413     8.892
    17   6 C        3.073     0.065    26.470     8.436
    18   6 C        3.026    -0.051    29.242     8.870
    19   6 C        3.031    -0.051    29.233     8.869
    20   6 C        3.069     0.065    26.466     8.436
    21   7 N        2.787    -0.081    22.813     7.094
    22   6 C        2.899    -0.055    29.368     8.885
    23   6 C        3.175     0.085    25.723     8.283
    24   7 N        1.870    -0.325    29.280     8.021
    25   1 H        0.926     0.018     2.759     2.597
    26   1 H        0.926     0.021     2.725     2.581
    27   1 H        0.926     0.043     2.407     2.426
    28   1 H        0.926     0.041     2.432     2.439
    29   1 H        0.860     0.214     1.037     1.596
    30   1 H        0.925     0.047     2.361     2.403
    31   1 H        0.926     0.019     2.744     2.591
    32   1 H        0.926     0.019     2.744     2.590
    33   1 H        0.926     0.046     2.371     2.408
    34   1 H        0.926     0.042     2.426     2.436
    35   1 H        0.926     0.042     2.427     2.436
    36   1 H        0.860     0.214     1.036     1.595
    37   1 H        0.925     0.047     2.361     2.403
    38   6 C        1.996    -0.023    31.641     9.084
    39   6 C        1.963    -0.011    31.375     9.046
    40   6 C        1.963    -0.011    31.375     9.046
    41   6 C        1.996    -0.023    31.641     9.084
    42   6 C        3.012    -0.054    29.317     8.882
    43   6 C        3.010    -0.054    29.319     8.882
    44   6 C        3.174     0.086    25.708     8.281
    45   6 C        2.899    -0.057    29.414     8.892
    46   6 C        3.073     0.065    26.470     8.436
    47   6 C        3.026    -0.051    29.242     8.870
    48   6 C        3.031    -0.051    29.233     8.869
    49   6 C        3.069     0.065    26.466     8.436
    50   7 N        2.787    -0.081    22.813     7.094
    51   6 C        2.899    -0.055    29.368     8.885
    52   6 C        3.175     0.085    25.723     8.283
    53   6 C        3.016    -0.055    29.341     8.885
    54   6 C        3.009    -0.053    29.299     8.879
    55   6 C        3.196     0.087    25.569     8.244
    56   7 N        1.870    -0.325    29.281     8.021
    57   6 C        2.952     0.012    27.748     8.640
    58   6 C        3.097     0.064    26.452     8.429
    59   6 C        3.027    -0.050    29.208     8.865
    60   6 C        3.034    -0.052    29.254     8.872
    61   6 C        3.073     0.064    26.488     8.439
    62   7 N        2.785    -0.081    22.815     7.094
    63   6 C        2.899    -0.055    29.369     8.886
    64   6 C        3.171     0.087    25.719     8.285
    65   7 N        1.870    -0.321    29.180     8.007
    66   1 H        0.926     0.019     2.744     2.591
    67   1 H        0.926     0.019     2.744     2.590
    68   1 H        0.926     0.046     2.371     2.408
    69   1 H        0.926     0.042     2.426     2.436
    70   1 H        0.926     0.042     2.427     2.436
    71   1 H        0.860     0.214     1.036     1.595
    72   1 H        0.925     0.047     2.361     2.403
    73   1 H        0.926     0.018     2.759     2.597
    74   1 H        0.926     0.021     2.724     2.581
    75   1 H        0.926     0.043     2.407     2.426
    76   1 H        0.926     0.041     2.432     2.439
    77   1 H        0.860     0.214     1.037     1.595
    78   1 H        0.925     0.047     2.361     2.403

 Mol. C6AA /au·bohr⁶  :      98168.335276
 Mol. C8AA /au·bohr⁸  :    2506802.035094
 Mol. α(0) /au        :        503.967401


Wiberg/Mayer (AO) data.
largest (>0.10) Wiberg bond orders for each atom

 ---------------------------------------------------------------------------
     #   Z sym  total        # sym  WBO       # sym  WBO       # sym  WBO
 ---------------------------------------------------------------------------
     1   6 C    3.960 --     2 C    1.716    23 C    1.115    25 H    0.973
     2   6 C    3.961 --     1 C    1.716     3 C    1.122    26 H    0.972
     3   6 C    3.917 --    24 N    1.362     4 C    1.244     2 C    1.122
     4   6 C    3.940 --     5 C    1.249     3 C    1.244    38 C    1.190
     5   6 C    3.902 --     4 C    1.249     6 C    1.237     9 N    1.226
     6   6 C    3.955 --     7 C    1.592     5 C    1.237    27 H    0.972
     7   6 C    3.948 --     6 C    1.592     8 C    1.224    28 H    0.973
     8   6 C    3.918 --    10 C    1.344     7 C    1.224     9 N    1.202
     9   7 N    3.590 --     5 C    1.226     8 C    1.202    29 H    0.900
    10   6 C    3.921 --    11 C    1.357     8 C    1.344    30 H    0.964
    11   6 C    3.939 --    10 C    1.357    15 N    1.324    12 C    1.107
    12   6 C    3.963 --    13 C    1.731    11 C    1.107    31 H    0.973
    13   6 C    3.962 --    12 C    1.731    14 C    1.109    32 H    0.973
    14   6 C    3.938 --    16 C    1.354    15 N    1.326    13 C    1.109
    15   7 N    3.001 --    14 C    1.326    11 C    1.324
    16   6 C    3.923 --    14 C    1.354    17 C    1.347    33 H    0.965
    17   6 C    3.921 --    16 C    1.347    18 C    1.216    21 N    1.210
    18   6 C    3.949 --    19 C    1.608    17 C    1.216    34 H    0.973
    19   6 C    3.953 --    18 C    1.608    20 C    1.215    35 H    0.973
    20   6 C    3.916 --    22 C    1.342    19 C    1.215    21 N    1.211
    21   7 N    3.586 --    20 C    1.211    17 C    1.210    36 H    0.901
    22   6 C    3.937 --    23 C    1.366    20 C    1.342    37 H    0.964
    23   6 C    3.924 --    22 C    1.366    24 N    1.299     1 C    1.115
    24   7 N    3.009 --     3 C    1.362    23 C    1.299
    25   1 H    0.999 --     1 C    0.973
    26   1 H    0.999 --     2 C    0.972
    27   1 H    0.998 --     6 C    0.972
    28   1 H    0.998 --     7 C    0.973
    29   1 H    0.954 --     9 N    0.900
    30   1 H    0.997 --    10 C    0.964
    31   1 H    0.999 --    12 C    0.973
    32   1 H    0.999 --    13 C    0.973
    33   1 H    0.997 --    16 C    0.965
    34   1 H    0.998 --    18 C    0.973
    35   1 H    0.998 --    19 C    0.973
    36   1 H    0.954 --    21 N    0.901
    37   1 H    0.997 --    22 C    0.964
    38   6 C    3.918 --    39 C    2.465     4 C    1.190    41 C    0.202
    39   6 C    3.925 --    38 C    2.465    40 C    1.308
    40   6 C    3.925 --    41 C    2.465    39 C    1.308
    41   6 C    3.918 --    40 C    2.465    57 C    1.190    38 C    0.202
    42   6 C    3.963 --    43 C    1.731    64 C    1.107    66 H    0.973
    43   6 C    3.962 --    42 C    1.731    44 C    1.109    67 H    0.973
    44   6 C    3.938 --    45 C    1.354    65 N    1.326    43 C    1.109
    45   6 C    3.923 --    44 C    1.354    46 C    1.347    68 H    0.965
    46   6 C    3.921 --    45 C    1.347    47 C    1.216    50 N    1.210
    47   6 C    3.949 --    48 C    1.608    46 C    1.216    69 H    0.973
    48   6 C    3.953 --    47 C    1.608    49 C    1.215    70 H    0.973
    49   6 C    3.916 --    51 C    1.342    48 C    1.215    50 N    1.211
    50   7 N    3.586 --    49 C    1.211    46 C    1.210    71 H    0.901
    51   6 C    3.937 --    52 C    1.366    49 C    1.342    72 H    0.964
    52   6 C    3.924 --    51 C    1.366    56 N    1.299    53 C    1.115
    53   6 C    3.960 --    54 C    1.716    52 C    1.115    73 H    0.973
    54   6 C    3.961 --    53 C    1.716    55 C    1.122    74 H    0.972
    55   6 C    3.917 --    56 N    1.362    57 C    1.244    54 C    1.122
    56   7 N    3.009 --    55 C    1.362    52 C    1.299
    57   6 C    3.940 --    58 C    1.249    55 C    1.244    41 C    1.190
    58   6 C    3.902 --    57 C    1.249    59 C    1.237    62 N    1.226
    59   6 C    3.955 --    60 C    1.592    58 C    1.237    75 H    0.972
    60   6 C    3.948 --    59 C    1.592    61 C    1.224    76 H    0.973
    61   6 C    3.918 --    63 C    1.344    60 C    1.224    62 N    1.202
    62   7 N    3.590 --    58 C    1.226    61 C    1.202    77 H    0.900
    63   6 C    3.921 --    64 C    1.357    61 C    1.344    78 H    0.964
    64   6 C    3.939 --    63 C    1.357    65 N    1.324    42 C    1.107
    65   7 N    3.001 --    44 C    1.326    64 C    1.324
    66   1 H    0.999 --    42 C    0.973
    67   1 H    0.999 --    43 C    0.973
    68   1 H    0.997 --    45 C    0.965
    69   1 H    0.998 --    47 C    0.973
    70   1 H    0.998 --    48 C    0.973
    71   1 H    0.954 --    50 N    0.901
    72   1 H    0.997 --    51 C    0.964
    73   1 H    0.999 --    53 C    0.973
    74   1 H    0.999 --    54 C    0.972
    75   1 H    0.998 --    59 C    0.972
    76   1 H    0.998 --    60 C    0.973
    77   1 H    0.954 --    62 N    0.900
    78   1 H    0.997 --    63 C    0.964
 ---------------------------------------------------------------------------

Topologies differ in total number of bonds
Writing topology from bond orders to xtbtopo.mol

molecular dipole:
                 x           y           z       tot (Debye)
 q only:       -0.000       0.002       0.001
   full:       -0.000       0.003       0.001       0.007
molecular quadrupole (traceless):
                xx          xy          yy          xz          yz          zz
 q only:       11.708     -21.992       2.405      -0.986       0.467     -14.113
  q+dip:       33.197     -11.561      12.510       1.487       4.170     -45.708
   full:       20.853     -10.994       6.372       0.644       2.240     -27.225


           -------------------------------------------------
          | TOTAL ENERGY             -130.728887814337 Eh   |
          | GRADIENT NORM               0.000356074000 Eh/α |
          | HOMO-LUMO GAP               1.103733636903 eV   |
           -------------------------------------------------

------------------------------------------------------------------------
 * finished run on 2021/11/21 at 21:09:20.581     
------------------------------------------------------------------------
 total:
 * wall-time:     0 d,  0 h,  0 min,  0.270 sec
 *  cpu-time:     0 d,  0 h,  0 min,  0.270 sec
 * ratio c/w:     1.000 speedup
 SCF:
 * wall-time:     0 d,  0 h,  0 min,  0.239 sec
 *  cpu-time:     0 d,  0 h,  0 min,  0.239 sec
 * ratio c/w:     1.000 speedup

