 Entering Gaussian System
 *********************************************
 Gaussian 98:
 frequency output generated by the xtb code
 *********************************************
                         Standard orientation:
 --------------------------------------------------------------------
  Center     Atomic     Atomic              Coordinates (Angstroms)
  Number     Number      Type              X           Y           Z
 --------------------------------------------------------------------
    1          6             0        9.235814    3.386623    0.307817
    2          6             0       10.189143    2.437379    0.235122
    3          6             0        9.484998    1.175317    0.095089
    4          6             0       10.142773   -0.066926   -0.012007
    5          6             0        9.484630   -1.302021   -0.133448
    6          6             0       10.077996   -2.588784   -0.232463
    7          6             0        9.066292   -3.500036   -0.332507
    8          6             0        7.833600   -2.789156   -0.299015
    9          7             0        8.139025   -1.467619   -0.176049
   10          6             0        6.562158   -3.337622   -0.382149
   11          6             0        5.348583   -2.664263   -0.361848
   12          6             0        4.068223   -3.349594   -0.466875
   13          6             0        3.123930   -2.392020   -0.416301
   14          6             0        3.834454   -1.130041   -0.279296
   15          7             0        5.168803   -1.331951   -0.250401
   16          6             0        3.195042    0.100112   -0.191147
   17          6             0        3.828302    1.325953   -0.055885
   18          6             0        3.233254    2.616166    0.042907
   19          6             0        4.240538    3.526981    0.164891
   20          6             0        5.476771    2.817526    0.142795
   21          7             0        5.175524    1.499264    0.008572
   22          6             0        6.747966    3.364064    0.237408
   23          6             0        7.962084    2.694306    0.208656
   24          7             0        8.154441    1.359165    0.083268
   25          1             0        9.347094    4.448454    0.415621
   26          1             0       11.256151    2.542910    0.270662
   27          1             0       11.133999   -2.777169   -0.225722
   28          1             0        9.154792   -4.565226   -0.422418
   29          1             0        7.474354   -0.704127   -0.124977
   30          1             0        6.514306   -4.413672   -0.477540
   31          1             0        3.951018   -4.411927   -0.565000
   32          1             0        2.056158   -2.489576   -0.463013
   33          1             0        2.115328    0.102067   -0.229711
   34          1             0        2.177749    2.806436    0.022148
   35          1             0        4.150549    4.591708    0.260977
   36          1             0        5.838134    0.734533   -0.039093
   37          1             0        6.797432    4.439252    0.342078
   38          6             0       11.538664   -0.072162   -0.001147
   39          6             0       12.758980   -0.055907   -0.000587
   40          6             0       14.094582   -0.032595   -0.003172
   41          6             0       15.318881    0.000320   -0.005626
   42          6             0       16.654446    0.025371   -0.007935
   43          6             0       17.874699    0.045084   -0.006355
   44          6             0       25.329236    3.368304    0.377583
   45          6             0       26.278009    2.414119    0.353981
   46          6             0       25.573493    1.145593    0.250453
   47          6             0       26.218692   -0.083516    0.196557
   48          6             0       25.591298   -1.315493    0.093561
   49          6             0       26.192487   -2.605108    0.030575
   50          6             0       25.189657   -3.523577   -0.068593
   51          6             0       23.950112   -2.819573   -0.067748
   52          7             0       24.245014   -1.496780    0.031564
   53          6             0       22.681628   -3.374347   -0.150024
   54          6             0       21.464352   -2.709764   -0.141009
   55          6             0       20.193994   -3.410380   -0.223865
   56          6             0       19.236158   -2.464037   -0.177146
   57          6             0       19.934222   -1.195493   -0.068981
   58          7             0       21.265614   -1.372727   -0.050769
   59          6             0       19.270592    0.045973    0.005620
   60          6             0       19.922881    1.286899    0.095500
   61          6             0       19.323333    2.572976    0.160153
   62          6             0       20.330619    3.491394    0.236391
   63          6             0       21.566692    2.785785    0.222242
   64          7             0       21.267653    1.459993    0.134338
   65          6             0       22.835457    3.342343    0.291285
   66          6             0       24.052189    2.674412    0.289901
   67          7             0       24.238266    1.340430    0.214646
   68          1             0       25.441388    4.433443    0.447010
   69          1             0       27.345261    2.517893    0.399148
   70          1             0       27.298343   -0.079402    0.236697
   71          1             0       27.248821   -2.789806    0.058294
   72          1             0       25.284766   -4.590071   -0.135803
   73          1             0       23.578730   -0.734199    0.057487
   74          1             0       22.637344   -4.452166   -0.226183
   75          1             0       20.087839   -4.475168   -0.304195
   76          1             0       18.169695   -2.575431   -0.211312
   77          1             0       18.266449    2.756055    0.147996
   78          1             0       20.236971    4.558156    0.297967
   79          1             0       21.935982    0.698626    0.103585
   80          1             0       22.878145    4.420778    0.357800
 --------------------------------------------------------------------
     1 basis functions        1 primitive gaussians
     1 alpha electrons        1 beta electrons

 Harmonic frequencies (cm**-1), IR intensities (km*mol⁻¹),
 Raman scattering activities (A**4/amu), Raman depolarization ratios,
 reduced masses (AMU), force constants (mDyne/A) and normal coordinates:
                      1                      2                      3
                        a                      a                      a 
 Frequencies --     4.4086                 6.3528                 7.6610
 Red. masses --    11.2322                11.4291                11.5064
 Frc consts  --     0.0000                 0.0000                 0.0000
 IR Inten    --     0.0686                 0.2489                 0.0372
 Raman Activ --     0.0000                 0.0000                 0.0000
 Depolar     --     0.0000                 0.0000                 0.0000
 Atom AN      X      Y      Z        X      Y      Z        X      Y      Z
   1   6    -0.00   0.02  -0.19    -0.12   0.07   0.01     0.01   0.01  -0.11
   2   6    -0.00   0.02  -0.14    -0.09   0.11   0.01     0.01   0.01  -0.14
   3   6    -0.00   0.01  -0.07    -0.04   0.08   0.01     0.00   0.01  -0.11
   4   6     0.00   0.01   0.00     0.00   0.11   0.01     0.00   0.01  -0.13
   5   6     0.00  -0.00   0.07     0.05   0.08   0.00     0.00   0.01  -0.11
   6   6     0.00  -0.01   0.14     0.09   0.10   0.00     0.00   0.01  -0.14
   7   6     0.00  -0.01   0.19     0.12   0.07  -0.00     0.00   0.01  -0.10
   8   6     0.00  -0.01   0.16     0.10   0.02  -0.01     0.00   0.00  -0.04
   9   7     0.00  -0.01   0.09     0.06   0.04  -0.00     0.00   0.00  -0.06
  10   6     0.00  -0.02   0.19     0.12  -0.02  -0.01    -0.00  -0.00   0.02
  11   6     0.00  -0.02   0.15     0.10  -0.07  -0.01    -0.00  -0.01   0.08
  12   6     0.00  -0.03   0.19     0.12  -0.11  -0.02    -0.01  -0.01   0.14
  13   6     0.00  -0.02   0.14     0.09  -0.14  -0.02    -0.01  -0.02   0.20
  14   6     0.00  -0.01   0.07     0.04  -0.12  -0.01    -0.01  -0.01   0.16
  15   7     0.00  -0.01   0.09     0.05  -0.08  -0.01    -0.00  -0.01   0.10
  16   6    -0.00  -0.01  -0.00    -0.00  -0.14  -0.01    -0.01  -0.02   0.20
  17   6    -0.00  -0.00  -0.07    -0.05  -0.12  -0.01    -0.00  -0.01   0.17
  18   6    -0.00   0.00  -0.15    -0.09  -0.14  -0.00    -0.00  -0.02   0.20
  19   6    -0.00   0.01  -0.20    -0.13  -0.11   0.00    -0.00  -0.01   0.14
  20   6    -0.00   0.01  -0.16    -0.10  -0.06   0.00    -0.00  -0.01   0.08
  21   7    -0.00   0.00  -0.09    -0.06  -0.08  -0.00    -0.00  -0.01   0.10
  22   6    -0.00   0.02  -0.19    -0.12  -0.02   0.01     0.00  -0.00   0.01
  23   6    -0.00   0.02  -0.15    -0.10   0.03   0.01     0.00   0.00  -0.05
  24   7    -0.00   0.01  -0.08    -0.05   0.04   0.01     0.00   0.00  -0.06
  25   1    -0.00   0.01  -0.07    -0.05   0.02   0.01     0.00   0.00  -0.03
  26   1    -0.00   0.01  -0.04    -0.03   0.04   0.01     0.00   0.00  -0.06
  27   1     0.00  -0.00   0.04     0.03   0.04   0.00     0.00   0.00  -0.05
  28   1     0.00  -0.01   0.07     0.05   0.02  -0.00     0.00   0.00  -0.03
  29   1     0.00  -0.00   0.01     0.01   0.00  -0.00     0.00   0.00  -0.01
  30   1     0.00  -0.01   0.07     0.05  -0.01  -0.00    -0.00  -0.00   0.00
  31   1     0.00  -0.01   0.07     0.05  -0.03  -0.01    -0.00  -0.00   0.04
  32   1     0.00  -0.01   0.04     0.03  -0.05  -0.01    -0.00  -0.01   0.07
  33   1    -0.00  -0.00   0.00    -0.00  -0.05  -0.00    -0.00  -0.01   0.07
  34   1    -0.00   0.00  -0.05    -0.03  -0.05  -0.00    -0.00  -0.01   0.07
  35   1    -0.00   0.00  -0.08    -0.05  -0.03   0.00    -0.00  -0.00   0.04
  36   1    -0.00   0.00  -0.01    -0.01  -0.01  -0.00    -0.00  -0.00   0.02
  37   1    -0.00   0.01  -0.07    -0.05  -0.00   0.00     0.00  -0.00   0.00
  38   6     0.00   0.01   0.00     0.00   0.15   0.01     0.00   0.01  -0.18
  39   6     0.00   0.01   0.00     0.00   0.18   0.01     0.00   0.02  -0.20
  40   6     0.00   0.01   0.00     0.00   0.19   0.02     0.00   0.02  -0.21
  41   6     0.00   0.01   0.00     0.00   0.19   0.02     0.00   0.02  -0.21
  42   6     0.00   0.01   0.00     0.00   0.18   0.01     0.00   0.02  -0.20
  43   6     0.00   0.01   0.00     0.00   0.15   0.01     0.00   0.01  -0.17
  44   6     0.00  -0.02   0.20     0.12  -0.11  -0.02    -0.00  -0.01   0.14
  45   6     0.00  -0.02   0.14     0.09  -0.14  -0.02    -0.00  -0.01   0.19
  46   6     0.00  -0.01   0.07     0.04  -0.12  -0.01    -0.00  -0.01   0.16
  47   6    -0.00  -0.01   0.00    -0.00  -0.14  -0.01    -0.01  -0.01   0.20
  48   6    -0.00  -0.00  -0.07    -0.05  -0.12  -0.01    -0.01  -0.01   0.16
  49   6    -0.00  -0.00  -0.14    -0.09  -0.14  -0.00    -0.01  -0.01   0.19
  50   6    -0.00   0.01  -0.20    -0.13  -0.11   0.00    -0.01  -0.01   0.14
  51   6    -0.00   0.01  -0.16    -0.10  -0.06   0.00    -0.00  -0.01   0.08
  52   7    -0.00   0.00  -0.09    -0.06  -0.08  -0.00    -0.00  -0.01   0.10
  53   6    -0.00   0.01  -0.19    -0.12  -0.02   0.01    -0.00  -0.00   0.01
  54   6    -0.00   0.01  -0.16    -0.10   0.03   0.01     0.00   0.00  -0.05
  55   6    -0.00   0.02  -0.20    -0.12   0.07   0.01     0.00   0.01  -0.10
  56   6    -0.00   0.02  -0.14    -0.09   0.11   0.01     0.00   0.01  -0.14
  57   6    -0.00   0.01  -0.07    -0.04   0.08   0.01     0.00   0.01  -0.11
  58   7    -0.00   0.01  -0.09    -0.05   0.04   0.01     0.00   0.00  -0.06
  59   6     0.00   0.01   0.00     0.00   0.10   0.01     0.00   0.01  -0.13
  60   6     0.00   0.00   0.07     0.05   0.08   0.00     0.00   0.01  -0.11
  61   6     0.00  -0.00   0.14     0.09   0.10   0.00     0.01   0.01  -0.14
  62   6     0.00  -0.01   0.19     0.13   0.07  -0.00     0.01   0.01  -0.10
  63   6     0.00  -0.01   0.16     0.10   0.02  -0.01     0.00   0.00  -0.04
  64   7     0.00  -0.00   0.09     0.06   0.04  -0.00     0.00   0.00  -0.06
  65   6     0.00  -0.01   0.19     0.12  -0.02  -0.01     0.00  -0.00   0.02
  66   6     0.00  -0.01   0.15     0.10  -0.07  -0.01    -0.00  -0.01   0.08
  67   7     0.00  -0.01   0.09     0.05  -0.08  -0.01    -0.00  -0.01   0.10
  68   1     0.00  -0.01   0.07     0.05  -0.03  -0.01    -0.00  -0.00   0.04
  69   1     0.00  -0.01   0.04     0.03  -0.05  -0.01    -0.00  -0.01   0.07
  70   1    -0.00  -0.00   0.00    -0.00  -0.05  -0.00    -0.00  -0.01   0.07
  71   1    -0.00  -0.00  -0.04    -0.03  -0.05  -0.00    -0.00  -0.01   0.07
  72   1    -0.00   0.00  -0.08    -0.05  -0.03   0.00    -0.00  -0.00   0.04
  73   1    -0.00  -0.00  -0.01    -0.01  -0.01  -0.00    -0.00  -0.00   0.02
  74   1    -0.00   0.00  -0.07    -0.05  -0.00   0.00    -0.00  -0.00   0.00
  75   1    -0.00   0.01  -0.07    -0.05   0.02   0.01     0.00   0.00  -0.03
  76   1    -0.00   0.01  -0.04    -0.03   0.04   0.01     0.00   0.00  -0.05
  77   1     0.00  -0.00   0.04     0.03   0.04   0.00     0.00   0.00  -0.05
  78   1     0.00  -0.00   0.07     0.05   0.02  -0.00     0.00   0.00  -0.03
  79   1     0.00  -0.00   0.01     0.01   0.00  -0.00     0.00   0.00  -0.01
  80   1     0.00  -0.00   0.07     0.05  -0.01  -0.00     0.00  -0.00   0.00
                      4                      5                      6
                        a                      a                      a 
 Frequencies --    16.9947                23.3701                37.5607
 Red. masses --    11.4037                11.4841                11.4072
 Frc consts  --     0.0000                 0.0000                 0.0000
 IR Inten    --     0.0365                 0.0015                 0.5218
 Raman Activ --     0.0000                 0.0000                 0.0000
 Depolar     --     0.0000                 0.0000                 0.0000
 Atom AN      X      Y      Z        X      Y      Z        X      Y      Z
   1   6    -0.00  -0.02   0.20     0.12  -0.14  -0.01     0.01   0.02  -0.19
   2   6    -0.00  -0.02   0.20     0.09  -0.17  -0.01     0.00   0.01  -0.09
   3   6    -0.00  -0.01   0.16     0.04  -0.15  -0.01     0.00  -0.00  -0.02
   4   6     0.00  -0.01   0.15     0.00  -0.17  -0.01     0.00  -0.01   0.06
   5   6     0.00  -0.01   0.15    -0.04  -0.15  -0.01     0.00  -0.00   0.01
   6   6     0.00  -0.02   0.18    -0.08  -0.17  -0.01    -0.00  -0.00  -0.01
   7   6     0.00  -0.02   0.17    -0.12  -0.13  -0.01     0.00   0.01  -0.11
   8   6     0.00  -0.01   0.12    -0.09  -0.09  -0.01     0.00   0.01  -0.12
   9   7     0.00  -0.01   0.13    -0.05  -0.11  -0.01     0.00   0.00  -0.06
  10   6     0.00  -0.01   0.08    -0.11  -0.04  -0.00     0.00   0.01  -0.16
  11   6     0.01   0.00  -0.00    -0.09  -0.00   0.00     0.00   0.01  -0.10
  12   6     0.01   0.01  -0.08    -0.11   0.04   0.01    -0.00   0.01  -0.06
  13   6     0.01   0.01  -0.16    -0.08   0.08   0.01    -0.01  -0.00   0.06
  14   6     0.01   0.01  -0.13    -0.04   0.05   0.00    -0.01  -0.01   0.08
  15   7     0.01   0.00  -0.04    -0.05   0.01   0.00    -0.00   0.00  -0.01
  16   6     0.01   0.02  -0.18     0.01   0.07   0.00    -0.01  -0.01   0.17
  17   6     0.01   0.01  -0.13     0.05   0.05   0.00    -0.01  -0.01   0.12
  18   6     0.01   0.01  -0.16     0.10   0.07   0.00    -0.01  -0.01   0.14
  19   6     0.01   0.01  -0.08     0.13   0.04  -0.00    -0.00  -0.00   0.02
  20   6     0.00   0.00  -0.00     0.10  -0.01  -0.00     0.00   0.00  -0.06
  21   7     0.01   0.00  -0.04     0.06   0.00  -0.00    -0.00  -0.00   0.01
  22   6     0.00  -0.01   0.09     0.12  -0.05  -0.00     0.01   0.01  -0.16
  23   6     0.00  -0.01   0.14     0.10  -0.10  -0.01     0.01   0.01  -0.16
  24   7     0.00  -0.01   0.13     0.05  -0.11  -0.01     0.00   0.00  -0.07
  25   1    -0.00  -0.01   0.06     0.05  -0.04  -0.00     0.00   0.01  -0.08
  26   1    -0.00  -0.01   0.07     0.03  -0.06  -0.00     0.00   0.00  -0.02
  27   1    -0.00  -0.01   0.06    -0.03  -0.06  -0.01    -0.00  -0.00   0.01
  28   1     0.00  -0.00   0.05    -0.05  -0.04  -0.00    -0.00   0.00  -0.04
  29   1     0.00  -0.00   0.03    -0.00  -0.02  -0.00     0.00   0.00  -0.02
  30   1     0.00  -0.00   0.03    -0.04  -0.01   0.00     0.00   0.01  -0.06
  31   1     0.00   0.00  -0.02    -0.04   0.01   0.00     0.00   0.00  -0.03
  32   1     0.00   0.01  -0.07    -0.02   0.03   0.00    -0.00  -0.00   0.04
  33   1     0.00   0.01  -0.07     0.00   0.03   0.00    -0.00  -0.01   0.07
  34   1     0.00   0.01  -0.07     0.03   0.03   0.00    -0.00  -0.01   0.06
  35   1     0.00   0.00  -0.02     0.05   0.01  -0.00     0.00   0.00  -0.00
  36   1     0.00   0.00   0.00     0.01  -0.01  -0.00    -0.00   0.00  -0.01
  37   1     0.00  -0.00   0.03     0.05  -0.02  -0.00     0.00   0.01  -0.06
  38   6     0.00  -0.01   0.14     0.00  -0.19  -0.02    -0.00  -0.02   0.17
  39   6     0.00  -0.01   0.09     0.00  -0.13  -0.01    -0.00  -0.03   0.28
  40   6     0.00  -0.00   0.03     0.00  -0.06  -0.01    -0.00  -0.03   0.33
  41   6    -0.00   0.00  -0.03    -0.00   0.06   0.00    -0.00  -0.03   0.33
  42   6    -0.00   0.01  -0.09    -0.00   0.13   0.01    -0.00  -0.02   0.28
  43   6    -0.00   0.01  -0.14    -0.00   0.19   0.01    -0.00  -0.01   0.17
  44   6    -0.01  -0.01   0.08     0.11  -0.04  -0.01     0.00   0.00  -0.06
  45   6    -0.01  -0.01   0.16     0.08  -0.08  -0.01    -0.00  -0.01   0.06
  46   6    -0.01  -0.01   0.13     0.04  -0.05  -0.01    -0.00  -0.01   0.08
  47   6    -0.01  -0.01   0.18    -0.01  -0.07  -0.01    -0.01  -0.01   0.17
  48   6    -0.01  -0.01   0.13    -0.05  -0.05  -0.01    -0.01  -0.01   0.12
  49   6    -0.01  -0.01   0.17    -0.09  -0.07  -0.01    -0.01  -0.01   0.14
  50   6    -0.01  -0.01   0.08    -0.13  -0.04  -0.00    -0.00  -0.00   0.02
  51   6    -0.01  -0.00   0.00    -0.10   0.01   0.00    -0.00   0.00  -0.06
  52   7    -0.01  -0.00   0.04    -0.06  -0.00   0.00    -0.00  -0.00   0.01
  53   6    -0.00   0.01  -0.08    -0.12   0.05   0.01     0.00   0.01  -0.16
  54   6    -0.00   0.01  -0.14    -0.10   0.10   0.01     0.00   0.01  -0.16
  55   6    -0.00   0.02  -0.20    -0.12   0.14   0.01     0.00   0.02  -0.19
  56   6    -0.00   0.02  -0.20    -0.09   0.17   0.01     0.00   0.01  -0.09
  57   6    -0.00   0.01  -0.16    -0.04   0.15   0.01     0.00   0.00  -0.02
  58   7    -0.00   0.01  -0.13    -0.05   0.11   0.01     0.00   0.01  -0.07
  59   6    -0.00   0.01  -0.15    -0.00   0.17   0.01     0.00  -0.00   0.06
  60   6     0.00   0.01  -0.15     0.04   0.15   0.01     0.00   0.00   0.01
  61   6     0.00   0.01  -0.19     0.08   0.17   0.02     0.00   0.00  -0.01
  62   6     0.00   0.01  -0.17     0.12   0.13   0.01     0.00   0.01  -0.11
  63   6     0.00   0.01  -0.13     0.09   0.09   0.01     0.00   0.01  -0.12
  64   7    -0.00   0.01  -0.13     0.05   0.11   0.01     0.00   0.01  -0.06
  65   6    -0.00   0.01  -0.08     0.11   0.04   0.00     0.01   0.01  -0.16
  66   6    -0.00  -0.00   0.00     0.09   0.00  -0.00     0.00   0.01  -0.09
  67   7    -0.01  -0.00   0.04     0.05  -0.01  -0.00    -0.00   0.00  -0.01
  68   1    -0.00  -0.00   0.02     0.04  -0.01  -0.00     0.00   0.00  -0.03
  69   1    -0.00  -0.01   0.07     0.02  -0.03  -0.01    -0.00  -0.00   0.04
  70   1    -0.00  -0.01   0.07    -0.00  -0.03  -0.00    -0.00  -0.01   0.07
  71   1    -0.00  -0.00   0.07    -0.03  -0.03  -0.00    -0.00  -0.00   0.06
  72   1    -0.00  -0.00   0.02    -0.05  -0.01  -0.00    -0.00   0.00  -0.00
  73   1    -0.00  -0.00  -0.00    -0.01   0.01   0.00    -0.00   0.00  -0.01
  74   1    -0.00   0.00  -0.03    -0.05   0.02   0.00     0.00   0.00  -0.06
  75   1    -0.00   0.00  -0.06    -0.05   0.04   0.00     0.00   0.01  -0.08
  76   1     0.00   0.01  -0.07    -0.03   0.06   0.00     0.00   0.00  -0.02
  77   1     0.00   0.00  -0.06     0.03   0.06   0.01     0.00   0.00   0.01
  78   1     0.00   0.00  -0.06     0.04   0.04   0.00     0.00   0.00  -0.04
  79   1    -0.00   0.00  -0.03     0.00   0.02   0.00     0.00   0.00  -0.02
  80   1     0.00   0.00  -0.03     0.04   0.01   0.00     0.00   0.00  -0.06
                      7                      8                      9
                        a                      a                      a 
 Frequencies --    42.0200                42.3980                42.8405
 Red. masses --    11.8179                10.8739                10.8876
 Frc consts  --     0.0000                 0.0000                 0.0000
 IR Inten    --     0.0008                 0.0174                 2.9701
 Raman Activ --     0.0000                 0.0000                 0.0000
 Depolar     --     0.0000                 0.0000                 0.0000
 Atom AN      X      Y      Z        X      Y      Z        X      Y      Z
   1   6    -0.12  -0.03   0.01    -0.00  -0.02   0.21    -0.00  -0.02   0.18
   2   6    -0.09   0.00   0.01    -0.00  -0.02   0.22    -0.00  -0.02   0.20
   3   6    -0.04  -0.02   0.00    -0.00  -0.01   0.09    -0.00  -0.01   0.09
   4   6    -0.01  -0.01  -0.00     0.00   0.00  -0.01    -0.00  -0.00   0.01
   5   6    -0.04   0.01   0.00     0.00   0.01  -0.10     0.00   0.01  -0.09
   6   6    -0.09  -0.02  -0.00     0.01   0.02  -0.23     0.01   0.02  -0.22
   7   6    -0.14   0.03   0.01     0.01   0.02  -0.22     0.01   0.02  -0.24
   8   6    -0.11   0.08   0.01     0.01   0.01  -0.10     0.00   0.01  -0.12
   9   7    -0.05   0.07   0.01     0.00   0.00  -0.05     0.00   0.00  -0.06
  10   6    -0.12   0.10   0.02     0.00  -0.00   0.00     0.00   0.00  -0.03
  11   6    -0.13   0.07   0.01     0.00  -0.01   0.10    -0.00  -0.01   0.08
  12   6    -0.11   0.03   0.01    -0.00  -0.02   0.22    -0.01  -0.02   0.19
  13   6    -0.15  -0.01  -0.00    -0.00  -0.02   0.22    -0.01  -0.02   0.22
  14   6    -0.19   0.02  -0.01     0.00  -0.01   0.10    -0.00  -0.01   0.11
  15   7    -0.20   0.07   0.00     0.00  -0.01   0.06    -0.00  -0.01   0.05
  16   6    -0.21   0.01  -0.01     0.00  -0.00   0.00    -0.00  -0.00   0.03
  17   6    -0.19  -0.00  -0.01     0.01   0.01  -0.09     0.00   0.01  -0.07
  18   6    -0.14   0.02  -0.01     0.01   0.02  -0.21     0.01   0.02  -0.18
  19   6    -0.10  -0.03  -0.01     0.01   0.02  -0.21     0.01   0.02  -0.20
  20   6    -0.13  -0.08  -0.01     0.00   0.01  -0.10     0.00   0.01  -0.11
  21   7    -0.20  -0.07  -0.01     0.00   0.01  -0.05     0.00   0.00  -0.05
  22   6    -0.11  -0.10  -0.00     0.00   0.00  -0.00     0.00   0.00  -0.04
  23   6    -0.10  -0.08   0.00    -0.00  -0.01   0.09    -0.00  -0.01   0.06
  24   7    -0.05  -0.08  -0.00    -0.00  -0.00   0.04    -0.00  -0.00   0.03
  25   1    -0.05  -0.01   0.00    -0.00  -0.01   0.08    -0.00  -0.01   0.07
  26   1    -0.03   0.01   0.00    -0.00  -0.01   0.08    -0.00  -0.01   0.08
  27   1    -0.03  -0.02  -0.00     0.00   0.01  -0.09     0.00   0.01  -0.08
  28   1    -0.05   0.01   0.00     0.00   0.01  -0.08     0.00   0.01  -0.09
  29   1     0.01   0.04   0.00    -0.00  -0.00   0.01    -0.00  -0.00   0.01
  30   1    -0.03   0.03   0.01     0.00  -0.00  -0.00     0.00   0.00  -0.02
  31   1    -0.02   0.01   0.00    -0.00  -0.01   0.08    -0.00  -0.01   0.07
  32   1    -0.04  -0.01  -0.00    -0.00  -0.01   0.08    -0.00  -0.01   0.09
  33   1    -0.06   0.00  -0.01     0.00  -0.00   0.00    -0.00  -0.00   0.01
  34   1    -0.04   0.02  -0.00     0.00   0.01  -0.08     0.00   0.01  -0.07
  35   1    -0.02  -0.01  -0.00     0.00   0.01  -0.08     0.00   0.01  -0.08
  36   1    -0.07  -0.04  -0.00     0.00  -0.00   0.01    -0.00  -0.00   0.01
  37   1    -0.03  -0.03   0.00     0.00   0.00  -0.00     0.00   0.00  -0.01
  38   6    -0.01  -0.00  -0.00    -0.00   0.01  -0.01    -0.00  -0.00   0.03
  39   6    -0.00   0.00  -0.00    -0.00   0.00  -0.01    -0.00  -0.00   0.05
  40   6    -0.00   0.00  -0.00    -0.00   0.00  -0.00    -0.00   0.00   0.06
  41   6     0.00  -0.00   0.00    -0.00  -0.00   0.01    -0.00   0.00   0.06
  42   6     0.01  -0.00   0.00    -0.00  -0.00   0.01    -0.00   0.00   0.05
  43   6     0.01   0.00   0.00    -0.00  -0.01   0.01    -0.00   0.00   0.03
  44   6     0.11  -0.03  -0.00     0.00   0.01  -0.21    -0.01  -0.01   0.20
  45   6     0.15   0.01   0.01     0.00   0.01  -0.21    -0.01  -0.02   0.23
  46   6     0.19  -0.02   0.01    -0.00   0.01  -0.09    -0.00  -0.01   0.12
  47   6     0.21  -0.00   0.01    -0.00   0.00   0.00    -0.00  -0.00   0.03
  48   6     0.19   0.01   0.01    -0.01  -0.01   0.09     0.00   0.00  -0.07
  49   6     0.14  -0.02   0.01    -0.01  -0.01   0.20     0.01   0.01  -0.19
  50   6     0.10   0.03   0.01    -0.01  -0.01   0.20     0.01   0.01  -0.21
  51   6     0.13   0.08   0.01    -0.00  -0.01   0.09     0.00   0.01  -0.11
  52   7     0.20   0.07   0.01    -0.00  -0.00   0.05     0.00   0.00  -0.05
  53   6     0.12   0.10   0.00    -0.00  -0.00   0.00     0.00   0.00  -0.04
  54   6     0.10   0.08  -0.00     0.00   0.00  -0.09    -0.00  -0.01   0.07
  55   6     0.12   0.03  -0.01     0.01   0.01  -0.21    -0.01  -0.01   0.19
  56   6     0.09  -0.00  -0.01     0.01   0.01  -0.21    -0.01  -0.01   0.21
  57   6     0.04   0.02  -0.00     0.00   0.00  -0.09    -0.00  -0.01   0.10
  58   7     0.05   0.07   0.00     0.00   0.00  -0.04    -0.00  -0.00   0.03
  59   6     0.01   0.01  -0.00    -0.00  -0.00   0.01    -0.00  -0.00   0.01
  60   6     0.04  -0.01  -0.00    -0.00  -0.01   0.10     0.00   0.01  -0.10
  61   6     0.09   0.02   0.00    -0.01  -0.02   0.22     0.01   0.01  -0.23
  62   6     0.14  -0.03  -0.01    -0.01  -0.01   0.21     0.01   0.02  -0.24
  63   6     0.11  -0.08  -0.01    -0.01  -0.01   0.09     0.00   0.01  -0.12
  64   7     0.05  -0.07  -0.01    -0.00  -0.00   0.05     0.00   0.00  -0.06
  65   6     0.12  -0.10  -0.01    -0.00   0.00  -0.01     0.00   0.00  -0.03
  66   6     0.13  -0.07  -0.01    -0.00   0.01  -0.10    -0.00  -0.01   0.08
  67   7     0.20  -0.07  -0.00    -0.00   0.00  -0.06    -0.00  -0.00   0.06
  68   1     0.02  -0.01  -0.00     0.00   0.01  -0.08    -0.00  -0.00   0.08
  69   1     0.04   0.01   0.00     0.00   0.01  -0.08    -0.00  -0.01   0.09
  70   1     0.06  -0.00   0.01    -0.00   0.00   0.00    -0.00  -0.00   0.01
  71   1     0.04  -0.02   0.00    -0.00  -0.00   0.08     0.00   0.00  -0.07
  72   1     0.02   0.01   0.00    -0.00  -0.00   0.08     0.00   0.01  -0.08
  73   1     0.07   0.04   0.00    -0.00  -0.00  -0.01    -0.00  -0.00   0.01
  74   1     0.03   0.03  -0.00    -0.00  -0.00   0.00     0.00   0.00  -0.01
  75   1     0.05   0.01  -0.00     0.00   0.01  -0.08    -0.00  -0.01   0.07
  76   1     0.03  -0.01  -0.00     0.00   0.01  -0.08    -0.00  -0.01   0.08
  77   1     0.03   0.02   0.00    -0.00  -0.01   0.08     0.00   0.01  -0.09
  78   1     0.05  -0.01  -0.00    -0.00  -0.01   0.08     0.00   0.01  -0.10
  79   1    -0.01  -0.04  -0.00     0.00   0.00  -0.01    -0.00  -0.00   0.01
  80   1     0.03  -0.03  -0.00    -0.00   0.00  -0.00     0.00   0.00  -0.02
                     10                     11                     12
                        a                      a                      a 
 Frequencies --    59.6492                65.8399                81.6469
 Red. masses --    11.0612                11.7843                11.1461
 Frc consts  --     0.0000                 0.0000                 0.0000
 IR Inten    --     0.0391                 0.8348                 7.3997
 Raman Activ --     0.0000                 0.0000                 0.0000
 Depolar     --     0.0000                 0.0000                 0.0000
 Atom AN      X      Y      Z        X      Y      Z        X      Y      Z
   1   6    -0.00  -0.01   0.08    -0.03  -0.05  -0.00    -0.00  -0.00   0.02
   2   6     0.00   0.01  -0.09     0.03   0.01   0.00     0.00   0.01  -0.10
   3   6    -0.00   0.01  -0.14     0.11  -0.03  -0.00    -0.00   0.01  -0.15
   4   6    -0.00   0.02  -0.21     0.15  -0.01  -0.00    -0.00   0.01  -0.15
   5   6    -0.00   0.01  -0.14     0.12   0.01   0.00     0.00   0.01  -0.15
   6   6     0.00   0.01  -0.07     0.03  -0.03  -0.00     0.00   0.01  -0.09
   7   6    -0.00  -0.01   0.09    -0.05   0.05   0.01    -0.00  -0.00   0.01
   8   6    -0.00  -0.01   0.11     0.00   0.14   0.01    -0.00  -0.00   0.01
   9   7    -0.00  -0.00  -0.04     0.11   0.12   0.01    -0.00   0.01  -0.13
  10   6    -0.01  -0.02   0.21    -0.02   0.17   0.02    -0.00  -0.02   0.14
  11   6    -0.00  -0.01   0.12    -0.04   0.12   0.01    -0.00  -0.01   0.10
  12   6    -0.00  -0.01   0.12    -0.00   0.04   0.01    -0.01  -0.02   0.21
  13   6     0.01   0.01  -0.05    -0.06  -0.01  -0.00    -0.00  -0.00   0.04
  14   6     0.01   0.01  -0.11    -0.14   0.03  -0.00     0.01   0.01  -0.12
  15   7     0.01  -0.00  -0.01    -0.14   0.12   0.01     0.01   0.01  -0.09
  16   6     0.01   0.02  -0.20    -0.18   0.01  -0.01     0.01   0.02  -0.20
  17   6     0.01   0.01  -0.11    -0.15  -0.01  -0.01     0.01   0.01  -0.12
  18   6     0.01   0.00  -0.04    -0.06   0.03  -0.00     0.00  -0.00   0.03
  19   6    -0.00  -0.01   0.12     0.01  -0.05  -0.00    -0.01  -0.02   0.19
  20   6    -0.00  -0.01   0.13    -0.03  -0.14  -0.01    -0.00  -0.01   0.11
  21   7     0.01   0.00  -0.01    -0.14  -0.12  -0.02     0.01   0.01  -0.08
  22   6    -0.00  -0.02   0.21    -0.02  -0.17  -0.01    -0.00  -0.01   0.15
  23   6    -0.00  -0.01   0.10     0.01  -0.13  -0.01    -0.00  -0.00   0.02
  24   7    -0.00   0.01  -0.04     0.10  -0.12  -0.01    -0.00   0.01  -0.11
  25   1     0.00  -0.01   0.05    -0.03  -0.01  -0.00    -0.00  -0.00   0.03
  26   1     0.00   0.00  -0.05     0.01   0.02   0.00     0.00   0.00  -0.04
  27   1     0.00   0.00  -0.04     0.00  -0.03  -0.00     0.00   0.00  -0.03
  28   1    -0.00  -0.01   0.05    -0.04   0.01   0.00    -0.00  -0.00   0.03
  29   1    -0.00  -0.00  -0.01     0.06   0.06   0.01    -0.00   0.00  -0.03
  30   1    -0.00  -0.01   0.09    -0.00   0.05   0.01    -0.00  -0.01   0.08
  31   1    -0.00  -0.01   0.06     0.02   0.01   0.00    -0.00  -0.01   0.11
  32   1     0.00   0.00  -0.03    -0.02  -0.02  -0.00    -0.00  -0.00   0.01
  33   1     0.00   0.01  -0.08    -0.05   0.00  -0.00     0.00   0.01  -0.07
  34   1     0.00   0.00  -0.03    -0.01   0.03   0.00     0.00  -0.00   0.01
  35   1    -0.00  -0.01   0.06     0.03  -0.01   0.00    -0.00  -0.01   0.10
  36   1     0.00   0.00  -0.00    -0.07  -0.06  -0.01     0.00   0.01  -0.04
  37   1    -0.00  -0.01   0.09    -0.01  -0.05  -0.00    -0.00  -0.01   0.08
  38   6    -0.00   0.02  -0.24     0.15   0.00   0.00    -0.00   0.00  -0.03
  39   6    -0.00   0.02  -0.18     0.15   0.02   0.00    -0.00  -0.01   0.17
  40   6    -0.00   0.01  -0.08     0.15   0.03   0.01    -0.00  -0.02   0.27
  41   6     0.00  -0.00   0.08     0.15   0.03   0.01    -0.00  -0.02   0.27
  42   6     0.00  -0.01   0.18     0.15   0.02   0.00    -0.00  -0.01   0.17
  43   6     0.00  -0.02   0.24     0.15   0.00   0.00    -0.00   0.00  -0.03
  44   6     0.00   0.01  -0.12    -0.00   0.05   0.01    -0.01  -0.01   0.21
  45   6    -0.01  -0.00   0.05    -0.06  -0.02  -0.00     0.00  -0.00   0.04
  46   6    -0.01  -0.01   0.11    -0.14   0.03  -0.01     0.01   0.01  -0.12
  47   6    -0.01  -0.01   0.20    -0.18   0.01  -0.01     0.01   0.01  -0.20
  48   6    -0.01  -0.01   0.11    -0.15  -0.01  -0.01     0.01   0.01  -0.12
  49   6    -0.00  -0.00   0.04    -0.06   0.03  -0.00    -0.00  -0.00   0.03
  50   6     0.00   0.01  -0.12     0.01  -0.05   0.00    -0.01  -0.01   0.19
  51   6     0.00   0.00  -0.13    -0.03  -0.14  -0.01    -0.00  -0.00   0.10
  52   7    -0.01  -0.00   0.01    -0.14  -0.12  -0.01     0.01   0.01  -0.09
  53   6     0.01   0.01  -0.21    -0.02  -0.17  -0.01    -0.01  -0.01   0.15
  54   6     0.00   0.00  -0.10     0.01  -0.13  -0.01    -0.00   0.00   0.02
  55   6     0.00   0.00  -0.08    -0.03  -0.05  -0.00    -0.00  -0.00   0.02
  56   6    -0.00  -0.01   0.09     0.03   0.01   0.00     0.00   0.01  -0.09
  57   6     0.00  -0.01   0.14     0.11  -0.03  -0.00    -0.00   0.01  -0.15
  58   7     0.00  -0.01   0.04     0.10  -0.12  -0.01    -0.00   0.01  -0.11
  59   6     0.00  -0.02   0.21     0.15  -0.01  -0.00    -0.00   0.01  -0.15
  60   6     0.00  -0.01   0.14     0.12   0.01   0.00     0.00   0.01  -0.15
  61   6    -0.00  -0.01   0.07     0.03  -0.03  -0.00     0.00   0.01  -0.09
  62   6    -0.00   0.01  -0.09    -0.05   0.05   0.00     0.00  -0.00   0.02
  63   6     0.00   0.01  -0.11    -0.00   0.14   0.01    -0.00  -0.00   0.01
  64   7     0.00  -0.00   0.04     0.11   0.12   0.01    -0.00   0.01  -0.13
  65   6     0.00   0.02  -0.21    -0.02   0.17   0.02    -0.00  -0.01   0.14
  66   6     0.00   0.01  -0.12    -0.04   0.12   0.01    -0.00  -0.01   0.10
  67   7    -0.01   0.00   0.01    -0.14   0.12   0.00     0.01   0.00  -0.09
  68   1     0.00   0.00  -0.06     0.02   0.01   0.00    -0.00  -0.01   0.11
  69   1    -0.00  -0.00   0.03    -0.02  -0.02  -0.00    -0.00  -0.00   0.02
  70   1    -0.01  -0.01   0.08    -0.05   0.00  -0.00     0.00   0.00  -0.07
  71   1    -0.00  -0.00   0.03    -0.01   0.03   0.00    -0.00  -0.00   0.01
  72   1     0.00   0.00  -0.06     0.03  -0.01   0.00    -0.00  -0.01   0.10
  73   1    -0.00  -0.00   0.01    -0.07  -0.06  -0.01     0.00   0.00  -0.04
  74   1     0.00   0.00  -0.09    -0.01  -0.05  -0.00    -0.00  -0.00   0.08
  75   1     0.00   0.00  -0.05    -0.03  -0.01  -0.00    -0.00  -0.00   0.03
  76   1    -0.00  -0.00   0.05     0.01   0.02   0.00     0.00   0.00  -0.04
  77   1    -0.00  -0.00   0.04     0.00  -0.03  -0.00     0.00   0.00  -0.03
  78   1    -0.00   0.00  -0.05    -0.04   0.01   0.00     0.00  -0.00   0.03
  79   1     0.00   0.00   0.01     0.06   0.06   0.01    -0.00   0.00  -0.04
  80   1     0.00   0.01  -0.09    -0.00   0.05   0.01    -0.00  -0.01   0.08
                     13                     14                     15
                        a                      a                      a 
 Frequencies --    89.8695                93.1497                94.3126
 Red. masses --    11.8952                10.8709                10.7658
 Frc consts  --     0.0000                 0.0000                 0.0000
 IR Inten    --     0.1715                 1.2122                12.0223
 Raman Activ --     0.0000                 0.0000                 0.0000
 Depolar     --     0.0000                 0.0000                 0.0000
 Atom AN      X      Y      Z        X      Y      Z        X      Y      Z
   1   6     0.04  -0.08  -0.01    -0.00  -0.01   0.12     0.01   0.02  -0.23
   2   6     0.02  -0.10  -0.00    -0.00  -0.02   0.12     0.01   0.02  -0.26
   3   6    -0.00  -0.08  -0.01     0.00   0.00  -0.04    -0.00  -0.00   0.03
   4   6    -0.01  -0.09  -0.01     0.00   0.00  -0.03    -0.00  -0.01   0.03
   5   6    -0.01  -0.09  -0.00     0.00   0.00  -0.04    -0.00  -0.01   0.03
   6   6    -0.03  -0.10  -0.00    -0.00  -0.01   0.12     0.00   0.02  -0.25
   7   6    -0.05  -0.08  -0.00    -0.00  -0.01   0.12     0.00   0.02  -0.23
   8   6    -0.04  -0.06  -0.00     0.00   0.00  -0.04    -0.00  -0.01   0.06
   9   7    -0.01  -0.08  -0.01     0.00   0.01  -0.15    -0.01  -0.02   0.22
  10   6    -0.05  -0.04  -0.01    -0.00   0.00  -0.03    -0.00  -0.01   0.09
  11   6    -0.04  -0.01  -0.01     0.00   0.00  -0.05    -0.00  -0.01   0.12
  12   6    -0.05   0.01  -0.01    -0.01  -0.01   0.11     0.00   0.01  -0.09
  13   6    -0.03   0.03   0.00    -0.01  -0.01   0.12     0.01   0.02  -0.18
  14   6    -0.01   0.02   0.00     0.00   0.00  -0.04     0.00  -0.00   0.01
  15   7    -0.01  -0.01  -0.00     0.01   0.01  -0.16    -0.01  -0.02   0.22
  16   6     0.01   0.03   0.01     0.00   0.00  -0.01     0.00   0.01  -0.07
  17   6     0.03   0.02   0.01     0.00   0.00  -0.04     0.00  -0.00   0.00
  18   6     0.04   0.03   0.01    -0.00  -0.01   0.12     0.01   0.02  -0.19
  19   6     0.05   0.02  -0.00    -0.00  -0.01   0.11     0.01   0.01  -0.10
  20   6     0.04  -0.00  -0.00     0.00   0.01  -0.05    -0.00  -0.01   0.12
  21   7     0.03   0.00   0.00     0.01   0.02  -0.16    -0.01  -0.02   0.23
  22   6     0.05  -0.02  -0.01     0.00   0.00  -0.03    -0.00  -0.01   0.11
  23   6     0.03  -0.05  -0.01     0.00   0.00  -0.05    -0.00  -0.01   0.07
  24   7     0.00  -0.06  -0.01     0.00   0.01  -0.16    -0.01  -0.02   0.23
  25   1     0.02  -0.02  -0.00    -0.00  -0.01   0.07     0.00   0.01  -0.12
  26   1     0.01  -0.03  -0.00    -0.00  -0.01   0.07     0.00   0.01  -0.14
  27   1    -0.01  -0.03  -0.00    -0.00  -0.01   0.07     0.00   0.01  -0.13
  28   1    -0.02  -0.02   0.00    -0.00  -0.01   0.07     0.00   0.01  -0.12
  29   1    -0.00  -0.02  -0.00     0.00   0.00  -0.07    -0.00  -0.01   0.10
  30   1    -0.02  -0.01  -0.00    -0.00  -0.00   0.02    -0.00  -0.00  -0.00
  31   1    -0.02   0.00  -0.00    -0.00  -0.01   0.06     0.00   0.01  -0.06
  32   1    -0.01   0.01   0.00    -0.00  -0.01   0.07     0.00   0.01  -0.10
  33   1     0.00   0.01   0.00    -0.00  -0.00   0.02     0.00   0.01  -0.07
  34   1     0.01   0.01   0.00    -0.00  -0.01   0.07     0.00   0.01  -0.11
  35   1     0.02   0.00  -0.00    -0.00  -0.01   0.06     0.00   0.01  -0.06
  36   1     0.01  -0.00  -0.00     0.00   0.01  -0.07    -0.00  -0.01   0.09
  37   1     0.02  -0.01  -0.00     0.00  -0.00   0.02     0.00  -0.00   0.00
  38   6    -0.01  -0.01  -0.00    -0.00  -0.00   0.03    -0.00  -0.00  -0.01
  39   6    -0.01   0.36   0.02    -0.00   0.01   0.05    -0.00   0.01   0.05
  40   6    -0.02   0.51   0.04    -0.00   0.01   0.04    -0.00   0.01   0.08
  41   6    -0.02   0.51   0.04    -0.00   0.01   0.01    -0.00   0.01   0.09
  42   6    -0.01   0.36   0.03    -0.00   0.01  -0.01    -0.00   0.00   0.06
  43   6    -0.01  -0.01   0.00    -0.00   0.00  -0.03    -0.00  -0.00   0.01
  44   6    -0.05   0.01   0.01     0.00   0.01  -0.14     0.00   0.00  -0.03
  45   6    -0.03   0.03   0.01     0.01   0.01  -0.19     0.00   0.01  -0.10
  46   6    -0.01   0.02  -0.00    -0.00  -0.00   0.04     0.00   0.00  -0.00
  47   6     0.01   0.03   0.00     0.00   0.00  -0.02     0.00   0.00  -0.06
  48   6     0.03   0.02  -0.00    -0.00  -0.00   0.03     0.00   0.00  -0.01
  49   6     0.04   0.03   0.01     0.01   0.01  -0.20     0.01   0.01  -0.11
  50   6     0.05   0.01   0.01     0.01   0.01  -0.15     0.00   0.00  -0.04
  51   6     0.04  -0.00  -0.00    -0.00  -0.01   0.11    -0.00  -0.01   0.09
  52   7     0.03   0.00  -0.01    -0.01  -0.02   0.26    -0.00  -0.01   0.13
  53   6     0.05  -0.02  -0.00    -0.00  -0.01   0.09    -0.00  -0.01   0.08
  54   6     0.03  -0.05  -0.01    -0.00  -0.01   0.08    -0.00  -0.00   0.05
  55   6     0.04  -0.08   0.00     0.01   0.01  -0.21     0.00   0.01  -0.15
  56   6     0.02  -0.10   0.00     0.01   0.01  -0.24     0.00   0.01  -0.17
  57   6    -0.00  -0.08  -0.01    -0.00  -0.00   0.04    -0.00  -0.00   0.01
  58   7     0.00  -0.06  -0.02    -0.01  -0.02   0.24    -0.00  -0.01   0.14
  59   6    -0.01  -0.09  -0.01    -0.00  -0.00   0.03    -0.00  -0.00   0.01
  60   6    -0.01  -0.09  -0.01    -0.00  -0.01   0.04    -0.00  -0.00   0.00
  61   6    -0.03  -0.10   0.00     0.00   0.01  -0.21     0.00   0.01  -0.16
  62   6    -0.04  -0.08   0.00     0.00   0.01  -0.20     0.00   0.01  -0.14
  63   6    -0.03  -0.06  -0.01    -0.00  -0.01   0.06    -0.00  -0.00   0.03
  64   7    -0.01  -0.07  -0.02    -0.01  -0.02   0.22    -0.00  -0.01   0.12
  65   6    -0.05  -0.04  -0.00    -0.00  -0.00   0.07    -0.00  -0.01   0.07
  66   6    -0.04  -0.01  -0.00    -0.00  -0.01   0.10    -0.00  -0.01   0.08
  67   7    -0.01  -0.01  -0.01    -0.01  -0.02   0.24    -0.00  -0.01   0.12
  68   1    -0.02   0.00   0.00     0.00   0.01  -0.08     0.00   0.00  -0.02
  69   1    -0.01   0.01   0.00     0.00   0.01  -0.11     0.00   0.00  -0.06
  70   1     0.00   0.01   0.00     0.00   0.00  -0.06     0.00   0.00  -0.05
  71   1     0.01   0.01   0.01     0.01   0.01  -0.12     0.00   0.00  -0.07
  72   1     0.02   0.00   0.01     0.00   0.01  -0.09     0.00   0.00  -0.03
  73   1     0.01  -0.00  -0.01    -0.00  -0.01   0.11    -0.00  -0.00   0.05
  74   1     0.02  -0.01   0.00     0.00   0.00  -0.01     0.00  -0.00   0.01
  75   1     0.02  -0.02   0.00     0.00   0.01  -0.11     0.00   0.00  -0.07
  76   1     0.01  -0.03   0.00     0.00   0.01  -0.13     0.00   0.01  -0.09
  77   1    -0.01  -0.03   0.00     0.00   0.01  -0.12     0.00   0.00  -0.08
  78   1    -0.02  -0.02   0.00     0.00   0.01  -0.11     0.00   0.00  -0.07
  79   1     0.00  -0.02  -0.01    -0.00  -0.01   0.10    -0.00  -0.00   0.06
  80   1    -0.02  -0.01   0.00    -0.00   0.00  -0.01    -0.00  -0.00   0.01
                     16                     17                     18
                        a                      a                      a 
 Frequencies --   108.7606               114.5231               116.0820
 Red. masses --    10.7753                10.7264                10.8310
 Frc consts  --     0.0000                 0.0000                 0.0000
 IR Inten    --     0.3158                 0.2368                 0.2731
 Raman Activ --     0.0000                 0.0000                 0.0000
 Depolar     --     0.0000                 0.0000                 0.0000
 Atom AN      X      Y      Z        X      Y      Z        X      Y      Z
   1   6     0.01   0.01  -0.16     0.00   0.00  -0.03    -0.00  -0.01   0.10
   2   6     0.00   0.01  -0.09    -0.00  -0.01   0.12    -0.01  -0.02   0.21
   3   6     0.00  -0.01   0.06    -0.00  -0.01   0.09    -0.00  -0.00   0.03
   4   6     0.00  -0.01   0.13    -0.00  -0.01   0.10    -0.00   0.00  -0.02
   5   6     0.00  -0.01   0.06    -0.00  -0.01   0.06    -0.00   0.00  -0.03
   6   6     0.01   0.01  -0.13     0.00   0.01  -0.18     0.00   0.02  -0.19
   7   6     0.00   0.02  -0.18     0.00   0.01  -0.15     0.00   0.00  -0.06
   8   6     0.00   0.00  -0.02    -0.00  -0.01   0.09    -0.00  -0.01   0.15
   9   7     0.00  -0.01   0.12    -0.00  -0.02   0.23    -0.00  -0.02   0.19
  10   6    -0.00  -0.00   0.05    -0.00  -0.01   0.13    -0.01  -0.02   0.19
  11   6    -0.00  -0.00   0.06    -0.00  -0.01   0.08    -0.00  -0.01   0.11
  12   6    -0.00  -0.02   0.19     0.00  -0.00   0.03     0.01   0.01  -0.12
  13   6    -0.00  -0.00   0.05     0.00   0.01  -0.09     0.01   0.02  -0.21
  14   6     0.00   0.01  -0.13     0.00   0.01  -0.09     0.00   0.00  -0.02
  15   7     0.00   0.01  -0.12     0.00   0.00   0.00    -0.00  -0.01   0.15
  16   6     0.00   0.02  -0.20     0.00   0.01  -0.08    -0.00  -0.00   0.04
  17   6     0.00   0.01  -0.13    -0.00   0.00  -0.04    -0.00  -0.00   0.05
  18   6    -0.00  -0.01   0.09    -0.01  -0.02   0.21    -0.01  -0.02   0.20
  19   6    -0.00  -0.02   0.21    -0.01  -0.02   0.17    -0.01  -0.01   0.07
  20   6     0.00  -0.01   0.04     0.00   0.01  -0.10     0.00   0.02  -0.14
  21   7     0.00   0.01  -0.17     0.01   0.02  -0.23     0.00   0.02  -0.15
  22   6     0.00  -0.01   0.02     0.00   0.01  -0.16     0.01   0.02  -0.21
  23   6     0.00   0.00  -0.04     0.00   0.01  -0.11     0.00   0.01  -0.13
  24   7     0.00  -0.01   0.07     0.00   0.00  -0.04     0.00   0.01  -0.16
  25   1     0.00   0.01  -0.08     0.00   0.00  -0.02    -0.00  -0.01   0.05
  26   1     0.00   0.00  -0.04    -0.00  -0.01   0.07    -0.00  -0.01   0.12
  27   1     0.00   0.00  -0.07     0.00   0.01  -0.10     0.00   0.01  -0.11
  28   1     0.00   0.01  -0.10     0.00   0.01  -0.09     0.00   0.00  -0.04
  29   1     0.00  -0.00   0.06    -0.00  -0.01   0.10    -0.00  -0.01   0.08
  30   1    -0.00  -0.00   0.02    -0.00  -0.00   0.03    -0.00  -0.00   0.05
  31   1    -0.00  -0.01   0.11    -0.00  -0.00   0.02     0.00   0.01  -0.06
  32   1    -0.00  -0.00   0.03     0.00   0.00  -0.05     0.00   0.01  -0.11
  33   1     0.00   0.01  -0.06     0.00   0.00  -0.01    -0.00  -0.00   0.02
  34   1    -0.00  -0.00   0.05    -0.00  -0.01   0.12    -0.00  -0.01   0.11
  35   1    -0.00  -0.01   0.12    -0.00  -0.01   0.10    -0.00  -0.00   0.04
  36   1     0.00   0.01  -0.08     0.00   0.01  -0.11     0.00   0.01  -0.07
  37   1    -0.00  -0.00   0.02     0.00   0.00  -0.04     0.00   0.01  -0.06
  38   6     0.00  -0.02   0.17    -0.00  -0.01   0.06    -0.00   0.00  -0.05
  39   6     0.00  -0.01   0.17    -0.00  -0.00  -0.02    -0.00   0.00  -0.06
  40   6     0.00  -0.00   0.09    -0.00   0.00  -0.06    -0.00   0.00  -0.03
  41   6    -0.00   0.01  -0.08    -0.00   0.00  -0.07     0.00  -0.00   0.03
  42   6    -0.00   0.02  -0.17    -0.00   0.00  -0.03     0.00  -0.01   0.06
  43   6    -0.00   0.01  -0.18    -0.00  -0.00   0.04     0.00  -0.00   0.06
  44   6     0.00   0.01  -0.19     0.00   0.00   0.00    -0.01  -0.01   0.12
  45   6     0.00   0.00  -0.05     0.01   0.01  -0.12    -0.01  -0.01   0.19
  46   6    -0.00  -0.01   0.13     0.00   0.01  -0.08    -0.00  -0.00   0.01
  47   6    -0.00  -0.01   0.20     0.00   0.00  -0.06     0.00   0.00  -0.04
  48   6    -0.00  -0.01   0.13    -0.00   0.00  -0.02     0.00   0.00  -0.06
  49   6     0.00   0.01  -0.10    -0.01  -0.01   0.23     0.01   0.01  -0.17
  50   6     0.01   0.02  -0.22    -0.01  -0.01   0.16     0.00   0.00  -0.05
  51   6     0.00   0.01  -0.04     0.00   0.01  -0.12    -0.00  -0.01   0.13
  52   7    -0.00  -0.01   0.18     0.01   0.02  -0.24    -0.00  -0.01   0.12
  53   6     0.00   0.00  -0.01     0.00   0.01  -0.18    -0.01  -0.01   0.19
  54   6    -0.00  -0.00   0.04     0.00   0.01  -0.12    -0.00  -0.01   0.11
  55   6    -0.00  -0.01   0.17     0.00   0.00  -0.01     0.00   0.01  -0.09
  56   6    -0.00  -0.01   0.09    -0.00  -0.01   0.14     0.01   0.02  -0.19
  57   6    -0.00   0.00  -0.07    -0.00  -0.01   0.09     0.00   0.00  -0.02
  58   7    -0.00   0.01  -0.08     0.00   0.00  -0.05    -0.00  -0.01   0.14
  59   6    -0.00   0.01  -0.14    -0.00  -0.01   0.09     0.00  -0.00   0.02
  60   6    -0.00   0.00  -0.07    -0.00  -0.00   0.05     0.00  -0.00   0.03
  61   6    -0.01  -0.01   0.15     0.00   0.01  -0.20    -0.00  -0.01   0.17
  62   6    -0.01  -0.01   0.20     0.00   0.01  -0.16    -0.00  -0.00   0.05
  63   6    -0.00  -0.00   0.01    -0.00  -0.01   0.11     0.00   0.01  -0.14
  64   7    -0.00   0.01  -0.14    -0.00  -0.02   0.26     0.00   0.01  -0.17
  65   6    -0.00  -0.00  -0.06    -0.00  -0.01   0.15     0.00   0.01  -0.17
  66   6     0.00   0.00  -0.07    -0.00  -0.00   0.09     0.00   0.01  -0.10
  67   7    -0.00  -0.01   0.11    -0.00  -0.00   0.04     0.00   0.01  -0.15
  68   1     0.00   0.01  -0.11     0.00  -0.00   0.01    -0.00  -0.00   0.06
  69   1     0.00   0.00  -0.02     0.00   0.00  -0.06    -0.00  -0.01   0.11
  70   1    -0.00  -0.00   0.06     0.00   0.00  -0.01     0.00   0.00  -0.02
  71   1     0.00   0.00  -0.06    -0.01  -0.01   0.13     0.00   0.01  -0.10
  72   1     0.00   0.01  -0.12    -0.00  -0.01   0.09     0.00   0.00  -0.03
  73   1    -0.00  -0.00   0.08     0.00   0.01  -0.11    -0.00  -0.00   0.06
  74   1     0.00   0.00  -0.02     0.00   0.00  -0.05    -0.00  -0.00   0.06
  75   1    -0.00  -0.01   0.09     0.00   0.00  -0.01     0.00   0.00  -0.05
  76   1    -0.00  -0.00   0.04    -0.00  -0.01   0.08     0.00   0.01  -0.11
  77   1    -0.00  -0.00   0.08     0.00   0.01  -0.12    -0.00  -0.01   0.10
  78   1    -0.00  -0.01   0.10     0.00   0.01  -0.09    -0.00  -0.00   0.03
  79   1    -0.00   0.00  -0.07    -0.00  -0.01   0.11     0.00   0.00  -0.07
  80   1     0.00  -0.00  -0.02    -0.00  -0.00   0.04     0.00   0.00  -0.05
                     19                     20                     21
                        a                      a                      a 
 Frequencies --   120.3006               141.8094               142.2925
 Red. masses --    11.2515                12.0250                12.0235
 Frc consts  --     0.0000                 0.0000                 0.0000
 IR Inten    --     0.0505                 0.0041                 0.4438
 Raman Activ --     0.0000                 0.0000                 0.0000
 Depolar     --     0.0000                 0.0000                 0.0000
 Atom AN      X      Y      Z        X      Y      Z        X      Y      Z
   1   6    -0.00  -0.02   0.16     0.11   0.11   0.01     0.12   0.10   0.01
   2   6    -0.00  -0.02   0.13     0.11   0.10   0.02     0.11   0.10   0.01
   3   6     0.00   0.01  -0.11     0.10   0.11   0.01     0.10   0.10   0.01
   4   6     0.00   0.01  -0.17    -0.00   0.06   0.01     0.00   0.05   0.01
   5   6     0.00   0.01  -0.15    -0.10   0.11   0.01    -0.09   0.10   0.01
   6   6     0.00   0.01  -0.08    -0.10   0.11   0.01    -0.10   0.10   0.00
   7   6    -0.00  -0.01   0.09    -0.10   0.11   0.01    -0.10   0.10   0.01
   8   6    -0.00  -0.01   0.10    -0.10   0.10   0.01    -0.10   0.10   0.01
   9   7     0.00   0.01  -0.06    -0.11   0.11   0.01    -0.11   0.11   0.01
  10   6    -0.00  -0.01   0.15    -0.06  -0.01   0.00    -0.07  -0.01  -0.00
  11   6    -0.00  -0.01   0.09    -0.11  -0.11  -0.01    -0.12  -0.11  -0.01
  12   6     0.01   0.02  -0.19    -0.11  -0.11  -0.01    -0.12  -0.11  -0.01
  13   6     0.01   0.02  -0.21    -0.11  -0.10  -0.02    -0.12  -0.10  -0.01
  14   6    -0.00  -0.01   0.07    -0.10  -0.11  -0.01    -0.11  -0.10  -0.01
  15   7    -0.01  -0.02   0.23    -0.12  -0.12  -0.01    -0.13  -0.12  -0.01
  16   6    -0.00  -0.01   0.12    -0.00  -0.06  -0.01    -0.00  -0.06  -0.01
  17   6    -0.00  -0.01   0.12     0.10  -0.10  -0.01     0.10  -0.10  -0.01
  18   6    -0.00  -0.00   0.01     0.10  -0.10  -0.00     0.11  -0.10  -0.00
  19   6     0.00   0.01  -0.10     0.10  -0.10  -0.01     0.10  -0.10  -0.01
  20   6     0.00   0.01  -0.05     0.10  -0.09  -0.01     0.11  -0.10  -0.01
  21   7    -0.00  -0.01   0.09     0.11  -0.11  -0.01     0.12  -0.11  -0.01
  22   6     0.00   0.01  -0.08     0.06   0.01   0.00     0.07   0.01   0.00
  23   6     0.00   0.00  -0.05     0.11   0.11   0.01     0.11   0.10   0.01
  24   7     0.00   0.02  -0.21     0.12   0.13   0.01     0.12   0.12   0.01
  25   1    -0.00  -0.01   0.10     0.03   0.03   0.00     0.04   0.03   0.00
  26   1    -0.00  -0.01   0.08     0.03   0.03   0.00     0.03   0.03   0.00
  27   1     0.00   0.00  -0.04    -0.03   0.03   0.00    -0.03   0.03   0.00
  28   1    -0.00  -0.00   0.05    -0.03   0.03   0.00    -0.03   0.03   0.00
  29   1     0.00   0.00  -0.02    -0.03   0.03   0.00    -0.03   0.03   0.00
  30   1    -0.00  -0.00   0.05     0.01  -0.00   0.00     0.01  -0.00   0.00
  31   1     0.00   0.01  -0.11    -0.03  -0.03  -0.00    -0.04  -0.03  -0.00
  32   1     0.00   0.01  -0.12    -0.03  -0.03  -0.00    -0.03  -0.03  -0.00
  33   1    -0.00  -0.00   0.02    -0.00   0.01   0.00    -0.00   0.01   0.00
  34   1    -0.00  -0.00   0.00     0.03  -0.03  -0.00     0.03  -0.03  -0.00
  35   1     0.00   0.01  -0.06     0.03  -0.03  -0.00     0.03  -0.03  -0.00
  36   1    -0.00  -0.00   0.04     0.03  -0.03  -0.00     0.03  -0.03  -0.00
  37   1     0.00   0.00  -0.02    -0.01   0.00  -0.00    -0.01   0.00  -0.00
  38   6     0.00   0.01  -0.10    -0.00  -0.04  -0.00     0.00  -0.03  -0.00
  39   6     0.00  -0.00   0.05    -0.00  -0.03  -0.00     0.00   0.03   0.00
  40   6     0.00  -0.01   0.13     0.00  -0.03  -0.00     0.00   0.04   0.00
  41   6     0.00  -0.01   0.14    -0.00   0.03   0.00     0.00   0.04   0.00
  42   6     0.00  -0.01   0.06    -0.00   0.03   0.00     0.00   0.03   0.00
  43   6     0.00   0.01  -0.10     0.00   0.04   0.00     0.00  -0.03  -0.00
  44   6     0.01   0.01  -0.19     0.11   0.11   0.01    -0.12  -0.11  -0.01
  45   6     0.01   0.01  -0.21     0.11   0.10   0.01    -0.12  -0.10  -0.01
  46   6    -0.00  -0.00   0.06     0.10   0.11   0.01    -0.11  -0.11  -0.01
  47   6    -0.00  -0.01   0.12     0.00   0.06   0.00    -0.00  -0.06  -0.00
  48   6    -0.00  -0.01   0.12    -0.10   0.10   0.00     0.10  -0.10  -0.00
  49   6    -0.00  -0.00   0.02    -0.10   0.10   0.00     0.11  -0.10  -0.00
  50   6     0.00   0.01  -0.09    -0.10   0.10   0.00     0.11  -0.10  -0.00
  51   6     0.00   0.01  -0.05    -0.10   0.09   0.00     0.11  -0.10  -0.00
  52   7    -0.00  -0.00   0.09    -0.11   0.11   0.01     0.12  -0.11  -0.00
  53   6     0.00   0.01  -0.08    -0.06  -0.01  -0.00     0.07   0.01   0.00
  54   6     0.00   0.00  -0.05    -0.11  -0.11  -0.01     0.11   0.10   0.01
  55   6    -0.00  -0.01   0.17    -0.11  -0.11  -0.01     0.12   0.10   0.01
  56   6    -0.00  -0.01   0.14    -0.11  -0.11  -0.01     0.11   0.10   0.01
  57   6     0.00   0.01  -0.11    -0.10  -0.11  -0.01     0.10   0.10   0.01
  58   7     0.00   0.02  -0.22    -0.11  -0.13  -0.01     0.12   0.12   0.01
  59   6     0.00   0.01  -0.17     0.00  -0.06  -0.00     0.00   0.05   0.00
  60   6     0.00   0.01  -0.15     0.10  -0.11  -0.00    -0.09   0.10   0.00
  61   6     0.00   0.01  -0.09     0.10  -0.10  -0.00    -0.10   0.10   0.00
  62   6    -0.00  -0.00   0.08     0.10  -0.11  -0.00    -0.10   0.10   0.00
  63   6    -0.00  -0.01   0.10     0.10  -0.10  -0.00    -0.10   0.10   0.00
  64   7     0.00   0.00  -0.06     0.11  -0.11  -0.00    -0.11   0.11   0.00
  65   6    -0.00  -0.01   0.16     0.06   0.01   0.00    -0.07  -0.01   0.00
  66   6    -0.00  -0.01   0.09     0.11   0.11   0.01    -0.12  -0.11  -0.01
  67   7    -0.01  -0.01   0.23     0.12   0.12   0.01    -0.13  -0.12  -0.01
  68   1     0.00   0.01  -0.11     0.03   0.03   0.00    -0.04  -0.03  -0.00
  69   1     0.00   0.01  -0.12     0.03   0.03   0.00    -0.03  -0.03  -0.00
  70   1    -0.00  -0.00   0.02     0.00  -0.01  -0.00    -0.00   0.02   0.00
  71   1    -0.00  -0.00   0.01    -0.03   0.03  -0.00     0.03  -0.03   0.00
  72   1     0.00   0.00  -0.06    -0.03   0.03   0.00     0.03  -0.03  -0.00
  73   1    -0.00  -0.00   0.04    -0.03   0.03   0.00     0.03  -0.03  -0.00
  74   1     0.00   0.00  -0.02     0.01  -0.00   0.00    -0.01   0.00  -0.00
  75   1    -0.00  -0.01   0.10    -0.03  -0.03  -0.00     0.04   0.03   0.00
  76   1    -0.00  -0.01   0.08    -0.03  -0.03  -0.00     0.03   0.03   0.00
  77   1     0.00   0.00  -0.04     0.03  -0.03  -0.00    -0.03   0.03   0.00
  78   1    -0.00  -0.00   0.05     0.03  -0.03  -0.00    -0.03   0.03   0.00
  79   1    -0.00   0.00  -0.02     0.03  -0.03  -0.00    -0.03   0.03   0.00
  80   1    -0.00  -0.00   0.05    -0.01   0.00  -0.00     0.01  -0.00   0.00
                     22                     23                     24
                        a                      a                      a 
 Frequencies --   151.4144               163.6623               180.2594
 Red. masses --    12.0176                11.6711                11.3407
 Frc consts  --     0.0000                 0.0000                 0.0000
 IR Inten    --     0.3761                 0.0099                 0.3760
 Raman Activ --     0.0000                 0.0000                 0.0000
 Depolar     --     0.0000                 0.0000                 0.0000
 Atom AN      X      Y      Z        X      Y      Z        X      Y      Z
   1   6     0.01  -0.00   0.01    -0.08   0.02  -0.00    -0.00  -0.01   0.12
   2   6     0.01  -0.00   0.03    -0.12  -0.01  -0.00     0.00   0.01  -0.14
   3   6     0.01   0.01  -0.10    -0.14  -0.00  -0.00     0.00   0.01  -0.16
   4   6     0.01   0.00  -0.04    -0.11  -0.01   0.00     0.00   0.01  -0.08
   5   6     0.01   0.01  -0.15    -0.14  -0.01  -0.00    -0.00  -0.01   0.11
   6   6     0.01   0.00  -0.05    -0.11  -0.00  -0.00    -0.00  -0.00   0.03
   7   6     0.00   0.00   0.01    -0.08  -0.04  -0.01    -0.00   0.00  -0.02
   8   6     0.01   0.01  -0.05    -0.10  -0.10  -0.01    -0.00  -0.01   0.07
   9   7     0.01   0.03  -0.23    -0.16  -0.08  -0.02    -0.00  -0.02   0.25
  10   6     0.00  -0.00   0.12    -0.08  -0.16  -0.01     0.00   0.01  -0.12
  11   6    -0.00  -0.00   0.13    -0.08  -0.16  -0.01     0.00   0.01  -0.08
  12   6     0.01   0.00   0.01    -0.14  -0.06  -0.01     0.00   0.01  -0.14
  13   6     0.01   0.01  -0.13    -0.06   0.02  -0.01    -0.01  -0.01   0.11
  14   6    -0.00   0.00  -0.01     0.04  -0.03  -0.00    -0.01  -0.02   0.17
  15   7    -0.01  -0.01   0.15     0.02  -0.15  -0.01    -0.01  -0.01   0.10
  16   6    -0.00   0.00  -0.04     0.11   0.00  -0.00    -0.00  -0.01   0.10
  17   6    -0.00  -0.01   0.04     0.06   0.02   0.00     0.01   0.01  -0.13
  18   6     0.01   0.01  -0.05    -0.05  -0.02  -0.01     0.01   0.00  -0.04
  19   6     0.01  -0.00  -0.01    -0.14   0.08   0.00     0.00  -0.00   0.02
  20   6     0.00  -0.02   0.09    -0.08   0.18   0.02     0.01   0.00  -0.06
  21   7    -0.01  -0.03   0.17     0.04   0.16   0.03     0.01   0.02  -0.28
  22   6     0.00  -0.01   0.02    -0.07   0.16   0.01    -0.00  -0.02   0.16
  23   6     0.01   0.00  -0.08    -0.11   0.07  -0.00    -0.00  -0.01   0.10
  24   7     0.01   0.01  -0.20    -0.16   0.06  -0.00     0.00   0.01  -0.07
  25   1     0.00  -0.00   0.02    -0.01   0.00  -0.00    -0.00  -0.01   0.07
  26   1     0.00  -0.00   0.03    -0.03  -0.01   0.00     0.00   0.01  -0.07
  27   1     0.00  -0.00  -0.00    -0.03   0.01   0.00     0.00   0.00  -0.01
  28   1    -0.00  -0.00   0.03    -0.01  -0.01  -0.00     0.00   0.00  -0.03
  29   1     0.01   0.01  -0.07    -0.06  -0.04  -0.01    -0.00  -0.01   0.07
  30   1    -0.00  -0.00   0.06    -0.01  -0.05  -0.00     0.00   0.01  -0.09
  31   1     0.00   0.00  -0.01    -0.07  -0.02  -0.00     0.00   0.01  -0.09
  32   1     0.00   0.01  -0.08    -0.02   0.03  -0.00    -0.00  -0.00   0.05
  33   1     0.00   0.00  -0.05     0.03   0.00  -0.00    -0.00  -0.00   0.06
  34   1     0.00   0.01  -0.04    -0.02  -0.04  -0.01     0.00  -0.00   0.00
  35   1     0.00   0.00  -0.02    -0.07   0.02  -0.00     0.00  -0.00   0.04
  36   1    -0.00  -0.01   0.06     0.05   0.08   0.01     0.00   0.01  -0.07
  37   1     0.00  -0.00   0.01    -0.00   0.04   0.00    -0.00  -0.01   0.11
  38   6     0.00  -0.02   0.21    -0.07   0.01   0.02     0.00   0.01  -0.11
  39   6     0.00  -0.03   0.35    -0.05   0.04   0.03     0.00   0.02   0.01
  40   6     0.00  -0.02   0.21    -0.01   0.03   0.02     0.00   0.01   0.08
  41   6    -0.00   0.02  -0.21     0.01  -0.03  -0.02     0.00  -0.02   0.09
  42   6    -0.00   0.03  -0.35     0.05  -0.04  -0.03     0.00  -0.03   0.02
  43   6    -0.00   0.02  -0.21     0.07  -0.01  -0.02     0.00   0.00  -0.11
  44   6    -0.01  -0.00  -0.01     0.14   0.06   0.00     0.01   0.01  -0.15
  45   6    -0.01  -0.01   0.13     0.06  -0.02   0.01    -0.00  -0.01   0.11
  46   6     0.00  -0.00   0.01    -0.04   0.03   0.00    -0.01  -0.01   0.18
  47   6     0.00  -0.00   0.05    -0.11  -0.00   0.00    -0.00  -0.01   0.10
  48   6     0.01   0.00  -0.04    -0.06  -0.02  -0.00     0.01   0.01  -0.14
  49   6    -0.00  -0.00   0.05     0.05   0.02   0.01     0.00   0.00  -0.05
  50   6    -0.01   0.00   0.01     0.14  -0.08  -0.00    -0.00  -0.00   0.02
  51   6    -0.00   0.02  -0.09     0.08  -0.18  -0.02     0.00   0.01  -0.06
  52   7     0.01   0.02  -0.17    -0.04  -0.16  -0.02     0.01   0.02  -0.30
  53   6    -0.00   0.01  -0.02     0.07  -0.16  -0.01    -0.01  -0.01   0.18
  54   6    -0.01  -0.00   0.08     0.11  -0.07   0.00    -0.01  -0.01   0.11
  55   6    -0.00   0.00  -0.01     0.08  -0.02   0.00    -0.01  -0.01   0.13
  56   6    -0.01   0.00  -0.03     0.12   0.02  -0.00     0.00   0.01  -0.15
  57   6    -0.01  -0.01   0.10     0.14   0.00   0.00     0.00   0.01  -0.17
  58   7    -0.01  -0.01   0.20     0.16  -0.06   0.01     0.00   0.01  -0.08
  59   6    -0.01  -0.00   0.04     0.11   0.01  -0.01     0.00   0.01  -0.08
  60   6    -0.01  -0.01   0.15     0.14   0.01   0.00    -0.00  -0.00   0.12
  61   6    -0.01  -0.00   0.05     0.11   0.00   0.00    -0.00   0.00   0.03
  62   6    -0.00  -0.00  -0.01     0.08   0.04   0.01     0.00   0.00  -0.02
  63   6    -0.01  -0.01   0.05     0.10   0.10   0.01    -0.00  -0.00   0.07
  64   7    -0.01  -0.02   0.24     0.16   0.08   0.02    -0.01  -0.01   0.25
  65   6    -0.00  -0.00  -0.12     0.08   0.16   0.01     0.00   0.01  -0.13
  66   6    -0.00  -0.00  -0.13     0.08   0.16   0.00     0.00   0.00  -0.08
  67   7     0.01   0.00  -0.15    -0.02   0.15   0.00    -0.00  -0.01   0.12
  68   1    -0.00  -0.00   0.01     0.07   0.02   0.00     0.00   0.01  -0.09
  69   1    -0.00  -0.00   0.08     0.02  -0.03   0.00    -0.00  -0.00   0.05
  70   1    -0.00  -0.00   0.05    -0.03  -0.00   0.00    -0.00  -0.00   0.06
  71   1    -0.00  -0.00   0.04     0.02   0.04   0.01    -0.00  -0.00   0.00
  72   1    -0.00  -0.00   0.02     0.07  -0.02   0.00    -0.00  -0.00   0.04
  73   1     0.01   0.01  -0.06    -0.05  -0.08  -0.01     0.00   0.01  -0.08
  74   1     0.00   0.00  -0.01     0.00  -0.05  -0.00    -0.00  -0.01   0.12
  75   1     0.00   0.00  -0.02     0.01  -0.00   0.00    -0.00  -0.01   0.08
  76   1    -0.00   0.00  -0.03     0.03   0.01  -0.00     0.00   0.01  -0.07
  77   1    -0.00   0.00   0.00     0.03  -0.01  -0.00     0.00   0.00  -0.01
  78   1     0.00   0.00  -0.03     0.01   0.01   0.00     0.00   0.00  -0.04
  79   1    -0.01  -0.01   0.07     0.06   0.04   0.01    -0.00  -0.00   0.07
  80   1     0.00   0.00  -0.06     0.01   0.05   0.00     0.00   0.01  -0.10
                     25                     26                     27
                        a                      a                      a 
 Frequencies --   183.1388               184.1215               194.1935
 Red. masses --    11.4938                11.9597                11.7965
 Frc consts  --     0.0000                 0.0000                 0.0000
 IR Inten    --     0.5247                 0.0108                 0.1248
 Raman Activ --     0.0000                 0.0000                 0.0000
 Depolar     --     0.0000                 0.0000                 0.0000
 Atom AN      X      Y      Z        X      Y      Z        X      Y      Z
   1   6     0.01   0.01  -0.12    -0.04   0.04  -0.00    -0.00  -0.00   0.02
   2   6     0.00  -0.02   0.12    -0.02   0.05   0.01     0.00   0.01  -0.06
   3   6    -0.00  -0.02   0.21     0.00   0.04   0.01    -0.00  -0.01   0.08
   4   6    -0.00  -0.01   0.04    -0.01   0.03   0.01     0.00   0.01  -0.11
   5   6     0.01   0.01  -0.12    -0.03   0.04  -0.00     0.00   0.01  -0.11
   6   6     0.00  -0.00  -0.06     0.00   0.05   0.00     0.00   0.01  -0.12
   7   6    -0.00  -0.01   0.05     0.03   0.03   0.00    -0.00  -0.01   0.11
   8   6    -0.00  -0.00  -0.00     0.02   0.01  -0.00    -0.00  -0.01   0.15
   9   7     0.01   0.01  -0.18    -0.02   0.02  -0.01    -0.00  -0.00   0.05
  10   6    -0.01  -0.01   0.14     0.02  -0.00   0.01    -0.00  -0.01   0.10
  11   6    -0.00   0.00   0.01     0.03   0.01   0.00     0.01   0.01  -0.13
  12   6    -0.01  -0.01   0.13     0.04   0.00   0.01     0.00   0.00  -0.03
  13   6     0.00   0.01  -0.08     0.04   0.00  -0.00     0.00  -0.00   0.03
  14   6     0.00   0.02  -0.20     0.03   0.01  -0.01     0.00   0.01  -0.09
  15   7     0.01   0.02  -0.23     0.04   0.01  -0.01     0.01   0.03  -0.28
  16   6     0.00   0.00  -0.04     0.01  -0.01  -0.00    -0.01  -0.01   0.14
  17   6    -0.00  -0.02   0.17    -0.03   0.01   0.01    -0.00  -0.01   0.10
  18   6     0.00  -0.01   0.09    -0.05   0.00   0.00    -0.01  -0.01   0.10
  19   6     0.01   0.00  -0.07    -0.06   0.02  -0.00     0.00   0.01  -0.13
  20   6     0.00  -0.00  -0.00    -0.05   0.03   0.00     0.00   0.01  -0.14
  21   7    -0.01  -0.03   0.24    -0.04   0.03   0.01     0.00   0.01  -0.06
  22   6     0.01   0.02  -0.19    -0.04   0.02  -0.01     0.00   0.01  -0.05
  23   6     0.00   0.00  -0.03    -0.03   0.02  -0.00    -0.00  -0.02   0.17
  24   7    -0.00  -0.02   0.21    -0.01   0.03   0.01    -0.01  -0.03   0.30
  25   1     0.00   0.01  -0.08    -0.01   0.01  -0.00     0.00   0.00  -0.02
  26   1    -0.00  -0.01   0.05    -0.01   0.02   0.00     0.00   0.01  -0.07
  27   1     0.00  -0.00  -0.01     0.00   0.02   0.00     0.00   0.01  -0.07
  28   1    -0.00  -0.01   0.05     0.01   0.01   0.00    -0.00  -0.00   0.05
  29   1     0.00   0.00  -0.05    -0.01  -0.00  -0.00    -0.00  -0.00   0.02
  30   1    -0.00  -0.01   0.10     0.01  -0.00   0.00    -0.00  -0.01   0.07
  31   1    -0.00  -0.01   0.09     0.01   0.00   0.01     0.00  -0.00   0.01
  32   1     0.00   0.00  -0.02     0.01   0.00  -0.00    -0.00  -0.00   0.04
  33   1     0.00   0.00  -0.02     0.00  -0.01  -0.00    -0.00  -0.01   0.10
  34   1     0.00  -0.00   0.02    -0.01  -0.00  -0.00    -0.00  -0.01   0.06
  35   1     0.00   0.01  -0.06    -0.02   0.00  -0.00     0.00   0.01  -0.06
  36   1    -0.00  -0.01   0.06    -0.01   0.01   0.00     0.00   0.00  -0.02
  37   1     0.00   0.01  -0.13    -0.01   0.01  -0.01     0.00   0.00  -0.05
  38   6    -0.00   0.01  -0.02    -0.00  -0.09  -0.01     0.00   0.02  -0.19
  39   6    -0.00   0.06  -0.09     0.01  -0.54  -0.05     0.00  -0.02   0.02
  40   6    -0.00   0.04  -0.07     0.01  -0.39  -0.04     0.00  -0.02   0.13
  41   6     0.00  -0.04   0.06    -0.01   0.39   0.03     0.00   0.00   0.13
  42   6     0.00  -0.06   0.09    -0.01   0.54   0.05     0.00   0.01   0.02
  43   6     0.00  -0.01   0.03     0.00   0.09   0.01     0.00   0.02  -0.19
  44   6     0.01   0.01  -0.12    -0.03  -0.00  -0.02     0.00   0.00  -0.03
  45   6     0.00  -0.00   0.07    -0.04  -0.00   0.01    -0.00  -0.00   0.02
  46   6    -0.00  -0.01   0.19    -0.03  -0.01   0.03     0.00   0.01  -0.09
  47   6    -0.00  -0.00   0.03    -0.01   0.01   0.01    -0.01  -0.01   0.14
  48   6     0.00   0.01  -0.16     0.03  -0.01  -0.03    -0.00  -0.01   0.10
  49   6    -0.00   0.01  -0.09     0.05  -0.00  -0.01    -0.00  -0.01   0.10
  50   6    -0.01  -0.00   0.06     0.06  -0.02   0.01     0.01   0.01  -0.13
  51   6    -0.00   0.00   0.01     0.05  -0.03   0.00     0.01   0.01  -0.14
  52   7     0.01   0.02  -0.22     0.04  -0.03  -0.04     0.00   0.00  -0.06
  53   6    -0.01  -0.01   0.18     0.04  -0.02   0.03     0.00   0.00  -0.05
  54   6    -0.00   0.00   0.03     0.03  -0.02   0.00    -0.00  -0.01   0.17
  55   6    -0.01  -0.00   0.11     0.04  -0.04   0.01     0.00  -0.00   0.02
  56   6    -0.00   0.01  -0.11     0.02  -0.05  -0.02     0.00   0.00  -0.07
  57   6     0.00   0.02  -0.20    -0.00  -0.03  -0.03    -0.00  -0.01   0.08
  58   7     0.00   0.02  -0.20     0.01  -0.02  -0.03    -0.01  -0.02   0.30
  59   6     0.00   0.01  -0.03     0.01  -0.03  -0.01     0.00   0.01  -0.11
  60   6    -0.01  -0.00   0.11     0.03  -0.04   0.01     0.00   0.01  -0.11
  61   6    -0.00   0.00   0.06    -0.00  -0.05   0.01     0.00   0.01  -0.12
  62   6     0.00   0.01  -0.05    -0.03  -0.03  -0.01    -0.00  -0.01   0.11
  63   6     0.00   0.00  -0.00    -0.01  -0.01  -0.00    -0.00  -0.01   0.15
  64   7    -0.01  -0.01   0.16     0.02  -0.02   0.02    -0.00  -0.00   0.04
  65   6     0.01   0.01  -0.13    -0.02   0.01  -0.02    -0.00  -0.01   0.10
  66   6     0.00  -0.00  -0.00    -0.03  -0.01  -0.00     0.00   0.01  -0.13
  67   7    -0.00  -0.01   0.23    -0.04  -0.01   0.04     0.01   0.02  -0.28
  68   1     0.00   0.01  -0.09    -0.01  -0.00  -0.01    -0.00  -0.00   0.01
  69   1     0.00  -0.00   0.02    -0.01  -0.00   0.00    -0.00  -0.00   0.04
  70   1    -0.00  -0.00   0.01    -0.00   0.01   0.00    -0.00  -0.01   0.10
  71   1    -0.00   0.00  -0.02     0.01   0.00  -0.00    -0.00  -0.00   0.06
  72   1    -0.00  -0.00   0.06     0.02  -0.01   0.01     0.00   0.00  -0.06
  73   1     0.00   0.01  -0.06     0.01  -0.01  -0.01     0.00   0.00  -0.02
  74   1    -0.00  -0.01   0.12     0.01  -0.01   0.02     0.00   0.00  -0.05
  75   1    -0.00  -0.00   0.08     0.01  -0.01   0.01     0.00   0.00  -0.02
  76   1     0.00   0.00  -0.04     0.01  -0.02  -0.01     0.00   0.00  -0.07
  77   1    -0.00   0.00   0.01    -0.00  -0.02   0.00     0.00   0.00  -0.07
  78   1     0.00   0.00  -0.04    -0.01  -0.01  -0.01    -0.00  -0.00   0.05
  79   1    -0.00  -0.00   0.04     0.01   0.00   0.01    -0.00  -0.00   0.02
  80   1     0.00   0.01  -0.10    -0.01   0.00  -0.01    -0.00  -0.00   0.07
                     28                     29                     30
                        a                      a                      a 
 Frequencies --   201.9526               202.6119               209.4160
 Red. masses --    12.3613                12.4741                11.3948
 Frc consts  --     0.0000                 0.0000                 0.0000
 IR Inten    --     1.1521                24.2797                 0.0366
 Raman Activ --     0.0000                 0.0000                 0.0000
 Depolar     --     0.0000                 0.0000                 0.0000
 Atom AN      X      Y      Z        X      Y      Z        X      Y      Z
   1   6     0.00  -0.00   0.03     0.00   0.01  -0.07    -0.00  -0.01   0.09
   2   6    -0.00  -0.01   0.09     0.00   0.01  -0.07     0.00   0.01  -0.12
   3   6     0.00   0.01  -0.10    -0.00  -0.01   0.14     0.00   0.01  -0.09
   4   6     0.00  -0.00   0.02    -0.00  -0.00   0.02     0.00   0.01  -0.12
   5   6    -0.00  -0.01   0.13     0.00   0.01  -0.12     0.00   0.01  -0.09
   6   6     0.00  -0.00   0.00    -0.00  -0.00   0.06     0.00   0.01  -0.16
   7   6     0.00   0.01  -0.07    -0.00  -0.00   0.05    -0.00  -0.01   0.07
   8   6    -0.00  -0.00   0.04     0.00   0.01  -0.12    -0.01  -0.02   0.19
   9   7    -0.00  -0.02   0.23     0.01   0.03  -0.34    -0.00  -0.01   0.14
  10   6     0.00   0.01  -0.06    -0.00  -0.00   0.04    -0.00  -0.01   0.10
  11   6     0.00   0.01  -0.06    -0.00  -0.01   0.14     0.01   0.01  -0.16
  12   6    -0.00  -0.01   0.07     0.00   0.01  -0.07     0.00   0.00  -0.06
  13   6    -0.00  -0.01   0.06     0.00   0.01  -0.09    -0.00  -0.01   0.06
  14   6     0.00   0.01  -0.08    -0.00  -0.01   0.12     0.00   0.00  -0.05
  15   7     0.00   0.01  -0.15    -0.01  -0.03   0.30     0.01   0.02  -0.28
  16   6     0.00   0.01  -0.07    -0.00  -0.00   0.02    -0.01  -0.02   0.17
  17   6    -0.00  -0.01   0.06     0.00   0.01  -0.10    -0.00  -0.01   0.09
  18   6     0.00   0.01  -0.07    -0.00  -0.01   0.07    -0.00  -0.00   0.03
  19   6     0.00  -0.00  -0.00    -0.00  -0.00   0.06     0.01   0.01  -0.13
  20   6    -0.00  -0.01   0.13     0.00   0.01  -0.12     0.00   0.01  -0.09
  21   7    -0.01  -0.03   0.27     0.01   0.03  -0.32     0.00   0.00  -0.03
  22   6     0.00   0.00  -0.01     0.00  -0.00   0.00    -0.00  -0.00   0.06
  23   6     0.01   0.02  -0.15    -0.00  -0.01   0.13    -0.00  -0.01   0.13
  24   7     0.01   0.03  -0.29    -0.01  -0.03   0.30    -0.00  -0.01   0.06
  25   1    -0.00  -0.00   0.05     0.00   0.01  -0.07    -0.00  -0.00   0.04
  26   1    -0.00  -0.01   0.08     0.00   0.01  -0.07     0.00   0.01  -0.07
  27   1     0.00   0.00  -0.02    -0.00  -0.01   0.06     0.00   0.01  -0.10
  28   1     0.00   0.01  -0.06    -0.00  -0.01   0.06    -0.00  -0.00   0.03
  29   1    -0.00  -0.00   0.05     0.00   0.01  -0.08    -0.00  -0.00   0.04
  30   1     0.00   0.00  -0.03    -0.00  -0.00   0.02    -0.00  -0.01   0.06
  31   1    -0.00  -0.00   0.05     0.00   0.01  -0.06    -0.00   0.00  -0.00
  32   1    -0.00  -0.00   0.04     0.00   0.01  -0.08    -0.00  -0.01   0.06
  33   1     0.00   0.00  -0.04    -0.00  -0.00   0.01    -0.00  -0.01   0.11
  34   1     0.00   0.01  -0.07    -0.00  -0.01   0.07    -0.00  -0.00   0.02
  35   1     0.00   0.00  -0.03    -0.00  -0.01   0.06     0.00   0.01  -0.07
  36   1    -0.00  -0.01   0.06     0.00   0.01  -0.07     0.00   0.00  -0.01
  37   1    -0.00   0.00  -0.00     0.00  -0.00  -0.00    -0.00  -0.00   0.02
  38   6     0.00  -0.00   0.01    -0.00  -0.00   0.04     0.00   0.00  -0.02
  39   6     0.00   0.01  -0.05    -0.00   0.00   0.00     0.00  -0.02   0.24
  40   6    -0.00   0.01  -0.04    -0.00   0.00  -0.02     0.00  -0.01   0.19
  41   6    -0.00  -0.00   0.03    -0.00   0.00  -0.03    -0.00   0.01  -0.19
  42   6    -0.00  -0.01   0.05    -0.00  -0.00  -0.01    -0.00   0.02  -0.24
  43   6    -0.00   0.00   0.00    -0.00  -0.00   0.04    -0.00  -0.00   0.02
  44   6     0.00   0.00  -0.08     0.00   0.00  -0.05    -0.00  -0.00   0.06
  45   6     0.00   0.01  -0.08     0.00   0.01  -0.08     0.00   0.00  -0.06
  46   6    -0.00  -0.01   0.10    -0.00  -0.01   0.10    -0.00  -0.00   0.06
  47   6    -0.00  -0.00   0.07    -0.00   0.00   0.00     0.01   0.01  -0.17
  48   6     0.00   0.01  -0.08     0.00   0.01  -0.08     0.00   0.01  -0.09
  49   6    -0.00  -0.00   0.09    -0.00  -0.00   0.05     0.00   0.00  -0.03
  50   6    -0.00   0.00   0.02    -0.00  -0.00   0.05    -0.00  -0.01   0.13
  51   6     0.01   0.01  -0.15     0.00   0.01  -0.09    -0.00  -0.01   0.09
  52   7     0.01   0.02  -0.33     0.01   0.02  -0.24    -0.00  -0.00   0.03
  53   6    -0.00  -0.00   0.01    -0.00  -0.00  -0.00     0.00   0.00  -0.06
  54   6    -0.01  -0.01   0.18    -0.00  -0.01   0.09     0.00   0.01  -0.13
  55   6    -0.00   0.00  -0.05     0.00   0.00  -0.06     0.00   0.01  -0.09
  56   6     0.00   0.01  -0.10     0.00   0.00  -0.05    -0.00  -0.01   0.12
  57   6    -0.00  -0.01   0.13    -0.00  -0.01   0.11    -0.00  -0.01   0.09
  58   7    -0.01  -0.03   0.35    -0.01  -0.02   0.23     0.00   0.00  -0.06
  59   6    -0.00   0.00  -0.01    -0.00  -0.00   0.03    -0.00  -0.01   0.12
  60   6     0.00   0.01  -0.15     0.00   0.01  -0.09     0.00  -0.01   0.08
  61   6    -0.00   0.00   0.01    -0.00  -0.00   0.05    -0.00  -0.01   0.16
  62   6    -0.00  -0.00   0.08     0.00  -0.00   0.04     0.00   0.00  -0.07
  63   6     0.00   0.00  -0.06     0.00   0.01  -0.11     0.01   0.01  -0.19
  64   7     0.01   0.02  -0.31     0.01   0.02  -0.28     0.01   0.01  -0.15
  65   6    -0.00  -0.01   0.07    -0.00  -0.00   0.02     0.00   0.01  -0.10
  66   6    -0.00  -0.01   0.10    -0.00  -0.01   0.13    -0.01  -0.01   0.16
  67   7    -0.01  -0.01   0.22    -0.01  -0.01   0.25    -0.01  -0.02   0.28
  68   1     0.00   0.00  -0.07     0.00   0.00  -0.05    -0.00  -0.00   0.00
  69   1     0.00   0.00  -0.06     0.00   0.00  -0.07     0.00   0.00  -0.06
  70   1    -0.00  -0.00   0.04     0.00  -0.00  -0.00     0.00   0.01  -0.11
  71   1    -0.00  -0.00   0.08    -0.00  -0.00   0.05     0.00   0.00  -0.02
  72   1    -0.00  -0.00   0.04    -0.00  -0.00   0.05    -0.00  -0.00   0.07
  73   1     0.00   0.01  -0.08     0.00   0.00  -0.05    -0.00  -0.00   0.01
  74   1     0.00  -0.00  -0.00     0.00  -0.00  -0.00     0.00   0.00  -0.02
  75   1     0.00   0.00  -0.06     0.00   0.00  -0.06     0.00   0.00  -0.04
  76   1     0.00   0.01  -0.09     0.00   0.00  -0.05    -0.00  -0.01   0.07
  77   1    -0.00  -0.00   0.03    -0.00  -0.00   0.05    -0.00  -0.01   0.10
  78   1    -0.00  -0.00   0.07    -0.00  -0.00   0.05     0.00   0.00  -0.03
  79   1     0.00   0.00  -0.07     0.00   0.00  -0.06     0.00   0.00  -0.05
  80   1    -0.00  -0.00   0.04    -0.00  -0.00   0.01     0.00   0.00  -0.06
                     31                     32                     33
                        a                      a                      a 
 Frequencies --   254.3668               265.3156               265.4142
 Red. masses --    11.3270                10.4602                10.4653
 Frc consts  --     0.0000                 0.0000                 0.0000
 IR Inten    --     0.6620                 0.0200                 1.0253
 Raman Activ --     0.0000                 0.0000                 0.0000
 Depolar     --     0.0000                 0.0000                 0.0000
 Atom AN      X      Y      Z        X      Y      Z        X      Y      Z
   1   6     0.09   0.07   0.01     0.00   0.02  -0.18     0.01   0.02  -0.20
   2   6     0.08   0.06   0.00    -0.00  -0.02   0.17    -0.00  -0.02   0.19
   3   6     0.04   0.07   0.00    -0.00  -0.01   0.15    -0.00  -0.02   0.17
   4   6    -0.11   0.00  -0.00    -0.00  -0.00  -0.00    -0.00   0.00  -0.01
   5   6    -0.12   0.02  -0.00     0.00   0.01  -0.16     0.00   0.01  -0.17
   6   6    -0.00   0.07   0.01     0.00   0.01  -0.15     0.00   0.01  -0.15
   7   6     0.10  -0.04  -0.00    -0.00  -0.01   0.16    -0.00  -0.02   0.17
   8   6     0.04  -0.13  -0.01    -0.00  -0.01   0.15    -0.00  -0.02   0.16
   9   7    -0.10  -0.11  -0.01    -0.00  -0.00  -0.01    -0.00  -0.00  -0.00
  10   6     0.01  -0.03  -0.00     0.00  -0.00   0.01     0.00  -0.00  -0.01
  11   6     0.09   0.12   0.01     0.01   0.01  -0.14     0.01   0.01  -0.15
  12   6     0.13   0.10   0.01     0.01   0.02  -0.17     0.01   0.02  -0.18
  13   6     0.09   0.06   0.01    -0.00  -0.01   0.17    -0.01  -0.02   0.19
  14   6     0.03   0.07   0.01    -0.00  -0.01   0.14    -0.00  -0.01   0.15
  15   7     0.06   0.14   0.01     0.00   0.00  -0.00     0.00  -0.00   0.01
  16   6    -0.11  -0.00  -0.00    -0.00   0.00  -0.00     0.00   0.00  -0.02
  17   6    -0.14   0.00  -0.00     0.00   0.01  -0.15     0.00   0.02  -0.17
  18   6     0.00   0.06   0.01     0.00   0.01  -0.15     0.00   0.02  -0.16
  19   6     0.12  -0.08  -0.00    -0.01  -0.01   0.15    -0.01  -0.02   0.17
  20   6     0.05  -0.21  -0.02    -0.01  -0.02   0.15    -0.01  -0.02   0.16
  21   7    -0.12  -0.18  -0.02    -0.00  -0.00  -0.01    -0.00  -0.00   0.00
  22   6     0.00  -0.10  -0.01    -0.00  -0.00   0.01    -0.00  -0.00  -0.00
  23   6     0.08   0.06   0.01     0.00   0.01  -0.14     0.00   0.02  -0.15
  24   7     0.07   0.08   0.00     0.00  -0.00   0.01     0.00  -0.00   0.02
  25   1     0.03   0.02   0.00     0.00   0.01  -0.10     0.00   0.01  -0.11
  26   1     0.02   0.01   0.00    -0.00  -0.01   0.09    -0.00  -0.01   0.10
  27   1     0.00   0.05   0.00     0.00   0.01  -0.08     0.00   0.01  -0.08
  28   1     0.06  -0.01   0.00    -0.00  -0.01   0.09    -0.00  -0.01   0.09
  29   1    -0.06  -0.06  -0.01    -0.00  -0.00  -0.00    -0.00  -0.00  -0.00
  30   1    -0.04  -0.01  -0.00    -0.00  -0.00   0.01    -0.00   0.00  -0.00
  31   1     0.05   0.03   0.00     0.00   0.01  -0.09     0.00   0.01  -0.10
  32   1     0.03   0.00   0.00    -0.00  -0.01   0.09    -0.00  -0.01   0.10
  33   1    -0.03  -0.03  -0.00    -0.00  -0.00   0.00     0.00   0.00  -0.01
  34   1     0.01   0.06   0.01     0.00   0.01  -0.08     0.00   0.01  -0.09
  35   1     0.08  -0.02  -0.00    -0.00  -0.01   0.08    -0.00  -0.01   0.09
  36   1    -0.08  -0.09  -0.01    -0.00  -0.00   0.00    -0.00  -0.00   0.00
  37   1    -0.04  -0.03  -0.00    -0.00  -0.00   0.00    -0.00   0.00  -0.01
  38   6    -0.12  -0.11  -0.01    -0.00   0.00  -0.00     0.00   0.00  -0.05
  39   6    -0.13   0.01   0.00    -0.00  -0.00   0.01     0.00  -0.00  -0.00
  40   6    -0.14   0.02   0.00    -0.00  -0.00   0.01     0.00  -0.00   0.02
  41   6    -0.14   0.02   0.00    -0.00   0.00  -0.01     0.00  -0.00   0.02
  42   6    -0.13   0.01  -0.00     0.00   0.00  -0.01     0.00   0.00  -0.00
  43   6    -0.12  -0.11  -0.01     0.00  -0.00   0.01     0.00   0.00  -0.05
  44   6     0.13   0.10   0.01    -0.01  -0.01   0.19     0.01   0.01  -0.17
  45   6     0.09   0.06   0.01     0.01   0.01  -0.19    -0.01  -0.01   0.17
  46   6     0.03   0.07   0.01     0.00   0.01  -0.15    -0.00  -0.01   0.14
  47   6    -0.11  -0.00  -0.00     0.00  -0.00   0.00     0.00   0.00  -0.02
  48   6    -0.14   0.00  -0.00    -0.00  -0.01   0.16     0.00   0.01  -0.15
[...]
   2   6    -0.25  -0.01  -0.01    -0.01  -0.00  -0.00     0.01   0.00   0.00
   3   6    -0.00   0.01   0.00    -0.00   0.00   0.00     0.00  -0.00  -0.00
   4   6    -0.00  -0.00  -0.00    -0.00  -0.00  -0.00    -0.00   0.00   0.00
   5   6    -0.00  -0.00   0.00    -0.00  -0.00  -0.00    -0.00   0.00   0.00
   6   6     0.00  -0.00   0.00    -0.01   0.00  -0.00     0.00  -0.00   0.00
   7   6     0.00  -0.01  -0.00    -0.00   0.00   0.00     0.00  -0.00  -0.00
   8   6    -0.00  -0.00  -0.00     0.00  -0.00  -0.00    -0.00   0.00   0.00
   9   7    -0.00   0.00   0.00    -0.00   0.00  -0.00     0.00  -0.00   0.00
  10   6     0.00   0.00   0.00     0.00   0.00   0.00    -0.00  -0.00  -0.00
  11   6    -0.00  -0.00  -0.00    -0.00   0.00   0.00     0.00  -0.00  -0.00
  12   6     0.00  -0.00  -0.00     0.00   0.00   0.00    -0.00  -0.01  -0.00
  13   6    -0.00   0.00  -0.00     0.00   0.00   0.00    -0.01  -0.00  -0.00
  14   6    -0.00  -0.00  -0.00     0.00  -0.00   0.00    -0.00   0.00  -0.00
  15   7     0.00  -0.00   0.00    -0.00  -0.00  -0.00     0.00   0.00   0.00
  16   6     0.00   0.00  -0.00     0.00  -0.00   0.00    -0.00   0.00  -0.00
  17   6    -0.00  -0.00  -0.00     0.00   0.01   0.00    -0.00  -0.01  -0.00
  18   6    -0.01   0.00  -0.00     0.15  -0.02   0.00    -0.15   0.02  -0.00
  19   6     0.00   0.00   0.00     0.01  -0.14  -0.01    -0.01   0.14   0.01
  20   6     0.00  -0.00   0.00    -0.01  -0.00  -0.00     0.01   0.00   0.00
  21   7     0.00   0.00   0.00    -0.00   0.00   0.00     0.00  -0.00  -0.00
  22   6    -0.00  -0.00  -0.00     0.00  -0.00  -0.00    -0.00   0.00   0.00
  23   6     0.01  -0.00  -0.00     0.00   0.00   0.00    -0.00  -0.00  -0.00
  24   7     0.00   0.00   0.00     0.00   0.00   0.00    -0.00  -0.00  -0.00
  25   1     0.05   0.49   0.05     0.00   0.02   0.00    -0.00  -0.02  -0.00
  26   1     0.81   0.08   0.03     0.02   0.00   0.00    -0.02  -0.00  -0.00
  27   1    -0.01   0.00  -0.00     0.02  -0.00   0.00    -0.02   0.00  -0.00
  28   1    -0.00   0.03   0.00     0.00  -0.01  -0.00    -0.00   0.01   0.00
  29   1     0.00  -0.00   0.00     0.00  -0.00  -0.00    -0.00   0.00   0.00
  30   1     0.00  -0.00  -0.00     0.00  -0.00  -0.00    -0.00   0.00   0.00
  31   1     0.00   0.00   0.00    -0.00  -0.01  -0.00     0.00   0.02   0.00
  32   1     0.00   0.00   0.00    -0.02  -0.00  -0.00     0.02   0.00   0.00
  33   1    -0.00   0.00  -0.00    -0.01  -0.00  -0.00     0.01   0.00   0.00
  34   1     0.04  -0.01   0.00    -0.50   0.09  -0.01     0.49  -0.09   0.01
  35   1     0.00  -0.01  -0.00    -0.04   0.45   0.04     0.04  -0.45  -0.04
  36   1    -0.00   0.00   0.00    -0.00   0.00   0.00     0.00  -0.00  -0.00
  37   1    -0.00   0.01   0.00     0.00   0.01   0.00    -0.00  -0.01  -0.00
  38   6     0.00  -0.00  -0.00     0.00  -0.00   0.00    -0.00   0.00  -0.00
  39   6    -0.00   0.00   0.00    -0.00   0.00   0.00     0.00  -0.00  -0.00
  40   6     0.00   0.00   0.00     0.00  -0.00   0.00     0.00  -0.00  -0.00
  41   6    -0.00  -0.00  -0.00     0.00   0.00   0.00    -0.00   0.00   0.00
  42   6    -0.00  -0.00  -0.00    -0.00   0.00   0.00    -0.00   0.00   0.00
  43   6     0.00  -0.00  -0.00     0.00  -0.00   0.00     0.00  -0.00   0.00
  44   6    -0.00  -0.00  -0.00     0.00   0.00   0.00     0.00   0.01   0.00
  45   6    -0.00  -0.00  -0.00     0.00   0.00   0.00     0.01   0.00   0.00
  46   6    -0.00   0.00   0.00     0.00  -0.00   0.00     0.00  -0.00   0.00
  47   6     0.00  -0.00   0.00     0.00  -0.00   0.00     0.00  -0.00   0.00
  48   6    -0.00   0.00   0.00     0.00   0.01   0.00     0.00   0.01   0.00
  49   6     0.00  -0.00   0.00     0.15  -0.02   0.00     0.15  -0.02   0.00
  50   6    -0.00  -0.00  -0.00     0.01  -0.14  -0.01     0.01  -0.14  -0.01
  51   6    -0.00  -0.00  -0.00    -0.01  -0.00  -0.00    -0.01  -0.00  -0.00
  52   7     0.00  -0.00   0.00    -0.00   0.00   0.00    -0.00   0.00   0.00
  53   6     0.00   0.00   0.00     0.00  -0.00  -0.00     0.00  -0.00  -0.00
  54   6    -0.00   0.00  -0.00     0.00   0.00   0.00     0.00   0.00   0.00
  55   6     0.00   0.00   0.00    -0.00  -0.01  -0.00    -0.00  -0.01  -0.00
  56   6     0.01   0.00   0.00    -0.01  -0.00  -0.00    -0.01  -0.00  -0.00
  57   6     0.00  -0.00  -0.00    -0.00   0.00   0.00    -0.00   0.00   0.00
  58   7    -0.00  -0.00  -0.00     0.00   0.00   0.00     0.00   0.00   0.00
  59   6    -0.00   0.00   0.00    -0.00  -0.00  -0.00     0.00  -0.00  -0.00
  60   6    -0.00  -0.00  -0.00    -0.00  -0.00  -0.00     0.00  -0.00  -0.00
  61   6    -0.00   0.00  -0.00    -0.01   0.00  -0.00    -0.00   0.00  -0.00
  62   6    -0.00   0.00   0.00    -0.00   0.00   0.00    -0.00   0.00   0.00
  63   6     0.00  -0.00  -0.00     0.00  -0.00  -0.00     0.00  -0.00  -0.00
  64   7     0.00   0.00   0.00    -0.00   0.00  -0.00    -0.00   0.00  -0.00
  65   6     0.00  -0.00   0.00     0.00  -0.00   0.00     0.00   0.00   0.00
  66   6    -0.00   0.00   0.00    -0.00   0.00   0.00    -0.00   0.00   0.00
  67   7     0.00   0.00   0.00    -0.00  -0.00  -0.00    -0.00  -0.00  -0.00
  68   1     0.00   0.00   0.00    -0.00  -0.01  -0.00    -0.00  -0.02  -0.00
  69   1     0.00   0.00   0.00    -0.02  -0.00  -0.00    -0.02  -0.00  -0.00
  70   1    -0.00  -0.00  -0.00    -0.01  -0.00  -0.00    -0.01  -0.00  -0.00
  71   1    -0.00   0.00  -0.00    -0.49   0.09  -0.01    -0.50   0.09  -0.01
  72   1    -0.00   0.00   0.00    -0.04   0.45   0.03    -0.04   0.45   0.03
  73   1    -0.00   0.00   0.00    -0.00   0.00   0.00    -0.00   0.00   0.00
  74   1     0.00  -0.00  -0.00     0.00   0.01   0.00     0.00   0.01   0.00
  75   1    -0.00  -0.01  -0.00     0.00   0.02   0.00     0.00   0.02   0.00
  76   1    -0.03  -0.00  -0.00     0.02   0.00   0.00     0.02   0.00   0.00
  77   1     0.01  -0.00   0.00     0.02  -0.00   0.00     0.02  -0.00   0.00
  78   1     0.00  -0.01  -0.00     0.00  -0.01  -0.00     0.00  -0.01  -0.00
  79   1    -0.00   0.00   0.00     0.00  -0.00  -0.00     0.00  -0.00  -0.00
  80   1    -0.00   0.00   0.00     0.00  -0.00  -0.00     0.00  -0.00  -0.00
                    229                    230                    231
                        a                      a                      a 
 Frequencies --  3172.0195              3172.1164              3347.5019
 Red. masses --     1.9582                 1.9581                 1.8928
 Frc consts  --     0.0000                 0.0000                 0.0000
 IR Inten    --     2.2455                73.7591                12.8098
 Raman Activ --     0.0000                 0.0000                 0.0000
 Depolar     --     0.0000                 0.0000                 0.0000
 Atom AN      X      Y      Z        X      Y      Z        X      Y      Z
   1   6    -0.00  -0.00  -0.00     0.00  -0.00  -0.00    -0.00   0.00  -0.00
   2   6    -0.01  -0.00  -0.00    -0.00  -0.00  -0.00    -0.00  -0.00  -0.00
   3   6    -0.00   0.00   0.00    -0.00   0.00  -0.00     0.00  -0.00  -0.00
   4   6    -0.00   0.00   0.00    -0.00   0.00   0.00     0.00   0.00   0.00
   5   6    -0.00  -0.01  -0.00    -0.00  -0.00  -0.00    -0.00   0.00   0.00
   6   6    -0.18   0.03  -0.00    -0.13   0.02  -0.00     0.00  -0.00  -0.00
   7   6    -0.01   0.15   0.01    -0.00   0.11   0.01     0.00  -0.00  -0.00
   8   6     0.01   0.00   0.00     0.00   0.00   0.00    -0.00   0.00  -0.00
   9   7     0.00  -0.00  -0.00     0.00  -0.00  -0.00    -0.17   0.19   0.01
  10   6    -0.00   0.00   0.00    -0.00   0.00   0.00    -0.00   0.00   0.00
  11   6    -0.00   0.00  -0.00    -0.00   0.00  -0.00     0.00  -0.00  -0.00
  12   6     0.00   0.00   0.00     0.00   0.00   0.00     0.00   0.00   0.00
  13   6     0.00   0.00   0.00     0.00  -0.00   0.00     0.00   0.00   0.00
  14   6     0.00  -0.00  -0.00     0.00  -0.00  -0.00     0.00  -0.00  -0.00
  15   7    -0.00  -0.00  -0.00    -0.00  -0.00  -0.00     0.00   0.00   0.00
  16   6    -0.00   0.00   0.00     0.00   0.00   0.00    -0.00   0.00   0.00
  17   6    -0.00  -0.00  -0.00    -0.00  -0.00  -0.00    -0.00   0.00  -0.00
  18   6    -0.01   0.00  -0.00    -0.01   0.00  -0.00     0.00  -0.00  -0.00
  19   6    -0.00   0.01   0.00    -0.00   0.01   0.00     0.00  -0.00  -0.00
  20   6     0.00   0.00   0.00     0.00   0.00   0.00    -0.00   0.00   0.00
  21   7     0.00  -0.00  -0.00     0.00  -0.00  -0.00    -0.04   0.04   0.00
  22   6    -0.00  -0.00  -0.00     0.00   0.00   0.00    -0.00   0.00   0.00
  23   6     0.00  -0.00  -0.00     0.00  -0.00  -0.00     0.00   0.00   0.00
  24   7     0.00   0.00   0.00     0.00   0.00   0.00    -0.00  -0.00  -0.00
  25   1     0.00   0.01   0.00     0.00   0.01   0.00    -0.00  -0.00  -0.00
  26   1     0.02   0.00   0.00     0.01   0.00   0.00    -0.00  -0.00  -0.00
  27   1     0.60  -0.11   0.00     0.43  -0.08   0.00     0.00  -0.00  -0.00
  28   1     0.04  -0.48  -0.04     0.03  -0.34  -0.03     0.00  -0.00  -0.00
  29   1     0.00  -0.00  -0.00     0.00  -0.00  -0.00     0.63  -0.70  -0.05
  30   1    -0.00  -0.01  -0.00    -0.00  -0.01  -0.00    -0.00  -0.00  -0.00
  31   1    -0.00  -0.01  -0.00    -0.00  -0.01  -0.00    -0.00  -0.00  -0.00
  32   1    -0.01  -0.00  -0.00    -0.01  -0.00  -0.00    -0.00   0.00   0.00
  33   1    -0.00   0.00   0.00    -0.00   0.00   0.00     0.00   0.00   0.00
  34   1     0.02  -0.00   0.00     0.02  -0.00   0.00     0.00  -0.00  -0.00
  35   1     0.00  -0.02  -0.00     0.00  -0.02  -0.00     0.00  -0.00  -0.00
  36   1    -0.00   0.00  -0.00    -0.00   0.00   0.00     0.14  -0.16  -0.01
  37   1    -0.00   0.00   0.00    -0.00  -0.00  -0.00    -0.00  -0.00  -0.00
  38   6    -0.00   0.00   0.00    -0.00   0.00   0.00    -0.00   0.00   0.00
  39   6    -0.00  -0.00  -0.00     0.00  -0.00  -0.00     0.00  -0.00  -0.00
  40   6     0.00  -0.00  -0.00    -0.00  -0.00  -0.00    -0.00  -0.00  -0.00
  41   6    -0.00   0.00   0.00     0.00  -0.00  -0.00     0.00  -0.00  -0.00
  42   6     0.00   0.00   0.00    -0.00  -0.00  -0.00    -0.00   0.00   0.00
  43   6     0.00  -0.00  -0.00    -0.00   0.00   0.00     0.00   0.00   0.00
  44   6    -0.00  -0.00  -0.00     0.00   0.00   0.00     0.00  -0.00  -0.00
  45   6    -0.00  -0.00  -0.00     0.00   0.00   0.00    -0.00   0.00  -0.00
  46   6    -0.00   0.00   0.00     0.00  -0.00  -0.00     0.00  -0.00  -0.00
  47   6     0.00  -0.00  -0.00     0.00   0.00   0.00    -0.00   0.00   0.00
  48   6     0.00   0.00   0.00    -0.00  -0.00  -0.00    -0.00   0.00  -0.00
  49   6     0.00  -0.00   0.00    -0.01   0.00  -0.00    -0.00  -0.00  -0.00
  50   6     0.00  -0.00  -0.00    -0.00   0.01   0.00     0.00   0.00   0.00
  51   6    -0.00  -0.00  -0.00     0.00   0.00   0.00    -0.00   0.00   0.00
  52   7    -0.00   0.00  -0.00     0.00  -0.00   0.00    -0.00   0.00   0.00
  53   6     0.00   0.00   0.00    -0.00   0.00   0.00    -0.00   0.00   0.00
  54   6    -0.00   0.00   0.00     0.00  -0.00  -0.00     0.00   0.00   0.00
  55   6     0.00   0.00   0.00     0.00  -0.00  -0.00    -0.00   0.00   0.00
  56   6     0.01   0.00   0.00    -0.00  -0.00  -0.00    -0.00  -0.00  -0.00
  57   6     0.00  -0.00  -0.00    -0.00   0.00  -0.00     0.00  -0.00  -0.00
  58   7    -0.00  -0.00  -0.00     0.00   0.00   0.00    -0.00  -0.00  -0.00
  59   6     0.00  -0.00  -0.00    -0.00   0.00   0.00    -0.00   0.00   0.00
  60   6     0.00   0.01   0.00    -0.00  -0.01  -0.00    -0.00   0.00   0.00
  61   6     0.13  -0.02   0.00    -0.18   0.03  -0.00     0.00  -0.00  -0.00
  62   6     0.01  -0.11  -0.01    -0.01   0.15   0.01     0.00  -0.00  -0.00
  63   6    -0.00  -0.00  -0.00     0.01   0.00   0.00    -0.00   0.00   0.00
  64   7    -0.00   0.00   0.00     0.00  -0.00  -0.00    -0.01   0.01   0.00
  65   6     0.00  -0.00  -0.00    -0.00   0.00   0.00    -0.00   0.00  -0.00
  66   6     0.00  -0.00   0.00    -0.00   0.00  -0.00     0.00  -0.00  -0.00
  67   7     0.00   0.00   0.00    -0.00  -0.00  -0.00     0.00   0.00   0.00
  68   1     0.00   0.01   0.00    -0.00  -0.01  -0.00     0.00   0.00   0.00
  69   1     0.01   0.00   0.00    -0.01  -0.00  -0.00     0.00   0.00   0.00
  70   1     0.00  -0.00  -0.00    -0.00   0.00   0.00     0.00   0.00   0.00
  71   1    -0.01   0.00  -0.00     0.02  -0.00   0.00     0.00  -0.00   0.00
  72   1    -0.00   0.01   0.00     0.00  -0.02  -0.00     0.00  -0.00  -0.00
  73   1     0.00  -0.00   0.00    -0.00   0.00   0.00     0.01  -0.01  -0.00
  74   1     0.00  -0.00  -0.00    -0.00   0.00  -0.00    -0.00  -0.00  -0.00
  75   1    -0.00  -0.01  -0.00     0.00   0.01   0.00    -0.00  -0.00  -0.00
  76   1    -0.02  -0.00  -0.00     0.01   0.00   0.00     0.00  -0.00   0.00
  77   1    -0.43   0.08  -0.00     0.60  -0.11   0.01    -0.00  -0.00  -0.00
  78   1    -0.03   0.34   0.02     0.04  -0.48  -0.03     0.00   0.00  -0.00
  79   1    -0.00   0.00   0.00     0.00  -0.00  -0.00     0.03  -0.03  -0.00
  80   1     0.00   0.01   0.00    -0.00  -0.01  -0.00    -0.00  -0.00  -0.00
                    232                    233                    234
                        a                      a                      a 
 Frequencies --  3347.6724              3356.4601              3356.5344
 Red. masses --     1.8928                 1.8875                 1.8876
 Frc consts  --     0.0000                 0.0000                 0.0000
 IR Inten    --    10.8758                 2.3418                 0.2304
 Raman Activ --     0.0000                 0.0000                 0.0000
 Depolar     --     0.0000                 0.0000                 0.0000
 Atom AN      X      Y      Z        X      Y      Z        X      Y      Z
   1   6    -0.00  -0.00  -0.00    -0.00  -0.00  -0.00     0.00   0.00   0.00
   2   6     0.00  -0.00  -0.00    -0.00  -0.00  -0.00     0.00   0.00   0.00
   3   6     0.00  -0.00  -0.00     0.00  -0.00  -0.00    -0.00   0.00  -0.00
   4   6     0.00   0.00   0.00     0.00  -0.00  -0.00    -0.00   0.00   0.00
   5   6    -0.00   0.00   0.00     0.00   0.00   0.00    -0.00  -0.00  -0.00
   6   6     0.00  -0.00  -0.00     0.00  -0.00  -0.00    -0.00   0.00   0.00
   7   6     0.00  -0.00  -0.00     0.00  -0.00  -0.00    -0.00   0.00   0.00
   8   6    -0.00   0.00  -0.00    -0.00  -0.00  -0.00     0.00   0.00   0.00
   9   7    -0.01   0.01   0.00    -0.03   0.04   0.00     0.02  -0.02  -0.00
  10   6    -0.00   0.00   0.00     0.00  -0.00  -0.00    -0.00   0.00   0.00
  11   6     0.00  -0.00  -0.00     0.00  -0.00  -0.00    -0.00   0.00   0.00
  12   6     0.00   0.00   0.00     0.00   0.00   0.00    -0.00  -0.00  -0.00
  13   6     0.00   0.00   0.00     0.00   0.00   0.00    -0.00  -0.00  -0.00
  14   6     0.00  -0.00  -0.00    -0.00   0.00   0.00     0.00  -0.00  -0.00
  15   7     0.00   0.00   0.00     0.00   0.00   0.00    -0.00  -0.00  -0.00
  16   6     0.00   0.00   0.00     0.00  -0.00  -0.00    -0.00   0.00   0.00
  17   6    -0.00  -0.00  -0.00     0.00  -0.00  -0.00    -0.00   0.00   0.00
  18   6     0.00  -0.00  -0.00    -0.00   0.00   0.00     0.00  -0.00  -0.00
  19   6     0.00  -0.00  -0.00    -0.00   0.00   0.00     0.00  -0.00  -0.00
  20   6     0.00   0.00   0.00     0.00  -0.00   0.00    -0.00   0.00  -0.00
  21   7    -0.00   0.00   0.00     0.14  -0.16  -0.01    -0.09   0.10   0.01
  22   6    -0.00   0.00   0.00     0.00  -0.00   0.00    -0.00   0.00  -0.00
  23   6    -0.00   0.00   0.00    -0.00   0.00   0.00     0.00  -0.00  -0.00
  24   7    -0.00  -0.00  -0.00    -0.00  -0.00  -0.00     0.00   0.00   0.00
  25   1    -0.00   0.00  -0.00    -0.00  -0.00  -0.00     0.00   0.00   0.00
  26   1    -0.00  -0.00  -0.00    -0.00  -0.00  -0.00     0.00   0.00   0.00
  27   1     0.00  -0.00   0.00    -0.00   0.00   0.00     0.00  -0.00  -0.00
  28   1     0.00  -0.00  -0.00    -0.00   0.00   0.00     0.00  -0.00  -0.00
  29   1     0.03  -0.03  -0.00     0.12  -0.13  -0.01    -0.07   0.08   0.01
  30   1    -0.00  -0.00  -0.00     0.00   0.00   0.00    -0.00  -0.00  -0.00
  31   1    -0.00  -0.00  -0.00     0.00   0.00   0.00    -0.00  -0.00  -0.00
  32   1    -0.00  -0.00  -0.00     0.00   0.00   0.00    -0.00  -0.00  -0.00
  33   1    -0.00   0.00   0.00    -0.00  -0.00  -0.00     0.00   0.00   0.00
  34   1    -0.00   0.00  -0.00    -0.00   0.00  -0.00     0.00  -0.00   0.00
  35   1     0.00   0.00   0.00    -0.00   0.00   0.00     0.00  -0.00  -0.00
  36   1     0.01  -0.01  -0.00    -0.53   0.59   0.04     0.33  -0.37  -0.02
  37   1    -0.00  -0.00  -0.00     0.00   0.00   0.00    -0.00  -0.00  -0.00
  38   6    -0.00   0.00  -0.00    -0.00   0.00  -0.00     0.00  -0.00   0.00
  39   6     0.00  -0.00  -0.00     0.00  -0.00   0.00    -0.00   0.00   0.00
  40   6    -0.00   0.00   0.00    -0.00  -0.00  -0.00     0.00   0.00   0.00
  41   6     0.00   0.00   0.00     0.00  -0.00  -0.00    -0.00  -0.00  -0.00
  42   6    -0.00   0.00   0.00     0.00  -0.00   0.00     0.00  -0.00  -0.00
  43   6     0.00  -0.00  -0.00    -0.00   0.00  -0.00    -0.00   0.00  -0.00
  44   6    -0.00  -0.00  -0.00     0.00   0.00   0.00     0.00   0.00   0.00
  45   6    -0.00  -0.00  -0.00     0.00   0.00   0.00     0.00   0.00   0.00
  46   6    -0.00   0.00   0.00    -0.00   0.00   0.00    -0.00   0.00   0.00
  47   6     0.00  -0.00  -0.00     0.00  -0.00  -0.00     0.00  -0.00  -0.00
  48   6     0.00  -0.00   0.00     0.00  -0.00  -0.00     0.00  -0.00  -0.00
  49   6    -0.00   0.00   0.00    -0.00   0.00   0.00    -0.00   0.00   0.00
  50   6    -0.00   0.00   0.00    -0.00   0.00  -0.00    -0.00   0.00  -0.00
  51   6     0.00  -0.00  -0.00     0.00  -0.00   0.00     0.00  -0.00   0.00
  52   7     0.04  -0.04  -0.00     0.09  -0.10  -0.00     0.14  -0.16  -0.01
  53   6     0.00  -0.00  -0.00     0.00  -0.00   0.00     0.00  -0.00   0.00
  54   6    -0.00  -0.00  -0.00    -0.00   0.00   0.00    -0.00   0.00   0.00
  55   6     0.00  -0.00   0.00    -0.00  -0.00  -0.00    -0.00  -0.00  -0.00
  56   6     0.00   0.00   0.00    -0.00  -0.00  -0.00    -0.00  -0.00  -0.00
  57   6    -0.00   0.00   0.00     0.00  -0.00   0.00     0.00  -0.00   0.00
  58   7     0.00   0.00   0.00    -0.00  -0.00  -0.00    -0.00  -0.00  -0.00
  59   6    -0.00  -0.00  -0.00     0.00  -0.00  -0.00     0.00  -0.00  -0.00
  60   6     0.00  -0.00  -0.00     0.00   0.00   0.00     0.00   0.00   0.00
  61   6    -0.00   0.00   0.00     0.00  -0.00  -0.00     0.00  -0.00  -0.00
  62   6    -0.00   0.00   0.00     0.00  -0.00  -0.00     0.00  -0.00  -0.00
  63   6     0.00  -0.00   0.00    -0.00  -0.00  -0.00    -0.00  -0.00  -0.00
  64   7     0.17  -0.19  -0.01    -0.02   0.02   0.00    -0.03   0.04   0.00
  65   6     0.00  -0.00  -0.00     0.00  -0.00  -0.00     0.00  -0.00  -0.00
  66   6    -0.00   0.00   0.00     0.00  -0.00  -0.00     0.00  -0.00  -0.00
  67   7    -0.00  -0.00  -0.00     0.00   0.00   0.00     0.00   0.00   0.00
  68   1     0.00   0.00   0.00     0.00   0.00   0.00     0.00   0.00   0.00
  69   1     0.00  -0.00  -0.00     0.00   0.00   0.00     0.00   0.00   0.00
  70   1    -0.00  -0.00  -0.00    -0.00  -0.00  -0.00    -0.00  -0.00  -0.00
  71   1    -0.00   0.00  -0.00    -0.00   0.00  -0.00    -0.00   0.00  -0.00
  72   1    -0.00   0.00   0.00    -0.00   0.00   0.00    -0.00   0.00   0.00
  73   1    -0.14   0.16   0.01    -0.34   0.37   0.01    -0.53   0.59   0.02
  74   1     0.00   0.00   0.00     0.00   0.00   0.00     0.00   0.00   0.00
  75   1     0.00   0.00   0.00    -0.00  -0.00  -0.00    -0.00  -0.00  -0.00
  76   1     0.00   0.00   0.00    -0.00  -0.00  -0.00    -0.00  -0.00  -0.00
  77   1    -0.00   0.00  -0.00    -0.00   0.00  -0.00    -0.00   0.00  -0.00
  78   1    -0.00   0.00   0.00    -0.00   0.00   0.00    -0.00   0.00   0.00
  79   1    -0.63   0.70   0.03     0.08  -0.09  -0.00     0.12  -0.13  -0.01
  80   1     0.00   0.00   0.00     0.00   0.00   0.00     0.00   0.00   0.00
