      -----------------------------------------------------------      
     |                   =====================                   |     
     |                           x T B                           |     
     |                   =====================                   |     
     |                         S. Grimme                         |     
     |          Mulliken Center for Theoretical Chemistry        |     
     |                    University of Bonn                     |     
      -----------------------------------------------------------      

   * xtb version 6.4.1 (bd6e46d) compiled by 'conda@4901f00b25ba' on 2021-06-10

   xtb is free software: you can redistribute it and/or modify it under
   the terms of the GNU Lesser General Public License as published by
   the Free Software Foundation, either version 3 of the License, or
   (at your option) any later version.
   
   xtb is distributed in the hope that it will be useful,
   but WITHOUT ANY WARRANTY; without even the implied warranty of
   MERCHANTABILITY or FITNESS FOR A PARTICULAR PURPOSE.  See the
   GNU Lesser General Public License for more details.
   
   Cite this work as:
   * C. Bannwarth, E. Caldeweyher, S. Ehlert, A. Hansen, P. Pracht,
     J. Seibert, S. Spicher, S. Grimme, WIREs Comput. Mol. Sci., 2020, 11,
     e01493. DOI: 10.1002/wcms.1493
   
   for GFN2-xTB:
   * C. Bannwarth, S. Ehlert and S. Grimme., J. Chem. Theory Comput., 2019,
     15, 1652-1671. DOI: 10.1021/acs.jctc.8b01176
   for GFN1-xTB:
   * S. Grimme, C. Bannwarth, P. Shushkov, J. Chem. Theory Comput., 2017,
     13, 1989-2009. DOI: 10.1021/acs.jctc.7b00118
   for GFN0-xTB:
   * P. Pracht, E. Caldeweyher, S. Ehlert, S. Grimme, ChemRxiv, 2019, preprint.
     DOI: 10.26434/chemrxiv.8326202.v1
   for GFN-FF:
   * S. Spicher and S. Grimme, Angew. Chem. Int. Ed., 2020, 59, 15665-15673.
     DOI: 10.1002/anie.202004239
   
   for DFT-D4:
   * E. Caldeweyher, C. Bannwarth and S. Grimme, J. Chem. Phys., 2017,
     147, 034112. DOI: 10.1063/1.4993215
   * E. Caldeweyher, S. Ehlert, A. Hansen, H. Neugebauer, S. Spicher,
     C. Bannwarth and S. Grimme, J. Chem. Phys., 2019, 150, 154122.
     DOI: 10.1063/1.5090222
   * E. Caldeweyher, J.-M. Mewes, S. Ehlert and S. Grimme, Phys. Chem. Chem. Phys.
     2020, 22, 8499-8512. DOI: 10.1039/D0CP00502A
   
   for sTDA-xTB:
   * S. Grimme and C. Bannwarth, J. Chem. Phys., 2016, 145, 054103.
     DOI: 10.1063/1.4959605
   
   in the mass-spec context:
   * V. Asgeirsson, C. Bauer and S. Grimme, Chem. Sci., 2017, 8, 4879.
     DOI: 10.1039/c7sc00601b
   * J. Koopman and S. Grimme, ACS Omega 2019, 4, 12, 15120-15133.
     DOI: 10.1021/acsomega.9b02011
   
   for metadynamics refer to:
   * S. Grimme, J. Chem. Theory Comput., 2019, 155, 2847-2862
     DOI: 10.1021/acs.jctc.9b00143
   
   for SPH calculations refer to:
   * S. Spicher and S. Grimme, J. Chem. Theory Comput., 2021, 17, 1701-1714
     DOI: 10.1021/acs.jctc.0c01306
   
   with help from (in alphabetical order)
   P. Atkinson, C. Bannwarth, F. Bohle, G. Brandenburg, E. Caldeweyher
   M. Checinski, S. Dohm, S. Ehlert, S. Ehrlich, I. Gerasimov, J. Koopman
   C. Lavigne, S. Lehtola, F. März, M. Müller, F. Musil, H. Neugebauer
   J. Pisarek, C. Plett, P. Pracht, J. Seibert, P. Shushkov, S. Spicher
   M. Stahn, M. Steiner, T. Strunk, J. Stückrath, T. Rose, and J. Unsleber
   
 * started run on 2021/11/19 at 15:12:40.381     

           -------------------------------------------------
          |                Calculation Setup                |
           -------------------------------------------------

          program call               : /home/jeff/miniconda3/bin/xtb input_structure_1.xyz --gfn 2 --ohess normal --parallel 1 --etemp 300 --chrg 0 --uhf 0 -I det_control.in
          hostname                   : jelfscompute1
          coordinate file            : input_structure_1.xyz
          omp threads                :                     1
          number of atoms            :                    80
          number of electrons        :                   250
          charge                     :                     0
          spin                       :                   0.0
          first test random number   :      0.02643095162654

   ID    Z sym.   atoms
    1    6 C      1-8, 10-14, 16-20, 22, 23, 38-51, 53-57, 59-63, 65, 66
    2    7 N      9, 15, 21, 24, 52, 58, 64, 67
    3    1 H      25-37, 68-80

           -------------------------------------------------
          |                 G F N 2 - x T B                 |
           -------------------------------------------------

        Reference                      10.1021/acs.jctc.8b01176
      * Hamiltonian:
        H0-scaling (s, p, d)           1.850000    2.230000    2.230000
        zeta-weighting                 0.500000
      * Dispersion:
        s8                             2.700000
        a1                             0.520000
        a2                             5.000000
        s9                             5.000000
      * Repulsion:
        kExp                           1.500000    1.000000
        rExp                           1.000000
      * Coulomb:
        alpha                          2.000000
        third order                    shell-resolved
        anisotropic                    true
        a3                             3.000000
        a5                             4.000000
        cn-shift                       1.200000
        cn-exp                         4.000000
        max-rad                        5.000000


          ...................................................
          :                      SETUP                      :
          :.................................................:
          :  # basis functions                 242          :
          :  # atomic orbitals                 242          :
          :  # shells                          134          :
          :  # electrons                       250          :
          :  max. iterations                   250          :
          :  Hamiltonian                  GFN2-xTB          :
          :  restarted?                      false          :
          :  GBSA solvation                  false          :
          :  PC potential                    false          :
          :  electronic temp.          300.0000000     K    :
          :  accuracy                    1.0000000          :
          :  -> integral cutoff          0.2500000E+02      :
          :  -> integral neglect         0.1000000E-07      :
          :  -> SCF convergence          0.1000000E-05 Eh   :
          :  -> wf. convergence          0.1000000E-03 e    :
          :  Broyden damping             0.4000000          :
          ...................................................

 iter      E             dE          RMSdq      gap      omega  full diag
   1   -137.0329296 -0.137033E+03  0.522E+00    0.40       0.0  T
   2   -137.2305150 -0.197585E+00  0.335E+00    0.47       1.0  T
   3   -137.0657650  0.164750E+00  0.169E+00    0.45       1.0  T
   4   -136.9562293  0.109536E+00  0.156E+00    0.37       1.0  T
   5   -137.2161580 -0.259929E+00  0.684E-01    0.50       1.0  T
   6   -137.2653231 -0.491651E-01  0.345E-01    0.47       1.0  T
   7   -137.2777703 -0.124472E-01  0.118E-01    0.46       1.0  T
   8   -137.2780332 -0.262841E-03  0.954E-02    0.46       1.0  T
   9   -137.2787672 -0.734086E-03  0.510E-02    0.46       1.0  T
  10   -137.2788828 -0.115568E-03  0.278E-02    0.46       1.0  T
  11   -137.2789494 -0.665817E-04  0.109E-02    0.46       1.0  T
  12   -137.2789590 -0.956730E-05  0.374E-03    0.46       3.0  T
  13   -137.2789596 -0.628687E-06  0.170E-03    0.46       6.6  T
  14   -137.2789598 -0.208415E-06  0.801E-04    0.46      14.0  T
  15   -137.2789598 -0.319988E-07  0.529E-04    0.46      21.1  T

   *** convergence criteria satisfied after 15 iterations ***

         #    Occupation            Energy/Eh            Energy/eV
      -------------------------------------------------------------
         1        2.0000           -0.6892098             -18.7544
       ...           ...                  ...                  ...
       119        2.0000           -0.3648103              -9.9270
       120        2.0000           -0.3601427              -9.8000
       121        2.0000           -0.3589991              -9.7689
       122        2.0000           -0.3577324              -9.7344
       123        2.0000           -0.3535706              -9.6211
       124        2.0000           -0.3471479              -9.4464
       125        1.9997           -0.3319641              -9.0332 (HOMO)
       126        0.0003           -0.3151869              -8.5767 (LUMO)
       127                         -0.3015376              -8.2053
       128                         -0.2933431              -7.9823
       129                         -0.2854231              -7.7668
       130                         -0.2685189              -7.3068
       ...                                ...                  ...
       242                          2.8988566              78.8819
      -------------------------------------------------------------
                  HL-Gap            0.0167772 Eh            0.4565 eV
             Fermi-level           -0.3235755 Eh           -8.8049 eV

 SCC (total)                   0 d,  0 h,  0 min,  0.270 sec
 SCC setup                      ...        0 min,  0.003 sec (  0.949%)
 Dispersion                     ...        0 min,  0.005 sec (  1.840%)
 classical contributions        ...        0 min,  0.001 sec (  0.366%)
 integral evaluation            ...        0 min,  0.022 sec (  8.092%)
 iterations                     ...        0 min,  0.157 sec ( 58.154%)
 molecular gradient             ...        0 min,  0.082 sec ( 30.211%)
 printout                       ...        0 min,  0.001 sec (  0.382%)

         :::::::::::::::::::::::::::::::::::::::::::::::::::::
         ::                     SUMMARY                     ::
         :::::::::::::::::::::::::::::::::::::::::::::::::::::
         :: total energy            -134.350717402412 Eh    ::
         :: gradient norm              1.452343066996 Eh/a0 ::
         :: HOMO-LUMO gap              0.456529762101 eV    ::
         ::.................................................::
         :: SCC energy              -137.278959829755 Eh    ::
         :: -> isotropic ES            0.079279900431 Eh    ::
         :: -> anisotropic ES         -0.003499925679 Eh    ::
         :: -> anisotropic XC          0.100222920222 Eh    ::
         :: -> dispersion             -0.105489465678 Eh    ::
         :: repulsion energy           2.928548376540 Eh    ::
         :: add. restraining           0.000000000000 Eh    ::
         :: total charge              -0.000000000135 e     ::
         :::::::::::::::::::::::::::::::::::::::::::::::::::::

      ----------------------------------------------------------- 
     |                   =====================                   |
     |                        A N C O P T                        |
     |                   =====================                   |
     |               Approximate Normal Coordinate               |
     |                Rational Function Optimizer                |
      ----------------------------------------------------------- 

          ...................................................
          :                      SETUP                      :
          :.................................................:
          :   optimization level            normal          :
          :   max. optcycles                   240          :
          :   ANC micro-cycles                  20          :
          :   degrees of freedom               234          :
          :.................................................:
          :   RF solver                   davidson          :
          :   write xtbopt.log                true          :
          :   linear?                        false          :
          :   energy convergence         0.5000000E-05 Eh   :
          :   grad. convergence          0.1000000E-02 Eh/α :
          :   maximium RF displ.         1.0000000          :
          :   Hlow (freq-cutoff)         0.1000000E-01      :
          :   Hmax (freq-cutoff)         5.0000000          :
          :   S6 in model hess.         20.0000000          :
          ...................................................

generating ANC from model Hessian ...
Using Lindh-Hessian (1995)
 Shifting diagonal of input Hessian by    1.0000971344609323E-002
 Lowest  eigenvalues of input Hessian
    0.010000    0.000000    0.000000    0.000000    0.000000    0.000000
    0.000000    0.010002    0.010015    0.010080    0.010222    0.010627
    0.010988    0.011019    0.011213    0.011746    0.012054    0.012246
 Highest eigenvalues
    2.237592    2.614162    2.754186    2.881497    3.619627    3.800161


........................................................................
.............................. CYCLE    1 ..............................
........................................................................
   1   -137.2789599 -0.137279E+03  0.145E-04    0.46       0.0  T
   2   -137.2789598  0.342567E-08  0.196E-04    0.46      57.0  T
   3   -137.2789599 -0.287602E-08  0.133E-04    0.46      84.1  T
     SCC iter.                  ...        0 min,  0.032 sec
     gradient                   ...        0 min,  0.081 sec
 * total energy  :  -134.3507174 Eh     change       -0.2087336E-07 Eh
   gradient norm :     1.4523458 Eh/α   predicted     0.0000000E+00 (-100.00%)
   displ. norm   :     0.5056491 α      lambda       -0.6476735E+00
   maximum displ.:     0.2196811 α      in ANC's #234, #188, #230, ...

........................................................................
.............................. CYCLE    2 ..............................
........................................................................
   1   -137.3573610 -0.137357E+03  0.489E-01    0.63       0.0  T
   2   -137.3530926  0.426846E-02  0.542E-01    0.62       1.0  T
   3   -137.3718071 -0.187145E-01  0.219E-01    0.62       1.0  T
   4   -137.3659425  0.586465E-02  0.210E-01    0.62       1.0  T
   5   -137.3712832 -0.534069E-02  0.837E-02    0.62       1.0  T
   6   -137.3720423 -0.759130E-03  0.118E-02    0.62       1.0  T
   7   -137.3720482 -0.587735E-05  0.700E-03    0.62       1.6  T
   8   -137.3720510 -0.288713E-05  0.437E-03    0.62       2.6  T
   9   -137.3720514 -0.316495E-06  0.340E-03    0.62       3.3  T
  10   -137.3720525 -0.110588E-05  0.119E-03    0.62       9.4  T
  11   -137.3720526 -0.128930E-06  0.442E-04    0.62      25.3  T
  12   -137.3720526 -0.119099E-07  0.203E-04    0.62      55.2  T
     SCC iter.                  ...        0 min,  0.126 sec
     gradient                   ...        0 min,  0.081 sec
 * total energy  :  -134.7031740 Eh     change       -0.3524566E+00 Eh
   gradient norm :     0.3060705 Eh/α   predicted    -0.4066560E+00 (  15.38%)
   displ. norm   :     0.5186149 α      lambda       -0.1083299E+00
   maximum displ.:     0.1203025 α      in ANC's #119, #44, #146, ...

........................................................................
.............................. CYCLE    3 ..............................
........................................................................
   1   -137.4414213 -0.137441E+03  0.329E-01    0.63       0.0  T
   2   -137.4409280  0.493381E-03  0.260E-01    0.63       1.0  T
   3   -137.4414447 -0.516732E-03  0.159E-01    0.63       1.0  T
   4   -137.4422400 -0.795293E-03  0.895E-02    0.63       1.0  T
   5   -137.4429038 -0.663802E-03  0.459E-02    0.63       1.0  T
   6   -137.4431362 -0.232456E-03  0.887E-03    0.63       1.3  T
   7   -137.4431405 -0.430350E-05  0.516E-03    0.63       2.2  T
   8   -137.4431414 -0.874493E-06  0.353E-03    0.63       3.2  T
   9   -137.4431423 -0.863285E-06  0.164E-03    0.63       6.8  T
  10   -137.4431426 -0.349121E-06  0.515E-04    0.63      21.7  T
  11   -137.4431427 -0.230608E-07  0.233E-04    0.63      48.1  T
     SCC iter.                  ...        0 min,  0.117 sec
     gradient                   ...        0 min,  0.081 sec
 * total energy  :  -134.7825438 Eh     change       -0.7936978E-01 Eh
   gradient norm :     0.1421620 Eh/α   predicted    -0.6873328E-01 ( -13.40%)
   displ. norm   :     0.6370329 α      lambda       -0.5299914E-01
   maximum displ.:     0.2078281 α      in ANC's #23, #44, #16, ...

........................................................................
.............................. CYCLE    4 ..............................
........................................................................
   1   -137.4864761 -0.137486E+03  0.293E-01    0.70       0.0  T
   2   -137.4863080  0.168087E-03  0.199E-01    0.70       1.0  T
   3   -137.4844054  0.190259E-02  0.161E-01    0.70       1.0  T
   4   -137.4867609 -0.235551E-02  0.604E-02    0.70       1.0  T
   5   -137.4871333 -0.372360E-03  0.275E-02    0.70       1.0  T
   6   -137.4872190 -0.857305E-04  0.518E-03    0.70       2.2  T
   7   -137.4872203 -0.127326E-05  0.292E-03    0.70       3.8  T
   8   -137.4872201  0.153146E-06  0.262E-03    0.70       4.3  T
   9   -137.4872208 -0.637730E-06  0.896E-04    0.70      12.5  T
  10   -137.4872209 -0.728675E-07  0.324E-04    0.70      34.5  T
     SCC iter.                  ...        0 min,  0.107 sec
     gradient                   ...        0 min,  0.081 sec
 * total energy  :  -134.8214382 Eh     change       -0.3889440E-01 Eh
   gradient norm :     0.0731624 Eh/α   predicted    -0.3725356E-01 (  -4.22%)
   displ. norm   :     0.7391584 α      lambda       -0.3026886E-01
   maximum displ.:     0.2866045 α      in ANC's #16, #23, #15, ...

........................................................................
.............................. CYCLE    5 ..............................
........................................................................
   1   -137.4850855 -0.137485E+03  0.229E-01    0.79       0.0  T
   2   -137.4849398  0.145679E-03  0.147E-01    0.78       1.0  T
   3   -137.4820429  0.289692E-02  0.150E-01    0.79       1.0  T
   4   -137.4851542 -0.311132E-02  0.331E-02    0.78       1.0  T
   5   -137.4852740 -0.119856E-03  0.102E-02    0.78       1.1  T
   6   -137.4852842 -0.101472E-04  0.245E-03    0.78       4.6  T
   7   -137.4852843 -0.115414E-06  0.133E-03    0.78       8.4  T
   8   -137.4852843 -0.142322E-08  0.903E-04    0.78      12.4  T
   9   -137.4852844 -0.753860E-07  0.280E-04    0.78      40.0  T
     SCC iter.                  ...        0 min,  0.096 sec
     gradient                   ...        0 min,  0.081 sec
 * total energy  :  -134.8468579 Eh     change       -0.2541963E-01 Eh
   gradient norm :     0.0498641 Eh/α   predicted    -0.2340331E-01 (  -7.93%)
   displ. norm   :     0.8182428 α      lambda       -0.2372637E-01
   maximum displ.:     0.3963434 α      in ANC's #16, #15, #23, ...

........................................................................
.............................. CYCLE    6 ..............................
........................................................................
   1   -137.4879523 -0.137488E+03  0.204E-01    0.87       0.0  T
   2   -137.4878972  0.551240E-04  0.125E-01    0.86       1.0  T
   3   -137.4860089  0.188828E-02  0.121E-01    0.87       1.0  T
   4   -137.4880186 -0.200970E-02  0.238E-02    0.87       1.0  T
   5   -137.4880808 -0.621892E-04  0.649E-03    0.87       1.7  T
   6   -137.4880843 -0.352275E-05  0.248E-03    0.87       4.5  T
   7   -137.4880846 -0.225488E-06  0.104E-03    0.87      10.8  T
   8   -137.4880846 -0.130315E-07  0.627E-04    0.87      17.8  T
   9   -137.4880846 -0.342947E-07  0.248E-04    0.87      45.0  T
     SCC iter.                  ...        0 min,  0.092 sec
     gradient                   ...        0 min,  0.081 sec
 * total energy  :  -134.8675401 Eh     change       -0.2068221E-01 Eh
   gradient norm :     0.0321598 Eh/α   predicted    -0.1980584E-01 (  -4.24%)
   displ. norm   :     0.8529107 α      lambda       -0.1912957E-01
   maximum displ.:     0.4727115 α      in ANC's #16, #15, #23, ...

........................................................................
.............................. CYCLE    7 ..............................
........................................................................
   1   -137.4922394 -0.137492E+03  0.197E-01    0.94       0.0  T
   2   -137.4922524 -0.130133E-04  0.116E-01    0.93       1.0  T
   3   -137.4913837  0.868740E-03  0.859E-02    0.94       1.0  T
   4   -137.4922726 -0.888930E-03  0.211E-02    0.94       1.0  T
   5   -137.4923292 -0.566148E-04  0.407E-03    0.93       2.7  T
   6   -137.4923300 -0.779916E-06  0.265E-03    0.93       4.2  T
   7   -137.4923304 -0.380287E-06  0.109E-03    0.93      10.3  T
   8   -137.4923304 -0.182526E-07  0.617E-04    0.93      18.1  T
   9   -137.4923305 -0.360230E-07  0.234E-04    0.93      47.8  T
     SCC iter.                  ...        0 min,  0.095 sec
     gradient                   ...        0 min,  0.081 sec
 * total energy  :  -134.8845471 Eh     change       -0.1700706E-01 Eh
   gradient norm :     0.0243885 Eh/α   predicted    -0.1652276E-01 (  -2.85%)
   displ. norm   :     0.8683109 α      lambda       -0.1576586E-01
   maximum displ.:     0.5312682 α      in ANC's #16, #15, #21, ...

........................................................................
.............................. CYCLE    8 ..............................
........................................................................
   1   -137.4966037 -0.137497E+03  0.188E-01    0.99       0.0  T
   2   -137.4966292 -0.254816E-04  0.109E-01    0.98       1.0  T
   3   -137.4962754  0.353843E-03  0.607E-02    0.99       1.0  T
   4   -137.4966333 -0.357909E-03  0.164E-02    0.99       1.0  T
   5   -137.4966676 -0.342952E-04  0.338E-03    0.98       3.3  T
   6   -137.4966680 -0.432016E-06  0.235E-03    0.98       4.8  T
   7   -137.4966683 -0.336805E-06  0.996E-04    0.98      11.2  T
   8   -137.4966684 -0.496952E-07  0.554E-04    0.98      20.2  T
     SCC iter.                  ...        0 min,  0.085 sec
     gradient                   ...        0 min,  0.081 sec
 * total energy  :  -134.8987250 Eh     change       -0.1417791E-01 Eh
   gradient norm :     0.0247471 Eh/α   predicted    -0.1382637E-01 (  -2.48%)
   displ. norm   :     0.8721079 α      lambda       -0.1334069E-01
   maximum displ.:     0.5658290 α      in ANC's #16, #15, #21, ...

........................................................................
.............................. CYCLE    9 ..............................
........................................................................
   1   -137.4997904 -0.137500E+03  0.183E-01    1.02       0.0  T
   2   -137.4998123 -0.219467E-04  0.106E-01    1.02       1.0  T
   3   -137.4995740  0.238324E-03  0.514E-02    1.02       1.0  T
   4   -137.4998247 -0.250721E-03  0.116E-02    1.02       1.0  T
   5   -137.4998404 -0.157100E-04  0.307E-03    1.02       3.6  T
   6   -137.4998407 -0.237676E-06  0.231E-03    1.02       4.8  T
   7   -137.4998410 -0.361897E-06  0.959E-04    1.02      11.7  T
   8   -137.4998411 -0.836814E-07  0.373E-04    1.02      30.0  T
     SCC iter.                  ...        0 min,  0.086 sec
     gradient                   ...        0 min,  0.081 sec
 * total energy  :  -134.9108077 Eh     change       -0.1208270E-01 Eh
   gradient norm :     0.0249539 Eh/α   predicted    -0.1174363E-01 (  -2.81%)
   displ. norm   :     0.8671486 α      lambda       -0.1152580E-01
   maximum displ.:     0.5814456 α      in ANC's #16, #15, #21, ...

........................................................................
.............................. CYCLE   10 ..............................
........................................................................
   1   -137.5036349 -0.137504E+03  0.182E-01    1.04       0.0  T
   2   -137.5036549 -0.200702E-04  0.105E-01    1.04       1.0  T
   3   -137.5034349  0.220016E-03  0.466E-02    1.04       1.0  T
   4   -137.5036663 -0.231375E-03  0.102E-02    1.04       1.1  T
   5   -137.5036783 -0.119862E-04  0.330E-03    1.04       3.4  T
   6   -137.5036788 -0.481748E-06  0.229E-03    1.04       4.9  T
   7   -137.5036791 -0.345414E-06  0.101E-03    1.04      11.1  T
   8   -137.5036792 -0.708077E-07  0.431E-04    1.04      25.9  T
   9   -137.5036792 -0.153973E-07  0.134E-04    1.04      83.7  T
     SCC iter.                  ...        0 min,  0.096 sec
     gradient                   ...        0 min,  0.081 sec
 * total energy  :  -134.9212088 Eh     change       -0.1040109E-01 Eh
   gradient norm :     0.0221784 Eh/α   predicted    -0.1009630E-01 (  -2.93%)
   displ. norm   :     0.8554276 α      lambda       -0.9813648E-02
   maximum displ.:     0.5847186 α      in ANC's #16, #15, #21, ...

........................................................................
.............................. CYCLE   11 ..............................
........................................................................
   1   -137.5056722 -0.137506E+03  0.184E-01    1.05       0.0  T
   2   -137.5056909 -0.186857E-04  0.106E-01    1.05       1.0  T
   3   -137.5055050  0.185955E-03  0.405E-02    1.05       1.0  T
   4   -137.5056972 -0.192200E-03  0.997E-03    1.05       1.1  T
   5   -137.5057085 -0.113629E-04  0.337E-03    1.05       3.3  T
   6   -137.5057091 -0.611172E-06  0.216E-03    1.05       5.2  T
   7   -137.5057094 -0.295520E-06  0.100E-03    1.05      11.2  T
   8   -137.5057095 -0.582594E-07  0.454E-04    1.05      24.6  T
   9   -137.5057095 -0.179621E-07  0.124E-04    1.05      90.1  T
     SCC iter.                  ...        0 min,  0.097 sec
     gradient                   ...        0 min,  0.081 sec
 * total energy  :  -134.9299543 Eh     change       -0.8745432E-02 Eh
   gradient norm :     0.0183380 Eh/α   predicted    -0.8497429E-02 (  -2.84%)
   displ. norm   :     0.8372680 α      lambda       -0.8062978E-02
   maximum displ.:     0.5782677 α      in ANC's #16, #15, #21, ...

........................................................................
.............................. CYCLE   12 ..............................
........................................................................
   1   -137.5080793 -0.137508E+03  0.185E-01    1.06       0.0  T
   2   -137.5080950 -0.156560E-04  0.108E-01    1.06       1.0  T
   3   -137.5079704  0.124593E-03  0.324E-02    1.07       1.0  T
   4   -137.5080982 -0.127804E-03  0.886E-03    1.06       1.3  T
   5   -137.5081068 -0.859330E-05  0.324E-03    1.06       3.5  T
   6   -137.5081074 -0.562150E-06  0.209E-03    1.06       5.4  T
   7   -137.5081076 -0.283177E-06  0.928E-04    1.06      12.1  T
   8   -137.5081077 -0.471906E-07  0.396E-04    1.06      28.2  T
     SCC iter.                  ...        0 min,  0.083 sec
     gradient                   ...        0 min,  0.080 sec
 * total energy  :  -134.9370033 Eh     change       -0.7049051E-02 Eh
   gradient norm :     0.0162891 Eh/α   predicted    -0.6857644E-02 (  -2.72%)
   displ. norm   :     0.8171632 α      lambda       -0.6436643E-02
   maximum displ.:     0.5523417 α      in ANC's #16, #15, #10, ...

........................................................................
.............................. CYCLE   13 ..............................
........................................................................
   1   -137.5064301 -0.137506E+03  0.197E-01    1.07       0.0  T
   2   -137.5064442 -0.140212E-04  0.115E-01    1.07       1.0  T
   3   -137.5063852  0.589143E-04  0.236E-02    1.07       1.0  T
   4   -137.5064431 -0.578695E-04  0.900E-03    1.07       1.2  T
   5   -137.5064512 -0.811983E-05  0.291E-03    1.07       3.8  T
   6   -137.5064515 -0.259813E-06  0.200E-03    1.07       5.6  T
   7   -137.5064518 -0.307404E-06  0.841E-04    1.07      13.3  T
   8   -137.5064518 -0.474768E-07  0.302E-04    1.07      37.0  T
     SCC iter.                  ...        0 min,  0.083 sec
     gradient                   ...        0 min,  0.081 sec
 * total energy  :  -134.9423922 Eh     change       -0.5388887E-02 Eh
   gradient norm :     0.0188338 Eh/α   predicted    -0.5367378E-02 (  -0.40%)
   displ. norm   :     0.8041041 α      lambda       -0.5506007E-02
   maximum displ.:     0.5330451 α      in ANC's #16, #15, #10, ...

........................................................................
.............................. CYCLE   14 ..............................
........................................................................
   1   -137.5096152 -0.137510E+03  0.232E-01    1.10       0.0  T
   2   -137.5096270 -0.117711E-04  0.136E-01    1.09       1.0  T
   3   -137.5095736  0.534393E-04  0.231E-02    1.10       1.0  T
   4   -137.5096283 -0.546827E-04  0.796E-03    1.10       1.4  T
   5   -137.5096339 -0.564052E-05  0.313E-03    1.09       3.6  T
   6   -137.5096339 -0.966287E-08  0.231E-03    1.09       4.8  T
   7   -137.5096344 -0.447806E-06  0.738E-04    1.09      15.1  T
   8   -137.5096344 -0.466346E-07  0.204E-04    1.09      54.7  T
     SCC iter.                  ...        0 min,  0.086 sec
     gradient                   ...        0 min,  0.080 sec
 * total energy  :  -134.9460218 Eh     change       -0.3629615E-02 Eh
   gradient norm :     0.0315332 Eh/α   predicted    -0.4533067E-02 (  24.89%)
   displ. norm   :     0.6764859 α      lambda       -0.4104107E-02
   maximum displ.:     0.4141503 α      in ANC's #16, #15, #10, ...

........................................................................
.............................. CYCLE   15 ..............................
........................................................................
   1   -137.5121987 -0.137512E+03  0.219E-01    1.10       0.0  T
   2   -137.5122086 -0.986885E-05  0.129E-01    1.10       1.0  T
   3   -137.5121527  0.558834E-04  0.252E-02    1.10       1.0  T
   4   -137.5122117 -0.589312E-04  0.620E-03    1.10       1.8  T
   5   -137.5122152 -0.355494E-05  0.245E-03    1.10       4.6  T
   6   -137.5122153 -0.591826E-07  0.161E-03    1.10       6.9  T
   7   -137.5122154 -0.157237E-06  0.535E-04    1.10      20.9  T
   8   -137.5122155 -0.269413E-07  0.221E-04    1.10      50.5  T
     SCC iter.                  ...        0 min,  0.085 sec
     gradient                   ...        0 min,  0.080 sec
 * total energy  :  -134.9489770 Eh     change       -0.2955219E-02 Eh
   gradient norm :     0.0167119 Eh/α   predicted    -0.2991140E-02 (   1.22%)
   displ. norm   :     0.6093182 α      lambda       -0.2506204E-02
   maximum displ.:     0.3556450 α      in ANC's #16, #15, #10, ...

........................................................................
.............................. CYCLE   16 ..............................
........................................................................
   1   -137.5117822 -0.137512E+03  0.145E-01    1.10       0.0  T
   2   -137.5117865 -0.432836E-05  0.846E-02    1.10       1.0  T
   3   -137.5117235  0.630155E-04  0.222E-02    1.10       1.0  T
   4   -137.5117908 -0.673505E-04  0.396E-03    1.10       2.8  T
   5   -137.5117920 -0.122036E-05  0.213E-03    1.10       5.2  T
   6   -137.5117922 -0.174475E-06  0.121E-03    1.10       9.2  T
   7   -137.5117923 -0.808172E-07  0.402E-04    1.10      27.8  T
   8   -137.5117923 -0.122080E-07  0.164E-04    1.10      68.3  T
     SCC iter.                  ...        0 min,  0.085 sec
     gradient                   ...        0 min,  0.080 sec
 * total energy  :  -134.9506610 Eh     change       -0.1683928E-02 Eh
   gradient norm :     0.0185608 Eh/α   predicted    -0.1718343E-02 (   2.04%)
   displ. norm   :     0.5588460 α      lambda       -0.1914111E-02
   maximum displ.:     0.2978980 α      in ANC's #16, #15, #10, ...

........................................................................
.............................. CYCLE   17 ..............................
........................................................................
   1   -137.5204658 -0.137520E+03  0.131E-01    1.11       0.0  T
   2   -137.5204699 -0.412004E-05  0.770E-02    1.11       1.0  T
   3   -137.5204038  0.660801E-04  0.219E-02    1.11       1.0  T
   4   -137.5204714 -0.675616E-04  0.546E-03    1.11       2.0  T
   5   -137.5204746 -0.321735E-05  0.177E-03    1.11       6.3  T
   6   -137.5204747 -0.855150E-07  0.114E-03    1.11       9.8  T
   7   -137.5204747 -0.454638E-07  0.644E-04    1.11      17.4  T
   8   -137.5204748 -0.287675E-07  0.263E-04    1.11      42.5  T
     SCC iter.                  ...        0 min,  0.086 sec
     gradient                   ...        0 min,  0.080 sec
 * total energy  :  -134.9518134 Eh     change       -0.1152465E-02 Eh
   gradient norm :     0.0180523 Eh/α   predicted    -0.1255954E-02 (   8.98%)
   displ. norm   :     0.4780379 α      lambda       -0.1423214E-02
   maximum displ.:     0.2296449 α      in ANC's #16, #10, #15, ...

........................................................................
.............................. CYCLE   18 ..............................
........................................................................
   1   -137.5233640 -0.137523E+03  0.107E-01    1.12       0.0  T
   2   -137.5233656 -0.157841E-05  0.633E-02    1.12       1.0  T
   3   -137.5232429  0.122705E-03  0.330E-02    1.12       1.0  T
   4   -137.5233728 -0.129834E-03  0.403E-03    1.12       2.8  T
   5   -137.5233737 -0.898987E-06  0.192E-03    1.12       5.8  T
   6   -137.5233737 -0.176195E-08  0.154E-03    1.12       7.3  T
   7   -137.5233739 -0.206839E-06  0.536E-04    1.12      20.8  T
   8   -137.5233739 -0.222332E-07  0.208E-04    1.12      53.7  T
     SCC iter.                  ...        0 min,  0.082 sec
     gradient                   ...        0 min,  0.080 sec
 * total energy  :  -134.9523369 Eh     change       -0.5235115E-03 Eh
   gradient norm :     0.0205582 Eh/α   predicted    -0.8742260E-03 (  66.99%)
   displ. norm   :     0.2479110 α      lambda       -0.9342279E-03
   maximum displ.:     0.1260824 α      in ANC's #10, #14, #21, ...

........................................................................
.............................. CYCLE   19 ..............................
........................................................................
   1   -137.5314674 -0.137531E+03  0.726E-02    1.11       0.0  T
   2   -137.5314704 -0.306505E-05  0.431E-02    1.11       1.0  T
   3   -137.5314446  0.257960E-04  0.157E-02    1.11       1.0  T
   4   -137.5314712 -0.265379E-04  0.435E-03    1.11       2.6  T
   5   -137.5314729 -0.168218E-05  0.187E-03    1.11       6.0  T
   6   -137.5314731 -0.187371E-06  0.107E-03    1.11      10.4  T
   7   -137.5314731 -0.614765E-07  0.377E-04    1.11      29.7  T
   8   -137.5314731 -0.112943E-07  0.194E-04    1.11      57.5  T
     SCC iter.                  ...        0 min,  0.082 sec
     gradient                   ...        0 min,  0.081 sec
 * total energy  :  -134.9527894 Eh     change       -0.4524944E-03 Eh
   gradient norm :     0.0134025 Eh/α   predicted    -0.4958308E-03 (   9.58%)
   displ. norm   :     0.2222748 α      lambda       -0.5465153E-03
   maximum displ.:     0.1202251 α      in ANC's #10, #16, #14, ...

........................................................................
.............................. CYCLE   20 ..............................
........................................................................
   1   -137.5260509 -0.137526E+03  0.525E-02    1.11       0.0  T
   2   -137.5260518 -0.971856E-06  0.307E-02    1.11       1.0  T
   3   -137.5260221  0.297032E-04  0.174E-02    1.11       1.0  T
   4   -137.5260538 -0.316434E-04  0.276E-03    1.11       4.0  T
   5   -137.5260543 -0.552957E-06  0.178E-03    1.11       6.3  T
   6   -137.5260546 -0.318482E-06  0.730E-04    1.11      15.3  T
   7   -137.5260547 -0.180765E-07  0.400E-04    1.11      27.9  T
     SCC iter.                  ...        0 min,  0.075 sec
     gradient                   ...        0 min,  0.080 sec
 * total energy  :  -134.9530053 Eh     change       -0.2158286E-03 Eh
   gradient norm :     0.0118229 Eh/α   predicted    -0.2867625E-03 (  32.87%)
   displ. norm   :     0.1668007 α      lambda       -0.3717699E-03
   maximum displ.:     0.1203344 α      in ANC's #10, #4, #7, ...
 * RMSD in coord.:     1.1758513 α      energy gain  -0.6022879E+00 Eh

generating ANC from model Hessian ...
Using Lindh-Hessian (1995)
 Shifting diagonal of input Hessian by    9.9937146852906514E-003
 Lowest  eigenvalues of input Hessian
    0.000000    0.000000    0.000000    0.000000    0.000000    0.000000
    0.010000    0.010010    0.010011    0.010055    0.010114    0.010772
    0.010847    0.010848    0.011202    0.011829    0.011978    0.012284
 Highest eigenvalues
    2.236914    2.244121    2.245738    2.277170    2.697277    3.040748


........................................................................
.............................. CYCLE   21 ..............................
........................................................................
   1   -137.5278119 -0.137528E+03  0.390E-02    1.11       0.0  T
   2   -137.5278125 -0.624037E-06  0.230E-02    1.11       1.0  T
   3   -137.5277918  0.207342E-04  0.137E-02    1.11       1.0  T
   4   -137.5278133 -0.215095E-04  0.293E-03    1.11       3.8  T
   5   -137.5278142 -0.867487E-06  0.104E-03    1.11      10.7  T
   6   -137.5278142 -0.645732E-07  0.585E-04    1.11      19.1  T
   7   -137.5278143 -0.116601E-07  0.309E-04    1.11      36.2  T
     SCC iter.                  ...        0 min,  0.075 sec
     gradient                   ...        0 min,  0.080 sec
 * total energy  :  -134.9531706 Eh     change       -0.1653553E-03 Eh
   gradient norm :     0.0114290 Eh/α   predicted     0.0000000E+00 (-100.00%)
   displ. norm   :     0.0854781 α      lambda       -0.2743731E-03
   maximum displ.:     0.0468912 α      in ANC's #9, #5, #11, ...

........................................................................
.............................. CYCLE   22 ..............................
........................................................................
   1   -137.5272867 -0.137527E+03  0.277E-02    1.11       0.0  T
   2   -137.5272869 -0.237178E-06  0.165E-02    1.11       1.0  T
   3   -137.5272792  0.766845E-05  0.770E-03    1.11       1.5  T
   4   -137.5272873 -0.807292E-05  0.143E-03    1.11       7.8  T
   5   -137.5272875 -0.200964E-06  0.512E-04    1.11      21.8  T
   6   -137.5272875 -0.584103E-08  0.309E-04    1.11      36.1  T
     SCC iter.                  ...        0 min,  0.064 sec
     gradient                   ...        0 min,  0.080 sec
 * total energy  :  -134.9533626 Eh     change       -0.1919471E-03 Eh
   gradient norm :     0.0040888 Eh/α   predicted    -0.1381893E-03 ( -28.01%)
   displ. norm   :     0.1700626 α      lambda       -0.2239403E-03
   maximum displ.:     0.1195949 α      in ANC's #9, #5, #4, ...

........................................................................
.............................. CYCLE   23 ..............................
........................................................................
   1   -137.5265710 -0.137527E+03  0.613E-02    1.10       0.0  T
   2   -137.5265715 -0.450878E-06  0.363E-02    1.10       1.0  T
   3   -137.5265570  0.145013E-04  0.104E-02    1.10       1.1  T
   4   -137.5265722 -0.152121E-04  0.182E-03    1.10       6.1  T
   5   -137.5265725 -0.295772E-06  0.709E-04    1.10      15.8  T
   6   -137.5265725 -0.101681E-07  0.467E-04    1.10      23.9  T
     SCC iter.                  ...        0 min,  0.064 sec
     gradient                   ...        0 min,  0.080 sec
 * total energy  :  -134.9534916 Eh     change       -0.1290827E-03 Eh
   gradient norm :     0.0054131 Eh/α   predicted    -0.1152909E-03 ( -10.68%)
   displ. norm   :     0.1611551 α      lambda       -0.1488733E-03
   maximum displ.:     0.0988241 α      in ANC's #9, #5, #4, ...

........................................................................
.............................. CYCLE   24 ..............................
........................................................................
   1   -137.5259982 -0.137526E+03  0.382E-02    1.10       0.0  T
   2   -137.5259982 -0.897413E-08  0.226E-02    1.10       1.0  T
   3   -137.5259885  0.968537E-05  0.874E-03    1.10       1.3  T
   4   -137.5259986 -0.101385E-04  0.990E-04    1.10      11.3  T
   5   -137.5259987 -0.526117E-07  0.603E-04    1.10      18.5  T
   6   -137.5259987 -0.222128E-07  0.335E-04    1.10      33.4  T
     SCC iter.                  ...        0 min,  0.062 sec
     gradient                   ...        0 min,  0.080 sec
 * total energy  :  -134.9536038 Eh     change       -0.1121258E-03 Eh
   gradient norm :     0.0069420 Eh/α   predicted    -0.7637014E-04 ( -31.89%)
   displ. norm   :     0.2660448 α      lambda       -0.2133574E-03
   maximum displ.:     0.1782314 α      in ANC's #9, #5, #4, ...

........................................................................
.............................. CYCLE   25 ..............................
........................................................................
   1   -137.5247222 -0.137525E+03  0.434E-02    1.10       0.0  T
   2   -137.5247221  0.684694E-07  0.255E-02    1.10       1.0  T
   3   -137.5247043  0.177768E-04  0.117E-02    1.10       1.0  T
   4   -137.5247230 -0.187008E-04  0.114E-03    1.10       9.8  T
   5   -137.5247231 -0.102704E-06  0.582E-04    1.10      19.2  T
   6   -137.5247231 -0.128964E-07  0.354E-04    1.10      31.6  T
     SCC iter.                  ...        0 min,  0.063 sec
     gradient                   ...        0 min,  0.080 sec
 * total energy  :  -134.9537834 Eh     change       -0.1796520E-03 Eh
   gradient norm :     0.0055639 Eh/α   predicted    -0.1142303E-03 ( -36.42%)
   displ. norm   :     0.3120895 α      lambda       -0.2294987E-03
   maximum displ.:     0.2044323 α      in ANC's #9, #5, #4, ...

........................................................................
.............................. CYCLE   26 ..............................
........................................................................
   1   -137.5237421 -0.137524E+03  0.526E-02    1.10       0.0  T
   2   -137.5237418  0.276408E-06  0.310E-02    1.10       1.0  T
   3   -137.5237123  0.295353E-04  0.150E-02    1.10       1.0  T
   4   -137.5237433 -0.310276E-04  0.138E-03    1.10       8.1  T
   5   -137.5237435 -0.162733E-06  0.620E-04    1.10      18.0  T
   6   -137.5237435 -0.109071E-07  0.395E-04    1.10      28.3  T
     SCC iter.                  ...        0 min,  0.062 sec
     gradient                   ...        0 min,  0.080 sec
 * total energy  :  -134.9539664 Eh     change       -0.1829467E-03 Eh
   gradient norm :     0.0031341 Eh/α   predicted    -0.1259302E-03 ( -31.17%)
   displ. norm   :     0.3297933 α      lambda       -0.1700634E-03
   maximum displ.:     0.2147127 α      in ANC's #5, #9, #4, ...

........................................................................
.............................. CYCLE   27 ..............................
........................................................................
   1   -137.5227868 -0.137523E+03  0.540E-02    1.10       0.0  T
   2   -137.5227866  0.240441E-06  0.318E-02    1.10       1.0  T
   3   -137.5227577  0.289303E-04  0.147E-02    1.10       1.0  T
   4   -137.5227880 -0.303693E-04  0.154E-03    1.10       7.3  T
   5   -137.5227883 -0.218728E-06  0.626E-04    1.10      17.9  T
   6   -137.5227883 -0.116176E-07  0.379E-04    1.10      29.5  T
     SCC iter.                  ...        0 min,  0.064 sec
     gradient                   ...        0 min,  0.080 sec
 * total energy  :  -134.9541013 Eh     change       -0.1349836E-03 Eh
   gradient norm :     0.0034575 Eh/α   predicted    -0.9428296E-04 ( -30.15%)
   displ. norm   :     0.3089896 α      lambda       -0.1262679E-03
   maximum displ.:     0.2042328 α      in ANC's #5, #9, #4, ...

........................................................................
.............................. CYCLE   28 ..............................
........................................................................
   1   -137.5222429 -0.137522E+03  0.459E-02    1.10       0.0  T
   2   -137.5222427  0.185992E-06  0.271E-02    1.10       1.0  T
   3   -137.5222192  0.235014E-04  0.134E-02    1.10       1.0  T
   4   -137.5222439 -0.246855E-04  0.157E-03    1.10       7.1  T
   5   -137.5222441 -0.242271E-06  0.578E-04    1.10      19.3  T
   6   -137.5222441 -0.113872E-07  0.337E-04    1.10      33.2  T
     SCC iter.                  ...        0 min,  0.064 sec
     gradient                   ...        0 min,  0.080 sec
 * total energy  :  -134.9542032 Eh     change       -0.1018339E-03 Eh
   gradient norm :     0.0032755 Eh/α   predicted    -0.6916199E-04 ( -32.08%)
   displ. norm   :     0.2661577 α      lambda       -0.9935231E-04
   maximum displ.:     0.1805748 α      in ANC's #5, #9, #4, ...

........................................................................
.............................. CYCLE   29 ..............................
........................................................................
   1   -137.5223407 -0.137522E+03  0.364E-02    1.11       0.0  T
   2   -137.5223406  0.509907E-07  0.214E-02    1.11       1.0  T
   3   -137.5223255  0.150901E-04  0.109E-02    1.10       1.0  T
   4   -137.5223414 -0.158945E-04  0.147E-03    1.11       7.6  T
   5   -137.5223417 -0.216477E-06  0.531E-04    1.11      21.1  T
   6   -137.5223417 -0.123875E-07  0.289E-04    1.11      38.7  T
     SCC iter.                  ...        0 min,  0.064 sec
     gradient                   ...        0 min,  0.080 sec
 * total energy  :  -134.9542832 Eh     change       -0.7997936E-04 Eh
   gradient norm :     0.0024967 Eh/α   predicted    -0.5319579E-04 ( -33.49%)
   displ. norm   :     0.2222954 α      lambda       -0.7727297E-04
   maximum displ.:     0.1554113 α      in ANC's #5, #9, #4, ...

........................................................................
.............................. CYCLE   30 ..............................
........................................................................
   1   -137.5227565 -0.137523E+03  0.290E-02    1.11       0.0  T
   2   -137.5227565 -0.319197E-07  0.170E-02    1.11       1.0  T
   3   -137.5227474  0.918198E-05  0.877E-03    1.10       1.3  T
   4   -137.5227571 -0.973805E-05  0.124E-03    1.11       9.0  T
   5   -137.5227572 -0.145827E-06  0.483E-04    1.11      23.2  T
   6   -137.5227572 -0.114548E-07  0.253E-04    1.11      44.2  T
     SCC iter.                  ...        0 min,  0.062 sec
     gradient                   ...        0 min,  0.079 sec
 * total energy  :  -134.9543448 Eh     change       -0.6166815E-04 Eh
   gradient norm :     0.0021707 Eh/α   predicted    -0.4054713E-04 ( -34.25%)
   displ. norm   :     0.1799839 α      lambda       -0.5952427E-04
   maximum displ.:     0.1286847 α      in ANC's #5, #4, #16, ...

........................................................................
.............................. CYCLE   31 ..............................
........................................................................
   1   -137.5231806 -0.137523E+03  0.243E-02    1.10       0.0  T
   2   -137.5231806 -0.689602E-07  0.142E-02    1.10       1.0  T
   3   -137.5231751  0.547722E-05  0.690E-03    1.10       1.6  T
   4   -137.5231810 -0.584690E-05  0.968E-04    1.10      11.6  T
   5   -137.5231811 -0.789626E-07  0.422E-04    1.10      26.5  T
   6   -137.5231811 -0.851520E-08  0.226E-04    1.10      49.5  T
     SCC iter.                  ...        0 min,  0.063 sec
     gradient                   ...        0 min,  0.080 sec
 * total energy  :  -134.9543932 Eh     change       -0.4833757E-04 Eh
   gradient norm :     0.0021818 Eh/α   predicted    -0.3072901E-04 ( -36.43%)
   displ. norm   :     0.1577050 α      lambda       -0.5324362E-04
   maximum displ.:     0.1128849 α      in ANC's #5, #4, #16, ...

........................................................................
.............................. CYCLE   32 ..............................
........................................................................
   1   -137.5234695 -0.137523E+03  0.243E-02    1.10       0.0  T
   2   -137.5234696 -0.993533E-07  0.143E-02    1.10       1.0  T
   3   -137.5234659  0.366047E-05  0.568E-03    1.10       2.0  T
   4   -137.5234698 -0.391128E-05  0.835E-04    1.10      13.4  T
   5   -137.5234699 -0.504577E-07  0.412E-04    1.10      27.2  T
   6   -137.5234699 -0.751197E-08  0.241E-04    1.10      46.4  T
     SCC iter.                  ...        0 min,  0.062 sec
     gradient                   ...        0 min,  0.080 sec
 * total energy  :  -134.9544371 Eh     change       -0.4398419E-04 Eh
   gradient norm :     0.0020163 Eh/α   predicted    -0.2728480E-04 ( -37.97%)
   displ. norm   :     0.1551309 α      lambda       -0.5199524E-04
   maximum displ.:     0.1106734 α      in ANC's #5, #4, #16, ...

........................................................................
.............................. CYCLE   33 ..............................
........................................................................
   1   -137.5234092 -0.137523E+03  0.264E-02    1.10       0.0  T
   2   -137.5234093 -0.131260E-06  0.155E-02    1.10       1.0  T
   3   -137.5234069  0.246721E-05  0.469E-03    1.10       2.4  T
   4   -137.5234095 -0.264582E-05  0.762E-04    1.10      14.7  T
   5   -137.5234096 -0.340664E-07  0.427E-04    1.10      26.2  T
   6   -137.5234096 -0.849010E-08  0.253E-04    1.10      44.2  T
     SCC iter.                  ...        0 min,  0.064 sec
     gradient                   ...        0 min,  0.080 sec
 * total energy  :  -134.9544800 Eh     change       -0.4282845E-04 Eh
   gradient norm :     0.0016953 Eh/α   predicted    -0.2662407E-04 ( -37.84%)
   displ. norm   :     0.2200828 α      lambda       -0.4727426E-04
   maximum displ.:     0.1576375 α      in ANC's #5, #4, #11, ...

........................................................................
.............................. CYCLE   34 ..............................
........................................................................
   1   -137.5228491 -0.137523E+03  0.391E-02    1.10       0.0  T
   2   -137.5228494 -0.277269E-06  0.230E-02    1.10       1.0  T
   3   -137.5228465  0.289201E-05  0.501E-03    1.10       2.2  T
   4   -137.5228497 -0.313740E-05  0.899E-04    1.10      12.4  T
   5   -137.5228497 -0.389188E-07  0.526E-04    1.10      21.3  T
   6   -137.5228497 -0.118392E-07  0.296E-04    1.10      37.7  T
     SCC iter.                  ...        0 min,  0.064 sec
     gradient                   ...        0 min,  0.080 sec
 * total energy  :  -134.9545324 Eh     change       -0.5237639E-04 Eh
   gradient norm :     0.0017249 Eh/α   predicted    -0.2414719E-04 ( -53.90%)
   displ. norm   :     0.1373366 α      lambda       -0.2878996E-04
   maximum displ.:     0.1014395 α      in ANC's #5, #4, #9, ...

........................................................................
.............................. CYCLE   35 ..............................
........................................................................
   1   -137.5226201 -0.137523E+03  0.230E-02    1.10       0.0  T
   2   -137.5226202 -0.890682E-07  0.135E-02    1.10       1.0  T
   3   -137.5226194  0.816150E-06  0.250E-03    1.10       4.5  T
   4   -137.5226203 -0.877380E-06  0.530E-04    1.10      21.1  T
   5   -137.5226203 -0.179610E-07  0.269E-04    1.10      41.5  T
     SCC iter.                  ...        0 min,  0.054 sec
     gradient                   ...        0 min,  0.080 sec
 * total energy  :  -134.9545692 Eh     change       -0.3687512E-04 Eh
   gradient norm :     0.0016114 Eh/α   predicted    -0.1451678E-04 ( -60.63%)
   displ. norm   :     0.1484810 α      lambda       -0.3456364E-04
   maximum displ.:     0.1029863 α      in ANC's #5, #9, #4, ...

........................................................................
.............................. CYCLE   36 ..............................
........................................................................
   1   -137.5222893 -0.137522E+03  0.259E-02    1.10       0.0  T
   2   -137.5222894 -0.137259E-06  0.151E-02    1.10       1.0  T
   3   -137.5222882  0.128103E-05  0.315E-03    1.10       3.5  T
   4   -137.5222895 -0.136335E-05  0.770E-04    1.10      14.5  T
   5   -137.5222896 -0.490425E-07  0.352E-04    1.10      31.8  T
   6   -137.5222896  0.287145E-09  0.273E-04    1.10      40.9  T
     SCC iter.                  ...        0 min,  0.065 sec
     gradient                   ...        0 min,  0.080 sec
 * total energy  :  -134.9546123 Eh     change       -0.4307543E-04 Eh
   gradient norm :     0.0014070 Eh/α   predicted    -0.1745218E-04 ( -59.48%)
   displ. norm   :     0.1737528 α      lambda       -0.3398231E-04
   maximum displ.:     0.1199102 α      in ANC's #5, #9, #4, ...

........................................................................
.............................. CYCLE   37 ..............................
........................................................................
   1   -137.5219134 -0.137522E+03  0.298E-02    1.11       0.0  T
   2   -137.5219136 -0.190063E-06  0.174E-02    1.11       1.0  T
   3   -137.5219120  0.158993E-05  0.374E-03    1.11       3.0  T
   4   -137.5219137 -0.172296E-05  0.826E-04    1.11      13.5  T
   5   -137.5219138 -0.434817E-07  0.385E-04    1.11      29.0  T
   6   -137.5219138  0.291789E-08  0.320E-04    1.11      34.9  T
     SCC iter.                  ...        0 min,  0.063 sec
     gradient                   ...        0 min,  0.080 sec
 * total energy  :  -134.9546532 Eh     change       -0.4086955E-04 Eh
   gradient norm :     0.0015933 Eh/α   predicted    -0.1721925E-04 ( -57.87%)
   displ. norm   :     0.1629008 α      lambda       -0.2727969E-04
   maximum displ.:     0.1157581 α      in ANC's #5, #9, #4, ...

........................................................................
.............................. CYCLE   38 ..............................
........................................................................
   1   -137.5218919 -0.137522E+03  0.272E-02    1.11       0.0  T
   2   -137.5218920 -0.150734E-06  0.159E-02    1.11       1.0  T
   3   -137.5218908  0.125668E-05  0.303E-03    1.11       3.7  T
   4   -137.5218921 -0.133326E-05  0.784E-04    1.11      14.3  T
   5   -137.5218922 -0.542914E-07  0.339E-04    1.11      33.0  T
   6   -137.5218922 -0.105518E-08  0.224E-04    1.11      49.8  T
     SCC iter.                  ...        0 min,  0.062 sec
     gradient                   ...        0 min,  0.080 sec
 * total energy  :  -134.9546860 Eh     change       -0.3278790E-04 Eh
   gradient norm :     0.0019631 Eh/α   predicted    -0.1380371E-04 ( -57.90%)
   displ. norm   :     0.1616557 α      lambda       -0.2764239E-04
   maximum displ.:     0.1193436 α      in ANC's #5, #9, #4, ...

........................................................................
.............................. CYCLE   39 ..............................
........................................................................
   1   -137.5221941 -0.137522E+03  0.258E-02    1.11       0.0  T
   2   -137.5221942 -0.894737E-07  0.152E-02    1.11       1.0  T
   3   -137.5221917  0.250128E-05  0.503E-03    1.11       2.2  T
   4   -137.5221943 -0.266994E-05  0.506E-04    1.11      22.1  T
   5   -137.5221943 -0.929410E-08  0.288E-04    1.11      38.8  T
   6   -137.5221943 -0.290271E-09  0.204E-04    1.11      54.9  T
     SCC iter.                  ...        0 min,  0.063 sec
     gradient                   ...        0 min,  0.080 sec
 * total energy  :  -134.9547195 Eh     change       -0.3358184E-04 Eh
   gradient norm :     0.0017432 Eh/α   predicted    -0.1398365E-04 ( -58.36%)
   displ. norm   :     0.1545970 α      lambda       -0.2632930E-04
   maximum displ.:     0.1165085 α      in ANC's #5, #9, #4, ...

........................................................................
.............................. CYCLE   40 ..............................
........................................................................
   1   -137.5227013 -0.137523E+03  0.217E-02    1.11       0.0  T
   2   -137.5227014 -0.105640E-06  0.127E-02    1.11       1.0  T
   3   -137.5227009  0.520797E-06  0.246E-03    1.11       4.6  T
   4   -137.5227015 -0.572774E-06  0.535E-04    1.11      20.9  T
   5   -137.5227015 -0.170381E-07  0.281E-04    1.11      39.8  T
     SCC iter.                  ...        0 min,  0.054 sec
     gradient                   ...        0 min,  0.080 sec
 * total energy  :  -134.9547546 Eh     change       -0.3510309E-04 Eh
   gradient norm :     0.0012551 Eh/α   predicted    -0.1330610E-04 ( -62.09%)
   displ. norm   :     0.2090228 α      lambda       -0.3448128E-04
   maximum displ.:     0.1590195 α      in ANC's #5, #9, #4, ...

........................................................................
.............................. CYCLE   41 ..............................
........................................................................
   1   -137.5232471 -0.137523E+03  0.288E-02    1.11       0.0  T
   2   -137.5232473 -0.154150E-06  0.169E-02    1.11       1.0  T
   3   -137.5232454  0.184318E-05  0.433E-03    1.11       2.6  T
   4   -137.5232474 -0.197460E-05  0.737E-04    1.11      15.2  T
   5   -137.5232474 -0.377420E-07  0.375E-04    1.11      29.9  T
   6   -137.5232474 -0.544347E-08  0.205E-04    1.11      54.6  T
     SCC iter.                  ...        0 min,  0.065 sec
     gradient                   ...        0 min,  0.080 sec
 * total energy  :  -134.9548000 Eh     change       -0.4536821E-04 Eh
   gradient norm :     0.0010736 Eh/α   predicted    -0.1757961E-04 ( -61.25%)
   displ. norm   :     0.2297829 α      lambda       -0.3394178E-04
   maximum displ.:     0.1756834 α      in ANC's #5, #9, #4, ...

........................................................................
.............................. CYCLE   42 ..............................
........................................................................
   1   -137.5238249 -0.137524E+03  0.312E-02    1.11       0.0  T
   2   -137.5238251 -0.155671E-06  0.183E-02    1.11       1.0  T
   3   -137.5238224  0.269929E-05  0.483E-03    1.11       2.3  T
   4   -137.5238253 -0.286787E-05  0.785E-04    1.11      14.2  T
   5   -137.5238253 -0.425694E-07  0.406E-04    1.11      27.5  T
   6   -137.5238253 -0.340427E-08  0.256E-04    1.11      43.6  T
     SCC iter.                  ...        0 min,  0.065 sec
     gradient                   ...        0 min,  0.080 sec
 * total energy  :  -134.9548442 Eh     change       -0.4419921E-04 Eh
   gradient norm :     0.0010888 Eh/α   predicted    -0.1737147E-04 ( -60.70%)
   displ. norm   :     0.1990984 α      lambda       -0.2632825E-04
   maximum displ.:     0.1544764 α      in ANC's #5, #9, #4, ...
 * RMSD in coord.:     0.3930791 α      energy gain  -0.1838962E-02 Eh

generating ANC from model Hessian ...
Using Lindh-Hessian (1995)
 Shifting diagonal of input Hessian by    9.9902568107524820E-003
 Lowest  eigenvalues of input Hessian
    0.000000    0.000000    0.000000    0.000000    0.000000    0.000000
    0.010000    0.010008    0.010008    0.010063    0.010103    0.010840
    0.010843    0.010952    0.011420    0.011462    0.011751    0.012002
 Highest eigenvalues
    2.232421    2.247838    2.248332    2.273265    2.694253    3.032308


........................................................................
.............................. CYCLE   43 ..............................
........................................................................
   1   -137.5241864 -0.137524E+03  0.273E-02    1.11       0.0  T
   2   -137.5241865 -0.117565E-06  0.160E-02    1.11       1.0  T
   3   -137.5241853  0.122106E-05  0.331E-03    1.11       3.4  T
   4   -137.5241866 -0.132170E-05  0.545E-04    1.11      20.5  T
   5   -137.5241867 -0.149647E-07  0.310E-04    1.11      36.0  T
   6   -137.5241867 -0.379785E-08  0.134E-04    1.11      83.6  T
     SCC iter.                  ...        0 min,  0.065 sec
     gradient                   ...        0 min,  0.080 sec
 * total energy  :  -134.9548786 Eh     change       -0.3439379E-04 Eh
   gradient norm :     0.0010442 Eh/α   predicted     0.0000000E+00 (-100.00%)
   displ. norm   :     0.0376990 α      lambda       -0.9882006E-05
   maximum displ.:     0.0247468 α      in ANC's #5, #21, #4, ...

........................................................................
.............................. CYCLE   44 ..............................
........................................................................
   1   -137.5241729 -0.137524E+03  0.141E-02    1.11       0.0  T
   2   -137.5241729 -0.167676E-07  0.835E-03    1.11       1.3  T
   3   -137.5241724  0.492358E-06  0.222E-03    1.11       5.0  T
   4   -137.5241729 -0.515404E-06  0.355E-04    1.11      31.5  T
   5   -137.5241729 -0.102032E-07  0.153E-04    1.11      73.2  T
     SCC iter.                  ...        0 min,  0.052 sec
     gradient                   ...        0 min,  0.079 sec
 * total energy  :  -134.9548885 Eh     change       -0.9874972E-05 Eh
   gradient norm :     0.0007320 Eh/α   predicted    -0.4951283E-05 ( -49.86%)
   displ. norm   :     0.0830572 α      lambda       -0.1603742E-04
   maximum displ.:     0.0550961 α      in ANC's #5, #4, #21, ...

........................................................................
.............................. CYCLE   45 ..............................
........................................................................
   1   -137.5239344 -0.137524E+03  0.210E-02    1.11       0.0  T
   2   -137.5239344 -0.535602E-07  0.124E-02    1.11       1.0  T
   3   -137.5239328  0.160141E-05  0.370E-03    1.11       3.0  T
   4   -137.5239345 -0.166811E-05  0.681E-04    1.11      16.4  T
   5   -137.5239346 -0.415396E-07  0.286E-04    1.11      39.1  T
   6   -137.5239346 -0.237111E-08  0.191E-04    1.11      58.7  T
     SCC iter.                  ...        0 min,  0.062 sec
     gradient                   ...        0 min,  0.079 sec
 * total energy  :  -134.9549016 Eh     change       -0.1310619E-04 Eh
   gradient norm :     0.0011262 Eh/α   predicted    -0.8090939E-05 ( -38.27%)
   displ. norm   :     0.0830722 α      lambda       -0.1517409E-04
   maximum displ.:     0.0605350 α      in ANC's #5, #4, #10, ...

........................................................................
.............................. CYCLE   46 ..............................
........................................................................
   1   -137.5234387 -0.137523E+03  0.196E-02    1.11       0.0  T
   2   -137.5234387 -0.349783E-07  0.115E-02    1.11       1.0  T
   3   -137.5234372  0.149551E-05  0.341E-03    1.11       3.3  T
   4   -137.5234388 -0.155981E-05  0.605E-04    1.11      18.5  T
   5   -137.5234388 -0.312335E-07  0.268E-04    1.11      41.7  T
   6   -137.5234388 -0.359040E-08  0.164E-04    1.11      68.0  T
     SCC iter.                  ...        0 min,  0.063 sec
     gradient                   ...        0 min,  0.080 sec
 * total energy  :  -134.9549161 Eh     change       -0.1449383E-04 Eh
   gradient norm :     0.0010803 Eh/α   predicted    -0.7612228E-05 ( -47.48%)
   displ. norm   :     0.0604388 α      lambda       -0.9071246E-05
   maximum displ.:     0.0448466 α      in ANC's #5, #4, #10, ...

........................................................................
.............................. CYCLE   47 ..............................
........................................................................
   1   -137.5230275 -0.137523E+03  0.119E-02    1.11       0.0  T
   2   -137.5230275 -0.201510E-07  0.701E-03    1.11       1.6  T
   3   -137.5230269  0.589240E-06  0.213E-03    1.11       5.2  T
   4   -137.5230275 -0.620398E-06  0.361E-04    1.11      31.0  T
   5   -137.5230275 -0.933110E-08  0.177E-04    1.11      63.2  T
     SCC iter.                  ...        0 min,  0.054 sec
     gradient                   ...        0 min,  0.080 sec
 * total energy  :  -134.9549275 Eh     change       -0.1145307E-04 Eh
   gradient norm :     0.0008320 Eh/α   predicted    -0.4543561E-05 ( -60.33%)
   displ. norm   :     0.0842185 α      lambda       -0.1228929E-04
   maximum displ.:     0.0615561 α      in ANC's #5, #4, #10, ...

........................................................................
.............................. CYCLE   48 ..............................
........................................................................
   1   -137.5229086 -0.137523E+03  0.143E-02    1.11       0.0  T
   2   -137.5229086 -0.336357E-07  0.837E-03    1.11       1.3  T
   3   -137.5229080  0.635304E-06  0.220E-03    1.11       5.1  T
   4   -137.5229086 -0.663652E-06  0.413E-04    1.11      27.1  T
   5   -137.5229086 -0.188066E-07  0.164E-04    1.11      68.1  T
     SCC iter.                  ...        0 min,  0.054 sec
     gradient                   ...        0 min,  0.080 sec
 * total energy  :  -134.9549433 Eh     change       -0.1574667E-04 Eh
   gradient norm :     0.0008402 Eh/α   predicted    -0.6166511E-05 ( -60.84%)
   displ. norm   :     0.1301902 α      lambda       -0.1552579E-04
   maximum displ.:     0.0944089 α      in ANC's #5, #4, #28, ...

........................................................................
.............................. CYCLE   49 ..............................
........................................................................
   1   -137.5230405 -0.137523E+03  0.197E-02    1.11       0.0  T
   2   -137.5230405 -0.771272E-07  0.115E-02    1.11       1.0  T
   3   -137.5230401  0.462143E-06  0.193E-03    1.11       5.8  T
   4   -137.5230406 -0.495312E-06  0.490E-04    1.11      22.8  T
   5   -137.5230406 -0.217859E-07  0.244E-04    1.11      45.9  T
     SCC iter.                  ...        0 min,  0.053 sec
     gradient                   ...        0 min,  0.080 sec
 * total energy  :  -134.9549633 Eh     change       -0.2006539E-04 Eh
   gradient norm :     0.0009386 Eh/α   predicted    -0.7823449E-05 ( -61.01%)
   displ. norm   :     0.1742033 α      lambda       -0.1750087E-04
   maximum displ.:     0.1258096 α      in ANC's #5, #4, #18, ...

........................................................................
.............................. CYCLE   50 ..............................
........................................................................
   1   -137.5230731 -0.137523E+03  0.245E-02    1.11       0.0  T
   2   -137.5230732 -0.100708E-06  0.144E-02    1.11       1.0  T
   3   -137.5230723  0.885972E-06  0.264E-03    1.11       4.2  T
   4   -137.5230733 -0.962352E-06  0.554E-04    1.11      20.2  T
   5   -137.5230733 -0.170063E-07  0.313E-04    1.11      35.7  T
     SCC iter.                  ...        0 min,  0.053 sec
     gradient                   ...        0 min,  0.080 sec
 * total energy  :  -134.9549862 Eh     change       -0.2283324E-04 Eh
   gradient norm :     0.0009792 Eh/α   predicted    -0.8869135E-05 ( -61.16%)
   displ. norm   :     0.2048990 α      lambda       -0.1811536E-04
   maximum displ.:     0.1475261 α      in ANC's #5, #4, #11, ...

........................................................................
.............................. CYCLE   51 ..............................
........................................................................
   1   -137.5231736 -0.137523E+03  0.284E-02    1.11       0.0  T
   2   -137.5231737 -0.120422E-06  0.166E-02    1.11       1.0  T
   3   -137.5231721  0.165663E-05  0.373E-03    1.11       3.0  T
   4   -137.5231739 -0.178511E-05  0.624E-04    1.11      17.9  T
   5   -137.5231739 -0.166141E-07  0.368E-04    1.11      30.4  T
   6   -137.5231739 -0.614961E-09  0.267E-04    1.11      41.9  T
     SCC iter.                  ...        0 min,  0.064 sec
     gradient                   ...        0 min,  0.079 sec
 * total energy  :  -134.9550098 Eh     change       -0.2358344E-04 Eh
   gradient norm :     0.0007830 Eh/α   predicted    -0.9228013E-05 ( -60.87%)
   displ. norm   :     0.2157790 α      lambda       -0.1703386E-04
   maximum displ.:     0.1554131 α      in ANC's #5, #4, #11, ...

........................................................................
.............................. CYCLE   52 ..............................
........................................................................
   1   -137.5231874 -0.137523E+03  0.292E-02    1.11       0.0  T
   2   -137.5231875 -0.145226E-06  0.171E-02    1.11       1.0  T
   3   -137.5231864  0.109757E-05  0.311E-03    1.11       3.6  T
   4   -137.5231876 -0.120825E-05  0.597E-04    1.11      18.7  T
   5   -137.5231877 -0.185481E-07  0.313E-04    1.11      35.7  T
   6   -137.5231877 -0.244327E-08  0.118E-04    1.11      94.6  T
     SCC iter.                  ...        0 min,  0.062 sec
     gradient                   ...        0 min,  0.086 sec
 * total energy  :  -134.9550317 Eh     change       -0.2195242E-04 Eh
   gradient norm :     0.0007075 Eh/α   predicted    -0.8694904E-05 ( -60.39%)
   displ. norm   :     0.2041700 α      lambda       -0.1442517E-04
   maximum displ.:     0.1465869 α      in ANC's #5, #4, #11, ...

........................................................................
.............................. CYCLE   53 ..............................
........................................................................
   1   -137.5230963 -0.137523E+03  0.279E-02    1.11       0.0  T
   2   -137.5230965 -0.136961E-06  0.164E-02    1.11       1.0  T
   3   -137.5230957  0.784302E-06  0.279E-03    1.11       4.0  T
   4   -137.5230966 -0.872053E-06  0.572E-04    1.11      19.5  T
   5   -137.5230966 -0.147230E-07  0.331E-04    1.11      33.8  T
     SCC iter.                  ...        0 min,  0.054 sec
     gradient                   ...        0 min,  0.080 sec
 * total energy  :  -134.9550502 Eh     change       -0.1843822E-04 Eh
   gradient norm :     0.0007186 Eh/α   predicted    -0.7347872E-05 ( -60.15%)
   displ. norm   :     0.1821625 α      lambda       -0.1178667E-04
   maximum displ.:     0.1308848 α      in ANC's #5, #4, #11, ...

........................................................................
.............................. CYCLE   54 ..............................
........................................................................
   1   -137.5231526 -0.137523E+03  0.249E-02    1.11       0.0  T
   2   -137.5231527 -0.105880E-06  0.146E-02    1.11       1.0  T
   3   -137.5231520  0.670883E-06  0.252E-03    1.11       4.4  T
   4   -137.5231527 -0.728346E-06  0.581E-04    1.11      19.2  T
   5   -137.5231528 -0.181267E-07  0.346E-04    1.11      32.3  T
     SCC iter.                  ...        0 min,  0.053 sec
     gradient                   ...        0 min,  0.080 sec
 * total energy  :  -134.9550653 Eh     change       -0.1509845E-04 Eh
   gradient norm :     0.0007723 Eh/α   predicted    -0.5982566E-05 ( -60.38%)
   displ. norm   :     0.1638228 α      lambda       -0.9841272E-05
   maximum displ.:     0.1170184 α      in ANC's #5, #4, #10, ...

........................................................................
.............................. CYCLE   55 ..............................
........................................................................
   1   -137.5230912 -0.137523E+03  0.227E-02    1.11       0.0  T
   2   -137.5230912 -0.881813E-07  0.133E-02    1.11       1.0  T
   3   -137.5230908  0.392977E-06  0.207E-03    1.11       5.4  T
   4   -137.5230913 -0.449176E-06  0.417E-04    1.11      26.8  T
   5   -137.5230913  0.643610E-09  0.340E-04    1.11      32.9  T
     SCC iter.                  ...        0 min,  0.054 sec
     gradient                   ...        0 min,  0.080 sec
 * total energy  :  -134.9550780 Eh     change       -0.1270092E-04 Eh
   gradient norm :     0.0006387 Eh/α   predicted    -0.4982652E-05 ( -60.77%)
   displ. norm   :     0.1520277 α      lambda       -0.8476235E-05
   maximum displ.:     0.1088555 α      in ANC's #5, #4, #10, ...

........................................................................
.............................. CYCLE   56 ..............................
........................................................................
   1   -137.5230466 -0.137523E+03  0.220E-02    1.11       0.0  T
   2   -137.5230467 -0.826430E-07  0.129E-02    1.11       1.0  T
   3   -137.5230463  0.378266E-06  0.196E-03    1.11       5.7  T
   4   -137.5230468 -0.427221E-06  0.436E-04    1.11      25.6  T
   5   -137.5230468 -0.171929E-08  0.343E-04    1.11      32.6  T
     SCC iter.                  ...        0 min,  0.054 sec
     gradient                   ...        0 min,  0.080 sec
 * total energy  :  -134.9550887 Eh     change       -0.1073393E-04 Eh
   gradient norm :     0.0005354 Eh/α   predicted    -0.4284308E-05 ( -60.09%)
   displ. norm   :     0.1195178 α      lambda       -0.6151331E-05
   maximum displ.:     0.0861962 α      in ANC's #5, #4, #10, ...

........................................................................
.............................. CYCLE   57 ..............................
........................................................................
   1   -137.5230790 -0.137523E+03  0.174E-02    1.11       0.0  T
   2   -137.5230790 -0.507534E-07  0.102E-02    1.11       1.1  T
   3   -137.5230787  0.376881E-06  0.182E-03    1.11       6.1  T
   4   -137.5230791 -0.418476E-06  0.320E-04    1.11      34.9  T
   5   -137.5230791 -0.961222E-10  0.253E-04    1.11      44.2  T
     SCC iter.                  ...        0 min,  0.054 sec
     gradient                   ...        0 min,  0.080 sec
 * total energy  :  -134.9550963 Eh     change       -0.7605005E-05 Eh
   gradient norm :     0.0003852 Eh/α   predicted    -0.3095630E-05 ( -59.29%)
   displ. norm   :     0.0846731 α      lambda       -0.4052876E-05
   maximum displ.:     0.0625914 α      in ANC's #5, #10, #4, ...

........................................................................
.............................. CYCLE   58 ..............................
........................................................................
   1   -137.5230994 -0.137523E+03  0.127E-02    1.11       0.0  T
   2   -137.5230994 -0.241114E-07  0.742E-03    1.11       1.5  T
   3   -137.5230991  0.371471E-06  0.183E-03    1.11       6.1  T
   4   -137.5230995 -0.399682E-06  0.277E-04    1.11      40.4  T
   5   -137.5230995 -0.173321E-08  0.203E-04    1.11      55.0  T
     SCC iter.                  ...        0 min,  0.053 sec
     gradient                   ...        0 min,  0.080 sec
 * total energy  :  -134.9551014 Eh     change       -0.5103573E-05 Eh
   gradient norm :     0.0002970 Eh/α   predicted    -0.2034310E-05 ( -60.14%)
   displ. norm   :     0.0560014 α      lambda       -0.2732965E-05
   maximum displ.:     0.0420932 α      in ANC's #5, #10, #4, ...

........................................................................
.............................. CYCLE   59 ..............................
........................................................................
   1   -137.5231596 -0.137523E+03  0.845E-03    1.11       0.0  T
   2   -137.5231596 -0.928779E-08  0.496E-03    1.11       2.3  T
   3   -137.5231593  0.251014E-06  0.150E-03    1.11       7.5  T
   4   -137.5231596 -0.267055E-06  0.201E-04    1.11      55.5  T
   5   -137.5231596 -0.126633E-08  0.142E-04    1.11      78.7  T
     SCC iter.                  ...        0 min,  0.053 sec
     gradient                   ...        0 min,  0.079 sec
 * total energy  :  -134.9551050 Eh     change       -0.3605056E-05 Eh
   gradient norm :     0.0002748 Eh/α   predicted    -0.1370782E-05 ( -61.98%)
   displ. norm   :     0.0509673 α      lambda       -0.2635041E-05
   maximum displ.:     0.0373253 α      in ANC's #5, #10, #26, ...

   *** GEOMETRY OPTIMIZATION CONVERGED AFTER 59 ITERATIONS ***

------------------------------------------------------------------------
 total energy gain   :        -0.6043876 Eh     -379.2589 kcal/mol
 total RMSD          :         1.3412635 a0        0.7098 Å
 total power (kW/mol):       -26.8952446 (step) -152.5659 (real)
------------------------------------------------------------------------

 ANCopt (total)                0 d,  0 h,  0 min, 10.401 sec
 optimizer setup                ...        0 min,  0.000 sec (  0.001%)
 model hessian                  ...        0 min,  0.048 sec (  0.463%)
 ANC generation                 ...        0 min,  0.019 sec (  0.182%)
 coordinate transformation      ...        0 min,  0.003 sec (  0.031%)
 single point calculation       ...        0 min, 10.304 sec ( 99.066%)
 optimization log               ...        0 min,  0.012 sec (  0.111%)
 hessian update                 ...        0 min,  0.003 sec (  0.026%)
 rational function              ...        0 min,  0.009 sec (  0.090%)

================
 final structure:
================
80
 xtb: 6.4.1 (bd6e46d)
C         9.23579539530813    3.38667101983186    0.30785500743406
C        10.18912927653435    2.43743222757117    0.23516224476051
C         9.48499140450586    1.17536684535801    0.09512403043685
C        10.14277323926318   -0.06687287007824   -0.01197131346928
C         9.48463755115795   -1.30197066783904   -0.13341686252273
C        10.07801022332917   -2.58873121928811   -0.23243276412473
C         9.06631163349136   -3.49998799183677   -0.33248156602582
C         7.83361582287810   -2.78911442964291   -0.29899203560057
N         8.13903319680150   -1.46757602894179   -0.17602289131408
C         6.56217687078169   -3.33758713045985   -0.38213176620022
C         5.34859854597842   -2.66423410220383   -0.36183355579757
C         4.06824180271917   -3.34957165184574   -0.46686674770750
C         3.12394365356650   -2.39200260689864   -0.41629429440586
C         3.83446039723197   -1.13001996903148   -0.27928488166024
N         5.16881047828559   -1.33192397939178   -0.25038510304755
C         3.19504250414290    0.10012908109857   -0.19113606565818
C         3.82829502169686    1.32597267102653   -0.05586969496388
C         3.23323981086997    2.61618254210979    0.04292245926757
C         4.24051888797223    3.52700305422716    0.16491194040292
C         5.47675586821840    2.81755470326300    0.14281878084656
N         5.17551610471623    1.49929153891938    0.00859221525647
C         6.74794716094022    3.36409923012719    0.23743788513683
C         7.96206913534842    2.69434719536206    0.20868878027485
N         8.15443409228272    1.35920745432916    0.08329868199916
H         9.34706888975402    4.44850239723568    0.41566169414724
H        11.25613671596978    2.54296831158605    0.27070591115957
H        11.13401477642356   -2.77711073506525   -0.22568835496615
H         9.15481732068608   -4.56517700867839   -0.42239383490998
H         7.47435813822275   -0.70408810332013   -0.12495182664526
H         6.51433070223134   -4.41363735026877   -0.47752446995845
H         3.95104261724911   -4.41190580356226   -0.56499435597358
[...]
    63   6 C       64   7 N                                       1.3619384
    63   6 C       65   6 C                                       1.3871879
    65   6 C       66   6 C                                       1.3880095
    46   6 C       67   7 N                                       1.3498429
    66   6 C       67   7 N                                       1.3489975
    44   6 C       68   1 H                                       1.0732744
    45   6 C       69   1 H                                       1.0732365
    47   6 C       70   1 H                                       1.0804046
    49   6 C       71   1 H                                       1.0727181
    50   6 C       72   1 H                                       1.0728336
    52   7 N       73   1 H                                       1.0129840 (min)
    53   6 C       74   1 H                                       1.0814140
    55   6 C       75   1 H                                       1.0730769
    56   6 C       76   1 H                                       1.0728095
    61   6 C       77   1 H                                       1.0726929
    62   6 C       78   1 H                                       1.0726335
    64   7 N       79   1 H                                       1.0135523
    65   6 C       80   1 H                                       1.0813271

 * 4 distinct bonds (by element types)

   Z      Z             #   av. dist./Å        max./Å        min./Å
   1 H    6 C          22     1.0751286     1.0814140     1.0726335
   6 C    6 C          41     1.3876630     1.4547225     1.2204130
   1 H    7 N           4     1.0132716     1.0135655     1.0129840
   6 C    7 N          16     1.3542428     1.3619384     1.3432498

           -------------------------------------------------
          |               Frequency Printout                |
           -------------------------------------------------
 projected vibrational frequencies (cm⁻¹)
eigval :       -0.00    -0.00    -0.00    -0.00     0.00     0.00
eigval :        4.41     6.35     7.66    16.99    23.37    37.56
eigval :       42.02    42.40    42.84    59.65    65.84    81.65
eigval :       89.87    93.15    94.31   108.76   114.52   116.08
eigval :      120.30   141.81   142.29   151.41   163.66   180.26
eigval :      183.14   184.12   194.19   201.95   202.61   209.42
eigval :      254.37   265.32   265.41   269.28   270.96   277.02
eigval :      294.19   296.08   299.37   317.02   339.77   341.68
eigval :      344.96   349.77   350.55   354.47   357.19   361.98
eigval :      362.28   364.31   382.63   393.37   394.02   394.11
eigval :      418.63   421.65   430.11   430.26   437.85   441.51
eigval :      456.21   502.97   503.48   600.74   600.88   605.48
eigval :      605.66   627.15   627.27   636.65   636.70   647.00
eigval :      647.03   650.66   650.72   653.56   653.61   658.59
eigval :      658.86   668.52   668.79   701.07   713.97   717.10
eigval :      722.92   725.77   728.63   728.96   741.82   742.83
eigval :      748.01   749.60   760.79   762.01   770.70   770.84
eigval :      789.34   789.77   798.46   798.51   806.18   806.21
eigval :      812.02   812.15   819.19   819.25   827.89   827.93
eigval :      836.49   836.50   839.26   839.31   842.32   842.32
eigval :      842.91   842.91   852.45   852.46   853.70   853.73
eigval :      896.97   949.52   960.14   960.34   972.57   972.69
eigval :      976.79   977.72   999.81   999.96  1006.82  1010.13
eigval :     1016.09  1016.60  1031.35  1031.68  1046.60  1063.46
eigval :     1063.57  1066.60  1066.63  1069.45  1069.77  1074.96
eigval :     1074.99  1096.04  1118.48  1122.67  1126.09  1140.36
eigval :     1151.02  1160.99  1169.94  1180.97  1183.46  1184.29
eigval :     1188.24  1206.09  1208.05  1233.15  1233.66  1255.09
eigval :     1257.03  1284.50  1285.52  1294.56  1305.06  1305.83
eigval :     1337.89  1338.55  1346.96  1347.15  1362.00  1366.44
eigval :     1375.04  1375.07  1383.18  1383.23  1387.91  1388.10
eigval :     1392.64  1397.39  1446.22  1456.27  1467.84  1477.86
eigval :     1481.47  1490.54  1504.18  1505.25  1506.67  1508.61
eigval :     1510.20  1513.56  1513.64  1549.54  1550.10  1554.79
eigval :     1555.28  1560.29  1560.54  1585.32  1585.37  1594.39
eigval :     1594.57  2151.19  2200.42  2261.43  3076.74  3076.87
eigval :     3077.63  3077.68  3086.54  3086.54  3140.02  3140.03
eigval :     3145.05  3145.10  3155.12  3155.33  3156.54  3156.55
eigval :     3159.61  3159.63  3161.80  3161.87  3168.95  3169.14
eigval :     3172.02  3172.12  3347.50  3347.67  3356.46  3356.53
 reduced masses (amu)
   1: 11.45   2: 11.82   3: 11.84   4: 11.88   5: 11.75   6: 11.86   7: 11.23   8: 11.43
   9: 11.51  10: 11.40  11: 11.48  12: 11.41  13: 11.82  14: 10.87  15: 10.89  16: 11.06
  17: 11.78  18: 11.15  19: 11.90  20: 10.87  21: 10.77  22: 10.78  23: 10.73  24: 10.83
  25: 11.25  26: 12.03  27: 12.02  28: 12.02  29: 11.67  30: 11.34  31: 11.49  32: 11.96
  33: 11.80  34: 12.36  35: 12.47  36: 11.39  37: 11.33  38: 10.46  39: 10.47  40: 11.42
  41: 11.10  42: 11.81  43: 11.23  44: 11.88  45: 11.98  46: 11.91  47: 11.03  48: 11.05
  49: 12.00  50: 10.27  51: 11.98  52: 10.45  53: 10.99  54: 10.82  55: 10.90  56: 10.88
  57: 11.99  58: 11.98  59:  9.93  60:  9.92  61: 10.30  62: 10.30  63:  9.91  64:  9.91
  65: 11.54  66: 11.72  67: 11.76  68: 11.51  69: 11.51  70: 11.26  71: 11.25  72: 10.95
  73: 10.95  74: 10.66  75: 10.66  76: 10.81  77: 10.81  78: 10.97  79: 10.97  80:  9.60
  81:  9.71  82:  9.54  83:  9.60  84:  4.77  85:  4.61  86: 11.30  87: 11.30  88: 11.67
  89: 11.08  90: 11.01  91: 10.85  92: 10.44  93:  2.30  94:  2.16  95: 10.90  96: 10.89
  97: 10.46  98: 10.38  99: 11.17 100: 11.24 101: 11.31 102: 11.30 103: 11.58 104: 11.59
 105:  3.69 106:  3.69 107:  3.86 108:  3.85 109:  4.24 110:  4.23 111:  4.41 112:  4.41
 113:  3.80 114:  3.81 115:  3.74 116:  3.74 117:  4.02 118:  4.02 119:  3.71 120:  3.71
 121:  3.73 122:  3.73 123:  3.43 124:  3.43 125:  3.37 126:  3.37 127: 11.41 128: 10.83
 129:  6.64 130:  6.94 131:  8.64 132:  8.76 133: 10.90 134: 11.06 135:  8.86 136:  8.79
 137:  9.02 138:  8.36 139:  9.09 140:  9.10 141: 10.58 142: 10.85 143:  9.07 144:  1.79
 145:  1.76 146:  1.87 147:  1.85 148:  2.16 149:  2.14 150:  1.90 151:  1.94 152:  7.09
 153:  6.50 154:  5.27 155:  5.74 156:  6.78 157:  7.65 158:  5.83 159:  7.26 160:  6.99
 161:  6.08 162:  5.94 163:  6.88 164:  9.78 165:  9.34 166:  8.50 167:  8.66 168:  7.92
 169:  8.06 170:  8.67 171:  8.63 172: 11.53 173: 10.90 174: 11.06 175: 10.72 176: 10.61
 177: 11.18 178: 11.31 179: 10.60 180: 10.72 181:  9.66 182:  9.55 183: 11.26 184: 11.27
 185: 10.77 186: 10.78 187: 10.61 188: 10.58 189: 11.67 190: 11.52 191: 11.67 192: 11.43
 193: 11.43 194: 11.83 195: 11.85 196: 11.77 197: 11.77 198: 11.60 199: 11.67 200: 11.46
 201: 11.45 202: 11.71 203: 11.75 204: 11.69 205: 11.69 206: 11.61 207: 11.61 208: 11.72
 209: 11.72 210: 11.72 211: 11.72 212: 12.01 213: 12.01 214: 12.01 215:  1.80 216:  1.80
 217:  1.80 218:  1.80 219:  1.81 220:  1.81 221:  1.80 222:  1.80 223:  1.81 224:  1.81
 225:  1.98 226:  1.98 227:  1.82 228:  1.82 229:  1.82 230:  1.82 231:  1.97 232:  1.97
 233:  1.96 234:  1.96 235:  1.96 236:  1.96 237:  1.89 238:  1.89 239:  1.89 240:  1.89
 IR intensities (km·mol⁻¹)
   1:  0.54   2:  0.59   3:  3.71   4:  0.35   5:  0.30   6:  0.35   7:  0.07   8:  0.25
   9:  0.04  10:  0.04  11:  0.00  12:  0.52  13:  0.00  14:  0.02  15:  2.97  16:  0.04
  17:  0.83  18:  7.40  19:  0.17  20:  1.21  21: 12.02  22:  0.32  23:  0.24  24:  0.27
  25:  0.05  26:  0.00  27:  0.44  28:  0.38  29:  0.01  30:  0.38  31:  0.52  32:  0.01
  33:  0.12  34:  1.15  35: 24.28  36:  0.04  37:  0.66  38:  0.02  39:  1.03  40:  0.01
  41:  7.14  42:  2.91  43:  0.10  44:  0.01  45:  0.96  46:  0.01  47: 12.13  48:  0.01
  49:  0.01  50:  4.95  51:  0.00  52:  0.12  53:  6.27  54:  0.02  55: 15.24  56:  0.00
  57:  0.01  58:  0.34  59:  0.33  60:  0.11  61:  2.77  62:  0.00  63:  3.32  64:  0.09
  65:  1.44  66:  0.00  67: 10.12  68:  0.14  69:  7.29  70:  2.10  71: 23.56  72:  0.12
  73:  2.88  74:  0.00  75:  0.18  76:  0.02  77:  1.09  78:  0.04  79:  3.74  80:  1.35
  81:  3.17  82: 13.21  83: 13.49  84:  1.37  85:  1.30  86:  0.00  87:  2.73  88:  0.00
  89: 13.29  90:  0.01  91: 15.81  92:  0.28  93:166.77  94:435.00  95:  1.48  96:  0.03
  97:  4.70  98:  0.03  99:  2.28 100:  0.00 101:  0.01 102: 11.33 103:  1.80 104:  0.00
 105:  0.63 106: 42.20 107:  2.82 108:  0.03 109:  0.02 110: 16.33 111:  3.52 112:  0.06
 113:  0.00 114:  0.25 115: 15.51 116:  0.81 117:  2.90 118:104.19 119:  4.55 120: 35.81
 121:  6.37 122:  1.21 123:  0.86 124:  0.07 125:  0.04 126:  0.90 127:  9.41 128:  0.00
 129: 18.21 130:  0.06 131: 15.47 132:  0.26 133: 50.94 134:  0.00 135: 89.61 136:  0.09
 137:  0.14 138:  0.00 139: 30.74 140:  0.02 141: 29.04 142:  0.04 143: 16.01 144:  0.00
 145:  7.85 146:  1.00 147:  1.37 148:  0.01 149:  9.44 150: 14.40 151:  0.24 152:  0.01
 153:  7.98 154:  0.02 155:  5.49 156:  0.01 157:139.39 158:  0.00 159: 19.45 160:  0.01
 161: 58.28 162:  0.00 163:  1.08 164:  0.00 165: 17.76 166:  0.04 167: 83.68 168:  0.00
 169:  1.26 170:  0.00 171:  7.62 172:  0.00 173:  0.01 174: 17.25 175:  0.02 176: 62.07
 177:  0.08 178:  9.81 179: 85.02 180:  0.00 181:  0.06 182: 73.49 183:  0.88 184: 10.92
 185:  0.39 186: 62.86 187:  1.08 188:  0.00 189:  9.77 190:  0.00 191:  9.48 192:  0.01
 193:  8.48 194:  0.00 195: 28.73 196:  0.01 197:  9.38 198:  0.01 199: 18.04 200:  0.06
 201: 60.21 202:  0.02 203: 91.97 204:  0.03 205: 61.21 206:  0.00 207: 29.62 208:  6.40
 209: 81.98 210:116.27 211:  0.01 212:  0.00 213:  0.00 214:  2.82 215:  9.96 216:  2.04
 217:  2.47 218:  0.02 219: 20.70 220:  0.03 221:  0.41 222: 52.57 223: 12.87 224: 51.53
 225:460.67 226:  0.02 227: 61.10 228: 31.51 229: 40.89 230: 20.50 231: 52.49 232: 46.11
 233:274.39 234:  0.05 235:  2.25 236: 73.76 237: 12.81 238: 10.88 239:  2.34 240:  0.23
 Raman intensities (amu)
   1:  0.00   2:  0.00   3:  0.00   4:  0.00   5:  0.00   6:  0.00   7:  0.00   8:  0.00
   9:  0.00  10:  0.00  11:  0.00  12:  0.00  13:  0.00  14:  0.00  15:  0.00  16:  0.00
  17:  0.00  18:  0.00  19:  0.00  20:  0.00  21:  0.00  22:  0.00  23:  0.00  24:  0.00
  25:  0.00  26:  0.00  27:  0.00  28:  0.00  29:  0.00  30:  0.00  31:  0.00  32:  0.00
  33:  0.00  34:  0.00  35:  0.00  36:  0.00  37:  0.00  38:  0.00  39:  0.00  40:  0.00
  41:  0.00  42:  0.00  43:  0.00  44:  0.00  45:  0.00  46:  0.00  47:  0.00  48:  0.00
  49:  0.00  50:  0.00  51:  0.00  52:  0.00  53:  0.00  54:  0.00  55:  0.00  56:  0.00
  57:  0.00  58:  0.00  59:  0.00  60:  0.00  61:  0.00  62:  0.00  63:  0.00  64:  0.00
  65:  0.00  66:  0.00  67:  0.00  68:  0.00  69:  0.00  70:  0.00  71:  0.00  72:  0.00
  73:  0.00  74:  0.00  75:  0.00  76:  0.00  77:  0.00  78:  0.00  79:  0.00  80:  0.00
  81:  0.00  82:  0.00  83:  0.00  84:  0.00  85:  0.00  86:  0.00  87:  0.00  88:  0.00
  89:  0.00  90:  0.00  91:  0.00  92:  0.00  93:  0.00  94:  0.00  95:  0.00  96:  0.00
  97:  0.00  98:  0.00  99:  0.00 100:  0.00 101:  0.00 102:  0.00 103:  0.00 104:  0.00
 105:  0.00 106:  0.00 107:  0.00 108:  0.00 109:  0.00 110:  0.00 111:  0.00 112:  0.00
 113:  0.00 114:  0.00 115:  0.00 116:  0.00 117:  0.00 118:  0.00 119:  0.00 120:  0.00
 121:  0.00 122:  0.00 123:  0.00 124:  0.00 125:  0.00 126:  0.00 127:  0.00 128:  0.00
 129:  0.00 130:  0.00 131:  0.00 132:  0.00 133:  0.00 134:  0.00 135:  0.00 136:  0.00
 137:  0.00 138:  0.00 139:  0.00 140:  0.00 141:  0.00 142:  0.00 143:  0.00 144:  0.00
 145:  0.00 146:  0.00 147:  0.00 148:  0.00 149:  0.00 150:  0.00 151:  0.00 152:  0.00
 153:  0.00 154:  0.00 155:  0.00 156:  0.00 157:  0.00 158:  0.00 159:  0.00 160:  0.00
 161:  0.00 162:  0.00 163:  0.00 164:  0.00 165:  0.00 166:  0.00 167:  0.00 168:  0.00
 169:  0.00 170:  0.00 171:  0.00 172:  0.00 173:  0.00 174:  0.00 175:  0.00 176:  0.00
 177:  0.00 178:  0.00 179:  0.00 180:  0.00 181:  0.00 182:  0.00 183:  0.00 184:  0.00
 185:  0.00 186:  0.00 187:  0.00 188:  0.00 189:  0.00 190:  0.00 191:  0.00 192:  0.00
 193:  0.00 194:  0.00 195:  0.00 196:  0.00 197:  0.00 198:  0.00 199:  0.00 200:  0.00
 201:  0.00 202:  0.00 203:  0.00 204:  0.00 205:  0.00 206:  0.00 207:  0.00 208:  0.00
Refinement of some symmetry elements was terminated before convergence was reached.
Some symmetry elements may remain unidentified.
Molecule has no symmetry elements
It seems to be the C1 point group
 209:  0.00 210:  0.00 211:  0.00 212:  0.00 213:  0.00 214:  0.00 215:  0.00 216:  0.00
 217:  0.00 218:  0.00 219:  0.00 220:  0.00 221:  0.00 222:  0.00 223:  0.00 224:  0.00
 225:  0.00 226:  0.00 227:  0.00 228:  0.00 229:  0.00 230:  0.00 231:  0.00 232:  0.00
 233:  0.00 234:  0.00 235:  0.00 236:  0.00 237:  0.00 238:  0.00 239:  0.00 240:  0.00
 output can be read by thermo (or use thermo option).
 writing <g98.out> molden fake output.
 recommended (thermochemical) frequency scaling factor: 1.0
           -------------------------------------------------
          |             Thermodynamic Functions             |
           -------------------------------------------------

c1  symmetry found (for desy threshold:  0.10E+00) used in thermo

          ...................................................
          :                      SETUP                      :
          :.................................................:
          :  # frequencies                         234      :
          :  # imaginary freq.                       0      :
          :  linear?                             false      :
          :  only rotor calc.                    false      :
          :  symmetry                               c1      :
          :  rotational number                       1      :
          :  scaling factor                  1.0000000      :
          :  rotor cutoff                   50.0000000 cm⁻¹ :
          :  imag. cutoff                  -20.0000000 cm⁻¹ :
          :.................................................:

    mode    ω/cm⁻¹     T·S(HO)/kcal·mol⁻¹    T·S(FR)/kcal·mol⁻¹   T·S(vib)
   ------------------------------------------------------------------------
       1      4.41    -2.87370 (  0.01%)    -1.77593 ( 99.99%)    -1.77599
       2      6.35    -2.65726 (  0.03%)    -1.66771 ( 99.97%)    -1.66797
       3      7.66    -2.54633 (  0.06%)    -1.61224 ( 99.94%)    -1.61276
       4     16.99    -2.07440 (  1.32%)    -1.37622 ( 98.68%)    -1.38542
       5     23.37    -1.88580 (  4.56%)    -1.28186 ( 95.44%)    -1.30937
       6     37.56    -1.60517 ( 24.15%)    -1.14129 ( 75.85%)    -1.25333
       7     42.02    -1.53890 ( 33.28%)    -1.10806 ( 66.72%)    -1.25145
       8     42.40    -1.53361 ( 34.08%)    -1.10540 ( 65.92%)    -1.25134
       9     42.84    -1.52748 ( 35.02%)    -1.10233 ( 64.98%)    -1.25122
      10     59.65    -1.33236 ( 66.95%)    -1.00427 ( 33.05%)    -1.22392
      11     65.84    -1.27430 ( 75.04%)    -0.97502 ( 24.96%)    -1.19960
      12     81.65    -1.14814 ( 87.67%)    -0.91128 ( 12.33%)    -1.11894
      13     89.87    -1.09209 ( 91.26%)    -0.88285 (  8.74%)    -1.07380
      14     93.15    -1.07119 ( 92.33%)    -0.87223 (  7.67%)    -1.05594
      15     94.31    -1.06397 ( 92.68%)    -0.86856 (  7.32%)    -1.04966
      16    108.76    -0.98119 ( 95.72%)    -0.82633 (  4.28%)    -0.97456
      17    114.52    -0.95133 ( 96.49%)    -0.81104 (  3.51%)    -0.94641
      18    116.08    -0.94352 ( 96.67%)    -0.80703 (  3.33%)    -0.93898
      19    120.30    -0.92293 ( 97.10%)    -0.79646 (  2.90%)    -0.91927
      20    141.81    -0.82865 ( 98.48%)    -0.74773 (  1.52%)    -0.82742
      21    142.29    -0.82671 ( 98.50%)    -0.74672 (  1.50%)    -0.82551
      22    151.41    -0.79140 ( 98.82%)    -0.72831 (  1.18%)    -0.79066
      23    163.66    -0.74747 ( 99.14%)    -0.70527 (  0.86%)    -0.74711
      24    180.26    -0.69341 ( 99.41%)    -0.67666 (  0.59%)    -0.69332
      25    183.14    -0.68460 ( 99.45%)    -0.67196 (  0.55%)    -0.68453
      26    184.12    -0.68163 ( 99.46%)    -0.67038 (  0.54%)    -0.68157
      27    194.19    -0.65218 ( 99.56%)    -0.65460 (  0.44%)    -0.65219
      28    201.95    -0.63066 ( 99.63%)    -0.64299 (  0.37%)    -0.63070
      29    202.61    -0.62887 ( 99.63%)    -0.64203 (  0.37%)    -0.62892
      30    209.42    -0.61084 ( 99.68%)    -0.63224 (  0.32%)    -0.61091
      31    254.37    -0.50689 ( 99.85%)    -0.57464 (  0.15%)    -0.50699
      32    265.32    -0.48495 ( 99.87%)    -0.56215 (  0.13%)    -0.48505
      33    265.41    -0.48476 ( 99.87%)    -0.56204 (  0.13%)    -0.48485
      34    269.28    -0.47729 ( 99.88%)    -0.55776 (  0.12%)    -0.47738
      35    270.96    -0.47408 ( 99.88%)    -0.55592 (  0.12%)    -0.47418
      36    277.02    -0.46273 ( 99.89%)    -0.54936 (  0.11%)    -0.46282
      37    294.19    -0.43224 ( 99.92%)    -0.53155 (  0.08%)    -0.43233
      38    296.08    -0.42903 ( 99.92%)    -0.52965 (  0.08%)    -0.42911
      39    299.37    -0.42349 ( 99.92%)    -0.52637 (  0.08%)    -0.42357
   ------------------------------------------------------------------------

   temp. (K)  partition function   enthalpy   heat capacity  entropy
                                   cal/mol     cal/K/mol   cal/K/mol   J/K/mol
 298.15  VIB  0.464E+21            25688.539    169.094    161.388
         ROT  0.215E+09              888.752      2.981     41.108
         INT  0.997E+29            26577.292    172.074    202.496
         TR   0.176E+29             1481.254      4.968     45.458
         TOT                       28058.5455   177.0426   247.9538  1037.4386

       T/K    H(0)-H(T)+PV         H(T)/Eh          T*S/Eh         G(T)/Eh
   ------------------------------------------------------------------------
    298.15    0.447141E-01    0.622986E+00    0.117811E+00    0.505175E+00
   ------------------------------------------------------------------------

         :::::::::::::::::::::::::::::::::::::::::::::::::::::
         ::                  THERMODYNAMIC                  ::
         :::::::::::::::::::::::::::::::::::::::::::::::::::::
         :: total free energy        -134.449929963342 Eh   ::
         ::.................................................::
         :: total energy             -134.955105004784 Eh   ::
         :: zero point energy           0.578271745164 Eh   ::
         :: G(RRHO) w/o ZPVE           -0.073096703723 Eh   ::
         :: G(RRHO) contrib.            0.505175041442 Eh   ::
         :::::::::::::::::::::::::::::::::::::::::::::::::::::

optimized geometry written to: xtbopt.xyz


           -------------------------------------------------
          | TOTAL ENERGY             -134.955105004784 Eh   |
          | TOTAL ENTHALPY           -134.332119121140 Eh   |
          | TOTAL FREE ENERGY        -134.449929963342 Eh   |
          | GRADIENT NORM               0.000274644691 Eh/α |
          | HOMO-LUMO GAP               1.106491274859 eV   |
           -------------------------------------------------

------------------------------------------------------------------------
 * finished run on 2021/11/19 at 15:14:06.559     
------------------------------------------------------------------------
 total:
 * wall-time:     0 d,  0 h,  1 min, 26.178 sec
 *  cpu-time:     0 d,  0 h,  1 min, 26.179 sec
 * ratio c/w:     1.000 speedup
 SCF:
 * wall-time:     0 d,  0 h,  0 min,  0.271 sec
 *  cpu-time:     0 d,  0 h,  0 min,  0.271 sec
 * ratio c/w:     1.000 speedup
 ANC optimizer:
 * wall-time:     0 d,  0 h,  0 min, 10.536 sec
 *  cpu-time:     0 d,  0 h,  0 min, 10.536 sec
 * ratio c/w:     1.000 speedup
 analytical hessian:
 * wall-time:     0 d,  0 h,  1 min, 15.297 sec
 *  cpu-time:     0 d,  0 h,  1 min, 15.298 sec
 * ratio c/w:     1.000 speedup

