80
 energy: -134.350717423285 gnorm: 1.452345811630 xtb: 6.4.1 (bd6e46d)
C         9.78246700000000    3.50492100000000    0.78729300000000
C        10.67244500000000    2.56466100000000    0.58909800000000
C        10.01094300000000    1.30458600000000    0.28829100000000
C        10.36938200000000   -0.00107600000000   -0.00039100000000
C         9.54420300000000   -1.13214800000000   -0.08560700000000
C         9.99976900000000   -2.34087200000000    0.49570000000000
C         9.02707400000000   -3.27341800000000    0.29554500000000
C         7.99598100000000   -2.60571700000000   -0.40744200000000
N         8.33270600000000   -1.32485800000000   -0.62435600000000
C         6.83802000000000   -3.33183300000000   -0.73915900000000
C         5.51991900000000   -2.88913700000000   -0.62562500000000
C         4.20757300000000   -3.49127100000000   -0.72260400000000
C         3.28594500000000   -2.54462300000000   -0.51651900000000
C         3.98283100000000   -1.29879300000000   -0.27978800000000
N         5.30390400000000   -1.57854500000000   -0.35947400000000
C         3.58358900000000    0.00320400000000   -0.01178500000000
C         4.41620100000000    1.13988000000000    0.06412400000000
C         3.98205800000000    2.34187000000000   -0.54601700000000
C         4.97757100000000    3.25825800000000   -0.35406100000000
C         5.99172200000000    2.58501500000000    0.36987000000000
N         5.62652500000000    1.31719300000000    0.60869400000000
C         7.16136300000000    3.29197200000000    0.69137000000000
C         8.47661600000000    2.88844700000000    0.62135400000000
N         8.66623900000000    1.57734300000000    0.32495200000000
H         9.94973200000000    4.53346400000000    1.02588300000000
H        11.74270400000000    2.68799800000000    0.63811600000000
H        10.96029000000000   -2.52657400000000    1.01427700000000
H         9.06395600000000   -4.33002800000000    0.62087200000000
H         7.72942100000000   -0.55744700000000   -1.17187600000000
H         6.92641100000000   -4.36726000000000   -1.11750600000000
H         4.00889700000000   -4.55197200000000   -0.93134900000000
H         2.21653500000000   -2.73655700000000   -0.53575200000000
H         2.50864600000000    0.09247400000000    0.12596000000000
H         3.02840300000000    2.53342700000000   -1.07481400000000
H         4.96314900000000    4.30848700000000   -0.70050200000000
H         6.21984900000000    0.55975000000000    1.18069100000000
H         7.09285500000000    4.34937600000000    1.04808600000000
C        11.45321700000000    0.01326800000000    0.00481700000000
C        12.66875000000000   -0.01207600000000   -0.00566300000000
C        14.09026700000000   -0.03349900000000   -0.00983800000000
C        15.29882900000000   -0.03571000000000   -0.00973300000000
C        16.71990400000000   -0.01675100000000   -0.01036000000000
C        17.93104600000000    0.01326800000000    0.00481700000000
C        25.18863400000000    3.50067800000000    0.64190100000000
C        26.14561900000000    2.61088200000000    0.46989700000000
C        25.45907100000000    1.34884400000000    0.24772100000000
C        25.82606300000000    0.02577900000000    0.00234100000000
C        25.00240900000000   -1.10846000000000   -0.03776800000000
C        25.45646800000000   -2.28634800000000    0.60553500000000
C        24.47658300000001   -3.22245200000000    0.44101100000000
C        23.45325600000000   -2.58532400000000   -0.29885000000000
N        23.79480800000000   -1.31923500000000   -0.57523800000000
C        22.28063400000000   -3.31464600000000   -0.59810500000000
C        20.97584200000000   -2.87221200000000   -0.52864200000000
C        19.68907300000000   -3.52236500000000   -0.67171600000000
C        18.75119600000000   -2.59740200000000   -0.50530800000000
C        19.38485000000000   -1.32098700000000   -0.24998100000000
N        20.72124900000000   -1.56824400000000   -0.27983000000000
C        18.97735200000000   -0.00107600000000   -0.00039100000000
C        19.81766100000000    1.12586600000000    0.04806400000000
C        19.37460100000000    2.31203800000000   -0.58373500000000
C        20.37586100000000    3.21555200000000   -0.40569300000000
C        21.40259300000000    2.56424000000000    0.32728700000000
N        21.03382800000000    1.30310100000000    0.58788600000000
C        22.55803500000000    3.29095000000000    0.63047400000000
C        23.88854200000000    2.86253000000000    0.53948600000000
N        24.13656700000000    1.56033500000000    0.30014000000000
H        25.34954400000000    4.56701100000000    0.83412700000000
H        27.21710500000000    2.73450900000000    0.48081000000000
H        26.92642300000000   -0.05300400000000   -0.15243200000000
H        26.41411000000000   -2.44542300000000    1.13728300000000
H        24.50745700000000   -4.26301700000000    0.81657300000000
H        23.19967800000000   -0.57752400000000   -1.16528200000000
H        22.35763100000000   -4.36192700000000   -0.91056500000000
H        19.46272500000000   -4.56082500000000   -0.87555800000000
H        17.68171200000000   -2.73728900000000   -0.54661100000000
H        18.42330100000000    2.49911300000000   -1.11083000000000
H        20.36567200000000    4.26183300000000   -0.76860200000000
H        21.62158700000000    0.54904400000000    1.16606400000000
H        22.51739200000000    4.34565200000000    0.97408300000000
80
 energy: -134.703174048734 gnorm: 0.306070479824 xtb: 6.4.1 (bd6e46d)
C         9.77327926982765    3.51075187187933    0.78988104796333
C        10.67982033267195    2.55778048500251    0.58649480771552
C         9.96787021023085    1.32544123772323    0.28774335993598
C        10.29147055605250    0.00483157708381    0.00070812310080
C         9.52546036394477   -1.13912746283012   -0.08083839915367
C        10.00266438850958   -2.34181451479146    0.49424825062303
C         9.02803544064571   -3.27843946529304    0.28997126845730
C         7.98674670059372   -2.61986385651482   -0.41195191749320
N         8.31697797591927   -1.32514531286099   -0.62528377007374
C         6.82360103781305   -3.33767068163626   -0.74565833271848
C         5.51781311275495   -2.87663831366107   -0.63011665590329
C         4.20808959560665   -3.49954218394987   -0.72640689307552
C         3.28162731358827   -2.54766637997143   -0.51563783919437
C         3.99414891930495   -1.30340733741973   -0.27389888607270
N         5.31505020694582   -1.56839719577641   -0.35672215171054
C         3.57963504289617   -0.00804244281723   -0.00925671909515
C         4.40494317290631    1.13455329883975    0.06253806237945
C         3.97666334444787    2.34404680072737   -0.54279682314843
C         4.97445530243026    3.26179481808867   -0.34983817076191
C         5.99750787188553    2.59679865991293    0.37244618804046
N         5.63314116948871    1.31149479730991    0.60579224096994
C         7.16904729261410    3.30435440478109    0.70023491407891
C         8.47306133442084    2.88016772122109    0.62621554085652
N         8.65437427918690    1.57590256911366    0.32301092074758
H         9.94791851631282    4.53726491507795    1.02686157103158
H        11.74578374996234    2.68392625837136    0.63698965622311
H        10.95285097967612   -2.51977004935111    1.00998074090399
H         9.06065289624238   -4.32125466440655    0.61716043854548
H         7.74077277324673   -0.57684054791057   -1.15506220321159
H         6.92761449210149   -4.36632937392021   -1.10811361290273
H         4.01120842065676   -4.54903907664518   -0.93099792184493
H         2.21715570236298   -2.73218268398363   -0.53457932985189
H         2.50807919433678    0.09734445975088    0.11908509478689
H         3.03590611291089    2.52845258035672   -1.07053979960531
H         4.96641657454930    4.29945170621706   -0.69681753708344
H         6.20618259222965    0.57790404857976    1.16225563109697
H         7.08756640611846    4.34877269519182    1.03917335674357
C        11.55679920192009    0.00711194594972    0.00617310281109
C        12.74353206363879   -0.01757809758186   -0.00721387513500
C        14.08320987396995   -0.03240803437650   -0.01071863668173
C        15.30062482093256   -0.03523010440606   -0.00891837910445
C        16.63293630260794   -0.01460781504446   -0.00893749423915
C        17.81162540627409    0.01791664229619    0.00371212996263
C        25.18534687770003    3.51303175021759    0.64608780959566
C        26.14786146387275    2.60470499347774    0.46728949805837
C        25.44868580223566    1.34522908716869    0.23992540153865
C        25.83862935968088    0.03687203535120   -0.00162596409434
C        25.01547268789230   -1.10356064499059   -0.03666045003788
C        25.46222694893212   -2.28887008708254    0.60232076888688
C        24.47902366539828   -3.22634997622576    0.43689782486924
C        23.44621677190893   -2.59636548072668   -0.30117978114351
N        23.78904557594633   -1.31293866986283   -0.57225618906286
C        22.27248965597619   -3.32022553615080   -0.60428571145399
C        20.97505748154168   -2.86769228644918   -0.53437056078034
C        19.68976098155543   -3.52928905637504   -0.67464161004269
C        18.74578507728339   -2.59276281992171   -0.50341313106737
C        19.43051567432600   -1.34086134961176   -0.24892005564240
N        20.74091801646579   -1.56411403047407   -0.27744039477550
C        19.07724168584600   -0.01119649023032   -0.00195367099155
C        19.84209703785267    1.13053543796067    0.04319940065536
C        19.37556184447860    2.31240563050011   -0.58041840196033
C        20.37612014364832    3.22464927222989   -0.40078071228810
C        21.41064092060221    2.58063655882897    0.32985302029442
N        21.05050942118028    1.30436522123585    0.58891793399150
C        22.57483979355453    3.29992763465119    0.63756000553872
C        23.88922181770688    2.85367917899496    0.54481391758298
N        24.12529577145198    1.55335167111667    0.29873093905829
H        25.34686961827882    4.56730409464481    0.83445301111500
H        27.21618368636501    2.73328829053266    0.48029900139040
H        26.92379071278943   -0.05999499264819   -0.14479076548712
H        26.40665716609483   -2.44094565189194    1.13294975741136
H        24.50385233923559   -4.25408276586009    0.81262718326585
H        23.21314341550566   -0.59548719189904   -1.14642606635339
H        22.36091889236121   -4.36315782167258   -0.90276188987806
H        19.46740325985396   -4.56247570635130   -0.87592165237529
H        17.68015217349746   -2.73447173691280   -0.54583919085696
H        18.43144517912173    2.49186746269472   -1.10571814200273
H        20.36889115124434    4.25462062041749   -0.76502286335076
H        21.61019033060103    0.56726967513033    1.14842602275370
H        22.51265628327723    4.34492978185738    0.96483960872587
80
 energy: -134.782543828013 gnorm: 0.142162023705 xtb: 6.4.1 (bd6e46d)
C         9.75626572782911    3.51155838995393    0.79744260633742
C        10.67271703089389    2.55206127256455    0.57748069751822
C         9.92064123038732    1.34131723157101    0.27172726974176
C        10.27578570191814    0.01403455752036    0.00387515608687
C         9.52188350654733   -1.14768152473421   -0.07383939924468
C        10.00451671652088   -2.35298546017010    0.48094291287508
C         9.03124653977035   -3.29169361255223    0.26626504180002
C         7.97225401475642   -2.64889873527267   -0.42274702883814
N         8.29827579761431   -1.34006754417279   -0.60680800346006
C         6.80134281801320   -3.34857916202737   -0.76241069516613
C         5.51447682558309   -2.85229979556939   -0.64990017740257
C         4.21125272870541   -3.50063280096041   -0.73743473319189
C         3.28441457734436   -2.54909809797617   -0.50787164209217
C         4.01530456616607   -1.31033046980729   -0.25177023892526
N         5.33688371749465   -1.55011636619002   -0.35064774682576
C         3.57523766167792   -0.02382544901300    0.00110926896887
C         4.38726001509691    1.13135548159057    0.06087436121973
C         3.96372820303902    2.34887561495888   -0.52511852025470
C         4.96122994265017    3.26908531956961   -0.33057820758556
C         5.99642053211681    2.62072401979049    0.38041311133167
N         5.63496422073394    1.31814119527534    0.58271871651723
C         7.16702737911722    3.32936227927249    0.72347952063885
C         8.45552081251489    2.87204307003796    0.64727772863283
N         8.61945963643315    1.57606858033952    0.31810767477066
H         9.93774522976238    4.54116601356682    1.03129091175861
H        11.74120615967279    2.66936815976194    0.63002278033430
H        10.93857553623275   -2.50615741372783    1.00174934118846
H         9.05027627977816   -4.31380328821609    0.60554569629956
H         7.75141450143212   -0.62136840473519   -1.10537195260977
H         6.91986007790180   -4.38252125889466   -1.07253809411932
H         4.02141439995043   -4.54368190803639   -0.93444803477487
H         2.22025651241377   -2.71519295792579   -0.52723335777914
H         2.50271503097546    0.10723269916530    0.08736965829466
H         3.04334398386667    2.51579525646090   -1.06191683898750
H         4.97188114581165    4.28710636585482   -0.68742192592911
H         6.18254164735211    0.61637893632748    1.10775269673158
H         7.06885661752248    4.37216225674737    1.00917277163786
C        11.58490949095142   -0.00596955066857    0.02164422161259
C        12.79287027908794   -0.02944453819053   -0.00683430545983
C        14.08477722715808   -0.03181774436689   -0.01820465422581
C        15.29195999191744   -0.03453699964507   -0.00284855170456
C        16.58362814939172   -0.01483284234782   -0.00921898569859
C        17.79325482202479    0.02210314408964   -0.01324398891375
C        25.18069799691506    3.51803206811426    0.65702802967952
C        26.13878424552311    2.59489992820444    0.45709689088199
C        25.42681130357260    1.34015093846423    0.21431303946258
C        25.85527663640536    0.04776536483315   -0.01594049706967
C        25.03892427042237   -1.10321244586093   -0.03791258011028
C        25.47610428850940   -2.29667469964193    0.58399520452012
C        24.48981327952223   -3.23409358688670    0.41816056675972
C        23.44474522831527   -2.61683280183320   -0.30658548174382
N        23.79059455729529   -1.31718738700236   -0.54867883498200
C        22.27059516788297   -3.33610693022234   -0.62263673119565
C        20.98505796696149   -2.86422765700484   -0.55579545973091
C        19.69608585581750   -3.53255512956444   -0.68328836688925
C        18.75219973162179   -2.58804355250348   -0.49484656740802
C        19.47740078965597   -1.35503229193642   -0.23169929033837
N        20.78325355352138   -1.56268233253028   -0.27213592493283
C        19.09623798949075   -0.02554549609409   -0.00546821615197
C        19.84835412490932    1.13617261520905    0.03737727933264
C        19.37992167678236    2.32463670823923   -0.56414488227209
C        20.37472494180564    3.24606980113129   -0.37815324994258
C        21.42513462285804    2.61565721943759    0.33795098380481
N        21.07224731427851    1.32157746002386    0.56923026546494
C        22.59789204443598    3.31918155035965    0.65569572191433
C        23.89127239154582    2.83677124941686    0.56672457802728
N        24.10157633860861    1.53933154006085    0.29572891661980
H        25.33813383199757    4.56759862840890    0.83914091008128
H        27.20675844898265    2.72469691577948    0.47431244449118
H        26.93075368734497   -0.07905223987010   -0.11189763541877
H        26.39939514696207   -2.43158500502583    1.12409830685707
H        24.49571820734547   -4.24208933260642    0.80278611021186
H        23.23799616247402   -0.63220306751151   -1.09062441870843
H        22.37235789356466   -4.38430755489870   -0.87343178503568
H        19.48496815767269   -4.56673776305706   -0.88002492863917
H        17.68545443135976   -2.72206656423144   -0.53997423925392
H        18.45000210117739    2.47719220842603   -1.09439808376059
H        20.37912010007409    4.25357838696156   -0.75510583948761
H        21.60101627502414    0.61012737121889    1.09637905174686
H        22.50806125323573    4.36528596477405    0.93000465210806
80
 energy: -134.821438231300 gnorm: 0.073162470585 xtb: 6.4.1 (bd6e46d)
C         9.72757257452586    3.50586842040092    0.81104237796197
C        10.64368476752367    2.54061122859196    0.56340005811337
C         9.85726998049169    1.34829570051220    0.25249191544246
C        10.25205204814792    0.02009188637128    0.00908760433661
C         9.51139567906032   -1.16032433758227   -0.06178895908977
C        10.00323221699019   -2.37063535908772    0.46521538957661
C         9.03838048232779   -3.31531207522553    0.23777606373442
C         7.96205436505342   -2.68653797928447   -0.43126519898014
N         8.27538847386942   -1.36358978810284   -0.57794198845016
C         6.78339327409410   -3.36676962385206   -0.77317636885149
C         5.51601545810814   -2.82876544905226   -0.66642021489847
C         4.21812595099925   -3.49207870452766   -0.75270425719625
C         3.29351027268797   -2.54324054178111   -0.49333837745638
C         4.03875495418647   -1.30950037723083   -0.23075167099092
N         5.35871532041617   -1.53341806437138   -0.34567610772007
C         3.57275917928244   -0.03099456776403    0.00664647447118
C         4.36742964909039    1.13696595709263    0.05671409993612
C         3.94130299120842    2.36076499514942   -0.50517666695663
C         4.93353744741579    3.28510987001445   -0.30714830946698
C         5.98271470871796    2.65247865589631    0.38693103872465
N         5.63147308980967    1.33449075056761    0.55351834738775
C         7.14974464348454    3.36451022983504    0.74192507786283
C         8.42261151536158    2.87050471071030    0.66768608292291
N         8.56590930484998    1.57777753861425    0.31907437560801
H         9.91849363364444    4.53693648193270    1.04337264110348
H        11.71527055031846    2.64226067658710    0.61050712316057
H        10.92922048593853   -2.49676958351024    0.98975968280125
H         9.04568724818601   -4.32597981194114    0.58435537770100
H         7.73974439146852   -0.66223345809746   -1.04848215562269
H         6.90417384867517   -4.41233328615705   -1.02355773293280
H         4.03925593618694   -4.53245115315428   -0.94877570550993
H         2.22752893345681   -2.68522443063157   -0.50668406185388
H         2.49893768025881    0.12087437133928    0.04200543955301
H         3.03368396785692    2.50810647736952   -1.05153285117563
H         4.96321642872322    4.29036245560987   -0.67265363035163
H         6.16953347138379    0.64886805118849    1.04671892802771
H         7.03792987825967    4.41263336433515    0.97145597009969
C        11.59234992226472   -0.02963769138148    0.04416459699607
C        12.79881130694456   -0.05121652425758   -0.00359608828164
C        14.08274703669808   -0.03408116709764   -0.02790207363160
C        15.29756817783626   -0.03183905976051    0.00430747938377
C        16.58117243039109   -0.00673609623548   -0.01220104698670
C        17.78783491344391    0.03593774777290   -0.03731346645085
C        25.17457070223800    3.51225944417129    0.67231199245085
C        26.12295904021842    2.57928400596405    0.43921269752213
C        25.39966852439945    1.32967050745256    0.19035647257032
C        25.86753876908497    0.05065324607636   -0.02440359116622
C        25.06450050723950   -1.11242321478911   -0.03639959375400
C        25.49932553619697   -2.31370535719813    0.56234389477963
C        24.51352405847777   -3.25105912102626    0.39585529767410
C        23.45567549779208   -2.64478505071948   -0.31034914090971
N        23.79821268154983   -1.33076848957058   -0.51897917931368
C        22.28389441602916   -3.36283593935701   -0.63622937822125
C        21.00974288570042   -2.86805366432885   -0.57620571468052
C        19.71465803447336   -3.53027438505950   -0.69762300015422
C        18.77935399852469   -2.57591139543144   -0.48155396911637
C        19.54027148993596   -1.36083954223497   -0.21217809781317
N        20.84005152431096   -1.56604762797292   -0.27215774452809
C        19.12178040888915   -0.03484278181231   -0.01046772175615
C        19.86277885788292    1.14723355334390    0.02638275497037
C        19.38804034945606    2.34268354497996   -0.54691106525946
C        20.36969294333382    3.27748251910055   -0.35119649689578
C        21.43604783479658    2.65984024243105    0.34413957374395
N        21.09979549312314    1.34829439499801    0.53920903160376
C        22.61639387818156    3.34598346538774    0.66874296960649
C        23.88941735990963    2.82052258235413    0.58609910719821
N        24.07463324822821    1.52608813289345    0.29267999168497
H        25.32513978442362    4.55967562776726    0.85429009182217
H        27.19081253105240    2.70761729261406    0.45609434977204
H        26.93886290816069   -0.10046857473990   -0.06543066910239
H        26.40910802388473   -2.43042734087556    1.11227224779393
H        24.49890685332968   -4.24611752913568    0.78887578263087
H        23.25331699879720   -0.66227109009326   -1.02832080337677
H        22.39651543255935   -4.41949295978432   -0.83389983387360
H        19.51539648212987   -4.56658558513222   -0.89314683255324
H        17.71001933206035   -2.69505139549966   -0.52235807803736
H        18.46464876941935    2.46578961607948   -1.07908658868311
H        20.38270877393099    4.27309932949115   -0.73620018571689
H        21.61593759010170    0.65075322505805    1.03731769184531
H        22.50894889053976    4.40014387479255    0.88197952519218
80
 energy: -134.846857864993 gnorm: 0.049864314694 xtb: 6.4.1 (bd6e46d)
C         9.69132348710069    3.49429285672943    0.82215787556527
C        10.59793821724682    2.52424614103724    0.54915902289189
C         9.79467393384669    1.34067809208111    0.24162946873749
C        10.22380468330654    0.01753240523552    0.02119664570059
C         9.49631179799343   -1.17652690287989   -0.04597281980220
C        10.00407957351886   -2.39490645894852    0.44921037163993
C         9.05174125935028   -3.34841372792625    0.21075679717375
C         7.95811815354276   -2.72504039390920   -0.43213370149133
N         8.25340487480185   -1.39263724057287   -0.54489644076977
C         6.77355763063676   -3.38906586500758   -0.77064958099740
C         5.52149077792552   -2.81296140550938   -0.67528487969924
C         4.22488019395773   -3.47577559186555   -0.76361890527495
C         3.30574635951604   -2.52882022833547   -0.47906218844569
C         4.05931105486337   -1.29925913490525   -0.21830296348951
N         5.37785082098868   -1.52073369088040   -0.34346788975877
C         3.57324265260825   -0.02491941557577   -0.00012607884025
C         4.34815920212925    1.15372269346648    0.04825600321538
C         3.90671387252850    2.38252158017846   -0.48782261330336
C         4.88990729867092    3.31354220120826   -0.28518518604414
C         5.95440636206491    2.68795449313155    0.38855751390936
N         5.61891423112852    1.36139815972699    0.52628768006336
C         7.11857107469060    3.39959376846461    0.74718183462656
C         8.38016797209617    2.87237539933712    0.68276382398159
N         8.50501511611182    1.57739978247441    0.32676957760573
H         9.89045647629339    4.52377477474885    1.05971079323376
H        11.67171257848722    2.60847538893722    0.58203864279058
H        10.93088212779464   -2.50029149729489    0.97438785530578
H         9.05631376411894   -4.35981413749763    0.55230108408716
H         7.69646372289778   -0.68512527520438   -0.99021091489310
H         6.87809162838243   -4.44795539217314   -0.96985296077116
H         4.05622962557145   -4.51541838146356   -0.96983217886081
H         2.23728625516062   -2.64881721367046   -0.47816226621404
H         2.49891633501283    0.13066208502302   -0.00842332137124
H         3.00085501586252    2.51274213553450   -1.03913912999680
H         4.92949311073733    4.31622120625210   -0.65222604875978
H         6.17752525432935    0.66420792450552    0.98839155507507
H         7.00425404482634    4.45823501480401    0.92854509096992
C        11.58021493776404   -0.05605661880289    0.06846794711101
C        12.78927728937484   -0.07575316027937    0.00378788064154
C        14.08438429466028   -0.03951270562874   -0.03299145601121
C        15.29601700140682   -0.02859602245251    0.00711951499708
C        16.59146736277533    0.00483893513786   -0.01922393062933
C        17.80172108844084    0.05484450405290   -0.06427691227237
C        25.16930876247820    3.49760325316428    0.68324756817775
C        26.10649014529963    2.55981255154987    0.42263450107675
C        25.37452127619090    1.31519621850880    0.17667340844377
C        25.87048436198380    0.04264060074045   -0.01899770900102
C        25.08752508663869   -1.13230911580077   -0.02946458527864
C        25.53429907121939   -2.34113191787493    0.54319225134772
C        24.55308942124709   -3.28092182875113    0.37518690084968
C        23.48159164260819   -2.67771177450473   -0.30942937816412
N        23.81377597803051   -1.35571300979970   -0.49101574329461
C        22.31244201661070   -3.39414925664766   -0.63741379292835
C        21.04691587978174   -2.87385308480408   -0.59035230045607
C        19.74492431830322   -3.52123340710304   -0.70904883809092
C        18.82332055067216   -2.55813949782003   -0.46793726138354
C        19.60423542826029   -1.35274664603679   -0.20125122918621
N        20.90140367822328   -1.56869109529156   -0.27829371453463
C        19.15347168945420   -0.03330234176938   -0.02256611630001
C        19.88315351237462    1.16274889002285    0.01047196913321
C        19.39227754205914    2.36721532989156   -0.53081734742731
C        20.35797363921220    3.31604846817963   -0.32585067064090
C        21.44153435375472    2.70360466463980    0.34341686625435
N        21.12739165947400    1.38001680469554    0.50513981573635
C        22.62623614002390    3.37552400654172    0.66775296089878
C        23.88394724389708    2.81064858939702    0.59664417726819
N        24.05055906342923    1.51646309576684    0.29116474488149
H        25.31389364699409    4.54383136632561    0.87524814137947
H        27.17444702236291    2.68259269926338    0.42948577791367
H        26.94247547936727   -0.11388137795594   -0.01164538425220
H        26.44195873828019   -2.44381952740442    1.09720916101504
H        24.52525235802016   -4.27312775744112    0.77060902470538
H        23.24783487923320   -0.67496960264770   -0.96880001897099
H        22.42591058674601   -4.45932000906051   -0.78992009921590
H        19.55304177634902   -4.55822835239572   -0.91130776947323
H        17.75144422877265   -2.65980621864816   -0.49608801285853
H        18.46732637793439    2.46737671405406   -1.06162697208859
H        20.37040688530709    4.31298134137665   -0.70657625969229
H        21.66414437778995    0.67487874473239    0.97792476228131
H        22.52313766709714    4.43990740162142    0.82972156024830
80
 energy: -134.867540074684 gnorm: 0.032159968014 xtb: 6.4.1 (bd6e46d)
C         9.65171605501596    3.47824367575657    0.82726673770284
C        10.54633798500122    2.50466895971960    0.53864813583446
C         9.73794856360731    1.32358958066941    0.24033651710585
C        10.20111868258693    0.01149725188531    0.03850088725755
C         9.48589175812303   -1.19346424081814   -0.02880541260375
C        10.01233040181863   -2.42202326231479    0.43260425347424
C         9.07271728733357   -3.38342851637576    0.18741870213611
C         7.95895367542660   -2.75975780352197   -0.42284389237251
N         8.23581087910121   -1.42167754913243   -0.50677883016183
C         6.76916774720865   -3.41030602707372   -0.75222687915464
C         5.52973697777992   -2.80081744795038   -0.67485531895791
C         4.23120783929471   -3.45572776934881   -0.76738324136112
C         3.31900131485459   -2.50850525251077   -0.46938560485320
C         4.07858965357998   -1.28281964980447   -0.21474961656641
N         5.39623257669461   -1.50861645998208   -0.34310443064645
C         3.57605612411493   -0.01059071909859   -0.01923619589829
C         4.32971643896548    1.17620601640094    0.03433845911264
C         3.86338208029172    2.41096037838368   -0.47298580492371
C         4.83504677194268    3.34960541717226   -0.26566740266559
C         5.91973533721149    2.72348937743959    0.38105852186306
N         5.60198050286662    1.39356740696847    0.49771025498998
C         7.08388849316108    3.42912998760956    0.73456224160003
C         8.33617014145549    2.86940622059844    0.68937295878833
N         8.44649652608334    1.56934543924329    0.34018635607069
H         9.85502524704316    4.50467820373356    1.07457639540741
H        11.62080394591021    2.57296143621196    0.55133039703650
H        10.94527985285763   -2.51564532930630    0.94993563707154
H         9.08479058643264   -4.40382182905255    0.50693000281689
H         7.64734511033166   -0.71213357257630   -0.91977444270424
H         6.84567339764170   -4.47463222016609   -0.91987606483265
H         4.07143612543805   -4.49411828791924   -0.99039222159396
H         2.24874125116369   -2.60851558185371   -0.44857598668967
H         2.50356171881469    0.13475273820703   -0.05823337517083
H         2.95065241035287    2.52884856719229   -1.01735554335347
H         4.87200306635678    4.35753984818501   -0.62022180059227
H         6.18693603297487    0.68597760166924    0.92200184911202
H         6.97705251807078    4.49154423902055    0.88732726977585
C        11.56903344896135   -0.08240441560662    0.08927663389968
C        12.77820322658718   -0.09987705243870    0.01175596932455
C        14.08446095351187   -0.05127756058384   -0.02361329994018
C        15.29809112877697   -0.02475296191249   -0.00079177630299