80
 energy: -134.955105004796 gnorm: 0.000274626431 xtb: 6.4.1 (bd6e46d)
C         9.23581420229213    3.38662319857139    0.30781685756798
C        10.18914285955629    2.43737928780916    0.23512242386620
C         9.48499789056369    1.17531734806226    0.09508887016808
C        10.14277284712935   -0.06692599840738   -0.01200660171167
C         9.48463026816168   -1.30202056211921   -0.13344769778495
C        10.07799585723489   -2.58878439325427   -0.23246342482673
C         9.06629214685626   -3.50003604316389   -0.33250710478967
C         7.83360017528916   -2.78915596815104   -0.29901451215298
N         8.13902489800175   -1.46761895201228   -0.17604874049481
C         6.56215806121175   -3.33762215682553   -0.38214884732736
C         5.34858333295092   -2.66426273887182   -0.36184757596010
C         4.06822263466622   -3.34959376788665   -0.46687510244140
C         3.12392967587784   -2.39201969035593   -0.41630102419105
C         3.83445350550151   -1.13004053364092   -0.27929629419300
N         5.16880263024253   -1.33195148019974   -0.25040082095202
C         3.19504236116119    0.10011201830175   -0.19114739321723
C         3.82830176936711    1.32595252859048   -0.05588537249292
C         3.23325365891781    2.61616568777892    0.04290660703129
C         4.24053793086436    3.52698113869109    0.16489098241675
C         5.47677111930762    2.81752627625660    0.14279474580038
N         5.17552398486933    1.49926445495368    0.00857153253972
C         6.74796560398523    3.36406431231018    0.23740845889508
C         7.96208397120645    2.69430587025133    0.20865628488595
N         8.15444149967459    1.35916490317350    0.08326784538929
H         9.34709363278276    4.44845418148858    0.41562130261721
H        11.25615097562672    2.54290984701930    0.27066218151117
H        11.13399944749918   -2.77716942648436   -0.22572237303520
H         9.15479194288521   -4.56522568032886   -0.42241782351072
H         7.47435401531706   -0.70412745703689   -0.12497668821054
H         6.51430592549891   -4.41367229258604   -0.47753950600830
H         3.95101754430547   -4.41192747719668   -0.56500044748153
H         2.05615785716961   -2.48957566907128   -0.46301324541796
H         2.11532780510557    0.10206694063110   -0.22971085390182
H         2.17774940804960    2.80643617670323    0.02214832754327
H         4.15054930563514    4.59170813231808    0.26097681097000
H         5.83813369636896    0.73453316907989   -0.03909280709501
H         6.79743157472919    4.43925239253470    0.34207769045790
C        11.53866361697458   -0.07216151010042   -0.00114663162337
C        12.75897992311689   -0.05590684595071   -0.00058745586925
C        14.09458205916610   -0.03259521214214   -0.00317201299439
C        15.31888088232969    0.00032035968159   -0.00562612756508
C        16.65444611487745    0.02537124025227   -0.00793504535106
C        17.87469891994930    0.04508399021947   -0.00635548457713
C        25.32923569526506    3.36830427376112    0.37758315649301
C        26.27800912056262    2.41411885364767    0.35398142693816
C        25.57349326591845    1.14559341971589    0.25045290095535
C        26.21869245153155   -0.08351608812301    0.19655676374942
C        25.59129751285874   -1.31549304404361    0.09356074964549
C        26.19248664338118   -2.60510793125523    0.03057528565801
C        25.18965743863659   -3.52357682790200   -0.06859295158313
C        23.95011188232156   -2.81957347194721   -0.06774800058168
N        24.24501426403675   -1.49678024467233    0.03156403602788
C        22.68162756830661   -3.37434655266664   -0.15002393609873
C        21.46435172553498   -2.70976372471386   -0.14100908851820
C        20.19399423542919   -3.41038015355943   -0.22386534427586
C        19.23615802881054   -2.46403654700589   -0.17714576053577
C        19.93422182114778   -1.19549304771021   -0.06898065411804
N        21.26561409181986   -1.37272740388881   -0.05076942385378
C        19.27059233677978    0.04597290785927    0.00562025142904
C        19.92288051966149    1.28689931516711    0.09549976720060
C        19.32333299345655    2.57297635943072    0.16015272195719
C        20.33061857916819    3.49139415146254    0.23639051235517
C        21.56669169121603    2.78578467670084    0.22224205400922
N        21.26765252353954    1.45999258768749    0.13433763836782
C        22.83545742252957    3.34234277766983    0.29128530086012
C        24.05218928598838    2.67441164297869    0.28990068009966
N        24.23826587339200    1.34043023111563    0.21464573720957
H        25.44138762509378    4.43344265298656    0.44700988084924
H        27.34526144077155    2.51789306735335    0.39914822884956
H        27.29834328283618   -0.07940169691822    0.23669679955243
H        27.24882109298901   -2.78980604492489    0.05829378809081
H        25.28476604094021   -4.59007067200253   -0.13580306934061
H        23.57873012786239   -0.73419908598516    0.05748728290203
H        22.63734377536725   -4.45216616233585   -0.22618266019999
H        20.08783930799686   -4.47516759407120   -0.30419455109308
H        18.16969468337118   -2.57543142688043   -0.21131170474275
H        18.26644857170647    2.75605465066384    0.14799557616288
H        20.23697092411324    4.55815612240941    0.29796675193282
H        21.93598161618991    0.69862620988653    0.10358470470624
H        22.87814500120142    4.42077776052194    0.35779959622330
