      -----------------------------------------------------------      
     |                   =====================                   |     
     |                           x T B                           |     
     |                   =====================                   |     
     |                         S. Grimme                         |     
     |          Mulliken Center for Theoretical Chemistry        |     
     |                    University of Bonn                     |     
      -----------------------------------------------------------      

   * xtb version 6.4.1 (bd6e46d) compiled by 'conda@4901f00b25ba' on 2021-06-10

   xtb is free software: you can redistribute it and/or modify it under
   the terms of the GNU Lesser General Public License as published by
   the Free Software Foundation, either version 3 of the License, or
   (at your option) any later version.
   
   xtb is distributed in the hope that it will be useful,
   but WITHOUT ANY WARRANTY; without even the implied warranty of
   MERCHANTABILITY or FITNESS FOR A PARTICULAR PURPOSE.  See the
   GNU Lesser General Public License for more details.
   
   Cite this work as:
   * C. Bannwarth, E. Caldeweyher, S. Ehlert, A. Hansen, P. Pracht,
     J. Seibert, S. Spicher, S. Grimme, WIREs Comput. Mol. Sci., 2020, 11,
     e01493. DOI: 10.1002/wcms.1493
   
   for GFN2-xTB:
   * C. Bannwarth, S. Ehlert and S. Grimme., J. Chem. Theory Comput., 2019,
     15, 1652-1671. DOI: 10.1021/acs.jctc.8b01176
   for GFN1-xTB:
   * S. Grimme, C. Bannwarth, P. Shushkov, J. Chem. Theory Comput., 2017,
     13, 1989-2009. DOI: 10.1021/acs.jctc.7b00118
   for GFN0-xTB:
   * P. Pracht, E. Caldeweyher, S. Ehlert, S. Grimme, ChemRxiv, 2019, preprint.
     DOI: 10.26434/chemrxiv.8326202.v1
   for GFN-FF:
   * S. Spicher and S. Grimme, Angew. Chem. Int. Ed., 2020, 59, 15665-15673.
     DOI: 10.1002/anie.202004239
   
   for DFT-D4:
   * E. Caldeweyher, C. Bannwarth and S. Grimme, J. Chem. Phys., 2017,
     147, 034112. DOI: 10.1063/1.4993215
   * E. Caldeweyher, S. Ehlert, A. Hansen, H. Neugebauer, S. Spicher,
     C. Bannwarth and S. Grimme, J. Chem. Phys., 2019, 150, 154122.
     DOI: 10.1063/1.5090222
   * E. Caldeweyher, J.-M. Mewes, S. Ehlert and S. Grimme, Phys. Chem. Chem. Phys.
     2020, 22, 8499-8512. DOI: 10.1039/D0CP00502A
   
   for sTDA-xTB:
   * S. Grimme and C. Bannwarth, J. Chem. Phys., 2016, 145, 054103.
     DOI: 10.1063/1.4959605
   
   in the mass-spec context:
   * V. Asgeirsson, C. Bauer and S. Grimme, Chem. Sci., 2017, 8, 4879.
     DOI: 10.1039/c7sc00601b
   * J. Koopman and S. Grimme, ACS Omega 2019, 4, 12, 15120-15133.
     DOI: 10.1021/acsomega.9b02011
   
   for metadynamics refer to:
   * S. Grimme, J. Chem. Theory Comput., 2019, 155, 2847-2862
     DOI: 10.1021/acs.jctc.9b00143
   
   for SPH calculations refer to:
   * S. Spicher and S. Grimme, J. Chem. Theory Comput., 2021, 17, 1701-1714
     DOI: 10.1021/acs.jctc.0c01306
   
   with help from (in alphabetical order)
   P. Atkinson, C. Bannwarth, F. Bohle, G. Brandenburg, E. Caldeweyher
   M. Checinski, S. Dohm, S. Ehlert, S. Ehrlich, I. Gerasimov, J. Koopman
   C. Lavigne, S. Lehtola, F. März, M. Müller, F. Musil, H. Neugebauer
   J. Pisarek, C. Plett, P. Pracht, J. Seibert, P. Shushkov, S. Spicher
   M. Stahn, M. Steiner, T. Strunk, J. Stückrath, T. Rose, and J. Unsleber
   
 * started run on 2021/11/19 at 19:58:15.448     

           -------------------------------------------------
          |                Calculation Setup                |
           -------------------------------------------------

          program call               : /home/jeff/miniconda3/bin/xtb input_structure_1.xyz --gfn 2 --ohess normal --parallel 1 --etemp 300 --chrg 0 --uhf 0 -I det_control.in
          hostname                   : jelfscompute1
          coordinate file            : input_structure_1.xyz
          omp threads                :                     1
          number of atoms            :                   290
          number of electrons        :                   930
          charge                     :                     0
          spin                       :                   0.0
          first test random number   :      0.54505962226505

   ID    Z sym.   atoms
    1    6 C      1-8, 10-14, 16-20, 22, 23, 38-45, 47-51, 53-57, 59, 60,
                  75-118, 120-124, 126-130, 132, 133, 147-154, 156-160,
                  162-166, 168, 169, 183-190, 192-196, 198-202, 204, 205,
                  219-226, 228-232, 234-238, 240, 241, 255-262, 264-268,
                  270-274, 276, 277
    2    7 N      9, 15, 21, 24, 46, 52, 58, 61, 119, 125, 131, 134, 155,
                  161, 167, 170, 191, 197, 203, 206, 227, 233, 239, 242, 263,
                  269, 275, 278
    3    1 H      25-37, 62-74, 135-146, 171-182, 207-218, 243-254, 279-290

molecular fragmentation (1/2 indicates fragments):
111111111111111111111111111111111111122222222222222222222222222222222222
222222222222222222222222222222222222222222222222222222222222222222222222
222222222222222222222222222222222222222222222222222222222222222222222222
222222222222222222222222222222222222222222222222222222222222222222222222
22
# atoms in fragment 1/2:    37   253
 fragment masses (1/2) :      309.34     2283.42
CMA distance (Bohr)    : 104.130
constraining FC (au)   :  0.0500

           -------------------------------------------------
          |                 G F N 2 - x T B                 |
           -------------------------------------------------

        Reference                      10.1021/acs.jctc.8b01176
      * Hamiltonian:
        H0-scaling (s, p, d)           1.850000    2.230000    2.230000
        zeta-weighting                 0.500000
      * Dispersion:
        s8                             2.700000
        a1                             0.520000
        a2                             5.000000
        s9                             5.000000
      * Repulsion:
        kExp                           1.500000    1.000000
        rExp                           1.000000
      * Coulomb:
        alpha                          2.000000
        third order                    shell-resolved
        anisotropic                    true
        a3                             3.000000
        a5                             4.000000
        cn-shift                       1.200000
        cn-exp                         4.000000
        max-rad                        5.000000


          ...................................................
          :                      SETUP                      :
          :.................................................:
          :  # basis functions                 902          :
          :  # atomic orbitals                 902          :
          :  # shells                          494          :
          :  # electrons                       930          :
          :  max. iterations                   250          :
          :  Hamiltonian                  GFN2-xTB          :
          :  restarted?                      false          :
          :  GBSA solvation                  false          :
          :  PC potential                    false          :
          :  electronic temp.          300.0000000     K    :
          :  accuracy                    1.0000000          :
          :  -> integral cutoff          0.2500000E+02      :
          :  -> integral neglect         0.1000000E-07      :
          :  -> SCF convergence          0.1000000E-05 Eh   :
          :  -> wf. convergence          0.1000000E-03 e    :
          :  Broyden damping             0.4000000          :
          ...................................................

 iter      E             dE          RMSdq      gap      omega  full diag
   1   -508.7184088 -0.508718E+03  0.614E+00    0.03       0.0  T
   2   -476.2717283  0.324467E+02  0.540E+00    0.04       1.0  T
   3   -192.3306972  0.283941E+03  0.114E+01    0.03       1.0  T
   4   -279.9774067 -0.876467E+02  0.101E+01    0.00       1.0  T
   5   -476.0750287 -0.196098E+03  0.480E+00    0.03       1.0  T
   6   -491.9009138 -0.158259E+02  0.374E+00    0.02       1.0  T
   7   -502.4274177 -0.105265E+02  0.300E+00    0.09       1.0  T
   8   -507.9183482 -0.549093E+01  0.217E+00    0.16       1.0  T
   9   -506.8915857  0.102676E+01  0.207E+00    0.11       1.0  T
  10   -509.2437403 -0.235215E+01  0.159E+00    0.13       1.0  T
  11   -508.9193038  0.324437E+00  0.155E+00    0.02       1.0  T
  12   -509.7582274 -0.838924E+00  0.126E+00    0.17       1.0  T
  13   -509.8624465 -0.104219E+00  0.995E-01    0.02       1.0  T
  14   -509.9545748 -0.921282E-01  0.841E-01    0.05       1.0  T
  15   -509.6789032  0.275672E+00  0.797E-01    0.01       1.0  T
  16   -510.1228095 -0.443906E+00  0.561E-01    0.13       1.0  T
  17   -510.1720432 -0.492337E-01  0.469E-01    0.15       1.0  T
  18   -510.1880572 -0.160140E-01  0.405E-01    0.17       1.0  T
  19   -510.2195270 -0.314697E-01  0.292E-01    0.13       1.0  T
  20   -510.2295073 -0.998033E-02  0.241E-01    0.10       1.0  T
  21   -510.2355991 -0.609181E-02  0.193E-01    0.06       1.0  T
  22   -510.2396095 -0.401040E-02  0.164E-01    0.05       1.0  T
  23   -510.2409202 -0.131068E-02  0.182E-01    0.08       1.0  T
  24   -510.2456517 -0.473152E-02  0.163E-01    0.07       1.0  T
  25   -510.2455786  0.730563E-04  0.157E-01    0.06       1.0  T
  26   -510.2511559 -0.557724E-02  0.104E-01    0.05       1.0  T
  27   -510.2544356 -0.327976E-02  0.780E-02    0.06       1.0  T
  28   -510.2545549 -0.119286E-03  0.735E-02    0.06       1.0  T
  29   -510.2553161 -0.761144E-03  0.623E-02    0.06       1.0  T
  30   -510.2560536 -0.737517E-03  0.458E-02    0.06       1.0  T
  31   -510.2570955 -0.104190E-02  0.204E-02    0.07       1.0  T
  32   -510.2572060 -0.110522E-03  0.134E-02    0.07       1.0  T
  33   -510.2572145 -0.850447E-05  0.100E-02    0.07       1.0  T
  34   -510.2572356 -0.210697E-04  0.685E-03    0.07       1.0  T
  35   -510.2572542 -0.186334E-04  0.448E-03    0.07       1.3  T
  36   -510.2572727 -0.184372E-04  0.147E-03    0.08       4.0  T
  37   -510.2572733 -0.608056E-06  0.101E-03    0.08       5.8  T
  38   -510.2572737 -0.483887E-06  0.623E-04    0.07       9.4  T
  39   -510.2572740 -0.213962E-06  0.342E-04    0.07      17.2  T

   *** convergence criteria satisfied after 39 iterations ***

         #    Occupation            Energy/Eh            Energy/eV
      -------------------------------------------------------------
         1        2.0000           -0.6939425             -18.8831
       ...           ...                  ...                  ...
       459        2.0000           -0.3536450              -9.6232
       460        2.0000           -0.3487677              -9.4905
       461        2.0000           -0.3450996              -9.3906
       462        2.0000           -0.3450839              -9.3902
       463        2.0000           -0.3430702              -9.3354
       464        1.9939           -0.3370901              -9.1727
       465        1.4746           -0.3325699              -9.0497 (HOMO)
       466        0.2673           -0.3298140              -8.9747 (LUMO)
       467        0.2635           -0.3297982              -8.9743
       468        0.0007           -0.3239982              -8.8164
       469        0.0000           -0.3180095              -8.6535
       470                         -0.3126198              -8.5068
       ...                                ...                  ...
       902                          2.0171268              54.8888
      -------------------------------------------------------------
                  HL-Gap            0.0027559 Eh            0.0750 eV
             Fermi-level           -0.3315895 Eh           -9.0230 eV

 SCC (total)                   0 d,  0 h,  0 min, 10.356 sec
 SCC setup                      ...        0 min,  0.013 sec (  0.125%)
 Dispersion                     ...        0 min,  0.027 sec (  0.257%)
 classical contributions        ...        0 min,  0.002 sec (  0.021%)
 integral evaluation            ...        0 min,  0.197 sec (  1.906%)
 iterations                     ...        0 min,  9.591 sec ( 92.612%)
 molecular gradient             ...        0 min,  0.493 sec (  4.756%)
 printout                       ...        0 min,  0.034 sec (  0.324%)

         :::::::::::::::::::::::::::::::::::::::::::::::::::::
         ::                     SUMMARY                     ::
         :::::::::::::::::::::::::::::::::::::::::::::::::::::
         :: total energy            -499.503506671302 Eh    ::
         :: gradient norm              1.769095751827 Eh/a0 ::
         :: HOMO-LUMO gap              0.074990895499 eV    ::
         ::.................................................::
         :: SCC energy              -510.257273957407 Eh    ::
         :: -> isotropic ES            0.274228143593 Eh    ::
         :: -> anisotropic ES         -0.016772800496 Eh    ::
         :: -> anisotropic XC          0.397493626854 Eh    ::
         :: -> dispersion             -0.397331613881 Eh    ::
         :: repulsion energy          10.757344480019 Eh    ::
         :: add. restraining           0.000000000000 Eh    ::
         :: total charge              -0.000000000042 e     ::
         :::::::::::::::::::::::::::::::::::::::::::::::::::::

      ----------------------------------------------------------- 
     |                   =====================                   |
     |                        A N C O P T                        |
     |                   =====================                   |
     |               Approximate Normal Coordinate               |
     |                Rational Function Optimizer                |
      ----------------------------------------------------------- 

          ...................................................
          :                      SETUP                      :
          :.................................................:
          :   optimization level            normal          :
          :   max. optcycles                   870          :
          :   ANC micro-cycles                  20          :
          :   degrees of freedom               864          :
          :.................................................:
          :   RF solver                   davidson          :
          :   write xtbopt.log                true          :
          :   linear?                        false          :
          :   energy convergence         0.5000000E-05 Eh   :
          :   grad. convergence          0.1000000E-02 Eh/α :
          :   maximium RF displ.         1.0000000          :
          :   Hlow (freq-cutoff)         0.1000000E-01      :
          :   Hmax (freq-cutoff)         5.0000000          :
          :   S6 in model hess.         20.0000000          :
          ...................................................

generating ANC from model Hessian ...
Using Lindh-Hessian (1995)
 Shifting diagonal of input Hessian by    1.0167692655223383E-002
 Lowest  eigenvalues of input Hessian
    0.010000    0.010025    0.010154    0.010155    0.010157    0.010158
    0.010165    0.010166    0.010166    0.010167    0.010167    0.010167
    0.000000    0.000000    0.000000    0.000000    0.000000    0.000000
 Highest eigenvalues
    3.285280    3.328869    3.334022    3.334022    3.334024    3.334025


........................................................................
.............................. CYCLE    1 ..............................
........................................................................
   1   -510.2572739 -0.510257E+03  0.314E-04    0.07       0.0  T
   2   -510.2572395  0.344619E-04  0.564E-03    0.07       1.0  T
   3   -510.2572706 -0.310786E-04  0.177E-03    0.07       3.3  T
   4   -510.2572739 -0.334280E-05  0.391E-04    0.07      15.0  T
   5   -510.2572738  0.114231E-06  0.642E-04    0.07       9.1  T
   6   -510.2572738 -0.550242E-07  0.485E-04    0.07      12.1  T
     SCC iter.                  ...        0 min,  1.484 sec
     gradient                   ...        0 min,  0.491 sec
 * total energy  :  -499.5035066 Eh     change        0.1156159E-06 Eh
   gradient norm :     1.7690818 Eh/α   predicted     0.0000000E+00 (-100.00%)
   displ. norm   :     0.6264378 α      lambda       -0.1023811E+01
   maximum displ.:     0.2186170 α      in ANC's #690, #849, #542, ...

........................................................................
.............................. CYCLE    2 ..............................
........................................................................
   1   -510.4243818 -0.510424E+03  0.321E-01    0.15       0.0  T
   2   -509.1700328  0.125435E+01  0.119E+00    0.16       1.0  T
   3   -510.3751131 -0.120508E+01  0.366E-01    0.30       1.0  T
   4   -510.4427383 -0.676252E-01  0.213E-01    0.10       1.0  T
   5   -510.2600805  0.182658E+00  0.609E-01    0.13       1.0  T
   6   -510.3230932 -0.630127E-01  0.353E-01    0.02       1.0  T
   7   -509.8369489  0.486144E+00  0.752E-01    0.12       1.0  T
   8   -510.4314022 -0.594453E+00  0.172E-01    0.05       1.0  T
   9   -510.4460812 -0.146790E-01  0.121E-01    0.09       1.0  T
  10   -510.4457649  0.316261E-03  0.975E-02    0.07       1.0  T
  11   -510.4558729 -0.101080E-01  0.334E-02    0.09       1.0  T
  12   -510.4566266 -0.753685E-03  0.143E-02    0.08       1.0  T
  13   -510.4561007  0.525844E-03  0.248E-02    0.07       1.0  T
  14   -510.4567339 -0.633203E-03  0.855E-03    0.08       1.0  T
  15   -510.4567922 -0.582805E-04  0.277E-03    0.08       2.1  T
  16   -510.4567811  0.111387E-04  0.411E-03    0.08       1.4  T
  17   -510.4567904 -0.931452E-05  0.305E-03    0.08       1.9  T
  18   -510.4567883  0.209631E-05  0.304E-03    0.08       1.9  T
  19   -510.4567948 -0.647686E-05  0.163E-03    0.08       3.6  T
  20   -510.4567958 -0.103766E-05  0.120E-03    0.08       4.9  T
  21   -510.4567967 -0.903492E-06  0.747E-04    0.08       7.9  T
  22   -510.4567971 -0.403560E-06  0.351E-04    0.08      16.7  T
     SCC iter.                  ...        0 min,  5.421 sec
     gradient                   ...        0 min,  0.490 sec
 * total energy  :  -500.2133065 Eh     change       -0.7097999E+00 Eh
   gradient norm :     0.7217194 Eh/α   predicted    -0.7127902E+00 (   0.42%)
   displ. norm   :     0.6164901 α      lambda       -0.3829921E+00
   maximum displ.:     0.1749165 α      in ANC's #542, #690, #420, ...

........................................................................
.............................. CYCLE    3 ..............................
........................................................................
   1   -510.6294589 -0.510629E+03  0.254E-01    0.08       0.0  T
   2   -509.9442612  0.685198E+00  0.854E-01    0.05       1.0  T
   3   -510.5857346 -0.641473E+00  0.347E-01    0.18       1.0  T
   4   -510.5428660  0.428686E-01  0.397E-01    0.13       1.0  T
   5   -510.4858809  0.569850E-01  0.393E-01    0.03       1.0  T
   6   -509.9482243  0.537657E+00  0.856E-01    0.13       1.0  T
   7   -510.6122465 -0.664022E+00  0.232E-01    0.08       1.0  T
   8   -510.5198083  0.924381E-01  0.308E-01    0.00       1.0  T
   9   -510.6272803 -0.107472E+00  0.138E-01    0.10       1.0  T
  10   -510.6332856 -0.600532E-02  0.928E-02    0.08       1.0  T
  11   -510.6374998 -0.421410E-02  0.584E-02    0.07       1.0  T
  12   -510.6385770 -0.107725E-02  0.292E-02    0.06       1.0  T
  13   -510.6381715  0.405539E-03  0.311E-02    0.06       1.0  T
  14   -510.6386655 -0.494060E-03  0.221E-02    0.06       1.0  T
  15   -510.6389089 -0.243391E-03  0.161E-02    0.06       1.0  T
  16   -510.6391270 -0.218109E-03  0.618E-03    0.07       1.0  T
  17   -510.6391409 -0.138873E-04  0.462E-03    0.07       1.3  T
  18   -510.6391567 -0.157536E-04  0.249E-03    0.07       2.4  T
  19   -510.6391605 -0.385487E-05  0.144E-03    0.07       4.1  T
  20   -510.6391625 -0.198957E-05  0.365E-04    0.07      16.1  T
  21   -510.6391625  0.246477E-07  0.365E-04    0.07      16.1  T
  22   -510.6391626 -0.831440E-07  0.202E-04    0.07      29.0  T
     SCC iter.                  ...        0 min,  5.425 sec
     gradient                   ...        0 min,  0.490 sec
 * total energy  :  -500.5016590 Eh     change       -0.2883525E+00 Eh
   gradient norm :     0.3360920 Eh/α   predicted    -0.2642761E+00 (  -8.35%)
   displ. norm   :     0.6604038 α      lambda       -0.1833867E+00
   maximum displ.:     0.1798025 α      in ANC's #448, #189, #420, ...

........................................................................
.............................. CYCLE    4 ..............................
........................................................................
   1   -510.8168083 -0.510817E+03  0.237E-01    0.10       0.0  T
   2   -509.6954679  0.112134E+01  0.108E+00    0.17       1.0  T
   3   -510.8100214 -0.111455E+01  0.233E-01    0.11       1.0  T
   4   -510.7249209  0.851005E-01  0.412E-01    0.07       1.0  T
   5   -510.3804072  0.344514E+00  0.646E-01    0.11       1.0  T
   6   -510.2520845  0.128323E+00  0.777E-01    0.12       1.0  T
   7   -510.8016276 -0.549543E+00  0.210E-01    0.10       1.0  T
   8   -510.8009575  0.670162E-03  0.217E-01    0.12       1.0  T
   9   -510.8045048 -0.354734E-02  0.170E-01    0.06       1.0  T
  10   -510.8211057 -0.166009E-01  0.109E-01    0.08       1.0  T
  11   -510.8287698 -0.766407E-02  0.254E-02    0.07       1.0  T
  12   -510.8289283 -0.158567E-03  0.156E-02    0.06       1.0  T
  13   -510.8289161  0.122429E-04  0.144E-02    0.06       1.0  T
  14   -510.8289393 -0.232424E-04  0.118E-02    0.06       1.0  T
  15   -510.8290808 -0.141508E-03  0.336E-03    0.06       1.7  T
  16   -510.8290862 -0.536963E-05  0.176E-03    0.06       3.3  T
  17   -510.8290884 -0.221917E-05  0.913E-04    0.07       6.4  T
  18   -510.8290886 -0.133548E-06  0.692E-04    0.07       8.5  T
  19   -510.8290886 -0.949115E-07  0.541E-04    0.07      10.8  T
     SCC iter.                  ...        0 min,  4.685 sec
     gradient                   ...        0 min,  0.492 sec
 * total energy  :  -500.6369136 Eh     change       -0.1352546E+00 Eh
   gradient norm :     0.1529615 Eh/α   predicted    -0.1316840E+00 (  -2.64%)
   displ. norm   :     0.7506893 α      lambda       -0.9276231E-01
   maximum displ.:     0.2665445 α      in ANC's #189, #78, #111, ...

........................................................................
.............................. CYCLE    5 ..............................
........................................................................
   1   -510.8958987 -0.510896E+03  0.218E-01    0.14       0.0  T
   2   -509.6478915  0.124801E+01  0.114E+00    0.16       1.0  T
   3   -510.9103082 -0.126242E+01  0.126E-01    0.08       1.0  T
   4   -510.8108888  0.994195E-01  0.366E-01    0.02       1.0  T
   5   -510.3426148  0.468274E+00  0.703E-01    0.12       1.0  T
   6   -510.7916638 -0.449049E+00  0.371E-01    0.00       1.0  T
   7   -510.8960419 -0.104378E+00  0.158E-01    0.13       1.0  T
   8   -510.8946475  0.139431E-02  0.126E-01    0.09       1.0  T
   9   -510.9073347 -0.126872E-01  0.760E-02    0.09       1.0  T
  10   -510.9110006 -0.366595E-02  0.374E-02    0.09       1.0  T
  11   -510.9120342 -0.103356E-02  0.169E-02    0.08       1.0  T
  12   -510.9121531 -0.118866E-03  0.128E-02    0.08       1.0  T
  13   -510.9122144 -0.613010E-04  0.927E-03    0.08       1.0  T
  14   -510.9123037 -0.892835E-04  0.231E-03    0.07       2.5  T
  15   -510.9123040 -0.352597E-06  0.194E-03    0.07       3.0  T
  16   -510.9123051 -0.104475E-05  0.149E-03    0.07       3.9  T
  17   -510.9123061 -0.107344E-05  0.878E-04    0.07       6.7  T
  18   -510.9123065 -0.386633E-06  0.404E-04    0.07      14.5  T
  19   -510.9123066 -0.561457E-07  0.262E-04    0.07      22.4  T
     SCC iter.                  ...        0 min,  4.708 sec
     gradient                   ...        0 min,  0.491 sec
 * total energy  :  -500.7136584 Eh     change       -0.7674479E-01 Eh
   gradient norm :     0.1059877 Eh/α   predicted    -0.7251893E-01 (  -5.51%)
   displ. norm   :     0.8287545 α      lambda       -0.6742552E-01
   maximum displ.:     0.2799071 α      in ANC's #189, #78, #111, ...

........................................................................
.............................. CYCLE    6 ..............................
........................................................................
   1   -510.9134319 -0.510913E+03  0.199E-01    0.18       0.0  T
   2   -509.6432114  0.127022E+01  0.112E+00    0.16       1.0  T
   3   -510.9220841 -0.127887E+01  0.134E-01    0.11       1.0  T
   4   -510.8106784  0.111406E+00  0.469E-01    0.13       1.0  T
   5   -510.8717102 -0.610318E-01  0.217E-01    0.01       1.0  T
   6   -510.4047385  0.466972E+00  0.658E-01    0.10       1.0  T
   7   -510.9238108 -0.519072E+00  0.589E-02    0.10       1.0  T
   8   -510.9262666 -0.245580E-02  0.314E-02    0.09       1.0  T
   9   -510.9272837 -0.101711E-02  0.157E-02    0.09       1.0  T
  10   -510.9269266  0.357114E-03  0.228E-02    0.09       1.0  T
  11   -510.9273991 -0.472472E-03  0.110E-02    0.09       1.0  T
  12   -510.9274490 -0.499291E-04  0.711E-03    0.09       1.0  T
  13   -510.9274657 -0.166545E-04  0.366E-03    0.09       1.6  T
  14   -510.9274637  0.191797E-05  0.364E-03    0.09       1.6  T
  15   -510.9274652 -0.145011E-05  0.337E-03    0.09       1.7  T
  16   -510.9274685 -0.331841E-05  0.278E-03    0.09       2.1  T
  17   -510.9274746 -0.606151E-05  0.136E-03    0.09       4.3  T
  18   -510.9274757 -0.115672E-05  0.868E-04    0.09       6.8  T
  19   -510.9274761 -0.356399E-06  0.636E-04    0.09       9.2  T
  20   -510.9274763 -0.268405E-06  0.333E-04    0.09      17.6  T
     SCC iter.                  ...        0 min,  4.952 sec
     gradient                   ...        0 min,  0.490 sec
 * total energy  :  -500.7727018 Eh     change       -0.5904341E-01 Eh
   gradient norm :     0.0780931 Eh/α   predicted    -0.5686783E-01 (  -3.68%)
   displ. norm   :     0.8815050 α      lambda       -0.5477959E-01
   maximum displ.:     0.3335931 α      in ANC's #78, #111, #189, ...

........................................................................
.............................. CYCLE    7 ..............................
........................................................................
   1   -510.9043410 -0.510904E+03  0.179E-01    0.22       0.0  T
   2   -509.6276713  0.127667E+01  0.108E+00    0.16       1.0  T
   3   -510.8934602 -0.126579E+01  0.220E-01    0.17       1.0  T
   4   -510.8755349  0.179254E-01  0.274E-01    0.19       1.0  T
   5   -510.9085474 -0.330126E-01  0.840E-02    0.08       1.0  T
   6   -510.9140578 -0.551038E-02  0.280E-02    0.11       1.0  T
   7   -510.9060987  0.795906E-02  0.828E-02    0.08       1.0  T
   8   -510.9131336 -0.703487E-02  0.343E-02    0.10       1.0  T
   9   -510.9141726 -0.103898E-02  0.199E-02    0.11       1.0  T
  10   -510.9143365 -0.163900E-03  0.150E-02    0.11       1.0  T
  11   -510.9144241 -0.875800E-04  0.866E-03    0.11       1.0  T
  12   -510.9144578 -0.337160E-04  0.414E-03    0.11       1.4  T
  13   -510.9144668 -0.900220E-05  0.213E-03    0.11       2.8  T
  14   -510.9144681 -0.130032E-05  0.116E-03    0.11       5.1  T
  15   -510.9144685 -0.361542E-06  0.431E-04    0.11      13.6  T
  16   -510.9144685 -0.426978E-07  0.354E-04    0.11      16.6  T
     SCC iter.                  ...        0 min,  3.949 sec
     gradient                   ...        0 min,  0.491 sec
 * total energy  :  -500.8228114 Eh     change       -0.5010962E-01 Eh
   gradient norm :     0.0606871 Eh/α   predicted    -0.4867308E-01 (  -2.87%)
   displ. norm   :     0.9239026 α      lambda       -0.4870245E-01
   maximum displ.:     0.3836685 α      in ANC's #78, #111, #71, ...

........................................................................
.............................. CYCLE    8 ..............................
........................................................................
   1   -510.8863692 -0.510886E+03  0.180E-01    0.29       0.0  T
   2   -510.0583226  0.828047E+00  0.823E-01    0.04       1.0  T
   3   -510.8636164 -0.805294E+00  0.258E-01    0.33       1.0  T
   4   -510.8741061 -0.104897E-01  0.202E-01    0.29       1.0  T
   5   -510.8907525 -0.166464E-01  0.768E-02    0.25       1.0  T
   6   -510.8914401 -0.687672E-03  0.525E-02    0.23       1.0  T
   7   -510.8924694 -0.102925E-02  0.414E-02    0.20       1.0  T
   8   -510.8929089 -0.439535E-03  0.346E-02    0.19       1.0  T
   9   -510.8935293 -0.620374E-03  0.219E-02    0.18       1.0  T
  10   -510.8939104 -0.381108E-03  0.110E-02    0.15       1.0  T
  11   -510.8927736  0.113681E-02  0.310E-02    0.13       1.0  T
  12   -510.8938765 -0.110289E-02  0.939E-03    0.14       1.0  T
  13   -510.8939645 -0.880528E-04  0.231E-03    0.15       2.5  T
  14   -510.8939665 -0.192840E-05  0.121E-03    0.15       4.9  T
  15   -510.8939675 -0.100493E-05  0.541E-04    0.15      10.8  T
  16   -510.8939676 -0.104159E-06  0.264E-04    0.15      22.3  T
  17   -510.8939676 -0.509033E-09  0.192E-04    0.15      30.6  T
     SCC iter.                  ...        0 min,  4.204 sec
     gradient                   ...        0 min,  0.491 sec
 * total energy  :  -500.8692543 Eh     change       -0.4644294E-01 Eh
   gradient norm :     0.0553825 Eh/α   predicted    -0.4513735E-01 (  -2.81%)
   displ. norm   :     0.9628068 α      lambda       -0.4755593E-01
   maximum displ.:     0.4020471 α      in ANC's #78, #71, #111, ...

........................................................................
.............................. CYCLE    9 ..............................
........................................................................
   1   -510.8645610 -0.510865E+03  0.198E-01    0.41       0.0  T
   2   -510.8280239  0.365371E-01  0.297E-01    0.14       1.0  T
   3   -510.8628837 -0.348598E-01  0.155E-01    0.32       1.0  T
   4   -510.8674104 -0.452665E-02  0.780E-02    0.36       1.0  T
   5   -510.8693391 -0.192874E-02  0.572E-02    0.25       1.0  T
   6   -510.8704473 -0.110819E-02  0.105E-02    0.26       1.0  T
   7   -510.8704422  0.507245E-05  0.102E-02    0.25       1.0  T
   8   -510.8704422  0.381501E-07  0.796E-03    0.25       1.0  T
   9   -510.8704579 -0.157566E-04  0.510E-03    0.25       1.2  T
  10   -510.8704648 -0.681479E-05  0.275E-03    0.25       2.1  T
  11   -510.8704657 -0.967281E-06  0.177E-03    0.26       3.3  T
  12   -510.8704673 -0.154686E-05  0.729E-04    0.25       8.1  T
  13   -510.8704674 -0.168670E-06  0.314E-04    0.25      18.7  T
  14   -510.8704675 -0.175316E-07  0.155E-04    0.25      37.8  T
     SCC iter.                  ...        0 min,  3.460 sec
     gradient                   ...        0 min,  0.490 sec
 * total energy  :  -500.9168169 Eh     change       -0.4756254E-01 Eh
   gradient norm :     0.0616540 Eh/α   predicted    -0.4582009E-01 (  -3.66%)
   displ. norm   :     0.9579425 α      lambda       -0.4851089E-01
   maximum displ.:     0.3845774 α      in ANC's #78, #71, #62, ...

........................................................................
.............................. CYCLE   10 ..............................
........................................................................
   1   -510.8447578 -0.510845E+03  0.192E-01    0.58       0.0  T
   2   -510.8334543  0.113036E-01  0.199E-01    0.52       1.0  T
   3   -510.8408604 -0.740610E-02  0.156E-01    0.58       1.0  T
   4   -510.8471487 -0.628831E-02  0.546E-02    0.58       1.0  T
   5   -510.8475911 -0.442427E-03  0.374E-02    0.58       1.0  T
   6   -510.8481494 -0.558239E-03  0.656E-03    0.58       1.0  T
   7   -510.8481607 -0.113430E-04  0.412E-03    0.58       1.4  T
   8   -510.8481636 -0.285100E-05  0.283E-03    0.58       2.1  T
   9   -510.8481652 -0.166582E-05  0.165E-03    0.58       3.6  T
  10   -510.8481661 -0.924685E-06  0.544E-04    0.58      10.8  T
  11   -510.8481662 -0.665563E-07  0.309E-04    0.58      19.0  T
     SCC iter.                  ...        0 min,  2.721 sec
     gradient                   ...        0 min,  0.491 sec
 * total energy  :  -500.9669211 Eh     change       -0.5010426E-01 Eh
   gradient norm :     0.0764989 Eh/α   predicted    -0.4651355E-01 (  -7.17%)
   displ. norm   :     0.9379434 α      lambda       -0.5262905E-01
   maximum displ.:     0.3464765 α      in ANC's #78, #62, #71, ...

........................................................................
.............................. CYCLE   11 ..............................
........................................................................
   1   -510.8269968 -0.510827E+03  0.181E-01    0.61       0.0  T
   2   -510.8231999  0.379689E-02  0.149E-01    0.61       1.0  T
   3   -510.8244458 -0.124590E-02  0.134E-01    0.61       1.0  T
   4   -510.8292018 -0.475595E-02  0.331E-02    0.61       1.0  T
   5   -510.8292492 -0.473760E-04  0.188E-02    0.61       1.0  T
   6   -510.8293885 -0.139290E-03  0.554E-03    0.61       1.1  T
   7   -510.8293988 -0.103665E-04  0.323E-03    0.61       1.8  T
   8   -510.8294014 -0.256162E-05  0.157E-03    0.61       3.7  T
   9   -510.8294018 -0.429476E-06  0.828E-04    0.61       7.1  T
  10   -510.8294019 -0.128650E-06  0.477E-04    0.61      12.3  T
     SCC iter.                  ...        0 min,  2.483 sec
     gradient                   ...        0 min,  0.491 sec
 * total energy  :  -501.0224916 Eh     change       -0.5557047E-01 Eh
   gradient norm :     0.0929246 Eh/α   predicted    -0.4946443E-01 ( -10.99%)
   displ. norm   :     0.9160802 α      lambda       -0.5918736E-01
   maximum displ.:     0.3023068 α      in ANC's #78, #62, #92, ...

........................................................................
.............................. CYCLE   12 ..............................
........................................................................
   1   -510.8163090 -0.510816E+03  0.157E-01    0.63       0.0  T
   2   -510.8147448  0.156426E-02  0.126E-01    0.63       1.0  T
   3   -510.8152986 -0.553863E-03  0.102E-01    0.63       1.0  T
   4   -510.8177955 -0.249690E-02  0.272E-02    0.63       1.0  T
   5   -510.8178262 -0.306244E-04  0.162E-02    0.63       1.0  T
   6   -510.8179603 -0.134141E-03  0.566E-03    0.63       1.0  T
   7   -510.8179690 -0.864760E-05  0.253E-03    0.63       2.3  T
   8   -510.8179699 -0.932785E-06  0.135E-03    0.63       4.4  T
   9   -510.8179701 -0.241505E-06  0.611E-04    0.63       9.6  T
  10   -510.8179702 -0.920288E-07  0.288E-04    0.63      20.4  T
     SCC iter.                  ...        0 min,  2.472 sec
     gradient                   ...        0 min,  0.491 sec
 * total energy  :  -501.0842304 Eh     change       -0.6173878E-01 Eh
   gradient norm :     0.1055501 Eh/α   predicted    -0.5442880E-01 ( -11.84%)
   displ. norm   :     0.9018389 α      lambda       -0.6500866E-01
   maximum displ.:     0.2723334 α      in ANC's #62, #92, #78, ...

........................................................................
.............................. CYCLE   13 ..............................
........................................................................
   1   -510.8154463 -0.510815E+03  0.124E-01    0.64       0.0  T
   2   -510.8143420  0.110431E-02  0.114E-01    0.64       1.0  T
   3   -510.8156954 -0.135336E-02  0.645E-02    0.64       1.0  T
   4   -510.8162647 -0.569325E-03  0.276E-02    0.64       1.0  T
   5   -510.8164512 -0.186518E-03  0.140E-02    0.64       1.0  T
   6   -510.8165467 -0.954324E-04  0.441E-03    0.64       1.3  T
   7   -510.8165498 -0.314050E-05  0.239E-03    0.64       2.5  T
   8   -510.8165507 -0.888282E-06  0.115E-03    0.64       5.1  T
   9   -510.8165508 -0.165680E-06  0.621E-04    0.64       9.5  T
  10   -510.8165510 -0.111838E-06  0.209E-04    0.64      28.1  T
     SCC iter.                  ...        0 min,  2.469 sec
     gradient                   ...        0 min,  0.491 sec
 * total energy  :  -501.1484997 Eh     change       -0.6426927E-01 Eh
   gradient norm :     0.1028239 Eh/α   predicted    -0.5894054E-01 (  -8.29%)
   displ. norm   :     0.9276275 α      lambda       -0.7314631E-01
   maximum displ.:     0.3123530 α      in ANC's #92, #62, #21, ...

........................................................................
.............................. CYCLE   14 ..............................
........................................................................
   1   -510.8564644 -0.510856E+03  0.158E-01    0.61       0.0  T
   2   -510.8540217  0.244269E-02  0.156E-01    0.61       1.0  T
   3   -510.8573645 -0.334278E-02  0.771E-02    0.61       1.0  T
   4   -510.8575612 -0.196743E-03  0.362E-02    0.61       1.0  T
   5   -510.8580777 -0.516483E-03  0.136E-02    0.61       1.0  T
   6   -510.8581561 -0.783780E-04  0.499E-03    0.61       1.2  T
   7   -510.8581599 -0.385900E-05  0.273E-03    0.61       2.2  T
   8   -510.8581607 -0.783036E-06  0.139E-03    0.61       4.2  T
   9   -510.8581612 -0.530035E-06  0.519E-04    0.61      11.3  T
  10   -510.8581613 -0.829921E-07  0.191E-04    0.61      30.8  T
     SCC iter.                  ...        0 min,  2.478 sec
     gradient                   ...        0 min,  0.490 sec
 * total energy  :  -501.2010658 Eh     change       -0.5256619E-01 Eh
   gradient norm :     0.0924586 Eh/α   predicted    -0.6804410E-01 (  29.44%)
   displ. norm   :     0.7911120 α      lambda       -0.4362578E-01
   maximum displ.:     0.3373624 α      in ANC's #78, #62, #71, ...

........................................................................
.............................. CYCLE   15 ..............................
........................................................................
   1   -510.9079812 -0.510908E+03  0.973E-02    0.63       0.0  T
   2   -510.9078395  0.141683E-03  0.663E-02    0.63       1.0  T
   3   -510.9054905  0.234895E-02  0.707E-02    0.63       1.0  T
   4   -510.9080570 -0.256644E-02  0.143E-02    0.63       1.0  T
   5   -510.9081223 -0.653587E-04  0.368E-03    0.63       1.6  T
   6   -510.9081258 -0.345258E-05  0.169E-03    0.63       3.5  T
   7   -510.9081263 -0.524198E-06  0.998E-04    0.63       5.9  T
   8   -510.9081264 -0.114201E-06  0.541E-04    0.63      10.9  T
     SCC iter.                  ...        0 min,  1.991 sec
     gradient                   ...        0 min,  0.490 sec
 * total energy  :  -501.2412058 Eh     change       -0.4013999E-01 Eh
   gradient norm :     0.0745952 Eh/α   predicted    -0.3546472E-01 ( -11.65%)
   displ. norm   :     0.8708822 α      lambda       -0.4826586E-01
   maximum displ.:     0.3400840 α      in ANC's #78, #62, #21, ...

........................................................................
.............................. CYCLE   16 ..............................
........................................................................
   1   -511.0155716 -0.511016E+03  0.123E-01    0.61       0.0  T
   2   -511.0155216  0.500149E-04  0.845E-02    0.61       1.0  T
   3   -511.0142565  0.126502E-02  0.686E-02    0.61       1.0  T
   4   -511.0157973 -0.154072E-02  0.218E-02    0.61       1.0  T
   5   -511.0159400 -0.142729E-03  0.524E-03    0.61       1.1  T
   6   -511.0159461 -0.611194E-05  0.271E-03    0.61       2.2  T
   7   -511.0159478 -0.165955E-05  0.147E-03    0.61       4.0  T
   8   -511.0159479 -0.176989E-06  0.841E-04    0.61       7.0  T
   9   -511.0159482 -0.263993E-06  0.334E-04    0.61      17.6  T
     SCC iter.                  ...        0 min,  2.228 sec
     gradient                   ...        0 min,  0.490 sec
 * total energy  :  -501.2811645 Eh     change       -0.3995869E-01 Eh
   gradient norm :     0.0597477 Eh/α   predicted    -0.4243627E-01 (   6.20%)
   displ. norm   :     0.9218092 α      lambda       -0.3978509E-01
   maximum displ.:     0.3825240 α      in ANC's #78, #62, #21, ...

........................................................................
.............................. CYCLE   17 ..............................
........................................................................
   1   -511.0702588 -0.511070E+03  0.955E-02    0.63       0.0  T
   2   -511.0699352  0.323610E-03  0.717E-02    0.62       1.0  T
   3   -511.0685883  0.134691E-02  0.651E-02    0.63       1.0  T
   4   -511.0704015 -0.181324E-02  0.117E-02    0.63       1.0  T
   5   -511.0704541 -0.526248E-04  0.376E-03    0.63       1.6  T
   6   -511.0704592 -0.505147E-05  0.167E-03    0.63       3.5  T
   7   -511.0704596 -0.355747E-06  0.104E-03    0.63       5.7  T
   8   -511.0704598 -0.222940E-06  0.566E-04    0.63      10.4  T
   9   -511.0704599 -0.108505E-06  0.175E-04    0.63      33.5  T
     SCC iter.                  ...        0 min,  2.233 sec
     gradient                   ...        0 min,  0.490 sec
 * total energy  :  -501.3171211 Eh     change       -0.3595655E-01 Eh
   gradient norm :     0.0473071 Eh/α   predicted    -0.3679592E-01 (   2.33%)
   displ. norm   :     0.9264849 α      lambda       -0.3432803E-01
   maximum displ.:     0.4174818 α      in ANC's #78, #71, #21, ...

........................................................................
.............................. CYCLE   18 ..............................
........................................................................
   1   -511.1280884 -0.511128E+03  0.106E-01    0.64       0.0  T
   2   -511.1280319  0.564962E-04  0.660E-02    0.64       1.0  T
   3   -511.1261433  0.188859E-02  0.632E-02    0.65       1.0  T
   4   -511.1281259 -0.198257E-02  0.912E-03    0.64       1.0  T
   5   -511.1281596 -0.336582E-04  0.286E-03    0.64       2.1  T
   6   -511.1281615 -0.194609E-05  0.138E-03    0.64       4.2  T
   7   -511.1281617 -0.182631E-06  0.806E-04    0.64       7.3  T
   8   -511.1281618 -0.118911E-06  0.394E-04    0.64      14.9  T
     SCC iter.                  ...        0 min,  1.986 sec
     gradient                   ...        0 min,  0.490 sec
 * total energy  :  -501.3483624 Eh     change       -0.3124132E-01 Eh
   gradient norm :     0.0458001 Eh/α   predicted    -0.3189717E-01 (   2.10%)
   displ. norm   :     0.9549217 α      lambda       -0.3317683E-01
   maximum displ.:     0.4342028 α      in ANC's #78, #71, #34, ...

........................................................................
.............................. CYCLE   19 ..............................
........................................................................
   1   -511.2012410 -0.511201E+03  0.130E-01    0.66       0.0  T
   2   -511.2011914  0.495972E-04  0.795E-02    0.66       1.0  T
   3   -511.1988695  0.232187E-02  0.708E-02    0.66       1.0  T
   4   -511.2012702 -0.240066E-02  0.124E-02    0.66       1.0  T
   5   -511.2013326 -0.624385E-04  0.385E-03    0.66       1.5  T
   6   -511.2013368 -0.418008E-05  0.180E-03    0.66       3.3  T
   7   -511.2013371 -0.334576E-06  0.103E-03    0.66       5.7  T
   8   -511.2013374 -0.228683E-06  0.522E-04    0.66      11.3  T
   9   -511.2013375 -0.104147E-06  0.181E-04    0.66      32.4  T
     SCC iter.                  ...        0 min,  2.237 sec
     gradient                   ...        0 min,  0.490 sec
 * total energy  :  -501.3763397 Eh     change       -0.2797731E-01 Eh
   gradient norm :     0.0480237 Eh/α   predicted    -0.3171503E-01 (  13.36%)
   displ. norm   :     0.9049176 α      lambda       -0.2844892E-01
   maximum displ.:     0.4485332 α      in ANC's #78, #71, #21, ...

........................................................................
.............................. CYCLE   20 ..............................
........................................................................
   1   -511.2470188 -0.511247E+03  0.103E-01    0.67       0.0  T
   2   -511.2469565  0.623347E-04  0.641E-02    0.67       1.0  T
   3   -511.2451932  0.176328E-02  0.611E-02    0.67       1.0  T
   4   -511.2470575 -0.186433E-02  0.919E-03    0.67       1.0  T
   5   -511.2470961 -0.385873E-04  0.259E-03    0.67       2.3  T
   6   -511.2470977 -0.160123E-05  0.138E-03    0.67       4.3  T
   7   -511.2470979 -0.190772E-06  0.860E-04    0.67       6.8  T
   8   -511.2470981 -0.223614E-06  0.377E-04    0.67      15.6  T
     SCC iter.                  ...        0 min,  1.987 sec
     gradient                   ...        0 min,  0.492 sec
 * total energy  :  -501.4022483 Eh     change       -0.2590863E-01 Eh
   gradient norm :     0.0401451 Eh/α   predicted    -0.2587254E-01 (  -0.14%)
   displ. norm   :     0.9308492 α      lambda       -0.2592134E-01
   maximum displ.:     0.4761275 α      in ANC's #78, #71, #21, ...
 * RMSD in coord.:     0.8131113 α      energy gain  -0.1898742E+01 Eh

generating ANC from model Hessian ...
Using Lindh-Hessian (1995)
 Shifting diagonal of input Hessian by    1.0000433033917500E-002
 Lowest  eigenvalues of input Hessian
    0.010000    0.010000    0.000000    0.000000    0.000000    0.000000
    0.000000    0.000000    0.010001    0.010002    0.010002    0.010003
    0.010004    0.010007    0.010007    0.010008    0.010010    0.010012
 Highest eigenvalues
    2.834561    2.855135    3.066598    3.066598    3.074442    3.074446


........................................................................
.............................. CYCLE   21 ..............................
........................................................................
   1   -511.2890882 -0.511289E+03  0.106E-01    0.68       0.0  T
   2   -511.2888365  0.251740E-03  0.749E-02    0.68       1.0  T
   3   -511.2874640  0.137249E-02  0.682E-02    0.68       1.0  T
   4   -511.2892092 -0.174521E-02  0.156E-02    0.68       1.0  T
   5   -511.2893148 -0.105599E-03  0.438E-03    0.68       1.3  T
   6   -511.2893219 -0.708495E-05  0.152E-03    0.68       3.9  T
   7   -511.2893220 -0.110674E-06  0.978E-04    0.68       6.0  T
   8   -511.2893222 -0.203470E-06  0.511E-04    0.68      11.5  T
     SCC iter.                  ...        0 min,  1.980 sec
     gradient                   ...        0 min,  0.491 sec
 * total energy  :  -501.4238614 Eh     change       -0.2161306E-01 Eh
   gradient norm :     0.0549222 Eh/α   predicted     0.0000000E+00 (-100.00%)
   displ. norm   :     0.7094619 α      lambda       -0.1905783E-01
   maximum displ.:     0.3349636 α      in ANC's #70, #78, #73, ...

........................................................................
.............................. CYCLE   22 ..............................
........................................................................
   1   -511.3247676 -0.511325E+03  0.825E-02    0.68       0.0  T
   2   -511.3246961  0.714691E-04  0.535E-02    0.68       1.0  T
   3   -511.3234426  0.125351E-02  0.552E-02    0.68       1.0  T
   4   -511.3248092 -0.136662E-02  0.814E-03    0.68       1.0  T
   5   -511.3248373 -0.281056E-04  0.268E-03    0.68       2.2  T
   6   -511.3248399 -0.259931E-05  0.107E-03    0.68       5.5  T
   7   -511.3248400 -0.123233E-06  0.618E-04    0.68       9.5  T
   8   -511.3248401 -0.532807E-07  0.357E-04    0.68      16.5  T
     SCC iter.                  ...        0 min,  2.079 sec
     gradient                   ...        0 min,  0.518 sec
 * total energy  :  -501.4414404 Eh     change       -0.1757901E-01 Eh
   gradient norm :     0.0318835 Eh/α   predicted    -0.1432516E-01 ( -18.51%)
   displ. norm   :     0.9156048 α      lambda       -0.2089757E-01
   maximum displ.:     0.4273412 α      in ANC's #70, #78, #73, ...

........................................................................
.............................. CYCLE   23 ..............................
........................................................................
   1   -511.3581818 -0.511358E+03  0.101E-01    0.69       0.0  T
   2   -511.3581120  0.697513E-04  0.629E-02    0.69       1.0  T
   3   -511.3563101  0.180193E-02  0.630E-02    0.69       1.0  T
   4   -511.3582299 -0.191986E-02  0.876E-03    0.69       1.0  T
   5   -511.3582613 -0.313402E-04  0.305E-03    0.69       1.9  T
   6   -511.3582645 -0.325878E-05  0.128E-03    0.69       4.6  T
   7   -511.3582648 -0.217148E-06  0.725E-04    0.69       8.1  T
   8   -511.3582648 -0.823663E-07  0.401E-04    0.69      14.6  T
     SCC iter.                  ...        0 min,  2.079 sec
     gradient                   ...        0 min,  0.520 sec
 * total energy  :  -501.4605522 Eh     change       -0.1911184E-01 Eh
   gradient norm :     0.0241215 Eh/α   predicted    -0.1920961E-01 (   0.51%)
   displ. norm   :     0.9363245 α      lambda       -0.1866281E-01
   maximum displ.:     0.4302964 α      in ANC's #70, #78, #73, ...

........................................................................
.............................. CYCLE   24 ..............................
........................................................................
   1   -511.3797214 -0.511380E+03  0.120E-01    0.70       0.0  T
   2   -511.3796882  0.331517E-04  0.720E-02    0.70       1.0  T
   3   -511.3780154  0.167285E-02  0.558E-02    0.70       1.0  T
   4   -511.3797568 -0.174142E-02  0.713E-03    0.70       1.0  T
   5   -511.3797757 -0.189212E-04  0.303E-03    0.70       1.9  T
   6   -511.3797785 -0.281825E-05  0.146E-03    0.70       4.0  T
   7   -511.3797788 -0.239937E-06  0.856E-04    0.70       6.9  T
   8   -511.3797790 -0.177052E-06  0.371E-04    0.70      15.8  T
     SCC iter.                  ...        0 min,  2.071 sec
     gradient                   ...        0 min,  0.519 sec
 * total energy  :  -501.4770213 Eh     change       -0.1646906E-01 Eh
   gradient norm :     0.0309811 Eh/α   predicted    -0.1751229E-01 (   6.33%)
   displ. norm   :     0.9304583 α      lambda       -0.1777817E-01
   maximum displ.:     0.4258005 α      in ANC's #70, #78, #73, ...

........................................................................
.............................. CYCLE   25 ..............................
........................................................................
   1   -511.4022427 -0.511402E+03  0.119E-01    0.71       0.0  T
   2   -511.4022315  0.111446E-04  0.710E-02    0.71       1.0  T
   3   -511.4011304  0.110113E-02  0.442E-02    0.71       1.0  T
   4   -511.4022694 -0.113896E-02  0.708E-03    0.71       1.0  T
   5   -511.4022878 -0.184148E-04  0.279E-03    0.71       2.1  T
   6   -511.4022896 -0.185173E-05  0.150E-03    0.71       3.9  T
   7   -511.4022899 -0.276238E-06  0.836E-04    0.71       7.0  T
   8   -511.4022901 -0.183063E-06  0.368E-04    0.71      16.0  T
     SCC iter.                  ...        0 min,  2.076 sec
     gradient                   ...        0 min,  0.519 sec
 * total energy  :  -501.4922997 Eh     change       -0.1527841E-01 Eh
   gradient norm :     0.0281137 Eh/α   predicted    -0.1658486E-01 (   8.55%)
   displ. norm   :     0.9077344 α      lambda       -0.1474946E-01
   maximum displ.:     0.4128532 α      in ANC's #70, #78, #73, ...

........................................................................
.............................. CYCLE   26 ..............................
........................................................................
   1   -511.4272121 -0.511427E+03  0.107E-01    0.72       0.0  T
   2   -511.4272017  0.104401E-04  0.636E-02    0.72       1.0  T
   3   -511.4262695  0.932169E-03  0.417E-02    0.72       1.0  T
   4   -511.4272373 -0.967810E-03  0.649E-03    0.72       1.0  T
   5   -511.4272525 -0.151864E-04  0.231E-03    0.72       2.5  T
   6   -511.4272536 -0.102755E-05  0.135E-03    0.72       4.4  T
   7   -511.4272538 -0.218348E-06  0.735E-04    0.72       8.0  T
   8   -511.4272539 -0.162009E-06  0.301E-04    0.72      19.5  T
     SCC iter.                  ...        0 min,  2.076 sec
     gradient                   ...        0 min,  0.518 sec
 * total energy  :  -501.5054778 Eh     change       -0.1317807E-01 Eh
   gradient norm :     0.0225444 Eh/α   predicted    -0.1345138E-01 (   2.07%)
   displ. norm   :     0.9213975 α      lambda       -0.1326726E-01
   maximum displ.:     0.4080564 α      in ANC's #70, #78, #73, ...

........................................................................
.............................. CYCLE   27 ..............................
........................................................................
   1   -511.4434034 -0.511443E+03  0.126E-01    0.73       0.0  T
   2   -511.4433904  0.129866E-04  0.749E-02    0.73       1.0  T
   3   -511.4422937  0.109671E-02  0.467E-02    0.73       1.0  T
   4   -511.4434322 -0.113847E-02  0.631E-03    0.73       1.0  T
   5   -511.4434459 -0.136587E-04  0.241E-03    0.73       2.4  T
   6   -511.4434467 -0.880176E-06  0.153E-03    0.73       3.8  T
   7   -511.4434471 -0.389566E-06  0.784E-04    0.73       7.5  T
   8   -511.4434473 -0.191491E-06  0.288E-04    0.73      20.4  T
     SCC iter.                  ...        0 min,  2.082 sec
     gradient                   ...        0 min,  0.520 sec
 * total energy  :  -501.5168998 Eh     change       -0.1142197E-01 Eh
   gradient norm :     0.0194822 Eh/α   predicted    -0.1226544E-01 (   7.38%)
   displ. norm   :     0.8973653 α      lambda       -0.1113344E-01
   maximum displ.:     0.3955947 α      in ANC's #70, #78, #50, ...

........................................................................
.............................. CYCLE   28 ..............................
........................................................................
   1   -511.4662066 -0.511466E+03  0.111E-01    0.74       0.0  T
   2   -511.4661946  0.120058E-04  0.658E-02    0.74       1.0  T
   3   -511.4652575  0.937104E-03  0.430E-02    0.74       1.0  T
   4   -511.4662331 -0.975569E-03  0.555E-03    0.74       1.1  T
   5   -511.4662431 -0.997269E-05  0.219E-03    0.74       2.7  T
   6   -511.4662439 -0.806464E-06  0.133E-03    0.74       4.4  T
   7   -511.4662442 -0.272711E-06  0.686E-04    0.74       8.6  T
   8   -511.4662443 -0.147779E-06  0.254E-04    0.74      23.1  T
     SCC iter.                  ...        0 min,  2.072 sec
     gradient                   ...        0 min,  0.520 sec
 * total energy  :  -501.5264484 Eh     change       -0.9548654E-02 Eh
   gradient norm :     0.0178332 Eh/α   predicted    -0.1004941E-01 (   5.24%)
   displ. norm   :     0.8963059 α      lambda       -0.9496456E-02
   maximum displ.:     0.3736506 α      in ANC's #70, #78, #50, ...

........................................................................
.............................. CYCLE   29 ..............................
........................................................................
   1   -511.4823869 -0.511482E+03  0.123E-01    0.75       0.0  T
   2   -511.4823881 -0.117785E-05  0.730E-02    0.75       1.0  T
   3   -511.4819090  0.479152E-03  0.294E-02    0.75       1.0  T
   4   -511.4824050 -0.496021E-03  0.459E-03    0.75       1.3  T
   5   -511.4824119 -0.690190E-05  0.205E-03    0.75       2.9  T
   6   -511.4824122 -0.298392E-06  0.143E-03    0.75       4.1  T
   7   -511.4824126 -0.392210E-06  0.651E-04    0.75       9.0  T
   8   -511.4824127 -0.147120E-06  0.226E-04    0.75      26.0  T
     SCC iter.                  ...        0 min,  2.072 sec
     gradient                   ...        0 min,  0.519 sec
 * total energy  :  -501.5340453 Eh     change       -0.7596933E-02 Eh
   gradient norm :     0.0228723 Eh/α   predicted    -0.8562792E-02 (  12.71%)
   displ. norm   :     0.8596087 α      lambda       -0.8539317E-02
   maximum displ.:     0.3516647 α      in ANC's #70, #78, #73, ...

........................................................................
.............................. CYCLE   30 ..............................
........................................................................
   1   -511.4917319 -0.511492E+03  0.124E-01    0.75       0.0  T
   2   -511.4917373 -0.536389E-05  0.737E-02    0.75       1.0  T
   3   -511.4914855  0.251830E-03  0.227E-02    0.75       1.0  T
   4   -511.4917461 -0.260677E-03  0.400E-03    0.75       1.5  T
   5   -511.4917512 -0.508681E-05  0.196E-03    0.75       3.0  T
   6   -511.4917516 -0.367436E-06  0.129E-03    0.75       4.6  T
   7   -511.4917519 -0.276805E-06  0.634E-04    0.75       9.3  T
   8   -511.4917520 -0.139606E-06  0.208E-04    0.75      28.2  T
     SCC iter.                  ...        0 min,  2.080 sec
     gradient                   ...        0 min,  0.520 sec
 * total energy  :  -501.5406069 Eh     change       -0.6561586E-02 Eh
   gradient norm :     0.0200739 Eh/α   predicted    -0.7424634E-02 (  13.15%)
   displ. norm   :     0.8209916 α      lambda       -0.6417049E-02
   maximum displ.:     0.3389325 α      in ANC's #50, #70, #78, ...

........................................................................
.............................. CYCLE   31 ..............................
........................................................................
   1   -511.5092951 -0.511509E+03  0.996E-02    0.75       0.0  T
   2   -511.5092972 -0.207592E-05  0.589E-02    0.75       1.0  T
   3   -511.5090315  0.265723E-03  0.226E-02    0.75       1.0  T
   4   -511.5093084 -0.276882E-03  0.311E-03    0.75       1.9  T
   5   -511.5093110 -0.261904E-05  0.167E-03    0.75       3.5  T
   6   -511.5093113 -0.343393E-06  0.105E-03    0.75       5.6  T
   7   -511.5093115 -0.185870E-06  0.490E-04    0.75      12.0  T
   8   -511.5093116 -0.797779E-07  0.186E-04    0.75      31.5  T
     SCC iter.                  ...        0 min,  2.077 sec
     gradient                   ...        0 min,  0.523 sec
 * total energy  :  -501.5458137 Eh     change       -0.5206782E-02 Eh
   gradient norm :     0.0161038 Eh/α   predicted    -0.5371154E-02 (   3.16%)
   displ. norm   :     0.8402298 α      lambda       -0.5680592E-02
   maximum displ.:     0.3108325 α      in ANC's #78, #70, #50, ...

........................................................................
.............................. CYCLE   32 ..............................
........................................................................
   1   -511.5296602 -0.511530E+03  0.115E-01    0.75       0.0  T
   2   -511.5296635 -0.331639E-05  0.685E-02    0.75       1.0  T
   3   -511.5293913  0.272205E-03  0.249E-02    0.75       1.0  T
   4   -511.5296759 -0.284635E-03  0.323E-03    0.75       1.8  T
   5   -511.5296782 -0.226714E-05  0.180E-03    0.75       3.3  T
   6   -511.5296785 -0.284596E-06  0.122E-03    0.75       4.8  T
   7   -511.5296788 -0.310268E-06  0.579E-04    0.75      10.1  T
   8   -511.5296789 -0.109456E-06  0.202E-04    0.75      29.1  T
     SCC iter.                  ...        0 min,  2.080 sec
     gradient                   ...        0 min,  0.525 sec
 * total energy  :  -501.5498198 Eh     change       -0.4006140E-02 Eh
   gradient norm :     0.0194646 Eh/α   predicted    -0.4845507E-02 (  20.95%)
   displ. norm   :     0.7726434 α      lambda       -0.4600192E-02
   maximum displ.:     0.3657047 α      in ANC's #50, #70, #78, ...

........................................................................
.............................. CYCLE   33 ..............................
........................................................................
   1   -511.5409827 -0.511541E+03  0.104E-01    0.75       0.0  T
   2   -511.5409882 -0.551019E-05  0.619E-02    0.75       1.0  T
   3   -511.5408463  0.141927E-03  0.192E-02    0.75       1.0  T
   4   -511.5409935 -0.147180E-03  0.346E-03    0.75       1.7  T
   5   -511.5409963 -0.281665E-05  0.188E-03    0.75       3.1  T
   6   -511.5409970 -0.748634E-06  0.107E-03    0.75       5.5  T
   7   -511.5409972 -0.177244E-06  0.542E-04    0.75      10.8  T
   8   -511.5409973 -0.935439E-07  0.207E-04    0.75      28.3  T
     SCC iter.                  ...        0 min,  2.074 sec
     gradient                   ...        0 min,  0.520 sec
 * total energy  :  -501.5531922 Eh     change       -0.3372309E-02 Eh
   gradient norm :     0.0140299 Eh/α   predicted    -0.3673207E-02 (   8.92%)
   displ. norm   :     0.7675285 α      lambda       -0.3674207E-02
   maximum displ.:     0.3512633 α      in ANC's #50, #51, #70, ...

........................................................................
.............................. CYCLE   34 ..............................
........................................................................
   1   -511.5513550 -0.511551E+03  0.108E-01    0.75       0.0  T
   2   -511.5513602 -0.520482E-05  0.643E-02    0.75       1.0  T
   3   -511.5511666  0.193577E-03  0.219E-02    0.75       1.0  T
   4   -511.5513656 -0.199045E-03  0.403E-03    0.75       1.5  T
   5   -511.5513701 -0.451388E-05  0.203E-03    0.75       2.9  T
   6   -511.5513712 -0.105424E-05  0.106E-03    0.75       5.5  T
   7   -511.5513713 -0.143631E-06  0.546E-04    0.75      10.8  T
   8   -511.5513714 -0.851193E-07  0.224E-04    0.75      26.2  T
     SCC iter.                  ...        0 min,  2.084 sec
     gradient                   ...        0 min,  0.521 sec
 * total energy  :  -501.5553457 Eh     change       -0.2153509E-02 Eh
   gradient norm :     0.0229120 Eh/α   predicted    -0.2919345E-02 (  35.56%)
   displ. norm   :     0.6823935 α      lambda       -0.3238174E-02
   maximum displ.:     0.3279034 α      in ANC's #50, #49, #78, ...

........................................................................
.............................. CYCLE   35 ..............................
........................................................................
   1   -511.5573252 -0.511557E+03  0.100E-01    0.75       0.0  T
   2   -511.5573284 -0.318320E-05  0.597E-02    0.75       1.0  T
   3   -511.5571223  0.206141E-03  0.230E-02    0.75       1.0  T
   4   -511.5573342 -0.211888E-03  0.399E-03    0.75       1.5  T
   5   -511.5573388 -0.467538E-05  0.192E-03    0.75       3.1  T
   6   -511.5573397 -0.852159E-06  0.105E-03    0.75       5.6  T
   7   -511.5573398 -0.143484E-06  0.578E-04    0.75      10.2  T
   8   -511.5573400 -0.109693E-06  0.183E-04    0.75      32.1  T
     SCC iter.                  ...        0 min,  2.080 sec
     gradient                   ...        0 min,  0.521 sec
 * total energy  :  -501.5571144 Eh     change       -0.1768715E-02 Eh
   gradient norm :     0.0181199 Eh/α   predicted    -0.2373035E-02 (  34.17%)
   displ. norm   :     0.6151293 α      lambda       -0.2580581E-02
   maximum displ.:     0.3360039 α      in ANC's #50, #51, #70, ...

........................................................................
.............................. CYCLE   36 ..............................
........................................................................
   1   -511.5682159 -0.511568E+03  0.945E-02    0.75       0.0  T
   2   -511.5682147  0.118970E-05  0.564E-02    0.75       1.0  T
   3   -511.5679367  0.278079E-03  0.267E-02    0.75       1.0  T
   4   -511.5682256 -0.288967E-03  0.310E-03    0.75       1.9  T
   5   -511.5682281 -0.245254E-05  0.170E-03    0.75       3.4  T
   6   -511.5682289 -0.786948E-06  0.857E-04    0.75       6.9  T
   7   -511.5682289 -0.677317E-07  0.490E-04    0.75      12.0  T
     SCC iter.                  ...        0 min,  1.821 sec
     gradient                   ...        0 min,  0.519 sec
 * total energy  :  -501.5584548 Eh     change       -0.1340383E-02 Eh
   gradient norm :     0.0125180 Eh/α   predicted    -0.1778530E-02 (  32.69%)
   displ. norm   :     0.5820395 α      lambda       -0.1900376E-02
   maximum displ.:     0.3154646 α      in ANC's #50, #51, #49, ...

........................................................................
.............................. CYCLE   37 ..............................
........................................................................
   1   -511.5752846 -0.511575E+03  0.733E-02    0.75       0.0  T
   2   -511.5752862 -0.158484E-05  0.437E-02    0.75       1.0  T
   3   -511.5751762  0.109944E-03  0.164E-02    0.75       1.0  T
   4   -511.5752898 -0.113557E-03  0.270E-03    0.75       2.2  T
   5   -511.5752918 -0.198143E-05  0.139E-03    0.75       4.2  T
   6   -511.5752923 -0.527879E-06  0.678E-04    0.75       8.7  T
   7   -511.5752923 -0.500032E-07  0.393E-04    0.75      14.9  T
     SCC iter.                  ...        0 min,  1.824 sec
     gradient                   ...        0 min,  0.520 sec
 * total energy  :  -501.5594762 Eh     change       -0.1021486E-02 Eh
   gradient norm :     0.0118688 Eh/α   predicted    -0.1272084E-02 (  24.53%)
   displ. norm   :     0.5720938 α      lambda       -0.1713490E-02
   maximum displ.:     0.3390314 α      in ANC's #50, #51, #24, ...

........................................................................
.............................. CYCLE   38 ..............................
........................................................................
   1   -511.5842312 -0.511584E+03  0.740E-02    0.75       0.0  T
   2   -511.5842312 -0.190814E-07  0.440E-02    0.75       1.0  T
   3   -511.5840627  0.168521E-03  0.205E-02    0.75       1.0  T
   4   -511.5842364 -0.173694E-03  0.287E-03    0.75       2.0  T
   5   -511.5842389 -0.251718E-05  0.139E-03    0.75       4.2  T
   6   -511.5842395 -0.609929E-06  0.627E-04    0.75       9.4  T
   7   -511.5842396 -0.449028E-07  0.370E-04    0.75      15.9  T
     SCC iter.                  ...        0 min,  1.815 sec
     gradient                   ...        0 min,  0.518 sec
 * total energy  :  -501.5604424 Eh     change       -0.9661585E-03 Eh
   gradient norm :     0.0120416 Eh/α   predicted    -0.1137154E-02 (  17.70%)
   displ. norm   :     0.5596159 α      lambda       -0.1336496E-02
   maximum displ.:     0.3211796 α      in ANC's #50, #51, #49, ...

........................................................................
.............................. CYCLE   39 ..............................
........................................................................
   1   -511.5861422 -0.511586E+03  0.596E-02    0.75       0.0  T
   2   -511.5861419  0.265144E-06  0.356E-02    0.75       1.0  T
   3   -511.5859987  0.143246E-03  0.189E-02    0.75       1.0  T
   4   -511.5861475 -0.148843E-03  0.257E-03    0.75       2.3  T
   5   -511.5861493 -0.180603E-05  0.126E-03    0.75       4.7  T
   6   -511.5861498 -0.456384E-06  0.603E-04    0.75       9.7  T
   7   -511.5861498 -0.392729E-07  0.377E-04    0.75      15.6  T
     SCC iter.                  ...        0 min,  1.820 sec
     gradient                   ...        0 min,  0.518 sec
 * total energy  :  -501.5612687 Eh     change       -0.8263006E-03 Eh
   gradient norm :     0.0129564 Eh/α   predicted    -0.8775232E-03 (   6.20%)
   displ. norm   :     0.6039320 α      lambda       -0.1464593E-02
   maximum displ.:     0.3794247 α      in ANC's #50, #51, #24, ...

........................................................................
.............................. CYCLE   40 ..............................
........................................................................
   1   -511.5911577 -0.511591E+03  0.629E-02    0.75       0.0  T
   2   -511.5911584 -0.614976E-06  0.376E-02    0.75       1.0  T
   3   -511.5910150  0.143399E-03  0.191E-02    0.75       1.0  T
   4   -511.5911642 -0.149266E-03  0.270E-03    0.75       2.2  T
   5   -511.5911661 -0.186688E-05  0.126E-03    0.75       4.6  T
   6   -511.5911665 -0.393738E-06  0.639E-04    0.75       9.2  T
   7   -511.5911665 -0.413430E-07  0.378E-04    0.75      15.5  T
     SCC iter.                  ...        0 min,  1.814 sec
     gradient                   ...        0 min,  0.518 sec
 * total energy  :  -501.5621590 Eh     change       -0.8902665E-03 Eh
   gradient norm :     0.0159480 Eh/α   predicted    -0.9993963E-03 (  12.26%)
   displ. norm   :     0.6161407 α      lambda       -0.1575215E-02
   maximum displ.:     0.3094136 α      in ANC's #50, #51, #24, ...

........................................................................
.............................. CYCLE   41 ..............................
........................................................................
   1   -511.5924493 -0.511592E+03  0.887E-02    0.75       0.0  T
   2   -511.5924524 -0.309683E-05  0.530E-02    0.75       1.0  T
   3   -511.5923114  0.140980E-03  0.186E-02    0.75       1.0  T
   4   -511.5924577 -0.146345E-03  0.292E-03    0.75       2.0  T
   5   -511.5924599 -0.217927E-05  0.143E-03    0.75       4.1  T
   6   -511.5924602 -0.315259E-06  0.959E-04    0.75       6.1  T
   7   -511.5924604 -0.185090E-06  0.458E-04    0.75      12.8  T
     SCC iter.                  ...        0 min,  1.818 sec
     gradient                   ...        0 min,  0.518 sec
 * total energy  :  -501.5625931 Eh     change       -0.4340835E-03 Eh
   gradient norm :     0.0224413 Eh/α   predicted    -0.1086612E-02 ( 150.32%)
   displ. norm   :     0.4464750 α      lambda       -0.1584133E-02
   maximum displ.:     0.2587664 α      in ANC's #50, #24, #51, ...

........................................................................
.............................. CYCLE   42 ..............................
........................................................................
   1   -511.5944860 -0.511594E+03  0.592E-02    0.75       0.0  T
   2   -511.5944870 -0.979319E-06  0.353E-02    0.75       1.0  T
   3   -511.5943999  0.870520E-04  0.148E-02    0.75       1.0  T
   4   -511.5944905 -0.905213E-04  0.205E-03    0.75       2.9  T
   5   -511.5944916 -0.113117E-05  0.957E-04    0.75       6.1  T
   6   -511.5944917 -0.130803E-06  0.594E-04    0.75       9.9  T
   7   -511.5944918 -0.442317E-07  0.355E-04    0.75      16.6  T
     SCC iter.                  ...        0 min,  1.737 sec
     gradient                   ...        0 min,  0.492 sec
 * total energy  :  -501.5636004 Eh     change       -0.1007301E-02 Eh
   gradient norm :     0.0106478 Eh/α   predicted    -0.9499633E-03 (  -5.69%)
   displ. norm   :     0.6021204 α      lambda       -0.9029775E-03
   maximum displ.:     0.3551748 α      in ANC's #50, #24, #51, ...
 * RMSD in coord.:     0.8163262 α      energy gain  -0.1613520E+00 Eh

generating ANC from model Hessian ...
Using Lindh-Hessian (1995)
 Shifting diagonal of input Hessian by    1.0006514805351866E-002
 Lowest  eigenvalues of input Hessian
    0.010000    0.010002    0.000000    0.000000    0.000000    0.000000
    0.000000    0.000000    0.010007    0.010007    0.010007    0.010008
    0.010009    0.010010    0.010010    0.010012    0.010012    0.010013
 Highest eigenvalues
    3.030169    3.031974    3.041045    3.041206    3.050971    3.052561


........................................................................
.............................. CYCLE   43 ..............................
........................................................................
   1   -511.5976131 -0.511598E+03  0.479E-02    0.75       0.0  T
   2   -511.5976129  0.211167E-06  0.284E-02    0.75       1.0  T
   3   -511.5975231  0.897996E-04  0.152E-02    0.75       1.0  T
   4   -511.5976170 -0.939017E-04  0.183E-03    0.75       3.2  T
   5   -511.5976178 -0.852518E-06  0.921E-04    0.75       6.4  T
   6   -511.5976180 -0.190655E-06  0.520E-04    0.75      11.3  T
     SCC iter.                  ...        0 min,  1.488 sec
     gradient                   ...        0 min,  0.492 sec
 * total energy  :  -501.5641681 Eh     change       -0.5677031E-03 Eh
   gradient norm :     0.0089051 Eh/α   predicted     0.0000000E+00 (-100.00%)
   displ. norm   :     0.1449726 α      lambda       -0.3956790E-03
   maximum displ.:     0.0459643 α      in ANC's #47, #27, #51, ...

........................................................................
.............................. CYCLE   44 ..............................
........................................................................
   1   -511.5954209 -0.511595E+03  0.408E-02    0.75       0.0  T
   2   -511.5954213 -0.480606E-06  0.244E-02    0.75       1.0  T
   3   -511.5954120  0.932973E-05  0.455E-03    0.75       1.3  T
   4   -511.5954216 -0.962121E-05  0.103E-03    0.75       5.7  T
   5   -511.5954220 -0.316788E-06  0.537E-04    0.75      10.9  T
   6   -511.5954220 -0.305113E-07  0.353E-04    0.75      16.6  T
     SCC iter.                  ...        0 min,  1.499 sec
     gradient                   ...        0 min,  0.491 sec
 * total energy  :  -501.5643143 Eh     change       -0.1462628E-03 Eh
   gradient norm :     0.0054707 Eh/α   predicted    -0.2019992E-03 (  38.11%)
   displ. norm   :     0.2134070 α      lambda       -0.5042743E-03
   maximum displ.:     0.0800874 α      in ANC's #27, #31, #45, ...

........................................................................
.............................. CYCLE   45 ..............................
........................................................................
   1   -511.5947218 -0.511595E+03  0.334E-02    0.75       0.0  T
   2   -511.5947222 -0.354458E-06  0.200E-02    0.75       1.0  T
   3   -511.5946869  0.352159E-04  0.866E-03    0.75       1.0  T
   4   -511.5947231 -0.361343E-04  0.166E-03    0.75       3.5  T
   5   -511.5947240 -0.957853E-06  0.711E-04    0.75       8.3  T
   6   -511.5947241 -0.952970E-07  0.410E-04    0.75      14.3  T
     SCC iter.                  ...        0 min,  1.494 sec
     gradient                   ...        0 min,  0.492 sec
 * total energy  :  -501.5645855 Eh     change       -0.2711868E-03 Eh
   gradient norm :     0.0087332 Eh/α   predicted    -0.2636202E-03 (  -2.79%)
   displ. norm   :     0.2884967 α      lambda       -0.4864012E-03
   maximum displ.:     0.1069756 α      in ANC's #27, #31, #25, ...

........................................................................
.............................. CYCLE   46 ..............................
........................................................................
   1   -511.5949456 -0.511595E+03  0.470E-02    0.75       0.0  T
   2   -511.5949460 -0.401992E-06  0.280E-02    0.75       1.0  T
   3   -511.5949070  0.389960E-04  0.911E-03    0.75       1.0  T
   4   -511.5949472 -0.401606E-04  0.166E-03    0.75       3.5  T
   5   -511.5949479 -0.774697E-06  0.802E-04    0.75       7.3  T
   6   -511.5949480 -0.692070E-07  0.503E-04    0.75      11.7  T
     SCC iter.                  ...        0 min,  1.492 sec
     gradient                   ...        0 min,  0.492 sec
 * total energy  :  -501.5647657 Eh     change       -0.1802180E-03 Eh
   gradient norm :     0.0097707 Eh/α   predicted    -0.2634437E-03 (  46.18%)
   displ. norm   :     0.2768587 α      lambda       -0.4945807E-03
   maximum displ.:     0.1060680 α      in ANC's #27, #31, #45, ...

........................................................................
.............................. CYCLE   47 ..............................
........................................................................
   1   -511.5970339 -0.511597E+03  0.345E-02    0.75       0.0  T
   2   -511.5970341 -0.158134E-06  0.205E-02    0.75       1.0  T
   3   -511.5970075  0.265950E-04  0.761E-03    0.75       1.0  T
   4   -511.5970350 -0.275153E-04  0.126E-03    0.75       4.6  T
   5   -511.5970354 -0.410356E-06  0.625E-04    0.75       9.4  T
   6   -511.5970355 -0.473406E-07  0.368E-04    0.75      16.0  T
     SCC iter.                  ...        0 min,  1.495 sec
     gradient                   ...        0 min,  0.492 sec
 * total energy  :  -501.5650931 Eh     change       -0.3273766E-03 Eh
   gradient norm :     0.0063988 Eh/α   predicted    -0.2662503E-03 ( -18.67%)
   displ. norm   :     0.4454101 α      lambda       -0.6249003E-03
   maximum displ.:     0.1831709 α      in ANC's #27, #31, #25, ...

........................................................................
.............................. CYCLE   48 ..............................
........................................................................
   1   -511.5984770 -0.511598E+03  0.565E-02    0.75       0.0  T
   2   -511.5984773 -0.278161E-06  0.336E-02    0.75       1.0  T
   3   -511.5984134  0.639479E-04  0.122E-02    0.75       1.0  T
   4   -511.5984794 -0.660173E-04  0.197E-03    0.75       3.0  T
   5   -511.5984806 -0.120991E-05  0.884E-04    0.75       6.6  T
   6   -511.5984807 -0.130737E-06  0.493E-04    0.75      11.9  T
   7   -511.5984808 -0.419597E-07  0.211E-04    0.75      27.8  T
     SCC iter.                  ...        0 min,  1.744 sec
     gradient                   ...        0 min,  0.493 sec
 * total energy  :  -501.5653393 Eh     change       -0.2462210E-03 Eh
   gradient norm :     0.0096846 Eh/α   predicted    -0.3744403E-03 (  52.07%)
   displ. norm   :     0.3964878 α      lambda       -0.5926955E-03
   maximum displ.:     0.1631337 α      in ANC's #27, #31, #45, ...

........................................................................
.............................. CYCLE   49 ..............................
........................................................................
   1   -511.5980523 -0.511598E+03  0.476E-02    0.75       0.0  T
   2   -511.5980525 -0.213601E-06  0.283E-02    0.75       1.0  T
   3   -511.5980203  0.321740E-04  0.909E-03    0.75       1.0  T
   4   -511.5980537 -0.334172E-04  0.123E-03    0.75       4.8  T
   5   -511.5980541 -0.347003E-06  0.685E-04    0.75       8.6  T
   6   -511.5980541 -0.679598E-07  0.390E-04    0.75      15.0  T
     SCC iter.                  ...        0 min,  1.499 sec
     gradient                   ...        0 min,  0.492 sec
 * total energy  :  -501.5656273 Eh     change       -0.2879694E-03 Eh
   gradient norm :     0.0085966 Eh/α   predicted    -0.3429400E-03 (  19.09%)
   displ. norm   :     0.4087021 α      lambda       -0.6188480E-03
   maximum displ.:     0.1686889 α      in ANC's #27, #31, #24, ...

........................................................................
.............................. CYCLE   50 ..............................
........................................................................
   1   -511.5970241 -0.511597E+03  0.530E-02    0.75       0.0  T
   2   -511.5970247 -0.605588E-06  0.315E-02    0.75       1.0  T
   3   -511.5970003  0.244399E-04  0.799E-03    0.75       1.0  T
   4   -511.5970259 -0.256343E-04  0.119E-03    0.75       4.9  T
   5   -511.5970261 -0.215052E-06  0.745E-04    0.75       7.9  T
   6   -511.5970262 -0.617898E-07  0.475E-04    0.75      12.4  T
     SCC iter.                  ...        0 min,  1.490 sec
     gradient                   ...        0 min,  0.492 sec
 * total energy  :  -501.5659343 Eh     change       -0.3070013E-03 Eh
   gradient norm :     0.0072390 Eh/α   predicted    -0.3611128E-03 (  17.63%)
   displ. norm   :     0.4295135 α      lambda       -0.5762050E-03
   maximum displ.:     0.1859348 α      in ANC's #31, #27, #25, ...

........................................................................
.............................. CYCLE   51 ..............................
........................................................................
   1   -511.5969314 -0.511597E+03  0.483E-02    0.75       0.0  T
   2   -511.5969320 -0.642665E-06  0.287E-02    0.75       1.0  T
   3   -511.5969162  0.158639E-04  0.632E-03    0.75       1.0  T
   4   -511.5969329 -0.167303E-04  0.110E-03    0.75       5.3  T
   5   -511.5969331 -0.191795E-06  0.674E-04    0.75       8.7  T
[...]
 537:  0.00 538:  0.00 539:  0.00 540:  0.00 541:  0.00 542:  0.00 543:  0.00 544:  0.00
 545:  0.00 546:  0.00 547:  0.00 548:  0.00 549:  0.00 550:  0.00 551:  0.00 552:  0.00
 553:  0.00 554:  0.00 555:  0.00 556:  0.00 557:  0.00 558:  0.00 559:  0.00 560:  0.00
 561:  0.00 562:  0.00 563:  0.00 564:  0.00 565:  0.00 566:  0.00 567:  0.00 568:  0.00
 569:  0.00 570:  0.00 571:  0.00 572:  0.00 573:  0.00 574:  0.00 575:  0.00 576:  0.00
 577:  0.00 578:  0.00 579:  0.00 580:  0.00 581:  0.00 582:  0.00 583:  0.00 584:  0.00
 585:  0.00 586:  0.00 587:  0.00 588:  0.00 589:  0.00 590:  0.00 591:  0.00 592:  0.00
 593:  0.00 594:  0.00 595:  0.00 596:  0.00 597:  0.00 598:  0.00 599:  0.00 600:  0.00
 601:  0.00 602:  0.00 603:  0.00 604:  0.00 605:  0.00 606:  0.00 607:  0.00 608:  0.00
 609:  0.00 610:  0.00 611:  0.00 612:  0.00 613:  0.00 614:  0.00 615:  0.00 616:  0.00
 617:  0.00 618:  0.00 619:  0.00 620:  0.00 621:  0.00 622:  0.00 623:  0.00 624:  0.00
 625:  0.00 626:  0.00 627:  0.00 628:  0.00 629:  0.00 630:  0.00 631:  0.00 632:  0.00
 633:  0.00 634:  0.00 635:  0.00 636:  0.00 637:  0.00 638:  0.00 639:  0.00 640:  0.00
 641:  0.00 642:  0.00 643:  0.00 644:  0.00 645:  0.00 646:  0.00 647:  0.00 648:  0.00
 649:  0.00 650:  0.00 651:  0.00 652:  0.00 653:  0.00 654:  0.00 655:  0.00 656:  0.00
 657:  0.00 658:  0.00 659:  0.00 660:  0.00 661:  0.00 662:  0.00 663:  0.00 664:  0.00
 665:  0.00 666:  0.00 667:  0.00 668:  0.00 669:  0.00 670:  0.00 671:  0.00 672:  0.00
 673:  0.00 674:  0.00 675:  0.00 676:  0.00 677:  0.00 678:  0.00 679:  0.00 680:  0.00
 681:  0.00 682:  0.00 683:  0.00 684:  0.00 685:  0.00 686:  0.00 687:  0.00 688:  0.00
 689:  0.00 690:  0.00 691:  0.00 692:  0.00 693:  0.00 694:  0.00 695:  0.00 696:  0.00
 697:  0.00 698:  0.00 699:  0.00 700:  0.00 701:  0.00 702:  0.00 703:  0.00 704:  0.00
 705:  0.00 706:  0.00 707:  0.00 708:  0.00 709:  0.00 710:  0.00 711:  0.00 712:  0.00
 713:  0.00 714:  0.00 715:  0.00 716:  0.00 717:  0.00 718:  0.00 719:  0.00 720:  0.00
 721:  0.00 722:  0.00 723:  0.00 724:  0.00 725:  0.00 726:  0.00 727:  0.00 728:  0.00
 729:  0.00 730:  0.00 731:  0.00 732:  0.00 733:  0.00 734:  0.00 735:  0.00 736:  0.00
 737:  0.00 738:  0.00 739:  0.00 740:  0.00 741:  0.00 742:  0.00 743:  0.00 744:  0.00
 745:  0.00 746:  0.00 747:  0.00 748:  0.00 749:  0.00 750:  0.00 751:  0.00 752:  0.00
 753:  0.00 754:  0.00 755:  0.00 756:  0.00 757:  0.00 758:  0.00 759:  0.00 760:  0.00
 761:  0.00 762:  0.00 763:  0.00 764:  0.00 765:  0.00 766:  0.00 767:  0.00 768:  0.00
 769:  0.00 770:  0.00 771:  0.00 772:  0.00 773:  0.00 774:  0.00 775:  0.00 776:  0.00
 777:  0.00 778:  0.00 779:  0.00 780:  0.00 781:  0.00 782:  0.00 783:  0.00 784:  0.00
 785:  0.00 786:  0.00 787:  0.00 788:  0.00 789:  0.00 790:  0.00 791:  0.00 792:  0.00
 793:  0.00 794:  0.00 795:  0.00 796:  0.00 797:  0.00 798:  0.00 799:  0.00 800:  0.00
 801:  0.00 802:  0.00 803:  0.00 804:  0.00 805:  0.00 806:  0.00 807:  0.00 808:  0.00
 809:  0.00 810:  0.00 811:  0.00 812:  0.00 813:  0.00 814:  0.00 815:  0.00 816:  0.00
 817:  0.00 818:  0.00 819:  0.00 820:  0.00 821:  0.00 822:  0.00 823:  0.00 824:  0.00
 825:  0.00 826:  0.00 827:  0.00 828:  0.00 829:  0.00 830:  0.00 831:  0.00 832:  0.00
 833:  0.00 834:  0.00 835:  0.00 836:  0.00 837:  0.00 838:  0.00 839:  0.00 840:  0.00
 841:  0.00 842:  0.00 843:  0.00 844:  0.00 845:  0.00 846:  0.00 847:  0.00 848:  0.00
 849:  0.00 850:  0.00 851:  0.00 852:  0.00 853:  0.00 854:  0.00 855:  0.00 856:  0.00
 857:  0.00 858:  0.00 859:  0.00 860:  0.00 861:  0.00 862:  0.00 863:  0.00 864:  0.00
 865:  0.00 866:  0.00 867:  0.00 868:  0.00 869:  0.00 870:  0.00
 output can be read by thermo (or use thermo option).
 writing <g98.out> molden fake output.
 recommended (thermochemical) frequency scaling factor: 1.0
           -------------------------------------------------
          |             Thermodynamic Functions             |
           -------------------------------------------------
 symmetry recognition skipped because # atoms >         200
 inverting freq            1   4.9715795377533922     
 inverting freq            2   4.6267047293742110     
 inverting freq            3   3.9303003491896638     
 inverting freq            4   1.9741022803126944     
 inverting freq            5   1.1341361294664858     

          ...................................................
          :                      SETUP                      :
          :.................................................:
          :  # frequencies                         863      :
          :  # imaginary freq.                       0      :
          :  linear?                             false      :
          :  only rotor calc.                    false      :
          :  symmetry                               C1      :
          :  rotational number                       1      :
          :  scaling factor                  1.0000000      :
          :  rotor cutoff                   50.0000000 cm⁻¹ :
          :  imag. cutoff                  -20.0000000 cm⁻¹ :
          :.................................................:

    mode    ω/cm⁻¹     T·S(HO)/kcal·mol⁻¹    T·S(FR)/kcal·mol⁻¹   T·S(vib)
   ------------------------------------------------------------------------
       1      4.97    -2.80250 (  0.01%)    -1.74036 ( 99.99%)    -1.74047
       2      4.63    -2.84510 (  0.01%)    -1.76166 ( 99.99%)    -1.76174
       3      3.93    -2.94175 (  0.00%)    -1.80998 (100.00%)    -1.81003
       4      1.97    -3.34972 (  0.00%)    -2.01398 (100.00%)    -2.01398
       5      1.13    -3.67810 (  0.00%)    -2.17817 (100.00%)    -2.17817
       6      1.77    -3.41459 (  0.00%)    -2.04641 (100.00%)    -2.04641
       7      3.24    -3.05624 (  0.00%)    -1.86723 (100.00%)    -1.86725
       8      4.07    -2.92123 (  0.00%)    -1.79973 (100.00%)    -1.79978
       9      4.84    -2.81832 (  0.01%)    -1.74827 ( 99.99%)    -1.74836
      10      5.93    -2.69820 (  0.02%)    -1.68821 ( 99.98%)    -1.68841
      11      6.28    -2.66390 (  0.02%)    -1.67106 ( 99.98%)    -1.67131
      12      6.94    -2.60481 (  0.04%)    -1.64151 ( 99.96%)    -1.64187
      13      7.30    -2.57488 (  0.05%)    -1.62654 ( 99.95%)    -1.62697
      14      7.56    -2.55387 (  0.05%)    -1.61603 ( 99.95%)    -1.61653
      15      8.00    -2.52089 (  0.07%)    -1.59954 ( 99.93%)    -1.60015
      16      8.02    -2.51904 (  0.07%)    -1.59862 ( 99.93%)    -1.59923
      17      9.18    -2.43945 (  0.11%)    -1.55882 ( 99.89%)    -1.55981
      18     10.08    -2.38357 (  0.17%)    -1.53087 ( 99.83%)    -1.53228
      19     10.37    -2.36701 (  0.18%)    -1.52259 ( 99.82%)    -1.52415
      20     12.49    -2.25681 (  0.39%)    -1.46748 ( 99.61%)    -1.47054
      21     13.49    -2.21096 (  0.53%)    -1.44454 ( 99.47%)    -1.44859
      22     15.37    -2.13378 (  0.89%)    -1.40594 ( 99.11%)    -1.41239
      23     16.86    -2.07914 (  1.28%)    -1.37860 ( 98.72%)    -1.38754
      24     18.49    -2.02444 (  1.84%)    -1.35124 ( 98.16%)    -1.36360
      25     20.43    -1.96535 (  2.71%)    -1.32167 ( 97.29%)    -1.33913
      26     21.84    -1.92582 (  3.51%)    -1.30189 ( 96.49%)    -1.32382
      27     23.68    -1.87799 (  4.79%)    -1.27795 ( 95.21%)    -1.30670
      28     23.78    -1.87553 (  4.87%)    -1.27672 ( 95.13%)    -1.30586
      29     24.98    -1.84631 (  5.87%)    -1.26209 ( 94.13%)    -1.29637
      30     26.54    -1.81056 (  7.35%)    -1.24419 ( 92.65%)    -1.28584
      31     28.27    -1.77307 (  9.28%)    -1.22542 ( 90.72%)    -1.27623
      32     32.67    -1.68764 ( 15.42%)    -1.18263 ( 84.58%)    -1.26048
      33     35.89    -1.63206 ( 20.98%)    -1.15478 ( 79.02%)    -1.25490
      34     36.06    -1.62923 ( 21.30%)    -1.15336 ( 78.70%)    -1.25470
      35     39.99    -1.56818 ( 29.03%)    -1.12275 ( 70.97%)    -1.25207
      36     41.27    -1.54958 ( 31.69%)    -1.11342 ( 68.31%)    -1.25166
      37     41.33    -1.54866 ( 31.83%)    -1.11296 ( 68.17%)    -1.25164
      38     41.68    -1.54366 ( 32.57%)    -1.11045 ( 67.43%)    -1.25154
      39     41.77    -1.54239 ( 32.76%)    -1.10981 ( 67.24%)    -1.25152
      40     42.09    -1.53797 ( 33.42%)    -1.10759 ( 66.58%)    -1.25143
      41     42.68    -1.52974 ( 34.67%)    -1.10347 ( 65.33%)    -1.25127
      42     42.80    -1.52800 ( 34.94%)    -1.10259 ( 65.06%)    -1.25123
      43     45.22    -1.49560 ( 40.08%)    -1.08633 ( 59.92%)    -1.25037
      44     47.32    -1.46874 ( 44.52%)    -1.07284 ( 55.48%)    -1.24910
      45     50.10    -1.43517 ( 50.19%)    -1.05598 ( 49.81%)    -1.24630
      46     55.27    -1.37726 ( 59.89%)    -1.02687 ( 40.11%)    -1.23671
      47     57.46    -1.35439 ( 63.55%)    -1.01537 ( 36.45%)    -1.23083
      48     61.74    -1.31205 ( 69.93%)    -0.99405 ( 30.07%)    -1.21643
      49     64.91    -1.28262 ( 73.97%)    -0.97922 ( 26.03%)    -1.20363
      50     66.11    -1.27185 ( 75.35%)    -0.97379 ( 24.65%)    -1.19839
      51     68.39    -1.25202 ( 77.77%)    -0.96379 ( 22.23%)    -1.18796
      52     71.70    -1.22427 ( 80.87%)    -0.94978 ( 19.13%)    -1.17176
      53     76.93    -1.18294 ( 84.86%)    -0.92889 ( 15.14%)    -1.14448
      54     81.62    -1.14834 ( 87.66%)    -0.91138 ( 12.34%)    -1.11908
      55     84.01    -1.13147 ( 88.85%)    -0.90283 ( 11.15%)    -1.10598
      56     84.96    -1.12491 ( 89.29%)    -0.89950 ( 10.71%)    -1.10076
      57     85.56    -1.12079 ( 89.55%)    -0.89742 ( 10.45%)    -1.09746
      58     86.68    -1.11315 ( 90.03%)    -0.89354 (  9.97%)    -1.09127
      59     87.57    -1.10719 ( 90.39%)    -0.89052 (  9.61%)    -1.08638
      60     89.62    -1.09372 ( 91.17%)    -0.88368 (  8.83%)    -1.07517
      61     91.35    -1.08255 ( 91.76%)    -0.87800 (  8.24%)    -1.06570
      62     92.42    -1.07575 ( 92.11%)    -0.87455 (  7.89%)    -1.05987
      63     93.15    -1.07116 ( 92.34%)    -0.87222 (  7.66%)    -1.05592
      64     93.56    -1.06865 ( 92.46%)    -0.87094 (  7.54%)    -1.05374
      65     95.31    -1.05783 ( 92.96%)    -0.86543 (  7.04%)    -1.04428
      66     95.72    -1.05532 ( 93.07%)    -0.86416 (  6.93%)    -1.04208
      67     96.71    -1.04934 ( 93.33%)    -0.86112 (  6.67%)    -1.03679
      68     98.65    -1.03778 ( 93.81%)    -0.85523 (  6.19%)    -1.02648
      69    102.40    -1.01616 ( 94.62%)    -0.84420 (  5.38%)    -1.00691
      70    103.75    -1.00853 ( 94.88%)    -0.84031 (  5.12%)    -0.99992
      71    109.41    -0.97774 ( 95.82%)    -0.82457 (  4.18%)    -0.97134
      72    111.54    -0.96661 ( 96.12%)    -0.81887 (  3.88%)    -0.96087
      73    112.17    -0.96333 ( 96.20%)    -0.81719 (  3.80%)    -0.95778
      74    112.40    -0.96214 ( 96.23%)    -0.81658 (  3.77%)    -0.95666
      75    113.20    -0.95804 ( 96.33%)    -0.81448 (  3.67%)    -0.95277
      76    113.30    -0.95753 ( 96.35%)    -0.81422 (  3.65%)    -0.95230
      77    114.25    -0.95268 ( 96.46%)    -0.81173 (  3.54%)    -0.94770
      78    114.83    -0.94977 ( 96.53%)    -0.81024 (  3.47%)    -0.94493
      79    115.84    -0.94474 ( 96.65%)    -0.80766 (  3.35%)    -0.94014
      80    117.35    -0.93723 ( 96.81%)    -0.80381 (  3.19%)    -0.93298
      81    118.70    -0.93063 ( 96.95%)    -0.80041 (  3.05%)    -0.92666
      82    119.61    -0.92627 ( 97.04%)    -0.79817 (  2.96%)    -0.92248
      83    119.75    -0.92559 ( 97.05%)    -0.79782 (  2.95%)    -0.92182
      84    137.19    -0.84753 ( 98.27%)    -0.75753 (  1.73%)    -0.84597
      85    141.60    -0.82951 ( 98.47%)    -0.74818 (  1.53%)    -0.82827
      86    141.60    -0.82950 ( 98.47%)    -0.74817 (  1.53%)    -0.82825
      87    142.15    -0.82730 ( 98.49%)    -0.74703 (  1.51%)    -0.82609
      88    142.38    -0.82638 ( 98.50%)    -0.74655 (  1.50%)    -0.82518
      89    142.67    -0.82521 ( 98.51%)    -0.74594 (  1.49%)    -0.82403
      90    142.98    -0.82398 ( 98.53%)    -0.74530 (  1.47%)    -0.82282
      91    143.19    -0.82312 ( 98.54%)    -0.74485 (  1.46%)    -0.82198
      92    145.95    -0.81229 ( 98.64%)    -0.73921 (  1.36%)    -0.81129
      93    147.55    -0.80605 ( 98.70%)    -0.73596 (  1.30%)    -0.80514
      94    148.93    -0.80080 ( 98.75%)    -0.73322 (  1.25%)    -0.79995
      95    151.51    -0.79104 ( 98.83%)    -0.72812 (  1.17%)    -0.79030
      96    154.97    -0.77827 ( 98.93%)    -0.72144 (  1.07%)    -0.77766
      97    157.77    -0.76814 ( 99.00%)    -0.71614 (  1.00%)    -0.76762
      98    158.92    -0.76405 ( 99.03%)    -0.71399 (  0.97%)    -0.76357
      99    162.63    -0.75103 ( 99.11%)    -0.70715 (  0.89%)    -0.75065
     100    170.89    -0.72322 ( 99.27%)    -0.69247 (  0.73%)    -0.72300
     101    179.02    -0.69727 ( 99.40%)    -0.67871 (  0.60%)    -0.69715
     102    180.22    -0.69354 ( 99.41%)    -0.67672 (  0.59%)    -0.69344
     103    181.20    -0.69052 ( 99.42%)    -0.67512 (  0.58%)    -0.69043
     104    181.81    -0.68864 ( 99.43%)    -0.67412 (  0.57%)    -0.68856
     105    182.22    -0.68741 ( 99.44%)    -0.67346 (  0.56%)    -0.68733
     106    183.30    -0.68411 ( 99.45%)    -0.67170 (  0.55%)    -0.68404
     107    183.64    -0.68307 ( 99.45%)    -0.67114 (  0.55%)    -0.68301
     108    184.27    -0.68117 ( 99.46%)    -0.67013 (  0.54%)    -0.68111
     109    184.71    -0.67988 ( 99.47%)    -0.66944 (  0.53%)    -0.67982
     110    184.85    -0.67945 ( 99.47%)    -0.66921 (  0.53%)    -0.67939
     111    185.07    -0.67878 ( 99.47%)    -0.66885 (  0.53%)    -0.67873
     112    185.17    -0.67847 ( 99.47%)    -0.66869 (  0.53%)    -0.67842
     113    185.18    -0.67847 ( 99.47%)    -0.66869 (  0.53%)    -0.67841
     114    185.62    -0.67714 ( 99.48%)    -0.66798 (  0.52%)    -0.67710
     115    194.05    -0.65259 ( 99.56%)    -0.65482 (  0.44%)    -0.65260
     116    197.20    -0.64373 ( 99.59%)    -0.65005 (  0.41%)    -0.64376
     117    197.53    -0.64281 ( 99.59%)    -0.64956 (  0.41%)    -0.64284
     118    200.69    -0.63409 ( 99.62%)    -0.64485 (  0.38%)    -0.63413
     119    200.90    -0.63353 ( 99.62%)    -0.64454 (  0.38%)    -0.63357
     120    200.98    -0.63330 ( 99.62%)    -0.64442 (  0.38%)    -0.63334
     121    201.04    -0.63314 ( 99.62%)    -0.64434 (  0.38%)    -0.63319
     122    201.20    -0.63269 ( 99.62%)    -0.64409 (  0.38%)    -0.63274
     123    202.15    -0.63012 ( 99.63%)    -0.64271 (  0.37%)    -0.63017
     124    202.45    -0.62931 ( 99.63%)    -0.64227 (  0.37%)    -0.62936
     125    203.66    -0.62606 ( 99.64%)    -0.64050 (  0.36%)    -0.62611
     126    208.95    -0.61204 ( 99.67%)    -0.63290 (  0.33%)    -0.61211
     127    215.30    -0.59578 ( 99.71%)    -0.62403 (  0.29%)    -0.59586
     128    221.39    -0.58071 ( 99.74%)    -0.61577 (  0.26%)    -0.58080
     129    226.30    -0.56889 ( 99.76%)    -0.60927 (  0.24%)    -0.56899
     130    247.16    -0.52198 ( 99.83%)    -0.58315 (  0.17%)    -0.52209
     131    252.86    -0.51001 ( 99.85%)    -0.57640 (  0.15%)    -0.51011
     132    260.03    -0.49540 ( 99.86%)    -0.56811 (  0.14%)    -0.49549
     133    261.27    -0.49292 ( 99.87%)    -0.56671 (  0.13%)    -0.49302
     134    264.74    -0.48606 ( 99.87%)    -0.56279 (  0.13%)    -0.48616
     135    264.77    -0.48601 ( 99.87%)    -0.56276 (  0.13%)    -0.48611
     136    264.93    -0.48570 ( 99.87%)    -0.56258 (  0.13%)    -0.48580
     137    264.97    -0.48562 ( 99.87%)    -0.56254 (  0.13%)    -0.48572
     138    265.12    -0.48533 ( 99.87%)    -0.56237 (  0.13%)    -0.48542
     139    265.17    -0.48524 ( 99.87%)    -0.56232 (  0.13%)    -0.48533
     140    265.27    -0.48505 ( 99.87%)    -0.56221 (  0.13%)    -0.48514
     141    265.55    -0.48449 ( 99.87%)    -0.56189 (  0.13%)    -0.48459
     142    265.74    -0.48412 ( 99.87%)    -0.56168 (  0.13%)    -0.48421
     143    267.50    -0.48070 ( 99.88%)    -0.55972 (  0.12%)    -0.48080
     144    268.66    -0.47848 ( 99.88%)    -0.55844 (  0.12%)    -0.47857
     145    269.01    -0.47780 ( 99.88%)    -0.55805 (  0.12%)    -0.47790
     146    271.39    -0.47327 ( 99.88%)    -0.55545 (  0.12%)    -0.47337
     147    271.63    -0.47281 ( 99.89%)    -0.55518 (  0.11%)    -0.47290
     148    273.73    -0.46886 ( 99.89%)    -0.55291 (  0.11%)    -0.46895
     149    277.03    -0.46270 ( 99.89%)    -0.54935 (  0.11%)    -0.46280
     150    278.14    -0.46066 ( 99.90%)    -0.54817 (  0.10%)    -0.46075
     151    282.15    -0.45337 ( 99.90%)    -0.54393 (  0.10%)    -0.45346
     152    285.02    -0.44823 ( 99.91%)    -0.54093 (  0.09%)    -0.44831
     153    287.82    -0.44328 ( 99.91%)    -0.53804 (  0.09%)    -0.44336
     154    290.92    -0.43786 ( 99.91%)    -0.53486 (  0.09%)    -0.43794
     155    291.89    -0.43619 ( 99.91%)    -0.53387 (  0.09%)    -0.43627
     156    293.76    -0.43298 ( 99.92%)    -0.53199 (  0.08%)    -0.43306
     157    298.61    -0.42476 ( 99.92%)    -0.52713 (  0.08%)    -0.42484
     158    298.63    -0.42474 ( 99.92%)    -0.52711 (  0.08%)    -0.42482
   ------------------------------------------------------------------------

   temp. (K)  partition function   enthalpy   heat capacity  entropy
                                   cal/mol     cal/K/mol   cal/K/mol   J/K/mol
 298.15  VIB  0.684E+97           105898.751    666.324    687.965
         ROT  0.226E+11              888.752      2.981     50.363
         INT  0.155+108           106787.503    669.304    738.329
         TR   0.128E+30             1481.254      4.968     49.399
         TOT                      108268.7574   674.2726   787.7278  3295.8529

       T/K    H(0)-H(T)+PV         H(T)/Eh          T*S/Eh         G(T)/Eh
   ------------------------------------------------------------------------
    298.15    0.172537E+00    0.221634E+01    0.374275E+00    0.184207E+01
   ------------------------------------------------------------------------

         :::::::::::::::::::::::::::::::::::::::::::::::::::::
         ::                  THERMODYNAMIC                  ::
         :::::::::::::::::::::::::::::::::::::::::::::::::::::
         :: total free energy        -499.729300883636 Eh   ::
         ::.................................................::
         :: total energy             -501.571366008613 Eh   ::
         :: zero point energy           2.043802755170 Eh   ::
         :: G(RRHO) w/o ZPVE           -0.201737630193 Eh   ::
         :: G(RRHO) contrib.            1.842065124977 Eh   ::
         :::::::::::::::::::::::::::::::::::::::::::::::::::::

optimized geometry written to: xtbopt.xyz


           -------------------------------------------------
          | TOTAL ENERGY             -501.571366008613 Eh   |
          | TOTAL ENTHALPY           -499.355026006123 Eh   |
          | TOTAL FREE ENERGY        -499.729300883636 Eh   |
          | GRADIENT NORM               0.000944689624 Eh/α |
          | HOMO-LUMO GAP               0.752775645264 eV   |
           -------------------------------------------------

------------------------------------------------------------------------
 * finished run on 2021/11/19 at 20:54:29.060     
------------------------------------------------------------------------
 total:
 * wall-time:     0 d,  0 h, 56 min, 13.612 sec
 *  cpu-time:     0 d,  0 h, 56 min, 13.621 sec
 * ratio c/w:     1.000 speedup
 SCF:
 * wall-time:     0 d,  0 h,  0 min, 10.360 sec
 *  cpu-time:     0 d,  0 h,  0 min, 10.361 sec
 * ratio c/w:     1.000 speedup
 ANC optimizer:
 * wall-time:     0 d,  0 h,  4 min, 50.168 sec
 *  cpu-time:     0 d,  0 h,  4 min, 50.153 sec
 * ratio c/w:     1.000 speedup
 analytical hessian:
 * wall-time:     0 d,  0 h, 51 min, 12.589 sec
 *  cpu-time:     0 d,  0 h, 51 min, 12.613 sec
 * ratio c/w:     1.000 speedup

