290
 energy: -499.503506555686 gnorm: 1.769081829096 xtb: 6.4.1 (bd6e46d)
C        42.29208100000000    3.50912500000000    0.78866200000000
C        43.18205900000000    2.56886500000000    0.59046600000000
C        42.52055800000000    1.30879100000000    0.28965900000000
C        42.87899600000000    0.00312800000000    0.00097800000000
C        42.05381800000000   -1.12794300000000   -0.08423900000000
C        42.50938300000000   -2.33666800000000    0.49706900000000
C        41.53668800000000   -3.26921400000000    0.29691300000000
C        40.50559500000000   -2.60151300000000   -0.40607400000000
N        40.84232000000000   -1.32065400000000   -0.62298800000000
C        39.34763400000000   -3.32762900000000   -0.73779100000000
C        38.02953300000000   -2.88493300000000   -0.62425600000000
C        36.71718700000000   -3.48706700000000   -0.72123600000000
C        35.79555900000000   -2.54041900000000   -0.51515100000000
C        36.49244500000000   -1.29458900000000   -0.27841900000000
N        37.81351800000000   -1.57434100000000   -0.35810500000000
C        36.09320300000000    0.00740800000000   -0.01041600000000
C        36.92581500000000    1.14408500000000    0.06549200000000
C        36.49167200000001    2.34607400000000   -0.54464800000000
C        37.48718500000000    3.26246300000000   -0.35269300000000
C        38.50133600000000    2.58921900000000    0.37123900000000
N        38.13613900000000    1.32139700000000    0.61006300000000
C        39.67097700000000    3.29617600000000    0.69273800000000
C        40.98623100000000    2.89265100000000    0.62272300000000
N        41.17585300000000    1.58154700000000    0.32632100000000
H        42.45934600000000    4.53766800000000    1.02725100000000
H        44.25231800000000    2.69220300000000    0.63948500000000
H        43.46990400000000   -2.52237000000000    1.01564500000000
H        41.57357000000000   -4.32582400000000    0.62224100000000
H        40.23903500000001   -0.55324300000000   -1.17050700000000
H        39.43602500000000   -4.36305600000000   -1.11613800000000
H        36.51851200000001   -4.54776800000000   -0.92998000000000
H        34.72614900000000   -2.73235300000000   -0.53438400000000
H        35.01826000000000    0.09667800000000    0.12732800000000
H        35.53801800000001    2.53763200000000   -1.07344600000000
H        37.47276400000001    4.31269100000000   -0.69913400000000
H        38.72946400000001    0.56395400000000    1.18205900000000
H        39.60247000000000    4.35358100000000    1.04945400000000
C       133.74232599999999   -3.49449800000000    0.82503200000000
C       132.85234800000001   -2.55634800000000    0.61708200000000
C       133.51384899999999   -1.29946500000000    0.30320400000000
C       133.15541099999999    0.00312800000000    0.00097800000000
C       133.98058900000001    1.13325400000000   -0.09598100000000
C       133.52502400000000    2.34795100000000    0.47274100000000
C       134.49771799999999    3.27836800000000    0.26291100000000
C       135.52881199999999    2.60340200000000   -0.43310300000000
N       135.19208699999999    1.32035900000000   -0.63670300000000
C       136.68677300000002    3.32603300000000   -0.77234400000000
C       138.00487400000000    2.88454000000000   -0.65421700000000
C       139.31721999999999    3.48563500000000   -0.75744500000000
C       140.23884799999999    2.54117800000000   -0.54154000000000
C       139.54196200000001    1.29787400000000   -0.29188200000000
N       138.22088900000003    1.57678300000000   -0.37446900000000
C       139.94120400000000   -0.00127000000000   -0.01037100000000
C       139.10859199999999   -1.13709600000000    0.07733900000000
C       139.54273499999999   -2.34535800000000   -0.52028500000000
C       138.54722200000000   -3.25970300000000   -0.31882300000000
C       137.53307100000001   -2.57897800000000    0.39807700000000
N       137.89826800000000   -1.30874300000000    0.62372100000000
C       136.36342999999999   -3.28255700000000    0.72690200000000
C       135.04817600000001   -2.87978100000000    0.65269900000000
N       134.85855400000000   -1.57182600000000    0.34269600000000
H       133.57506100000001   -4.52050800000000    1.07429100000000
H       131.78208900000001   -2.67916900000000    0.66737800000000
H       132.56450300000000    2.53902900000000    0.98936100000000
H       134.46083700000000    4.33830000000000    0.57724700000000
H       135.79537199999999    0.54730300000000   -1.17622300000000
H       136.59838199999999    4.35747500000000   -1.16142400000000
H       139.51589500000000    4.54411100000000   -0.97719500000000
H       141.30825800000002    2.73290200000000   -0.56276500000000
H       141.01614699999999   -0.08910400000000    0.12829300000000
H       140.49638899999999   -2.54239700000000   -1.04706500000000
H       138.56164300000000   -4.31347300000000   -0.65433800000000
H       137.30494300000001   -0.54540000000000    1.18782000000000
H       136.43193700000000   -4.33620000000000    1.09458100000000
C        45.79575200000000    0.01492900000000    0.00526200000000
C        47.01128500000001   -0.01041500000000   -0.00521800000000
C        48.43280200000000   -0.03183800000000   -0.00939300000000
C        49.64136400000001   -0.03404900000000   -0.00928800000000
C        51.06243900000000   -0.01508900000000   -0.00991500000000
C        52.27358100000000    0.01492900000000    0.00526200000000
C        61.38847900000000    0.01492900000000    0.00526200000000
C        62.60401200000000   -0.01041500000000   -0.00521800000000
C        64.02552900000001   -0.03183800000000   -0.00939300000000
C        65.23408999999999   -0.03404900000000   -0.00928800000000
C        66.65516599999999   -0.01508900000000   -0.00991500000000
C        67.86630800000002    0.01492900000000    0.00526200000000
C        76.98120500000000    0.01492900000000    0.00526200000000
C        78.19673800000000   -0.01041500000000   -0.00521800000000
C        79.61825500000000   -0.03183800000000   -0.00939300000000
C        80.82681700000001   -0.03404900000000   -0.00928800000000
C        82.24789199999999   -0.01508900000000   -0.00991500000000
C        83.45903400000000    0.01492900000000    0.00526200000000
C        92.57393200000000    0.01492900000000    0.00526200000000
C        93.78946500000001   -0.01041500000000   -0.00521800000000
C        95.21098200000000   -0.03183800000000   -0.00939300000000
C        96.41954300000000   -0.03404900000000   -0.00928800000000
C        97.84061900000000   -0.01508900000000   -0.00991500000000
C        99.05176100000001    0.01492900000000    0.00526200000000
C       108.16665900000000    0.01492900000000    0.00526200000000
C       109.38219100000002   -0.01041500000000   -0.00521800000000
C       110.80370800000001   -0.03183800000000   -0.00939300000000
C       112.01227000000002   -0.03404900000000   -0.00928800000000
C       113.43334500000000   -0.01508900000000   -0.00991500000000
C       114.64448800000000    0.01492900000000    0.00526200000000
C       123.75938499999999    0.01492900000000    0.00526200000000
C       124.97491800000000   -0.01041500000000   -0.00521800000000
C       126.39643500000000   -0.03183800000000   -0.00939300000000
C       127.60499700000000   -0.03404900000000   -0.00928800000000
C       129.02607200000000   -0.01508900000000   -0.00991500000000
C       130.23721399999999    0.01492900000000    0.00526200000000
C        54.03711500000000   -3.59354500000000    0.00043700000000
C        53.16256500000000   -2.59864100000000   -0.00986500000000
C        53.83402900000000   -1.31985700000000    0.00332400000000
C        53.43699800000000   -0.00427200000000   -0.00145400000000
C        54.24819000000000    1.14005200000000   -0.15558100000000
C        53.76916400000000    2.19256800000000   -0.96764600000000
C        54.75625000000000    3.13532000000000   -0.95911500000000
C        55.80352100000001    2.63352600000000   -0.14631200000000
N        55.46466800000000    1.42715800000000    0.32643400000000
C        56.96389800000000    3.41150900000000    0.00803800000000
C        58.28488700000000    2.95363500000000   -0.02135500000000
C        59.59745700000000    3.58176800000000   -0.08248300000000
C        60.51156900000000    2.62670500000000   -0.08506600000000
C        59.83802300000000    1.33983100000000   -0.02587700000000
N        58.52596500000000    1.62843000000000    0.00891300000000
C        60.24030600000000   -0.00427200000000   -0.00145400000000
C        59.40815200000000   -1.11806100000000    0.18082600000000
C        59.84811100000001   -2.14971800000000    1.04413800000000
C        58.84992800000001   -3.07305900000000    1.04875900000000
C        57.82701300000000   -2.59312100000000    0.19532900000000
N        58.19419000000001   -1.41187400000000   -0.31517900000000
C        56.67010300000000   -3.36852800000000    0.03826100000000
C        55.34932800000000   -2.94905000000000    0.02157500000000
N        55.17293700000000   -1.61084700000000    0.02247600000000
H        53.86859600000000   -4.65571200000000   -0.00496600000000
H        52.07473700000000   -2.78467600000000   -0.02689200000000
H        52.80508700000001    2.26793900000000   -1.50196200000000
H        54.71810300000000    4.10643500000000   -1.49155800000000
H        56.07234600000001    0.79005900000000    1.01506300000000
H        56.90879900000000    4.49777000000000    0.15215300000000
H        59.81588400000000    4.64976100000000   -0.12081300000000
H        61.58788400000000    2.77274800000000   -0.12469400000000
H        60.80212000000000   -2.21413000000000    1.60168600000000
H        58.87534700000000   -4.01837600000000    1.62407800000000
H        57.60711400000000   -0.79241700000000   -1.03882900000000
H        56.73082200000000   -4.48026800000000   -0.07586800000000
C        69.62984200000001   -3.59354500000000    0.00043700000000
C        68.75529200000000   -2.59864100000000   -0.00986500000000
C        69.42675500000001   -1.31985700000000    0.00332400000000
C        69.02972400000002   -0.00427200000000   -0.00145400000000
C        69.84091700000000    1.14005200000000   -0.15558100000000
C        69.36189100000001    2.19256800000000   -0.96764600000000
C        70.34897599999999    3.13532000000000   -0.95911500000000
C        71.39624700000000    2.63352600000000   -0.14631200000000
N        71.05739400000000    1.42715800000000    0.32643400000000
C        72.55662500000000    3.41150900000000    0.00803800000000
C        73.87761400000001    2.95363500000000   -0.02135500000000
C        75.19018400000000    3.58176800000000   -0.08248300000000
C        76.10429600000001    2.62670500000000   -0.08506600000000
C        75.43074900000002    1.33983100000000   -0.02587700000000
N        74.11869100000000    1.62843000000000    0.00891300000000
C        75.83303300000000   -0.00427200000000   -0.00145400000000
C        75.00087900000000   -1.11806100000000    0.18082600000000
C        75.44083700000002   -2.14971800000000    1.04413800000000
C        74.44265500000000   -3.07305900000000    1.04875900000000
C        73.41973900000001   -2.59312100000000    0.19532900000000
N        73.78691600000002   -1.41187400000000   -0.31517900000000
C        72.26282999999999   -3.36852800000000    0.03826100000000
C        70.94205500000000   -2.94905000000000    0.02157500000000
N        70.76566400000000   -1.61084700000000    0.02247600000000
H        69.46132200000001   -4.65571200000000   -0.00496600000000
H        67.66746400000000   -2.78467600000000   -0.02689200000000
H        68.39781300000000    2.26793900000000   -1.50196200000000
H        70.31082900000000    4.10643500000000   -1.49155800000000
H        71.66507300000001    0.79005900000000    1.01506300000000
H        72.50152500000000    4.49777000000000    0.15215300000000
H        75.40861000000001    4.64976100000000   -0.12081300000000
H        77.18061100000000    2.77274800000000   -0.12469400000000
H        76.39484700000001   -2.21413000000000    1.60168600000000
H        74.46807400000000   -4.01837600000000    1.62407800000000
H        73.19983999999999   -0.79241700000000   -1.03882900000000
H        72.32354800000000   -4.48026800000000   -0.07586800000000
C        85.22256800000000   -3.59354500000000    0.00043700000000
C        84.34801800000000   -2.59864100000000   -0.00986500000000
C        85.01948200000000   -1.31985700000000    0.00332400000000
C        84.62245100000000   -0.00427200000000   -0.00145400000000
C        85.43364300000002    1.14005200000000   -0.15558100000000
C        84.95461700000000    2.19256800000000   -0.96764600000000
C        85.94170300000002    3.13532000000000   -0.95911500000000
C        86.98897400000000    2.63352600000000   -0.14631200000000
N        86.65012100000000    1.42715800000000    0.32643400000000
C        88.14935100000000    3.41150900000000    0.00803800000000
C        89.47033999999999    2.95363500000000   -0.02135500000000
C        90.78291000000000    3.58176800000000   -0.08248300000000
C        91.69702300000000    2.62670500000000   -0.08506600000000
C        91.02347600000000    1.33983100000000   -0.02587700000000
N        89.71141799999999    1.62843000000000    0.00891300000000
C        91.42575900000000   -0.00427200000000   -0.00145400000000
C        90.59360500000000   -1.11806100000000    0.18082600000000
C        91.03356400000000   -2.14971800000000    1.04413800000000
C        90.03538200000000   -3.07305900000000    1.04875900000000
C        89.01246600000002   -2.59312100000000    0.19532900000000
N        89.37964300000000   -1.41187400000000   -0.31517900000000
C        87.85555700000000   -3.36852800000000    0.03826100000000
C        86.53478100000001   -2.94905000000000    0.02157500000000
N        86.35839000000000   -1.61084700000000    0.02247600000000
H        85.05404900000001   -4.65571200000000   -0.00496600000000
H        83.26018999999999   -2.78467600000000   -0.02689200000000
H        83.99054000000001    2.26793900000000   -1.50196200000000
H        85.90355599999999    4.10643500000000   -1.49155800000000
H        87.25779900000001    0.79005900000000    1.01506300000000
H        88.09425200000000    4.49777000000000    0.15215300000000
H        91.00133700000001    4.64976100000000   -0.12081300000000
H        92.77333800000001    2.77274800000000   -0.12469400000000
H        91.98757300000000   -2.21413000000000    1.60168600000000
H        90.06080000000001   -4.01837600000000    1.62407800000000
H        88.79256700000002   -0.79241700000000   -1.03882900000000
H        87.91627500000001   -4.48026800000000   -0.07586800000000
C       100.81529500000002   -3.59354500000000    0.00043700000000
C        99.94074500000001   -2.59864100000000   -0.00986500000000
C       100.61220800000000   -1.31985700000000    0.00332400000000
C       100.21517700000000   -0.00427200000000   -0.00145400000000
C       101.02637000000000    1.14005200000000   -0.15558100000000
C       100.54734400000000    2.19256800000000   -0.96764600000000
C       101.53442900000000    3.13532000000000   -0.95911500000000
C       102.58170100000000    2.63352600000000   -0.14631200000000
N       102.24284800000000    1.42715800000000    0.32643400000000
C       103.74207800000001    3.41150900000000    0.00803800000000
C       105.06306700000002    2.95363500000000   -0.02135500000000
C       106.37563700000000    3.58176800000000   -0.08248300000000
C       107.28974900000001    2.62670500000000   -0.08506600000000
C       106.61620300000001    1.33983100000000   -0.02587700000000
N       105.30414400000001    1.62843000000000    0.00891300000000
C       107.01848600000000   -0.00427200000000   -0.00145400000000
C       106.18633200000001   -1.11806100000000    0.18082600000000
C       106.62629000000001   -2.14971800000000    1.04413800000000
C       105.62810800000000   -3.07305900000000    1.04875900000000
C       104.60519200000000   -2.59312100000000    0.19532900000000
N       104.97237000000000   -1.41187400000000   -0.31517900000000
C       103.44828300000000   -3.36852800000000    0.03826100000000
C       102.12750800000001   -2.94905000000000    0.02157500000000
N       101.95111700000000   -1.61084700000000    0.02247600000000
H       100.64677500000002   -4.65571200000000   -0.00496600000000
H        98.85291700000001   -2.78467600000000   -0.02689200000000
H        99.58326599999999    2.26793900000000   -1.50196200000000
H       101.49628300000002    4.10643500000000   -1.49155800000000
H       102.85052600000000    0.79005900000000    1.01506300000000
H       103.68697800000001    4.49777000000000    0.15215300000000
H       106.59406400000000    4.64976100000000   -0.12081300000000
H       108.36606399999999    2.77274800000000   -0.12469400000000
H       107.58030000000001   -2.21413000000000    1.60168600000000
H       105.65352700000000   -4.01837600000000    1.62407800000000
H       104.38529300000000   -0.79241700000000   -1.03882900000000
H       103.50900100000000   -4.48026800000000   -0.07586800000000
C       116.40802100000001   -3.59354500000000    0.00043700000000
C       115.53347100000001   -2.59864100000000   -0.00986500000000
C       116.20493500000001   -1.31985700000000    0.00332400000000
C       115.80790399999999   -0.00427200000000   -0.00145400000000
C       116.61909600000000    1.14005200000000   -0.15558100000000
C       116.14007100000001    2.19256800000000   -0.96764600000000
C       117.12715600000000    3.13532000000000   -0.95911500000000
C       118.17442699999999    2.63352600000000   -0.14631200000000
N       117.83557399999999    1.42715800000000    0.32643400000000
C       119.33480500000000    3.41150900000000    0.00803800000000
C       120.65579400000000    2.95363500000000   -0.02135500000000
C       121.96836300000000    3.58176800000000   -0.08248300000000
C       122.88247600000000    2.62670500000000   -0.08506600000000
C       122.20892900000000    1.33983100000000   -0.02587700000000
N       120.89687100000000    1.62843000000000    0.00891300000000
C       122.61121300000001   -0.00427200000000   -0.00145400000000
C       121.77905800000001   -1.11806100000000    0.18082600000000
C       122.21901699999999   -2.14971800000000    1.04413800000000
C       121.22083499999999   -3.07305900000000    1.04875900000000
C       120.19791900000000   -2.59312100000000    0.19532900000000
N       120.56509600000000   -1.41187400000000   -0.31517900000000
C       119.04101000000000   -3.36852800000000    0.03826100000000
C       117.72023500000002   -2.94905000000000    0.02157500000000
N       117.54384400000001   -1.61084700000000    0.02247600000000
H       116.23950200000000   -4.65571200000000   -0.00496600000000
H       114.44564300000000   -2.78467600000000   -0.02689200000000
H       115.17599300000002    2.26793900000000   -1.50196200000000
H       117.08900900000000    4.10643500000000   -1.49155800000000
H       118.44325300000000    0.79005900000000    1.01506300000000
H       119.27970500000001    4.49777000000000    0.15215300000000
H       122.18679000000000    4.64976100000000   -0.12081300000000
H       123.95879100000002    2.77274800000000   -0.12469400000000
H       123.17302599999999   -2.21413000000000    1.60168600000000
H       121.24625300000000   -4.01837600000000    1.62407800000000
H       119.97802000000001   -0.79241700000000   -1.03882900000000
H       119.10172799999999   -4.48026800000000   -0.07586800000000
290
 energy: -500.213306504248 gnorm: 0.721719447183 xtb: 6.4.1 (bd6e46d)
C        42.28613276248409    3.51245874475840    0.79014776481522
C        43.19223293381405    2.56330214151141    0.58809276041826
C        42.51705033869424    1.30875178633975    0.28735746967496
C        42.87679693444286    0.01111372644433    0.00236856718422
C        42.06641797883834   -1.12054621449292   -0.08067533858789
C        42.51489319542859   -2.33956346650464    0.49878932234033
C        41.54024086466514   -3.27196019288063    0.29390624671589
C        40.50007947365945   -2.60922760155769   -0.40959042450429
N        40.83779243204225   -1.31503662807584   -0.62628540499654
C        39.33836395509783   -3.33101838755673   -0.74167534262047
C        38.02809976127924   -2.87456148026243   -0.62744740440669
C        36.71757413668023   -3.49417575710919   -0.72406356169341
C        35.79136840598246   -2.54262838117510   -0.51457346873568
C        36.50098583467128   -1.29766113057282   -0.27428832055888
N        37.82163230596133   -1.56737334137040   -0.35621738809577
C        36.09027714510549   -0.00098677305900   -0.00888497416002
C        36.91681403612086    1.13966662194946    0.06410676011880
C        36.48742882780738    2.34829107108671   -0.54291699722227
C        37.48439342344178    3.26549925781368   -0.35021211400535
C        38.50636695635119    2.59830227374114    0.37297717785078
N        38.14242859124899    1.31536546433516    0.60941133744369
C        39.67696246053401    3.30466882214095    0.69833040801301
C        40.98683668734926    2.88087922413314    0.62369000445538
N        41.17402478403260    1.57448803350679    0.32629211643865
H        42.45813626124930    4.53993714019385    1.02792447235982
H        44.25519996507562    2.69036382885103    0.63900537988736
H        43.46499888136308   -2.51903221641863    1.01307854872546
H        41.57142683274182   -4.31903099514648    0.61951792577585
H        40.24881258491938   -0.56716732809278   -1.15855006585681
H        39.43760709970158   -4.36149539730762   -1.10894633190282
H        36.52006870572214   -4.54519572345533   -0.92957661740501
H        34.72675982913510   -2.72939717231877   -0.53364643414360
H        35.01817423342155    0.10036005675488    0.12274377113688
H        35.54370073661089    2.53416639272148   -1.07030288288165
H        37.47499526390140    4.30598219460567   -0.69653002578553
H        38.71940557269047    0.57722471051174    1.16905269637188
H        39.59901550235013    4.35157750528825    1.04334557676873
C       133.74827749269582   -3.49781482690496    0.82655337491351
C       132.84216615424606   -2.55080707262807    0.61465180721716
C       133.51734018537485   -1.29943138836326    0.30090165297975
C       133.15761845404944   -0.00474397400876    0.00243829382348
C       133.96802027544530    1.12589954795288   -0.09234365168575
C       133.51951921314915    2.35086739311393    0.47443327390107
C       134.49416370504335    3.28108294550165    0.25987807966353
C       135.53433363930370    2.61108379952475   -0.43670257810989
N       135.19663115167350    1.31471238367303   -0.63994187269674
C       136.69604140493456    3.32938307074636   -0.77626447263706
C       138.00630778177901    2.87413532487762   -0.65730145106475
C       139.31683267725751    3.49271445405219   -0.76034483664628
C       140.24303871114137    2.54339315502206   -0.54098560859077
C       139.53342140527059    1.30098915591489   -0.28778381534088
N       138.21277448048241    1.56983590375047   -0.37250835285018
C       139.94412988428309    0.00714056665137   -0.00892686765959
C       139.11759333368408   -1.13269243524403    0.07590698016754
C       139.54697827295337   -2.34755624371999   -0.51853098913332
C       138.55001291148886   -3.26271376400797   -0.31631078110424
C       137.52803998804353   -2.58804243538034    0.39990997752599
N       137.89197859821488   -1.30271874621357    0.62300749296586
C       136.35744336759618   -3.29099184584563    0.73258125569217
C       135.04756775750712   -2.86799619795035    0.65354151106780
N       134.86037066406737   -1.56476590011033    0.34259353776852
H       133.57627186018752   -4.52277020494631    1.07498686210494
H       131.77921123767504   -2.67734421046469    0.66687951426349
H       132.56941081877994    2.53566466550428    0.98682659629521
H       134.46297959494834    4.33147982526020    0.57459434105293
H       135.78559594012424    0.56135227372271   -1.16441327378290
H       136.59680026393315    4.35599052487885   -1.15421474496691
H       139.51433822927922    4.54154298697769   -0.97676456191067
H       141.30764711293077    2.72995398894095   -0.56199665507734
H       141.01623271599559   -0.09283354323669    0.12374700749888
H       140.49070608010894   -2.53889886522553   -1.04395841622160
H       138.55941164724391   -4.30673752985980   -0.65180452510344
H       137.31500153129755   -0.55880493675147    1.17495137881700
H       136.43539144326346   -4.33426060667684    1.08845017851030
C        45.79432861097636    0.01416226766396    0.00550147065022
C        47.01871791496149   -0.01083947940847   -0.00506715917784
C        48.42084067094304   -0.03150070005282   -0.00941715102511
C        49.64565475719094   -0.03389627052465   -0.00889441076615
C        51.01842176238744   -0.01350832056835   -0.00918425592942
C        52.21484126303163    0.02228373928974    0.00251649188432
C        61.45149320356334    0.00966083773478    0.00822716049999
C        62.64992417567224   -0.01385542458273   -0.00583802590623
C        64.01699864825703   -0.03085653378250   -0.01000638855314
C        65.24254415909851   -0.03361415233392   -0.00882122334547
C        66.61033341692503   -0.01373064720734   -0.00911298295122
C        67.80836702322046    0.02208217467143    0.00261489345514
C        77.04410306131881    0.00965203962242    0.00817437542900
C        78.24279327318447   -0.01386275195598   -0.00583596324704
C        79.60964421879787   -0.03085900458629   -0.00999578132218
C        80.83534788048107   -0.03361381795692   -0.00882015263817
C        82.20299902389907   -0.01373537948210   -0.00911353934636
C        83.40112165216402    0.02205927023655    0.00261971108788
C        92.63680716691948    0.00964127283482    0.00816927631442
C        93.83554016387892   -0.01386547008768   -0.00583321882644
C        95.20236560808561   -0.03086123206751   -0.00999441515352
C        96.42808073438535   -0.03361427354412   -0.00881678633028
C        97.79573435504508   -0.01373658895903   -0.00911326605312
C        98.99383645034197    0.02204745427929    0.00261175729245
C       108.22954846591192    0.00962127824366    0.00817941526293
C       109.42821787357151   -0.01386966293505   -0.00582938536136
C       110.79515645058110   -0.03086578745863   -0.00999680178566
C       112.02074029093511   -0.03361584818440   -0.00880259537282
C       113.38858173049383   -0.01373662833679   -0.00911576299442
C       114.58646607828355    0.02203911790229    0.00255712545173
C       123.82299328805381    0.00948251241221    0.00832125632499
C       125.02013624410191   -0.01396677893532   -0.00567948932974
C       126.39170442849885   -0.03073793849901   -0.00993009460771
C       127.61666686641321   -0.03328834765796   -0.00942625294762
C       129.01750479635146   -0.01533734801491   -0.00963431809896
C       130.24041731145977    0.01513836692227    0.00556272748635
C        54.04426680592933   -3.59614036266082   -0.00036672366902
C        53.15297509063739   -2.59917827774745   -0.00941196756433
C        53.85954437499148   -1.33618949820354    0.00674377811264
C        53.47997767062375   -0.00910108351794   -0.00035990681402
C        54.25323913553131    1.14077272261774   -0.15777384470939
C        53.76803579155795    2.19370327312015   -0.96628363430436
C        54.75583305874250    3.14143916672679   -0.95776422651771
C        55.80796323571341    2.64382521381086   -0.14666775111142
N        55.47366152268422    1.42409975729402    0.32819088285140
C        56.97620878494526    3.41578158585138    0.01125469623151
C        58.28503243862292    2.95018919975307   -0.01720301958834
C        59.59454720210457    3.59059586202449   -0.08112329652372
C        60.51774898339818    2.62426789786308   -0.08571680182048
C        59.81305487235039    1.35341583789309   -0.02961078090596
N        58.51255079966266    1.62071968647003    0.00763673575966
C        60.19209339513384    0.00444468023241   -0.00316851170066
C        59.40076508947769   -1.11994211651206    0.18321687912253
C        59.85011416101040   -2.15005969365396    1.04284007308636
C        58.85101186815262   -3.08016955987739    1.04803555206102
C        57.82295422596997   -2.60420630483707    0.19616021518954
N        58.18545173740259   -1.40820045186759   -0.31721571517241
C        56.66174208265689   -3.37892664445766    0.03440157178006
C        55.35157384742956   -2.94381567477051    0.01732902176648
N        55.17775465600224   -1.60696378959826    0.02339639781597
H        53.86964033503724   -4.65551170285783   -0.00500871400023
H        52.07672342454954   -2.78028200714436   -0.02671397920929
H        52.81115752085936    2.26467091609572   -1.49792200134105
H        54.72051231208608    4.10088919020608   -1.48787200693195
H        56.06263951449684    0.80081326930426    1.00053042823014
H        56.90617106799485    4.49641240432614    0.14660027813174
H        59.81330328847365    4.64928166942203   -0.12068534971759
H        61.58752381621318    2.77071573650738   -0.12486411064268
H        60.79600910241975   -2.21086036472223    1.59732525065840
H        58.87259596974221   -4.01368141332030    1.62022997851266
H        57.61662210958053   -0.80280845665132   -1.02363997292074
H        56.73474868836095   -4.47673078152691   -0.07021703693117
C        69.63693967137920   -3.59626227055222   -0.00036576525431
C        68.74578058676843   -2.59938384720433   -0.00939792744911
C        69.45252537448252   -1.33641182057984    0.00664615279016
C        69.07223687159325   -0.00891954851471   -0.00026214425179
C        69.84614379026942    1.14112740196687   -0.15789744022541
C        69.36090872134189    2.19360282612711   -0.96639381769188
C        70.34862298668021    3.14160827127573   -0.95761141688370
C        71.40070169404893    2.64402631545023   -0.14670212967788
N        71.06616004854583    1.42402533985197    0.32820796934204