      -----------------------------------------------------------      
     |                   =====================                   |     
     |                           x T B                           |     
     |                   =====================                   |     
     |                         S. Grimme                         |     
     |          Mulliken Center for Theoretical Chemistry        |     
     |                    University of Bonn                     |     
      -----------------------------------------------------------      

   * xtb version 6.4.1 (bd6e46d) compiled by 'conda@4901f00b25ba' on 2021-06-10

   xtb is free software: you can redistribute it and/or modify it under
   the terms of the GNU Lesser General Public License as published by
   the Free Software Foundation, either version 3 of the License, or
   (at your option) any later version.
   
   xtb is distributed in the hope that it will be useful,
   but WITHOUT ANY WARRANTY; without even the implied warranty of
   MERCHANTABILITY or FITNESS FOR A PARTICULAR PURPOSE.  See the
   GNU Lesser General Public License for more details.
   
   Cite this work as:
   * C. Bannwarth, E. Caldeweyher, S. Ehlert, A. Hansen, P. Pracht,
     J. Seibert, S. Spicher, S. Grimme, WIREs Comput. Mol. Sci., 2020, 11,
     e01493. DOI: 10.1002/wcms.1493
   
   for GFN2-xTB:
   * C. Bannwarth, S. Ehlert and S. Grimme., J. Chem. Theory Comput., 2019,
     15, 1652-1671. DOI: 10.1021/acs.jctc.8b01176
   for GFN1-xTB:
   * S. Grimme, C. Bannwarth, P. Shushkov, J. Chem. Theory Comput., 2017,
     13, 1989-2009. DOI: 10.1021/acs.jctc.7b00118
   for GFN0-xTB:
   * P. Pracht, E. Caldeweyher, S. Ehlert, S. Grimme, ChemRxiv, 2019, preprint.
     DOI: 10.26434/chemrxiv.8326202.v1
   for GFN-FF:
   * S. Spicher and S. Grimme, Angew. Chem. Int. Ed., 2020, 59, 15665-15673.
     DOI: 10.1002/anie.202004239
   
   for DFT-D4:
   * E. Caldeweyher, C. Bannwarth and S. Grimme, J. Chem. Phys., 2017,
     147, 034112. DOI: 10.1063/1.4993215
   * E. Caldeweyher, S. Ehlert, A. Hansen, H. Neugebauer, S. Spicher,
     C. Bannwarth and S. Grimme, J. Chem. Phys., 2019, 150, 154122.
     DOI: 10.1063/1.5090222
   * E. Caldeweyher, J.-M. Mewes, S. Ehlert and S. Grimme, Phys. Chem. Chem. Phys.
     2020, 22, 8499-8512. DOI: 10.1039/D0CP00502A
   
   for sTDA-xTB:
   * S. Grimme and C. Bannwarth, J. Chem. Phys., 2016, 145, 054103.
     DOI: 10.1063/1.4959605
   
   in the mass-spec context:
   * V. Asgeirsson, C. Bauer and S. Grimme, Chem. Sci., 2017, 8, 4879.
     DOI: 10.1039/c7sc00601b
   * J. Koopman and S. Grimme, ACS Omega 2019, 4, 12, 15120-15133.
     DOI: 10.1021/acsomega.9b02011
   
   for metadynamics refer to:
   * S. Grimme, J. Chem. Theory Comput., 2019, 155, 2847-2862
     DOI: 10.1021/acs.jctc.9b00143
   
   for SPH calculations refer to:
   * S. Spicher and S. Grimme, J. Chem. Theory Comput., 2021, 17, 1701-1714
     DOI: 10.1021/acs.jctc.0c01306
   
   with help from (in alphabetical order)
   P. Atkinson, C. Bannwarth, F. Bohle, G. Brandenburg, E. Caldeweyher
   M. Checinski, S. Dohm, S. Ehlert, S. Ehrlich, I. Gerasimov, J. Koopman
   C. Lavigne, S. Lehtola, F. März, M. Müller, F. Musil, H. Neugebauer
   J. Pisarek, C. Plett, P. Pracht, J. Seibert, P. Shushkov, S. Spicher
   M. Stahn, M. Steiner, T. Strunk, J. Stückrath, T. Rose, and J. Unsleber
   
 * started run on 2021/11/20 at 15:54:51.451     

           -------------------------------------------------
          |                Calculation Setup                |
           -------------------------------------------------

          program call               : /home/jeff/miniconda3/bin/xtb /home/jeff/chem/final-year-proejct/Cu+2_4_3_outenergy/input_structure.xyz --gfn 2 --parallel 1 --etemp 300 --chrg 0 --uhf 0 -I det_control.in
          coordinate file            : /home/jeff/chem/final-year-proejct/Cu+2_4_3_outenergy/input_structure.xyz
          omp threads                :                     1
          number of atoms            :                   115
          number of electrons        :                   397
          charge                     :                     0
          spin                       :                   0.5
          first test random number   :      0.48735521290955

   ID    Z sym.   atoms
    1   29 Cu     1, 37, 81
    2    6 C      2-9, 11-15, 17-21, 23, 24, 38-45, 47-51, 53-57, 59, 60,
                  73-80, 82-89, 91-95, 97-101, 103, 104
    3    7 N      10, 16, 22, 25, 46, 52, 58, 61, 90, 96, 102, 105
    4    1 H      26-36, 62-72, 106-115

           -------------------------------------------------
          |                 G F N 2 - x T B                 |
           -------------------------------------------------

        Reference                      10.1021/acs.jctc.8b01176
      * Hamiltonian:
        H0-scaling (s, p, d)           1.850000    2.230000    2.230000
        zeta-weighting                 0.500000
      * Dispersion:
        s8                             2.700000
        a1                             0.520000
        a2                             5.000000
        s9                             5.000000
      * Repulsion:
        kExp                           1.500000    1.000000
        rExp                           1.000000
      * Coulomb:
        alpha                          2.000000
        third order                    shell-resolved
        anisotropic                    true
        a3                             3.000000
        a5                             4.000000
        cn-shift                       1.200000
        cn-exp                         4.000000
        max-rad                        5.000000


          ...................................................
          :                      SETUP                      :
          :.................................................:
          :  # basis functions                 382          :
          :  # atomic orbitals                 379          :
          :  # shells                          201          :
          :  # electrons                       397          :
          :  max. iterations                   250          :
          :  Hamiltonian                  GFN2-xTB          :
          :  restarted?                      false          :
          :  GBSA solvation                  false          :
          :  PC potential                    false          :
          :  electronic temp.          300.0000000     K    :
          :  accuracy                    1.0000000          :
          :  -> integral cutoff          0.2500000E+02      :
          :  -> integral neglect         0.1000000E-07      :
          :  -> SCF convergence          0.1000000E-05 Eh   :
          :  -> wf. convergence          0.1000000E-03 e    :
          :  Broyden damping             0.4000000          :
          ...................................................

 iter      E             dE          RMSdq      gap      omega  full diag
   1   -212.3154661 -0.212315E+03  0.565E+00    0.00       0.0  T
   2   -212.1111248  0.204341E+00  0.358E+00    0.69       1.0  T
   3   -170.5789208  0.415322E+02  0.101E+01    0.03       1.0  T
   4   -201.2913164 -0.307124E+02  0.677E+00    0.01       1.0  T
   5   -211.9513659 -0.106600E+02  0.172E+00    0.03       1.0  T
   6   -212.0494693 -0.981034E-01  0.117E+00    0.60       1.0  T
   7   -212.0698715 -0.204021E-01  0.935E-01    0.53       1.0  T
   8   -212.1481430 -0.782716E-01  0.744E-01    0.07       1.0  T
   9   -212.1103727  0.377703E-01  0.746E-01    0.06       1.0  T
  10   -212.2530201 -0.142647E+00  0.571E-01    0.04       1.0  T
  11   -212.1551251  0.978951E-01  0.778E-01    0.21       1.0  T
  12   -212.1937052 -0.385802E-01  0.687E-01    0.18       1.0  T
  13   -212.3742685 -0.180563E+00  0.243E-01    0.02       1.0  T
  14   -212.3559523  0.183163E-01  0.317E-01    0.01       1.0  T
  15   -212.3899100 -0.339578E-01  0.160E-01    0.01       1.0  T
  16   -212.3502544  0.396556E-01  0.324E-01    0.02       1.0  T
  17   -212.3572836 -0.702920E-02  0.303E-01    0.02       1.0  T
  18   -212.3894065 -0.321229E-01  0.154E-01    0.01       1.0  T
  19   -212.3925546 -0.314809E-02  0.128E-01    0.00       1.0  T
  20   -212.3933544 -0.799800E-03  0.114E-01    0.00       1.0  T
  21   -212.3937079 -0.353492E-03  0.106E-01    0.00       1.0  T
  22   -212.3938712 -0.163348E-03  0.998E-02    0.00       1.0  T
  23   -212.3938156  0.556284E-04  0.894E-02    0.00       1.0  T
  24   -212.3933194  0.496236E-03  0.731E-02    0.00       1.0  T
  25   -212.3941123 -0.792905E-03  0.408E-02    0.00       1.0  T
  26   -212.3928398  0.127249E-02  0.649E-02    0.00       1.0  T
  27   -212.3944419 -0.160212E-02  0.162E-02    0.00       1.0  T
  28   -212.3943631  0.788307E-04  0.189E-02    0.00       1.0  T
  29   -212.3944552 -0.921730E-04  0.102E-02    0.00       1.0  T
  30   -212.3944380  0.172731E-04  0.110E-02    0.00       1.0  T
  31   -212.3944890 -0.510290E-04  0.427E-03    0.00       2.2  T
  32   -212.3944863  0.272144E-05  0.449E-03    0.00       2.1  T
  33   -212.3944948 -0.848244E-05  0.127E-03    0.00       7.4  T
  34   -212.3944915  0.326794E-05  0.272E-03    0.00       3.4  T
  35   -212.3944935 -0.203484E-05  0.181E-03    0.00       5.2  T
  36   -212.3944947 -0.120563E-05  0.100E-03    0.00       9.3  T
  37   -212.3944952 -0.468332E-06  0.268E-04    0.00      34.7  T
  38   -212.3944952 -0.202256E-07  0.116E-04    0.00      80.4  T

   *** convergence criteria satisfied after 38 iterations ***

         #    Occupation            Energy/Eh            Energy/eV
      -------------------------------------------------------------
         1        2.0000           -0.6789558             -18.4753
       ...           ...                  ...                  ...
       193        2.0000           -0.3697998             -10.0628
       194        2.0000           -0.3697438             -10.0612
       195        2.0000           -0.3685985             -10.0301
       196        2.0000           -0.3613087              -9.8317
       197        2.0000           -0.3511218              -9.5545
       198        1.0172           -0.3214320              -8.7466
       199        0.9912           -0.3213765              -8.7451 (HOMO)
       200        0.9909           -0.3213759              -8.7451 (LUMO)
       201        0.0007           -0.3136568              -8.5350
       202                         -0.3033983              -8.2559
       203                         -0.2995904              -8.1523
       204                         -0.2995503              -8.1512
       ...                                ...                  ...
       379                          1.6322265              44.4151
      -------------------------------------------------------------
                  HL-Gap            0.0000006 Eh            0.0000 eV
             Fermi-level           -0.3213953 Eh           -8.7456 eV

 SCC (total)                   0 d,  0 h,  0 min,  1.370 sec
 SCC setup                      ...        0 min,  0.003 sec (  0.198%)
 Dispersion                     ...        0 min,  0.006 sec (  0.407%)
 classical contributions        ...        0 min,  0.001 sec (  0.062%)
 integral evaluation            ...        0 min,  0.050 sec (  3.671%)
 iterations                     ...        0 min,  1.152 sec ( 84.095%)
 molecular gradient             ...        0 min,  0.155 sec ( 11.314%)
 printout                       ...        0 min,  0.003 sec (  0.250%)

         :::::::::::::::::::::::::::::::::::::::::::::::::::::
         ::                     SUMMARY                     ::
         :::::::::::::::::::::::::::::::::::::::::::::::::::::
         :: total energy            -208.703228155482 Eh    ::
         :: gradient norm              0.000589956837 Eh/a0 ::
         :: HOMO-LUMO gap              0.000016900433 eV    ::
         ::.................................................::
         :: SCC energy              -212.394495212296 Eh    ::
         :: -> isotropic ES            0.083337523745 Eh    ::
         :: -> anisotropic ES          0.028442328278 Eh    ::
         :: -> anisotropic XC          0.090934000086 Eh    ::
         :: -> dispersion             -0.183260589529 Eh    ::
         :: repulsion energy           3.693886787406 Eh    ::
         :: add. restraining           0.000000000000 Eh    ::
         :: total charge              -0.000000000002 e     ::
         :::::::::::::::::::::::::::::::::::::::::::::::::::::

           -------------------------------------------------
          |                Property Printout                |
           -------------------------------------------------

    * Orbital Energies and Occupations

         #    Occupation            Energy/Eh            Energy/eV
      -------------------------------------------------------------
         1        2.0000           -0.6789558             -18.4753
       ...           ...                  ...                  ...
       187        2.0000           -0.3764041             -10.2425
       188        2.0000           -0.3755457             -10.2191
       189        2.0000           -0.3708565             -10.0915
       190        2.0000           -0.3708064             -10.0902
       191        2.0000           -0.3706217             -10.0851
       192        2.0000           -0.3701285             -10.0717
       193        2.0000           -0.3697998             -10.0628
       194        2.0000           -0.3697438             -10.0612
       195        2.0000           -0.3685985             -10.0301
       196        2.0000           -0.3613087              -9.8317
       197        2.0000           -0.3511218              -9.5545
       198        1.0172           -0.3214320              -8.7466
       199        0.9912           -0.3213765              -8.7451 (HOMO)
       200        0.9909           -0.3213759              -8.7451 (LUMO)
       201        0.0007           -0.3136568              -8.5350
       202                         -0.3033983              -8.2559
       203                         -0.2995904              -8.1523
       204                         -0.2995503              -8.1512
       205                         -0.2992765              -8.1437
       206                         -0.2940812              -8.0024
       207                         -0.2698712              -7.3436
       208                         -0.2611785              -7.1070
       209                         -0.2569120              -6.9909
       210                         -0.2272546              -6.1839
       ...                                ...                  ...
       379                          1.6322265              44.4151
      -------------------------------------------------------------
                  HL-Gap            0.0000006 Eh            0.0000 eV
             Fermi-level           -0.3213953 Eh           -8.7456 eV

     #   Z          covCN         q      C6AA      α(0)
     1  29 Cu       2.956     0.197   146.191    27.532
     2   6 C        3.023    -0.051    29.233     8.869
     3   6 C        3.020    -0.049    29.191     8.863
     4   6 C        3.165     0.079    25.921     8.321
     5   6 C        2.953     0.017    27.627     8.621
     6   6 C        3.164     0.079    25.922     8.321
     7   6 C        3.020    -0.049    29.190     8.862
     8   6 C        3.023    -0.051    29.233     8.869
     9   6 C        3.148     0.077    26.024     8.345
    10   7 N        2.620    -0.172    24.726     7.385
    11   6 C        2.901    -0.050    29.230     8.865
    12   6 C        3.144     0.078    26.011     8.345
    13   6 C        3.019    -0.050    29.210     8.865
    14   6 C        3.019    -0.050    29.214     8.866
    15   6 C        3.144     0.079    25.996     8.342
    16   7 N        2.623    -0.170    24.688     7.379
    17   6 C        2.901    -0.051    29.274     8.871
    18   6 C        3.144     0.079    25.996     8.342
    19   6 C        3.020    -0.050    29.214     8.866
    20   6 C        3.019    -0.050    29.210     8.865
    21   6 C        3.144     0.078    26.011     8.345
    22   7 N        2.622    -0.170    24.688     7.379
    23   6 C        2.901    -0.050    29.230     8.865
    24   6 C        3.148     0.077    26.024     8.345
    25   7 N        2.620    -0.172    24.725     7.385
    26   1 H        0.926     0.034     2.526     2.486
    27   1 H        0.926     0.036     2.502     2.474
    28   1 H        0.926     0.036     2.501     2.473
    29   1 H        0.926     0.034     2.527     2.486
    30   1 H        0.926     0.050     2.323     2.383
    31   1 H        0.926     0.035     2.518     2.481
    32   1 H        0.926     0.035     2.519     2.482
    33   1 H        0.926     0.049     2.332     2.388
    34   1 H        0.926     0.035     2.519     2.482
    35   1 H        0.926     0.035     2.518     2.481
    36   1 H        0.926     0.050     2.323     2.383
    37  29 Cu       2.956     0.197   146.192    27.532
    38   6 C        3.023    -0.051    29.233     8.869
    39   6 C        3.020    -0.049    29.191     8.863
    40   6 C        3.165     0.079    25.921     8.321
    41   6 C        2.953     0.017    27.626     8.621
    42   6 C        3.165     0.079    25.920     8.321
    43   6 C        3.020    -0.049    29.191     8.862
    44   6 C        3.023    -0.051    29.232     8.869
    45   6 C        3.148     0.077    26.023     8.345
    46   7 N        2.620    -0.172    24.726     7.385
    47   6 C        2.901    -0.050    29.230     8.865
    48   6 C        3.144     0.078    26.011     8.345
    49   6 C        3.019    -0.050    29.210     8.865
    50   6 C        3.020    -0.050    29.214     8.866
    51   6 C        3.144     0.079    25.995     8.342
    52   7 N        2.623    -0.170    24.688     7.379
    53   6 C        2.901    -0.051    29.274     8.871
    54   6 C        3.144     0.079    25.996     8.342
    55   6 C        3.020    -0.050    29.214     8.866
    56   6 C        3.019    -0.050    29.210     8.865
    57   6 C        3.144     0.078    26.011     8.345
    58   7 N        2.623    -0.170    24.688     7.379
    59   6 C        2.901    -0.050    29.230     8.865
    60   6 C        3.148     0.077    26.023     8.345
    61   7 N        2.620    -0.172    24.726     7.385
    62   1 H        0.926     0.034     2.526     2.485
    63   1 H        0.926     0.036     2.501     2.473
    64   1 H        0.926     0.036     2.501     2.473
    65   1 H        0.926     0.034     2.526     2.486
    66   1 H        0.926     0.050     2.323     2.383
    67   1 H        0.926     0.035     2.517     2.481
    68   1 H        0.926     0.035     2.518     2.482
    69   1 H        0.926     0.049     2.332     2.388
    70   1 H        0.926     0.035     2.518     2.482
    71   1 H        0.926     0.035     2.517     2.481
    72   1 H        0.926     0.050     2.323     2.383
    73   6 C        1.995    -0.021    31.589     9.077
    74   6 C        1.963    -0.009    31.313     9.037
    75   6 C        1.963    -0.009    31.316     9.037
    76   6 C        1.995    -0.020    31.582     9.076
    77   6 C        1.995    -0.020    31.580     9.075
    78   6 C        1.963    -0.009    31.315     9.037
    79   6 C        1.963    -0.009    31.312     9.036
    80   6 C        1.995    -0.021    31.588     9.076
    81  29 Cu       2.946     0.199   146.163    27.529
    82   6 C        3.023    -0.051    29.233     8.869
    83   6 C        3.020    -0.049    29.199     8.864
    84   6 C        3.166     0.079    25.909     8.318
    85   6 C        2.953     0.017    27.628     8.621
    86   6 C        3.165     0.079    25.909     8.318
    87   6 C        3.020    -0.049    29.198     8.864
    88   6 C        3.023    -0.051    29.233     8.869
    89   6 C        3.149     0.077    26.031     8.346
    90   7 N        2.619    -0.173    24.759     7.390
    91   6 C        2.901    -0.047    29.176     8.857
    92   6 C        3.149     0.077    26.031     8.346
    93   6 C        3.023    -0.051    29.233     8.869
    94   6 C        3.020    -0.049    29.200     8.864
    95   6 C        3.166     0.079    25.908     8.318
    96   7 N        2.619    -0.173    24.758     7.390
    97   6 C        2.953     0.017    27.628     8.621
    98   6 C        3.165     0.079    25.910     8.319
    99   6 C        3.020    -0.049    29.198     8.864
   100   6 C        3.023    -0.051    29.233     8.869
   101   6 C        3.149     0.077    26.032     8.346
   102   7 N        2.619    -0.173    24.759     7.390
   103   6 C        2.901    -0.047    29.176     8.857
   104   6 C        3.149     0.077    26.032     8.346
   105   7 N        2.619    -0.173    24.758     7.390
   106   1 H        0.926     0.034     2.534     2.489
   107   1 H        0.926     0.035     2.512     2.478
   108   1 H        0.926     0.035     2.511     2.478
   109   1 H        0.926     0.034     2.534     2.489
   110   1 H        0.926     0.050     2.321     2.382
   111   1 H        0.926     0.034     2.534     2.489
   112   1 H        0.926     0.035     2.511     2.478
   113   1 H        0.926     0.035     2.511     2.478
   114   1 H        0.926     0.034     2.534     2.489
   115   1 H        0.926     0.050     2.321     2.382

 Mol. C6AA /au·bohr⁶  :     255687.250244
 Mol. C8AA /au·bohr⁸  :    7355500.106946
 Mol. α(0) /au        :        840.536586


Wiberg/Mayer (AO) data.
largest (>0.10) Wiberg bond orders for each atom

 ---------------------------------------------------------------------------
     #   Z sym  total        # sym  WBO       # sym  WBO       # sym  WBO
 ---------------------------------------------------------------------------
     1  29 Cu   2.327 --    16 N    0.534    22 N    0.534    25 N    0.532
                            10 N    0.532
     2   6 C    3.946 --     3 C    1.650    24 C    1.167    26 H    0.972
     3   6 C    3.949 --     2 C    1.650     4 C    1.175    27 H    0.971
     4   6 C    3.909 --    25 N    1.289     5 C    1.249     3 C    1.175
     5   6 C    3.941 --     6 C    1.250     4 C    1.249    73 C    1.185
     6   6 C    3.909 --    10 N    1.289     5 C    1.250     7 C    1.175
     7   6 C    3.949 --     8 C    1.650     6 C    1.175    28 H    0.971
     8   6 C    3.946 --     7 C    1.650     9 C    1.167    29 H    0.972
     9   6 C    3.921 --    11 C    1.355    10 N    1.249     8 C    1.167
    10   7 N    3.382 --     6 C    1.289     9 C    1.249     1 Cu   0.532
    11   6 C    3.931 --     9 C    1.355    12 C    1.352    30 H    0.964
    12   6 C    3.927 --    11 C    1.352    16 N    1.263    13 C    1.158
    13   6 C    3.950 --    14 C    1.666    12 C    1.158    31 H    0.972
    14   6 C    3.947 --    13 C    1.666    15 C    1.158    32 H    0.972
    15   6 C    3.929 --    17 C    1.351    16 N    1.265    14 C    1.158
    16   7 N    3.377 --    15 C    1.265    12 C    1.263     1 Cu   0.534
    17   6 C    3.926 --    15 C    1.351    18 C    1.351    33 H    0.964
    18   6 C    3.929 --    17 C    1.351    22 N    1.265    19 C    1.158
    19   6 C    3.947 --    20 C    1.666    18 C    1.158    34 H    0.972
    20   6 C    3.950 --    19 C    1.666    21 C    1.158    35 H    0.972
    21   6 C    3.927 --    23 C    1.352    22 N    1.263    20 C    1.158
    22   7 N    3.377 --    18 C    1.265    21 C    1.263     1 Cu   0.534
    23   6 C    3.932 --    24 C    1.355    21 C    1.352    36 H    0.964
    24   6 C    3.921 --    23 C    1.355    25 N    1.249     2 C    1.167
    25   7 N    3.382 --     4 C    1.289    24 C    1.249     1 Cu   0.532
    26   1 H    0.998 --     2 C    0.972
    27   1 H    0.998 --     3 C    0.971
    28   1 H    0.998 --     7 C    0.971
    29   1 H    0.998 --     8 C    0.972
    30   1 H    0.996 --    11 C    0.964
    31   1 H    0.998 --    13 C    0.972
    32   1 H    0.998 --    14 C    0.972
    33   1 H    0.997 --    17 C    0.964
    34   1 H    0.998 --    19 C    0.972
    35   1 H    0.998 --    20 C    0.972
    36   1 H    0.996 --    23 C    0.964
    37  29 Cu   2.327 --    58 N    0.534    52 N    0.534    46 N    0.533
                            61 N    0.532
    38   6 C    3.946 --    39 C    1.650    60 C    1.167    62 H    0.972
    39   6 C    3.950 --    38 C    1.650    40 C    1.175    63 H    0.971
    40   6 C    3.909 --    61 N    1.288    41 C    1.250    39 C    1.175
    41   6 C    3.941 --    42 C    1.250    40 C    1.250    80 C    1.185
    42   6 C    3.909 --    46 N    1.288    41 C    1.250    43 C    1.175
    43   6 C    3.949 --    44 C    1.650    42 C    1.175    64 H    0.971
    44   6 C    3.946 --    43 C    1.650    45 C    1.167    65 H    0.972
    45   6 C    3.921 --    47 C    1.355    46 N    1.249    44 C    1.167
    46   7 N    3.382 --    42 C    1.288    45 C    1.249    37 Cu   0.533
    47   6 C    3.932 --    45 C    1.355    48 C    1.352    66 H    0.964
    48   6 C    3.927 --    47 C    1.352    52 N    1.263    49 C    1.158
    49   6 C    3.950 --    50 C    1.666    48 C    1.158    67 H    0.972
    50   6 C    3.947 --    49 C    1.666    51 C    1.158    68 H    0.972
    51   6 C    3.929 --    53 C    1.351    52 N    1.265    50 C    1.158
    52   7 N    3.377 --    51 C    1.265    48 C    1.263    37 Cu   0.534
    53   6 C    3.926 --    51 C    1.351    54 C    1.351    69 H    0.964
    54   6 C    3.929 --    53 C    1.351    58 N    1.265    55 C    1.158
    55   6 C    3.947 --    56 C    1.666    54 C    1.158    70 H    0.972
    56   6 C    3.950 --    55 C    1.666    57 C    1.158    71 H    0.972
    57   6 C    3.927 --    59 C    1.352    58 N    1.263    56 C    1.158
    58   7 N    3.377 --    54 C    1.265    57 C    1.263    37 Cu   0.534
    59   6 C    3.932 --    60 C    1.355    57 C    1.352    72 H    0.964
    60   6 C    3.921 --    59 C    1.355    61 N    1.249    38 C    1.167
    61   7 N    3.382 --    40 C    1.288    60 C    1.249    37 Cu   0.532
    62   1 H    0.998 --    38 C    0.972
    63   1 H    0.998 --    39 C    0.971
    64   1 H    0.998 --    43 C    0.971
    65   1 H    0.998 --    44 C    0.972
    66   1 H    0.996 --    47 C    0.964
    67   1 H    0.998 --    49 C    0.972
    68   1 H    0.998 --    50 C    0.972
    69   1 H    0.997 --    53 C    0.964
    70   1 H    0.998 --    55 C    0.972
    71   1 H    0.998 --    56 C    0.972
    72   1 H    0.996 --    59 C    0.964
    73   6 C    3.918 --    74 C    2.469     5 C    1.185    76 C    0.203
    74   6 C    3.928 --    73 C    2.469    75 C    1.306
    75   6 C    3.925 --    76 C    2.467    74 C    1.306
    76   6 C    3.919 --    75 C    2.467    85 C    1.188    73 C    0.203
    77   6 C    3.919 --    78 C    2.468    97 C    1.187    80 C    0.203
    78   6 C    3.924 --    77 C    2.468    79 C    1.305
    79   6 C    3.927 --    80 C    2.470    78 C    1.305
    80   6 C    3.918 --    79 C    2.470    41 C    1.185    77 C    0.203
    81  29 Cu   2.298 --   105 N    0.527    96 N    0.527    90 N    0.527
                           102 N    0.527
    82   6 C    3.947 --    83 C    1.649   104 C    1.168   106 H    0.972
    83   6 C    3.948 --    82 C    1.649    84 C    1.175   107 H    0.971
    84   6 C    3.910 --   105 N    1.291    85 C    1.247    83 C    1.175
    85   6 C    3.930 --    86 C    1.247    84 C    1.247    76 C    1.188
    86   6 C    3.910 --    90 N    1.291    85 C    1.247    87 C    1.175
    87   6 C    3.948 --    88 C    1.649    86 C    1.175   108 H    0.971
    88   6 C    3.947 --    87 C    1.649    89 C    1.168   109 H    0.972
    89   6 C    3.921 --    91 C    1.354    90 N    1.248    88 C    1.168
    90   7 N    3.372 --    86 C    1.291    89 C    1.248    81 Cu   0.527
    91   6 C    3.926 --    92 C    1.354    89 C    1.354   110 H    0.964
    92   6 C    3.921 --    91 C    1.354    96 N    1.248    93 C    1.168
    93   6 C    3.947 --    94 C    1.650    92 C    1.168   111 H    0.972
    94   6 C    3.948 --    93 C    1.650    95 C    1.175   112 H    0.971
    95   6 C    3.910 --    96 N    1.291    97 C    1.247    94 C    1.175
    96   7 N    3.372 --    95 C    1.291    92 C    1.248    81 Cu   0.527
    97   6 C    3.930 --    98 C    1.247    95 C    1.247    77 C    1.187
    98   6 C    3.910 --   102 N    1.291    97 C    1.247    99 C    1.175
    99   6 C    3.948 --   100 C    1.650    98 C    1.175   113 H    0.971
   100   6 C    3.947 --    99 C    1.650   101 C    1.168   114 H    0.972
   101   6 C    3.921 --   103 C    1.354   102 N    1.249   100 C    1.168
   102   7 N    3.372 --    98 C    1.291   101 C    1.249    81 Cu   0.527
   103   6 C    3.926 --   104 C    1.354   101 C    1.354   115 H    0.964
   104   6 C    3.921 --   103 C    1.354   105 N    1.248    82 C    1.168
   105   7 N    3.372 --    84 C    1.291   104 C    1.248    81 Cu   0.527
   106   1 H    0.998 --    82 C    0.972
   107   1 H    0.998 --    83 C    0.971
   108   1 H    0.998 --    87 C    0.971
   109   1 H    0.998 --    88 C    0.972
   110   1 H    0.996 --    91 C    0.964
   111   1 H    0.998 --    93 C    0.972
   112   1 H    0.998 --    94 C    0.971
   113   1 H    0.998 --    99 C    0.971
   114   1 H    0.998 --   100 C    0.972
   115   1 H    0.996 --   103 C    0.964
 ---------------------------------------------------------------------------

Topologies differ in total number of bonds
Writing topology from bond orders to xtbtopo.mol

molecular dipole:
                 x           y           z       tot (Debye)
 q only:        0.009      -0.001      -0.003
   full:        0.009      -0.001      -0.005       0.027
molecular quadrupole (traceless):
                xx          xy          yy          xz          yz          zz
 q only:       37.443       0.102       0.614      -0.286       0.931     -38.057
  q+dip:       72.533       0.179      11.236      -0.472       2.191     -83.770
   full:       50.114       0.150       2.219      -0.468       1.255     -52.333


           -------------------------------------------------
          | TOTAL ENERGY             -208.703228155482 Eh   |
          | GRADIENT NORM               0.000589956837 Eh/α |
          | HOMO-LUMO GAP               0.000016900433 eV   |
           -------------------------------------------------

------------------------------------------------------------------------
 * finished run on 2021/11/20 at 15:54:52.875     
------------------------------------------------------------------------
 total:
 * wall-time:     0 d,  0 h,  0 min,  1.424 sec
 *  cpu-time:     0 d,  0 h,  0 min,  1.424 sec
 * ratio c/w:     1.000 speedup
 SCF:
 * wall-time:     0 d,  0 h,  0 min,  1.371 sec
 *  cpu-time:     0 d,  0 h,  0 min,  1.371 sec
 * ratio c/w:     1.000 speedup

