      -----------------------------------------------------------      
     |                   =====================                   |     
     |                           x T B                           |     
     |                   =====================                   |     
     |                         S. Grimme                         |     
     |          Mulliken Center for Theoretical Chemistry        |     
     |                    University of Bonn                     |     
      -----------------------------------------------------------      

   * xtb version 6.4.1 (bd6e46d) compiled by 'conda@4901f00b25ba' on 2021-06-10

   xtb is free software: you can redistribute it and/or modify it under
   the terms of the GNU Lesser General Public License as published by
   the Free Software Foundation, either version 3 of the License, or
   (at your option) any later version.
   
   xtb is distributed in the hope that it will be useful,
   but WITHOUT ANY WARRANTY; without even the implied warranty of
   MERCHANTABILITY or FITNESS FOR A PARTICULAR PURPOSE.  See the
   GNU Lesser General Public License for more details.
   
   Cite this work as:
   * C. Bannwarth, E. Caldeweyher, S. Ehlert, A. Hansen, P. Pracht,
     J. Seibert, S. Spicher, S. Grimme, WIREs Comput. Mol. Sci., 2020, 11,
     e01493. DOI: 10.1002/wcms.1493
   
   for GFN2-xTB:
   * C. Bannwarth, S. Ehlert and S. Grimme., J. Chem. Theory Comput., 2019,
     15, 1652-1671. DOI: 10.1021/acs.jctc.8b01176
   for GFN1-xTB:
   * S. Grimme, C. Bannwarth, P. Shushkov, J. Chem. Theory Comput., 2017,
     13, 1989-2009. DOI: 10.1021/acs.jctc.7b00118
   for GFN0-xTB:
   * P. Pracht, E. Caldeweyher, S. Ehlert, S. Grimme, ChemRxiv, 2019, preprint.
     DOI: 10.26434/chemrxiv.8326202.v1
   for GFN-FF:
   * S. Spicher and S. Grimme, Angew. Chem. Int. Ed., 2020, 59, 15665-15673.
     DOI: 10.1002/anie.202004239
   
   for DFT-D4:
   * E. Caldeweyher, C. Bannwarth and S. Grimme, J. Chem. Phys., 2017,
     147, 034112. DOI: 10.1063/1.4993215
   * E. Caldeweyher, S. Ehlert, A. Hansen, H. Neugebauer, S. Spicher,
     C. Bannwarth and S. Grimme, J. Chem. Phys., 2019, 150, 154122.
     DOI: 10.1063/1.5090222
   * E. Caldeweyher, J.-M. Mewes, S. Ehlert and S. Grimme, Phys. Chem. Chem. Phys.
     2020, 22, 8499-8512. DOI: 10.1039/D0CP00502A
   
   for sTDA-xTB:
   * S. Grimme and C. Bannwarth, J. Chem. Phys., 2016, 145, 054103.
     DOI: 10.1063/1.4959605
   
   in the mass-spec context:
   * V. Asgeirsson, C. Bauer and S. Grimme, Chem. Sci., 2017, 8, 4879.
     DOI: 10.1039/c7sc00601b
   * J. Koopman and S. Grimme, ACS Omega 2019, 4, 12, 15120-15133.
     DOI: 10.1021/acsomega.9b02011
   
   for metadynamics refer to:
   * S. Grimme, J. Chem. Theory Comput., 2019, 155, 2847-2862
     DOI: 10.1021/acs.jctc.9b00143
   
   for SPH calculations refer to:
   * S. Spicher and S. Grimme, J. Chem. Theory Comput., 2021, 17, 1701-1714
     DOI: 10.1021/acs.jctc.0c01306
   
   with help from (in alphabetical order)
   P. Atkinson, C. Bannwarth, F. Bohle, G. Brandenburg, E. Caldeweyher
   M. Checinski, S. Dohm, S. Ehlert, S. Ehrlich, I. Gerasimov, J. Koopman
   C. Lavigne, S. Lehtola, F. März, M. Müller, F. Musil, H. Neugebauer
   J. Pisarek, C. Plett, P. Pracht, J. Seibert, P. Shushkov, S. Spicher
   M. Stahn, M. Steiner, T. Strunk, J. Stückrath, T. Rose, and J. Unsleber
   
 * started run on 2021/11/21 at 01:40:53.511     

           -------------------------------------------------
          |                Calculation Setup                |
           -------------------------------------------------

          program call               : /home/jeff/miniconda3/bin/xtb /home/jeff/chem/final-year-proejct/Fe+2_4_4_outenergy/input_structure.xyz --gfn 2 --parallel 1 --etemp 300 --chrg 0 --uhf 0 -I det_control.in
          coordinate file            : /home/jeff/chem/final-year-proejct/Fe+2_4_4_outenergy/input_structure.xyz
          omp threads                :                     1
          number of atoms            :                   154
          number of electrons        :                   522
          charge                     :                     0
          spin                       :                   0.0
          first test random number   :      0.47153807594625

   ID    Z sym.   atoms
    1   26 Fe     1, 37, 85, 120
    2    6 C      2-9, 11-15, 17-21, 23, 24, 38-45, 47-51, 53-57, 59, 60,
                  73-84, 86-93, 95-99, 101-105, 107, 108, 121-128, 130-134,
                  136-140, 142, 143
    3    7 N      10, 16, 22, 25, 46, 52, 58, 61, 94, 100, 106, 109, 129,
                  135, 141, 144
    4    1 H      26-36, 62-72, 110-119, 145-154

           -------------------------------------------------
          |                 G F N 2 - x T B                 |
           -------------------------------------------------

        Reference                      10.1021/acs.jctc.8b01176
      * Hamiltonian:
        H0-scaling (s, p, d)           1.850000    2.230000    2.230000
        zeta-weighting                 0.500000
      * Dispersion:
        s8                             2.700000
        a1                             0.520000
        a2                             5.000000
        s9                             5.000000
      * Repulsion:
        kExp                           1.500000    1.000000
        rExp                           1.000000
      * Coulomb:
        alpha                          2.000000
        third order                    shell-resolved
        anisotropic                    true
        a3                             3.000000
        a5                             4.000000
        cn-shift                       1.200000
        cn-exp                         4.000000
        max-rad                        5.000000


          ...................................................
          :                      SETUP                      :
          :.................................................:
          :  # basis functions                 514          :
          :  # atomic orbitals                 510          :
          :  # shells                          270          :
          :  # electrons                       522          :
          :  max. iterations                   250          :
          :  Hamiltonian                  GFN2-xTB          :
          :  restarted?                      false          :
          :  GBSA solvation                  false          :
          :  PC potential                    false          :
          :  electronic temp.          300.0000000     K    :
          :  accuracy                    1.0000000          :
          :  -> integral cutoff          0.2500000E+02      :
          :  -> integral neglect         0.1000000E-07      :
          :  -> SCF convergence          0.1000000E-05 Eh   :
          :  -> wf. convergence          0.1000000E-03 e    :
          :  Broyden damping             0.4000000          :
          ...................................................

 iter      E             dE          RMSdq      gap      omega  full diag
   1   -281.7428687 -0.281743E+03  0.842E+00    0.00       0.0  T
   2   -272.8770098  0.886586E+01  0.917E+00    0.01       1.0  T
   3   -253.4299667  0.194470E+02  0.102E+01    0.03       1.0  T
   4   -268.4009959 -0.149710E+02  0.799E+00    0.11       1.0  T
   5   -278.0733567 -0.967236E+01  0.568E+00    0.26       1.0  T
   6   -222.2206244  0.558527E+02  0.880E+00    0.05       1.0  T
   7   -246.1562841 -0.239357E+02  0.750E+00    0.01       1.0  T
   8   -256.4159337 -0.102596E+02  0.866E+00    0.07       1.0  T
   9   -271.1037283 -0.146878E+02  0.699E+00    0.01       1.0  T
  10   -277.4669143 -0.636319E+01  0.566E+00    0.05       1.0  T
  11   -278.8999350 -0.143302E+01  0.471E+00    0.01       1.0  T
  12   -274.0037892  0.489615E+01  0.659E+00    0.01       1.0  T
  13   -278.3628089 -0.435902E+01  0.498E+00    0.06       1.0  T
  14   -278.5056936 -0.142885E+00  0.483E+00    0.06       1.0  T
  15   -278.9155795 -0.409886E+00  0.605E+00    0.06       1.0  T
  16   -281.1056383 -0.219006E+01  0.413E+00    0.08       1.0  T
  17   -281.4802733 -0.374635E+00  0.369E+00    0.02       1.0  T
  18   -282.1598009 -0.679528E+00  0.256E+00    0.02       1.0  T
  19   -282.0169151  0.142886E+00  0.266E+00    0.01       1.0  T
  20   -282.0343431 -0.174279E-01  0.301E+00    0.03       1.0  T
  21   -281.0065701  0.102777E+01  0.313E+00    0.09       1.0  T
  22   -282.6840183 -0.167745E+01  0.338E+00    0.09       1.0  T
  23   -281.3507438  0.133327E+01  0.380E+00    0.09       1.0  T
  24   -281.2928292  0.579146E-01  0.378E+00    0.10       1.0  T
  25   -278.5406957  0.275213E+01  0.510E+00    0.04       1.0  T
  26   -278.5889434 -0.482477E-01  0.510E+00    0.04       1.0  T
  27   -281.0568692 -0.246793E+01  0.363E+00    0.06       1.0  T
  28   -281.7205294 -0.663660E+00  0.297E+00    0.00       1.0  T
  29   -280.8796344  0.840895E+00  0.359E+00    0.04       1.0  T
  30   -282.7088797 -0.182925E+01  0.273E+00    0.13       1.0  T
  31   -276.7125238  0.599636E+01  0.542E+00    0.04       1.0  T
  32   -279.9465513 -0.323403E+01  0.370E+00    0.03       1.0  T
  33   -282.4905098 -0.254396E+01  0.223E+00    0.02       1.0  T
  34   -282.6639035 -0.173394E+00  0.216E+00    0.06       1.0  T
  35   -281.8362755  0.827628E+00  0.260E+00    0.06       1.0  T
  36   -282.3815066 -0.545231E+00  0.214E+00    0.00       1.0  T
  37   -282.2226200  0.158887E+00  0.231E+00    0.01       1.0  T
  38   -282.4248057 -0.202186E+00  0.214E+00    0.01       1.0  T
  39   -282.5960532 -0.171248E+00  0.209E+00    0.04       1.0  T
  40   -282.5700834  0.259698E-01  0.211E+00    0.04       1.0  T
  41   -282.5725427 -0.245927E-02  0.212E+00    0.04       1.0  T
  42   -282.3473132  0.225229E+00  0.235E+00    0.01       1.0  T
  43   -282.4371562 -0.898429E-01  0.218E+00    0.01       1.0  T
  44   -282.3828139  0.543423E-01  0.232E+00    0.00       1.0  T
  45   -282.4015341 -0.187202E-01  0.229E+00    0.01       1.0  T
  46   -282.0286264  0.372908E+00  0.277E+00    0.04       1.0  T
  47   -281.9421022  0.865242E-01  0.295E+00    0.04       1.0  T
  48   -281.9987385 -0.566363E-01  0.293E+00    0.04       1.0  T
  49   -281.9485943  0.501442E-01  0.293E+00    0.04       1.0  T
  50   -282.0178331 -0.692388E-01  0.285E+00    0.04       1.0  T
  51   -282.1159076 -0.980745E-01  0.269E+00    0.03       1.0  T
  52   -282.3334697 -0.217562E+00  0.235E+00    0.00       1.0  T
  53   -282.3054367  0.280331E-01  0.230E+00    0.00       1.0  T
  54   -282.5787506 -0.273314E+00  0.211E+00    0.04       1.0  T
  55   -282.5778252  0.925465E-03  0.198E+00    0.04       1.0  T
  56   -282.4777212  0.100104E+00  0.196E+00    0.03       1.0  T
  57   -282.6351926 -0.157471E+00  0.192E+00    0.05       1.0  T
  58   -282.6472186 -0.120260E-01  0.184E+00    0.05       1.0  T
  59   -282.6729188 -0.257002E-01  0.179E+00    0.06       1.0  T
  60   -282.6838353 -0.109166E-01  0.179E+00    0.07       1.0  T
  61   -282.6827764  0.105895E-02  0.178E+00    0.07       1.0  T
  62   -282.6763644  0.641193E-02  0.180E+00    0.06       1.0  T
  63   -282.6755971  0.767299E-03  0.183E+00    0.06       1.0  T
  64   -282.6700333  0.556384E-02  0.180E+00    0.06       1.0  T
  65   -282.6706606 -0.627276E-03  0.156E+00    0.06       1.0  T
  66   -281.4521079  0.121855E+01  0.271E+00    0.02       1.0  T
  67   -282.5812984 -0.112919E+01  0.125E+00    0.05       1.0  T
  68   -282.5371333  0.441651E-01  0.115E+00    0.02       1.0  T
  69   -282.0139161  0.523217E+00  0.210E+00    0.04       1.0  T
  70   -282.7164041 -0.702488E+00  0.591E-01    0.09       1.0  T
  71   -282.7233142 -0.691006E-02  0.572E-01    0.09       1.0  T
  72   -282.7312363 -0.792211E-02  0.482E-01    0.10       1.0  T
  73   -282.7530581 -0.218218E-01  0.347E-01    0.14       1.0  T
  74   -282.7587852 -0.572711E-02  0.289E-01    0.23       1.0  T
  75   -282.7422950  0.164902E-01  0.386E-01    0.12       1.0  T
  76   -282.7325620  0.973298E-02  0.453E-01    0.11       1.0  T
  77   -282.7464573 -0.138953E-01  0.405E-01    0.14       1.0  T
  78   -282.7509231 -0.446578E-02  0.422E-01    0.15       1.0  T
  79   -282.7571036 -0.618056E-02  0.397E-01    0.18       1.0  T
  80   -282.7586054 -0.150176E-02  0.328E-01    0.20       1.0  T
  81   -282.7596397 -0.103427E-02  0.258E-01    0.22       1.0  T
  82   -282.7601282 -0.488532E-03  0.210E-01    0.22       1.0  T
  83   -282.7605477 -0.419490E-03  0.172E-01    0.23       1.0  T
  84   -282.7610536 -0.505950E-03  0.115E-01    0.24       1.0  T
  85   -282.7612301 -0.176508E-03  0.751E-02    0.23       1.0  T
  86   -282.7612733 -0.431941E-04  0.597E-02    0.23       1.0  T
  87   -282.7613024 -0.291173E-04  0.513E-02    0.24       1.0  T
  88   -282.7613170 -0.145613E-04  0.430E-02    0.24       1.0  T
  89   -282.7613193 -0.224464E-05  0.334E-02    0.24       1.0  T
  90   -282.7613196 -0.377669E-06  0.261E-02    0.24       1.0  T
  91   -282.7613199 -0.315809E-06  0.224E-02    0.24       1.0  T
  92   -282.7613218 -0.180710E-05  0.193E-02    0.24       1.0  T
  93   -282.7613245 -0.273800E-05  0.159E-02    0.24       1.0  T
  94   -282.7613273 -0.281506E-05  0.110E-02    0.24       1.0  T
  95   -282.7613295 -0.219113E-05  0.683E-03    0.24       1.2  T
  96   -282.7613303 -0.849690E-06  0.511E-03    0.24       1.6  T
  97   -282.7613310 -0.691062E-06  0.361E-03    0.24       2.2  T
  98   -282.7613312 -0.157690E-06  0.262E-03    0.24       3.1  T
  99   -282.7613312  0.823786E-08  0.166E-03    0.24       4.9  T
 100   -282.7613311  0.491769E-07  0.179E-03    0.24       4.5  T
 101   -282.7613312 -0.141799E-07  0.212E-03    0.24       3.8  T
 102   -282.7613313 -0.134915E-06  0.182E-03    0.24       4.4  T
 103   -282.7613314 -0.121158E-06  0.136E-03    0.24       5.9  T
 104   -282.7613315 -0.533930E-07  0.116E-03    0.24       7.0  T
 105   -282.7613315 -0.543915E-07  0.912E-04    0.24       8.8  T
 106   -282.7613316 -0.496557E-07  0.675E-04    0.24      11.9  T

   *** convergence criteria satisfied after 106 iterations ***

         #    Occupation            Energy/Eh            Energy/eV
      -------------------------------------------------------------
         1        2.0000           -0.6676068             -18.1665
       ...           ...                  ...                  ...
       255        2.0000           -0.3377604              -9.1909
       256        2.0000           -0.3374998              -9.1838
       257        2.0000           -0.3374893              -9.1836
       258        1.9888           -0.3302198              -8.9857
       259        1.9886           -0.3302008              -8.9852
       260        1.9797           -0.3296518              -8.9703
       261        1.9794           -0.3296373              -8.9699 (HOMO)
       262        0.0160           -0.3207230              -8.7273 (LUMO)
       263        0.0159           -0.3207147              -8.7271
       264        0.0158           -0.3207095              -8.7269
       265        0.0157           -0.3207041              -8.7268
       266                         -0.3080642              -8.3829
       ...                                ...                  ...
       510                          1.6375053              44.5588
      -------------------------------------------------------------
                  HL-Gap            0.0089143 Eh            0.2426 eV
             Fermi-level           -0.3252995 Eh           -8.8519 eV

 SCC (total)                   0 d,  0 h,  0 min,  6.542 sec
 SCC setup                      ...        0 min,  0.004 sec (  0.066%)
 Dispersion                     ...        0 min,  0.009 sec (  0.135%)
 classical contributions        ...        0 min,  0.001 sec (  0.017%)
 integral evaluation            ...        0 min,  0.081 sec (  1.244%)
 iterations                     ...        0 min,  6.215 sec ( 95.009%)
 molecular gradient             ...        0 min,  0.224 sec (  3.423%)
 printout                       ...        0 min,  0.007 sec (  0.105%)

         :::::::::::::::::::::::::::::::::::::::::::::::::::::
         ::                     SUMMARY                     ::
         :::::::::::::::::::::::::::::::::::::::::::::::::::::
         :: total energy            -277.754591842109 Eh    ::
         :: gradient norm              0.000446215365 Eh/a0 ::
         :: HOMO-LUMO gap              0.242569782936 eV    ::
         ::.................................................::
         :: SCC energy              -282.761331566136 Eh    ::
         :: -> isotropic ES           -0.029402560695 Eh    ::
         :: -> anisotropic ES          0.041931357742 Eh    ::
         :: -> anisotropic XC          0.166064299914 Eh    ::
         :: -> dispersion             -0.219027224732 Eh    ::
         :: repulsion energy           5.010153069846 Eh    ::
         :: add. restraining           0.000000000000 Eh    ::
         :: total charge              -0.000000000036 e     ::
         :::::::::::::::::::::::::::::::::::::::::::::::::::::

           -------------------------------------------------
          |                Property Printout                |
           -------------------------------------------------

    * Orbital Energies and Occupations

         #    Occupation            Energy/Eh            Energy/eV
      -------------------------------------------------------------
         1        2.0000           -0.6676068             -18.1665
       ...           ...                  ...                  ...
       249        2.0000           -0.3480875              -9.4719
       250        2.0000           -0.3391896              -9.2298
       251        2.0000           -0.3389882              -9.2243
       252        2.0000           -0.3388879              -9.2216
       253        2.0000           -0.3388735              -9.2212
       254        2.0000           -0.3377642              -9.1910
       255        2.0000           -0.3377604              -9.1909
       256        2.0000           -0.3374998              -9.1838
       257        2.0000           -0.3374893              -9.1836
       258        1.9888           -0.3302198              -8.9857
       259        1.9886           -0.3302008              -8.9852
       260        1.9797           -0.3296518              -8.9703
       261        1.9794           -0.3296373              -8.9699 (HOMO)
       262        0.0160           -0.3207230              -8.7273 (LUMO)
       263        0.0159           -0.3207147              -8.7271
       264        0.0158           -0.3207095              -8.7269
       265        0.0157           -0.3207041              -8.7268
       266                         -0.3080642              -8.3829
       267                         -0.3007459              -8.1837
       268                         -0.2921267              -7.9492
       269                         -0.2907779              -7.9125
       270                         -0.2907707              -7.9123
       271                         -0.2901811              -7.8962
       272                         -0.2901715              -7.8960
       ...                                ...                  ...
       510                          1.6375053              44.5588
      -------------------------------------------------------------
                  HL-Gap            0.0089143 Eh            0.2426 eV
             Fermi-level           -0.3252995 Eh           -8.8519 eV

     #   Z          covCN         q      C6AA      α(0)
     1  26 Fe       3.083     0.561     5.147     7.318
     2   6 C        3.027    -0.054    29.318     8.882
     3   6 C        3.013    -0.054    29.328     8.883
     4   6 C        3.184     0.070    26.003     8.322
     5   6 C        2.955     0.010    27.783     8.645
     6   6 C        3.183     0.070    26.003     8.322
     7   6 C        3.013    -0.054    29.327     8.883
     8   6 C        3.027    -0.054    29.319     8.882
     9   6 C        3.159     0.064    26.258     8.377
    10   7 N        2.636    -0.214    25.677     7.526
    11   6 C        2.903    -0.060    29.500     8.906
    12   6 C        3.155     0.065    26.249     8.378
    13   6 C        3.023    -0.053    29.300     8.879
    14   6 C        3.013    -0.055    29.349     8.887
    15   6 C        3.166     0.070    26.093     8.348
    16   7 N        2.638    -0.213    25.641     7.520
    17   6 C        2.903    -0.059    29.468     8.901
    18   6 C        3.166     0.070    26.093     8.348
    19   6 C        3.013    -0.055    29.349     8.887
    20   6 C        3.023    -0.053    29.300     8.879
    21   6 C        3.155     0.065    26.249     8.378
    22   7 N        2.638    -0.213    25.641     7.521
    23   6 C        2.903    -0.060    29.500     8.906
    24   6 C        3.159     0.064    26.258     8.377
    25   7 N        2.637    -0.214    25.676     7.526
    26   1 H        0.926     0.030     2.582     2.513
    27   1 H        0.926     0.033     2.547     2.496
    28   1 H        0.926     0.033     2.547     2.496
    29   1 H        0.926     0.030     2.582     2.513
    30   1 H        0.926     0.049     2.328     2.386
    31   1 H        0.926     0.031     2.576     2.510
    32   1 H        0.926     0.031     2.572     2.508
    33   1 H        0.926     0.047     2.353     2.399
    34   1 H        0.926     0.031     2.572     2.508
    35   1 H        0.926     0.031     2.576     2.510
    36   1 H        0.926     0.049     2.328     2.386
    37  26 Fe       3.083     0.561     5.147     7.318
    38   6 C        3.027    -0.054    29.318     8.882
    39   6 C        3.013    -0.054    29.328     8.883
    40   6 C        3.184     0.070    26.003     8.322
    41   6 C        2.955     0.010    27.784     8.646
    42   6 C        3.184     0.070    26.003     8.322
    43   6 C        3.013    -0.054    29.327     8.883
    44   6 C        3.027    -0.054    29.318     8.882
    45   6 C        3.159     0.064    26.257     8.377
    46   7 N        2.636    -0.214    25.677     7.526
    47   6 C        2.903    -0.060    29.501     8.906
    48   6 C        3.155     0.065    26.249     8.378
    49   6 C        3.023    -0.053    29.300     8.879
    50   6 C        3.013    -0.055    29.349     8.887
    51   6 C        3.166     0.070    26.093     8.348
    52   7 N        2.638    -0.213    25.641     7.520
    53   6 C        2.903    -0.059    29.468     8.901
    54   6 C        3.166     0.070    26.093     8.348
    55   6 C        3.013    -0.055    29.349     8.887
    56   6 C        3.023    -0.053    29.300     8.879
    57   6 C        3.155     0.065    26.249     8.378
    58   7 N        2.638    -0.213    25.641     7.521
    59   6 C        2.903    -0.060    29.501     8.906
    60   6 C        3.159     0.064    26.258     8.377
    61   7 N        2.637    -0.214    25.676     7.526
    62   1 H        0.926     0.030     2.582     2.513
    63   1 H        0.926     0.033     2.547     2.496
    64   1 H        0.926     0.033     2.547     2.496
    65   1 H        0.926     0.030     2.582     2.513
    66   1 H        0.926     0.049     2.328     2.386
    67   1 H        0.926     0.031     2.576     2.510
    68   1 H        0.926     0.031     2.572     2.508
    69   1 H        0.926     0.047     2.353     2.399
    70   1 H        0.926     0.031     2.572     2.508
    71   1 H        0.926     0.031     2.576     2.510
    72   1 H        0.926     0.049     2.328     2.386
    73   6 C        1.990    -0.023    31.647     9.085
    74   6 C        1.963    -0.011    31.367     9.044
    75   6 C        1.963    -0.011    31.362     9.044
    76   6 C        1.990    -0.023    31.653     9.086
    77   6 C        1.990    -0.023    31.649     9.085
    78   6 C        1.963    -0.011    31.363     9.044
    79   6 C        1.963    -0.011    31.363     9.044
    80   6 C        1.990    -0.023    31.649     9.085
    81   6 C        1.990    -0.023    31.652     9.086
    82   6 C        1.963    -0.011    31.361     9.044
    83   6 C        1.963    -0.011    31.366     9.044
    84   6 C        1.990    -0.022    31.646     9.085
    85  26 Fe       3.077     0.565     5.145     7.317
    86   6 C        3.027    -0.054    29.317     8.881
    87   6 C        3.014    -0.054    29.329     8.884
    88   6 C        3.184     0.071    25.991     8.320
    89   6 C        2.955     0.010    27.785     8.646
    90   6 C        3.184     0.071    25.992     8.320
    91   6 C        3.014    -0.054    29.328     8.883
    92   6 C        3.027    -0.054    29.317     8.881
    93   6 C        3.160     0.064    26.260     8.377
    94   7 N        2.636    -0.215    25.705     7.530
    95   6 C        2.903    -0.059    29.458     8.899
    96   6 C        3.160     0.064    26.261     8.378
    97   6 C        3.027    -0.054    29.317     8.881
    98   6 C        3.014    -0.054    29.329     8.884
    99   6 C        3.184     0.071    25.993     8.320
   100   7 N        2.636    -0.215    25.704     7.530
   101   6 C        2.955     0.010    27.786     8.646
   102   6 C        3.184     0.071    25.991     8.320
   103   6 C        3.014    -0.054    29.330     8.884
   104   6 C        3.027    -0.054    29.317     8.881
   105   6 C        3.160     0.064    26.261     8.377
   106   7 N        2.636    -0.215    25.703     7.530
   107   6 C        2.903    -0.059    29.458     8.899
   108   6 C        3.160     0.064    26.260     8.377
   109   7 N        2.636    -0.215    25.704     7.530
   110   1 H        0.926     0.030     2.583     2.513
   111   1 H        0.926     0.033     2.550     2.497
   112   1 H        0.926     0.033     2.549     2.497
   113   1 H        0.926     0.030     2.583     2.513
   114   1 H        0.926     0.050     2.321     2.382
   115   1 H        0.926     0.030     2.583     2.513
   116   1 H        0.926     0.033     2.550     2.497
   117   1 H        0.926     0.033     2.549     2.497
   118   1 H        0.926     0.030     2.583     2.513
   119   1 H        0.926     0.050     2.321     2.382
   120  26 Fe       3.077     0.565     5.145     7.317
   121   6 C        3.027    -0.054    29.317     8.881
   122   6 C        3.014    -0.054    29.329     8.884
   123   6 C        3.184     0.071    25.993     8.320
   124   6 C        2.955     0.010    27.786     8.646
   125   6 C        3.184     0.071    25.991     8.320
   126   6 C        3.014    -0.054    29.330     8.884
   127   6 C        3.027    -0.054    29.317     8.881
   128   6 C        3.160     0.064    26.261     8.377
   129   7 N        2.636    -0.215    25.703     7.530
   130   6 C        2.903    -0.059    29.458     8.899
   131   6 C        3.160     0.064    26.260     8.377
   132   6 C        3.027    -0.054    29.317     8.881
   133   6 C        3.014    -0.054    29.329     8.884
   134   6 C        3.184     0.071    25.992     8.320
   135   7 N        2.636    -0.215    25.704     7.530
   136   6 C        2.955     0.010    27.785     8.646
   137   6 C        3.184     0.071    25.991     8.320
   138   6 C        3.014    -0.054    29.328     8.883
   139   6 C        3.027    -0.054    29.317     8.881
   140   6 C        3.160     0.064    26.259     8.377
   141   7 N        2.636    -0.216    25.706     7.530
   142   6 C        2.903    -0.059    29.459     8.899
   143   6 C        3.160     0.064    26.261     8.378
   144   7 N        2.636    -0.215    25.703     7.530
   145   1 H        0.926     0.030     2.583     2.513
   146   1 H        0.926     0.033     2.550     2.497
   147   1 H        0.926     0.033     2.549     2.497
   148   1 H        0.926     0.030     2.583     2.513
   149   1 H        0.926     0.050     2.321     2.382
   150   1 H        0.926     0.030     2.583     2.513
   151   1 H        0.926     0.033     2.549     2.497
   152   1 H        0.926     0.033     2.549     2.497
   153   1 H        0.926     0.030     2.583     2.513
   154   1 H        0.926     0.050     2.321     2.382

 Mol. C6AA /au·bohr⁶  :     413661.811602
 Mol. C8AA /au·bohr⁸  :   10908381.850628
 Mol. α(0) /au        :       1054.941960


Wiberg/Mayer (AO) data.
largest (>0.10) Wiberg bond orders for each atom

 ---------------------------------------------------------------------------
     #   Z sym  total        # sym  WBO       # sym  WBO       # sym  WBO
 ---------------------------------------------------------------------------
     1  26 Fe   3.278 --    16 N    0.660    22 N    0.659    25 N    0.657
                            10 N    0.657
     2   6 C    3.957 --     3 C    1.644    24 C    1.171    26 H    0.972
     3   6 C    3.962 --     2 C    1.644     4 C    1.182    27 H    0.971
     4   6 C    3.923 --    25 N    1.257     5 C    1.257     3 C    1.182
     5   6 C    3.951 --     6 C    1.257     4 C    1.257    73 C    1.182
     6   6 C    3.923 --    10 N    1.257     5 C    1.257     7 C    1.182
     7   6 C    3.962 --     8 C    1.644     6 C    1.182    28 H    0.971
     8   6 C    3.957 --     7 C    1.644     9 C    1.171    29 H    0.972
     9   6 C    3.937 --    11 C    1.361    10 N    1.217     8 C    1.171
    10   7 N    3.416 --     6 C    1.257     9 C    1.217     1 Fe   0.657
    11   6 C    3.943 --     9 C    1.361    12 C    1.361    30 H    0.963
    12   6 C    3.942 --    11 C    1.361    16 N    1.227    13 C    1.163
    13   6 C    3.962 --    14 C    1.660    12 C    1.163    31 H    0.972
    14   6 C    3.960 --    13 C    1.660    15 C    1.164    32 H    0.972
    15   6 C    3.944 --    17 C    1.358    16 N    1.239    14 C    1.164
    16   7 N    3.412 --    15 C    1.239    12 C    1.227     1 Fe   0.660
    17   6 C    3.939 --    15 C    1.358    18 C    1.358    33 H    0.965
    18   6 C    3.944 --    17 C    1.358    22 N    1.239    19 C    1.164
    19   6 C    3.960 --    20 C    1.660    18 C    1.164    34 H    0.972
    20   6 C    3.962 --    19 C    1.660    21 C    1.163    35 H    0.972
    21   6 C    3.942 --    23 C    1.361    22 N    1.227    20 C    1.163
    22   7 N    3.412 --    18 C    1.239    21 C    1.227     1 Fe   0.659
    23   6 C    3.943 --    24 C    1.361    21 C    1.361    36 H    0.963
    24   6 C    3.937 --    23 C    1.361    25 N    1.217     2 C    1.171
    25   7 N    3.416 --     4 C    1.257    24 C    1.217     1 Fe   0.657
    26   1 H    0.998 --     2 C    0.972
    27   1 H    0.998 --     3 C    0.971
    28   1 H    0.998 --     7 C    0.971
    29   1 H    0.998 --     8 C    0.972
    30   1 H    0.996 --    11 C    0.963
    31   1 H    0.998 --    13 C    0.972
    32   1 H    0.998 --    14 C    0.972
    33   1 H    0.997 --    17 C    0.965
    34   1 H    0.998 --    19 C    0.972
    35   1 H    0.998 --    20 C    0.972
    36   1 H    0.996 --    23 C    0.963
    37  26 Fe   3.279 --    52 N    0.660    58 N    0.660    61 N    0.657
                            46 N    0.657
    38   6 C    3.957 --    39 C    1.644    60 C    1.171    62 H    0.972
    39   6 C    3.962 --    38 C    1.644    40 C    1.182    63 H    0.971
    40   6 C    3.923 --    61 N    1.257    41 C    1.257    39 C    1.182
    41   6 C    3.951 --    42 C    1.257    40 C    1.257    84 C    1.181
    42   6 C    3.923 --    41 C    1.257    46 N    1.257    43 C    1.182
    43   6 C    3.962 --    44 C    1.644    42 C    1.182    64 H    0.971
    44   6 C    3.957 --    43 C    1.644    45 C    1.171    65 H    0.972
    45   6 C    3.938 --    47 C    1.361    46 N    1.217    44 C    1.171
    46   7 N    3.416 --    42 C    1.257    45 C    1.217    37 Fe   0.657
    47   6 C    3.943 --    45 C    1.361    48 C    1.361    66 H    0.963
    48   6 C    3.942 --    47 C    1.361    52 N    1.227    49 C    1.163
    49   6 C    3.962 --    50 C    1.660    48 C    1.163    67 H    0.972
    50   6 C    3.960 --    49 C    1.660    51 C    1.164    68 H    0.972
    51   6 C    3.944 --    53 C    1.358    52 N    1.239    50 C    1.164
    52   7 N    3.412 --    51 C    1.239    48 C    1.227    37 Fe   0.660
    53   6 C    3.939 --    51 C    1.358    54 C    1.358    69 H    0.965
    54   6 C    3.944 --    53 C    1.358    58 N    1.239    55 C    1.164
    55   6 C    3.960 --    56 C    1.660    54 C    1.164    70 H    0.972
    56   6 C    3.962 --    55 C    1.660    57 C    1.163    71 H    0.972
    57   6 C    3.942 --    59 C    1.361    58 N    1.227    56 C    1.163
    58   7 N    3.412 --    54 C    1.239    57 C    1.227    37 Fe   0.660
    59   6 C    3.943 --    60 C    1.361    57 C    1.361    72 H    0.963
    60   6 C    3.937 --    59 C    1.361    61 N    1.217    38 C    1.171
    61   7 N    3.416 --    40 C    1.257    60 C    1.217    37 Fe   0.657
    62   1 H    0.998 --    38 C    0.972
    63   1 H    0.998 --    39 C    0.971
    64   1 H    0.998 --    43 C    0.971
    65   1 H    0.998 --    44 C    0.972
    66   1 H    0.996 --    47 C    0.963
    67   1 H    0.998 --    49 C    0.972
    68   1 H    0.998 --    50 C    0.972
    69   1 H    0.997 --    53 C    0.965
    70   1 H    0.998 --    55 C    0.972
    71   1 H    0.998 --    56 C    0.972
    72   1 H    0.996 --    59 C    0.963
    73   6 C    3.920 --    74 C    2.476     5 C    1.182    76 C    0.203
    74   6 C    3.931 --    73 C    2.476    75 C    1.301
    75   6 C    3.928 --    76 C    2.475    74 C    1.301
    76   6 C    3.921 --    75 C    2.475    89 C    1.184    73 C    0.203
    77   6 C    3.920 --    78 C    2.473   101 C    1.185    80 C    0.203
    78   6 C    3.928 --    77 C    2.473    79 C    1.303
    79   6 C    3.928 --    80 C    2.473    78 C    1.303
    80   6 C    3.920 --    79 C    2.473   124 C    1.185    77 C    0.203
    81   6 C    3.921 --    82 C    2.476   136 C    1.183    84 C    0.203
    82   6 C    3.928 --    81 C    2.476    83 C    1.300
    83   6 C    3.931 --    84 C    2.477    82 C    1.300
    84   6 C    3.919 --    83 C    2.477    41 C    1.181    81 C    0.203
    85  26 Fe   3.244 --   100 N    0.652   106 N    0.652    94 N    0.652
                           109 N    0.652
    86   6 C    3.958 --    87 C    1.643   108 C    1.172   110 H    0.972
    87   6 C    3.961 --    86 C    1.643    88 C    1.183   111 H    0.971
    88   6 C    3.923 --   109 N    1.260    89 C    1.254    87 C    1.183
    89   6 C    3.941 --    90 C    1.254    88 C    1.254    76 C    1.184
    90   6 C    3.923 --    94 N    1.260    89 C    1.254    91 C    1.183
    91   6 C    3.961 --    92 C    1.643    90 C    1.183   112 H    0.971
    92   6 C    3.957 --    91 C    1.643    93 C    1.172   113 H    0.972
    93   6 C    3.937 --    95 C    1.361    94 N    1.215    92 C    1.172
    94   7 N    3.407 --    90 C    1.260    93 C    1.215    85 Fe   0.652
    95   6 C    3.936 --    96 C    1.361    93 C    1.361   114 H    0.963
    96   6 C    3.937 --    95 C    1.361   100 N    1.215    97 C    1.172
    97   6 C    3.957 --    98 C    1.643    96 C    1.172   115 H    0.972
    98   6 C    3.961 --    97 C    1.643    99 C    1.183   116 H    0.971
    99   6 C    3.923 --   100 N    1.260   101 C    1.254    98 C    1.183
   100   7 N    3.407 --    99 C    1.260    96 C    1.215    85 Fe   0.652
   101   6 C    3.941 --    99 C    1.254   102 C    1.254    77 C    1.185
   102   6 C    3.923 --   106 N    1.260   101 C    1.254   103 C    1.183
   103   6 C    3.961 --   104 C    1.643   102 C    1.183   117 H    0.971
   104   6 C    3.957 --   103 C    1.643   105 C    1.172   118 H    0.972
   105   6 C    3.937 --   107 C    1.361   106 N    1.215   104 C    1.172
   106   7 N    3.407 --   102 C    1.260   105 C    1.215    85 Fe   0.652
   107   6 C    3.937 --   105 C    1.361   108 C    1.361   119 H    0.963
   108   6 C    3.937 --   107 C    1.361   109 N    1.215    86 C    1.172
   109   7 N    3.407 --    88 C    1.260   108 C    1.215    85 Fe   0.652
   110   1 H    0.998 --    86 C    0.972
   111   1 H    0.998 --    87 C    0.971
   112   1 H    0.998 --    91 C    0.971
   113   1 H    0.998 --    92 C    0.972
   114   1 H    0.996 --    95 C    0.963
   115   1 H    0.998 --    97 C    0.972
   116   1 H    0.998 --    98 C    0.971
   117   1 H    0.998 --   103 C    0.971
   118   1 H    0.998 --   104 C    0.972
   119   1 H    0.996 --   107 C    0.963
   120  26 Fe   3.245 --   129 N    0.652   144 N    0.652   135 N    0.652
                           141 N    0.652
   121   6 C    3.957 --   122 C    1.643   143 C    1.172   145 H    0.972
   122   6 C    3.961 --   121 C    1.643   123 C    1.183   146 H    0.971
   123   6 C    3.923 --   144 N    1.260   124 C    1.254   122 C    1.183
   124   6 C    3.941 --   123 C    1.254   125 C    1.254    80 C    1.185
   125   6 C    3.923 --   129 N    1.260   124 C    1.254   126 C    1.183
   126   6 C    3.961 --   127 C    1.643   125 C    1.183   147 H    0.971
   127   6 C    3.957 --   126 C    1.643   128 C    1.172   148 H    0.972
   128   6 C    3.937 --   130 C    1.361   129 N    1.215   127 C    1.172
   129   7 N    3.407 --   125 C    1.260   128 C    1.215   120 Fe   0.652
   130   6 C    3.937 --   131 C    1.361   128 C    1.361   149 H    0.963
   131   6 C    3.937 --   130 C    1.361   135 N    1.215   132 C    1.172
   132   6 C    3.958 --   133 C    1.643   131 C    1.172   150 H    0.972
   133   6 C    3.961 --   132 C    1.643   134 C    1.182   151 H    0.971
   134   6 C    3.923 --   135 N    1.260   136 C    1.255   133 C    1.182
   135   7 N    3.407 --   134 C    1.260   131 C    1.215   120 Fe   0.652
   136   6 C    3.941 --   137 C    1.255   134 C    1.255    81 C    1.183
   137   6 C    3.923 --   141 N    1.260   136 C    1.255   138 C    1.183
   138   6 C    3.961 --   139 C    1.643   137 C    1.183   152 H    0.971
   139   6 C    3.958 --   138 C    1.643   140 C    1.172   153 H    0.972
   140   6 C    3.937 --   142 C    1.361   141 N    1.215   139 C    1.172
   141   7 N    3.407 --   137 C    1.260   140 C    1.215   120 Fe   0.652
   142   6 C    3.937 --   143 C    1.361   140 C    1.361   154 H    0.963
   143   6 C    3.937 --   142 C    1.361   144 N    1.215   121 C    1.172
   144   7 N    3.407 --   123 C    1.260   143 C    1.215   120 Fe   0.652
   145   1 H    0.998 --   121 C    0.972
   146   1 H    0.998 --   122 C    0.971
   147   1 H    0.998 --   126 C    0.971
   148   1 H    0.998 --   127 C    0.972
   149   1 H    0.996 --   130 C    0.963
   150   1 H    0.998 --   132 C    0.972
   151   1 H    0.998 --   133 C    0.971
   152   1 H    0.998 --   138 C    0.971
   153   1 H    0.998 --   139 C    0.972
   154   1 H    0.996 --   142 C    0.963
 ---------------------------------------------------------------------------

Topologies differ in total number of bonds
Writing topology from bond orders to xtbtopo.mol

molecular dipole:
                 x           y           z       tot (Debye)
 q only:       -0.000      -0.001      -0.001
   full:       -0.000      -0.001      -0.003       0.009
molecular quadrupole (traceless):
                xx          xy          yy          xz          yz          zz
 q only:       40.819       0.233     -11.818      -0.150      -0.243     -29.000
  q+dip:       89.797       0.280       2.068      -0.409      -1.249     -91.865
   full:       61.511       0.265      -8.272      -0.402      -0.633     -53.239


           -------------------------------------------------
          | TOTAL ENERGY             -277.754591842109 Eh   |
          | GRADIENT NORM               0.000446215365 Eh/α |
          | HOMO-LUMO GAP               0.242569782936 eV   |
           -------------------------------------------------

------------------------------------------------------------------------
 * finished run on 2021/11/21 at 01:41:00.127     
------------------------------------------------------------------------
 total:
 * wall-time:     0 d,  0 h,  0 min,  6.616 sec
 *  cpu-time:     0 d,  0 h,  0 min,  6.616 sec
 * ratio c/w:     1.000 speedup
 SCF:
 * wall-time:     0 d,  0 h,  0 min,  6.543 sec
 *  cpu-time:     0 d,  0 h,  0 min,  6.544 sec
 * ratio c/w:     1.000 speedup

