      -----------------------------------------------------------      
     |                   =====================                   |     
     |                           x T B                           |     
     |                   =====================                   |     
     |                         S. Grimme                         |     
     |          Mulliken Center for Theoretical Chemistry        |     
     |                    University of Bonn                     |     
      -----------------------------------------------------------      

   * xtb version 6.4.1 (bd6e46d) compiled by 'conda@4901f00b25ba' on 2021-06-10

   xtb is free software: you can redistribute it and/or modify it under
   the terms of the GNU Lesser General Public License as published by
   the Free Software Foundation, either version 3 of the License, or
   (at your option) any later version.
   
   xtb is distributed in the hope that it will be useful,
   but WITHOUT ANY WARRANTY; without even the implied warranty of
   MERCHANTABILITY or FITNESS FOR A PARTICULAR PURPOSE.  See the
   GNU Lesser General Public License for more details.
   
   Cite this work as:
   * C. Bannwarth, E. Caldeweyher, S. Ehlert, A. Hansen, P. Pracht,
     J. Seibert, S. Spicher, S. Grimme, WIREs Comput. Mol. Sci., 2020, 11,
     e01493. DOI: 10.1002/wcms.1493
   
   for GFN2-xTB:
   * C. Bannwarth, S. Ehlert and S. Grimme., J. Chem. Theory Comput., 2019,
     15, 1652-1671. DOI: 10.1021/acs.jctc.8b01176
   for GFN1-xTB:
   * S. Grimme, C. Bannwarth, P. Shushkov, J. Chem. Theory Comput., 2017,
     13, 1989-2009. DOI: 10.1021/acs.jctc.7b00118
   for GFN0-xTB:
   * P. Pracht, E. Caldeweyher, S. Ehlert, S. Grimme, ChemRxiv, 2019, preprint.
     DOI: 10.26434/chemrxiv.8326202.v1
   for GFN-FF:
   * S. Spicher and S. Grimme, Angew. Chem. Int. Ed., 2020, 59, 15665-15673.
     DOI: 10.1002/anie.202004239
   
   for DFT-D4:
   * E. Caldeweyher, C. Bannwarth and S. Grimme, J. Chem. Phys., 2017,
     147, 034112. DOI: 10.1063/1.4993215
   * E. Caldeweyher, S. Ehlert, A. Hansen, H. Neugebauer, S. Spicher,
     C. Bannwarth and S. Grimme, J. Chem. Phys., 2019, 150, 154122.
     DOI: 10.1063/1.5090222
   * E. Caldeweyher, J.-M. Mewes, S. Ehlert and S. Grimme, Phys. Chem. Chem. Phys.
     2020, 22, 8499-8512. DOI: 10.1039/D0CP00502A
   
   for sTDA-xTB:
   * S. Grimme and C. Bannwarth, J. Chem. Phys., 2016, 145, 054103.
     DOI: 10.1063/1.4959605
   
   in the mass-spec context:
   * V. Asgeirsson, C. Bauer and S. Grimme, Chem. Sci., 2017, 8, 4879.
     DOI: 10.1039/c7sc00601b
   * J. Koopman and S. Grimme, ACS Omega 2019, 4, 12, 15120-15133.
     DOI: 10.1021/acsomega.9b02011
   
   for metadynamics refer to:
   * S. Grimme, J. Chem. Theory Comput., 2019, 155, 2847-2862
     DOI: 10.1021/acs.jctc.9b00143
   
   for SPH calculations refer to:
   * S. Spicher and S. Grimme, J. Chem. Theory Comput., 2021, 17, 1701-1714
     DOI: 10.1021/acs.jctc.0c01306
   
   with help from (in alphabetical order)
   P. Atkinson, C. Bannwarth, F. Bohle, G. Brandenburg, E. Caldeweyher
   M. Checinski, S. Dohm, S. Ehlert, S. Ehrlich, I. Gerasimov, J. Koopman
   C. Lavigne, S. Lehtola, F. März, M. Müller, F. Musil, H. Neugebauer
   J. Pisarek, C. Plett, P. Pracht, J. Seibert, P. Shushkov, S. Spicher
   M. Stahn, M. Steiner, T. Strunk, J. Stückrath, T. Rose, and J. Unsleber
   
 * started run on 2021/11/18 at 18:32:50.094     

           -------------------------------------------------
          |                Calculation Setup                |
           -------------------------------------------------

          program call               : /home/jeff/miniconda3/bin/xtb input_structure_1.xyz --gfn 2 --ohess normal --parallel 1 --etemp 300 --chrg 0 --uhf 0 -I det_control.in
          hostname                   : jelfscompute1
          coordinate file            : input_structure_1.xyz
          omp threads                :                     1
          number of atoms            :                    74
          number of electrons        :                   234
          charge                     :                     0
          spin                       :                   0.0
          first test random number   :      0.89630013078486

   ID    Z sym.   atoms
    1   30 Zn     1, 39
    2    6 C      2-9, 11-15, 17-21, 23, 24, 37, 38, 40-47, 49-53, 55-59, 61,
                  62
    3    7 N      10, 16, 22, 25, 48, 54, 60, 63
    4    1 H      26-36, 64-74

           -------------------------------------------------
          |                 G F N 2 - x T B                 |
           -------------------------------------------------

        Reference                      10.1021/acs.jctc.8b01176
      * Hamiltonian:
        H0-scaling (s, p, d)           1.850000    2.230000    2.230000
        zeta-weighting                 0.500000
      * Dispersion:
        s8                             2.700000
        a1                             0.520000
        a2                             5.000000
        s9                             5.000000
      * Repulsion:
        kExp                           1.500000    1.000000
        rExp                           1.000000
      * Coulomb:
        alpha                          2.000000
        third order                    shell-resolved
        anisotropic                    true
        a3                             3.000000
        a5                             4.000000
        cn-shift                       1.200000
        cn-exp                         4.000000
        max-rad                        5.000000


          ...................................................
          :                      SETUP                      :
          :.................................................:
          :  # basis functions                 230          :
          :  # atomic orbitals                 230          :
          :  # shells                          126          :
          :  # electrons                       234          :
          :  max. iterations                   250          :
          :  Hamiltonian                  GFN2-xTB          :
          :  restarted?                      false          :
          :  GBSA solvation                  false          :
          :  PC potential                    false          :
          :  electronic temp.          300.0000000     K    :
          :  accuracy                    1.0000000          :
          :  -> integral cutoff          0.2500000E+02      :
          :  -> integral neglect         0.1000000E-07      :
          :  -> SCF convergence          0.1000000E-05 Eh   :
          :  -> wf. convergence          0.1000000E-03 e    :
          :  Broyden damping             0.4000000          :
          ...................................................

 iter      E             dE          RMSdq      gap      omega  full diag
   1   -127.3399223 -0.127340E+03  0.613E+00    0.30       0.0  T
   2   -127.4186505 -0.787282E-01  0.297E+00    0.35       1.0  T
   3   -126.9908624  0.427788E+00  0.284E+00    0.06       1.0  T
   4   -127.3592476 -0.368385E+00  0.172E+00    0.22       1.0  T
   5   -127.8033662 -0.444119E+00  0.640E-01    0.37       1.0  T
   6   -127.8101814 -0.681525E-02  0.494E-01    0.37       1.0  T
   7   -127.8160104 -0.582897E-02  0.472E-01    0.35       1.0  T
   8   -127.8420574 -0.260470E-01  0.233E-01    0.32       1.0  T
   9   -127.8484661 -0.640868E-02  0.932E-02    0.31       1.0  T
  10   -127.8489154 -0.449259E-03  0.386E-02    0.30       1.0  T
  11   -127.8489027  0.127130E-04  0.338E-02    0.31       1.0  T
  12   -127.8490410 -0.138362E-03  0.136E-02    0.31       1.0  T
  13   -127.8490652 -0.241484E-04  0.574E-03    0.30       2.0  T
  14   -127.8490689 -0.372757E-05  0.261E-03    0.31       4.5  T
  15   -127.8490697 -0.826052E-06  0.119E-03    0.30       9.8  T
  16   -127.8490698 -0.100952E-06  0.461E-04    0.30      25.2  T
  17   -127.8490698 -0.155178E-07  0.268E-04    0.30      43.4  T

   *** convergence criteria satisfied after 17 iterations ***

         #    Occupation            Energy/Eh            Energy/eV
      -------------------------------------------------------------
         1        2.0000           -0.6935856             -18.8734
       ...           ...                  ...                  ...
       111        2.0000           -0.3786812             -10.3044
       112        2.0000           -0.3731715             -10.1545
       113        2.0000           -0.3702199             -10.0742
       114        2.0000           -0.3666081              -9.9759
       115        2.0000           -0.3645633              -9.9203
       116        2.0000           -0.3506783              -9.5424
       117        1.9945           -0.3291141              -8.9557 (HOMO)
       118        0.0055           -0.3179100              -8.6508 (LUMO)
       119                         -0.3021145              -8.2210
       120                         -0.2999039              -8.1608
       121                         -0.2818831              -7.6704
       122                         -0.2751392              -7.4869
       ...                                ...                  ...
       230                          4.2380400             115.3229
      -------------------------------------------------------------
                  HL-Gap            0.0112041 Eh            0.3049 eV
             Fermi-level           -0.3235121 Eh           -8.8032 eV

 SCC (total)                   0 d,  0 h,  0 min,  0.277 sec
 SCC setup                      ...        0 min,  0.001 sec (  0.359%)
 Dispersion                     ...        0 min,  0.002 sec (  0.764%)
 classical contributions        ...        0 min,  0.000 sec (  0.143%)
 integral evaluation            ...        0 min,  0.023 sec (  8.388%)
 iterations                     ...        0 min,  0.170 sec ( 61.390%)
 molecular gradient             ...        0 min,  0.079 sec ( 28.622%)
 printout                       ...        0 min,  0.001 sec (  0.330%)

         :::::::::::::::::::::::::::::::::::::::::::::::::::::
         ::                     SUMMARY                     ::
         :::::::::::::::::::::::::::::::::::::::::::::::::::::
         :: total energy            -124.824277144012 Eh    ::
         :: gradient norm              2.268687099722 Eh/a0 ::
         :: HOMO-LUMO gap              0.304878873821 eV    ::
         ::.................................................::
         :: SCC energy              -127.849069844930 Eh    ::
         :: -> isotropic ES            0.133939237589 Eh    ::
         :: -> anisotropic ES          0.018154276088 Eh    ::
         :: -> anisotropic XC          0.068898288577 Eh    ::
         :: -> dispersion             -0.117525441735 Eh    ::
         :: repulsion energy           3.024740915678 Eh    ::
         :: add. restraining           0.000000000000 Eh    ::
         :: total charge              -0.000000000362 e     ::
         :::::::::::::::::::::::::::::::::::::::::::::::::::::

      ----------------------------------------------------------- 
     |                   =====================                   |
     |                        A N C O P T                        |
     |                   =====================                   |
     |               Approximate Normal Coordinate               |
     |                Rational Function Optimizer                |
      ----------------------------------------------------------- 

          ...................................................
          :                      SETUP                      :
          :.................................................:
          :   optimization level            normal          :
          :   max. optcycles                   222          :
          :   ANC micro-cycles                  20          :
          :   degrees of freedom               216          :
          :.................................................:
          :   RF solver                   davidson          :
          :   write xtbopt.log                true          :
          :   linear?                        false          :
          :   energy convergence         0.5000000E-05 Eh   :
          :   grad. convergence          0.1000000E-02 Eh/α :
          :   maximium RF displ.         1.0000000          :
          :   Hlow (freq-cutoff)         0.1000000E-01      :
          :   Hmax (freq-cutoff)         5.0000000          :
          :   S6 in model hess.         20.0000000          :
          ...................................................

generating ANC from model Hessian ...
Using Lindh-Hessian (1995)
 Shifting diagonal of input Hessian by    1.0007019626338471E-002
 Lowest  eigenvalues of input Hessian
    0.010000    0.000000    0.000000    0.000000    0.000000    0.000000
    0.000000    0.010132    0.010269    0.010799    0.011142    0.011514
    0.011745    0.011948    0.012578    0.013098    0.014195    0.014484
 Highest eigenvalues
    2.226785    2.661895    3.220586    3.589358    4.083715    4.498012


........................................................................
.............................. CYCLE    1 ..............................
........................................................................
   1   -127.8490698 -0.127849E+03  0.173E-04    0.30       0.0  T
   2   -127.8490697  0.169765E-06  0.872E-04    0.30      13.3  T
   3   -127.8490698 -0.170410E-06  0.142E-04    0.30      82.0  T
     SCC iter.                  ...        0 min,  0.030 sec
     gradient                   ...        0 min,  0.086 sec
 * total energy  :  -124.8242771 Eh     change       -0.1618602E-08 Eh
   gradient norm :     2.2686865 Eh/α   predicted     0.0000000E+00 (-100.00%)
   displ. norm   :     0.5394351 α      lambda       -0.1094213E+01
   maximum displ.:     0.3808948 α      in ANC's #216, #166, #121, ...

........................................................................
.............................. CYCLE    2 ..............................
........................................................................
   1   -127.8909796 -0.127891E+03  0.615E-01    0.68       0.0  T
   2   -127.8931905 -0.221090E-02  0.413E-01    0.64       1.0  T
   3   -127.8905791  0.261140E-02  0.308E-01    0.65       1.0  T
   4   -127.8866897  0.388943E-02  0.255E-01    0.67       1.0  T
   5   -127.8984977 -0.118080E-01  0.664E-02    0.64       1.0  T
   6   -127.8989746 -0.476915E-03  0.253E-02    0.65       1.0  T
   7   -127.8990409 -0.663114E-04  0.101E-02    0.65       1.2  T
   8   -127.8990421 -0.115936E-05  0.662E-03    0.65       1.8  T
   9   -127.8990458 -0.374587E-05  0.285E-03    0.65       4.1  T
  10   -127.8990464 -0.604118E-06  0.147E-03    0.65       7.9  T
  11   -127.8990465 -0.956483E-07  0.914E-04    0.65      12.7  T
  12   -127.8990466 -0.570216E-07  0.446E-04    0.65      26.1  T
     SCC iter.                  ...        0 min,  0.106 sec
     gradient                   ...        0 min,  0.074 sec
 * total energy  :  -125.3590373 Eh     change       -0.5347602E+00 Eh
   gradient norm :     0.5593163 Eh/α   predicted    -0.7063205E+00 (  32.08%)
   displ. norm   :     0.5994888 α      lambda       -0.2727605E+00
   maximum displ.:     0.1738136 α      in ANC's #121, #166, #73, ...

........................................................................
.............................. CYCLE    3 ..............................
........................................................................
   1   -127.8284419 -0.127828E+03  0.595E-01    0.65       0.0  T
   2   -127.8241004  0.434150E-02  0.449E-01    0.68       1.0  T
   3   -127.8185621  0.553829E-02  0.392E-01    0.65       1.0  T
   4   -127.8283802 -0.981807E-02  0.214E-01    0.66       1.0  T
   5   -127.8349149 -0.653473E-02  0.715E-02    0.67       1.0  T
   6   -127.8355336 -0.618623E-03  0.224E-02    0.66       1.0  T
   7   -127.8355801 -0.464911E-04  0.970E-03    0.66       1.2  T
   8   -127.8355791  0.936730E-06  0.705E-03    0.66       1.6  T
   9   -127.8355838 -0.471947E-05  0.298E-03    0.66       3.9  T
  10   -127.8355846 -0.717682E-06  0.137E-03    0.66       8.5  T
  11   -127.8355847 -0.115221E-06  0.765E-04    0.66      15.2  T
  12   -127.8355847 -0.143530E-07  0.401E-04    0.66      29.0  T
     SCC iter.                  ...        0 min,  0.106 sec
     gradient                   ...        0 min,  0.074 sec
 * total energy  :  -125.5185428 Eh     change       -0.1595055E+00 Eh
   gradient norm :     0.3233485 Eh/α   predicted    -0.1853937E+00 (  16.23%)
   displ. norm   :     0.5874358 α      lambda       -0.9810139E-01
   maximum displ.:     0.1779645 α      in ANC's #73, #71, #80, ...

........................................................................
.............................. CYCLE    4 ..............................
........................................................................
   1   -127.8669519 -0.127867E+03  0.386E-01    0.76       0.0  T
   2   -127.8673084 -0.356487E-03  0.250E-01    0.77       1.0  T
   3   -127.8656856  0.162276E-02  0.192E-01    0.75       1.0  T
   4   -127.8668348 -0.114920E-02  0.121E-01    0.77       1.0  T
   5   -127.8692023 -0.236750E-02  0.263E-02    0.76       1.0  T
   6   -127.8692622 -0.599076E-04  0.119E-02    0.76       1.0  T
   7   -127.8692723 -0.100393E-04  0.601E-03    0.76       1.9  T
   8   -127.8692733 -0.107386E-05  0.322E-03    0.76       3.6  T
   9   -127.8692742 -0.847002E-06  0.121E-03    0.76       9.6  T
  10   -127.8692743 -0.757362E-07  0.757E-04    0.76      15.4  T
  11   -127.8692743 -0.282971E-08  0.476E-04    0.76      24.4  T
     SCC iter.                  ...        0 min,  0.098 sec
     gradient                   ...        0 min,  0.074 sec
 * total energy  :  -125.5950430 Eh     change       -0.7650027E-01 Eh
   gradient norm :     0.1823109 Eh/α   predicted    -0.6597726E-01 ( -13.76%)
   displ. norm   :     0.6734498 α      lambda       -0.6141533E-01
   maximum displ.:     0.1995703 α      in ANC's #51, #34, #73, ...

........................................................................
.............................. CYCLE    5 ..............................
........................................................................
   1   -127.8990914 -0.127899E+03  0.391E-01    0.87       0.0  T
   2   -127.8995114 -0.419921E-03  0.232E-01    0.88       1.0  T
   3   -127.8980529  0.145844E-02  0.158E-01    0.87       1.0  T
   4   -127.8996043 -0.155141E-02  0.728E-02    0.88       1.0  T
   5   -127.9002436 -0.639240E-03  0.112E-02    0.88       1.0  T
   6   -127.9002521 -0.852766E-05  0.638E-03    0.88       1.8  T
   7   -127.9002540 -0.192543E-05  0.422E-03    0.88       2.8  T
   8   -127.9002556 -0.154467E-05  0.157E-03    0.88       7.4  T
   9   -127.9002558 -0.193023E-06  0.633E-04    0.88      18.4  T
  10   -127.9002558 -0.225466E-07  0.348E-04    0.88      33.4  T
     SCC iter.                  ...        0 min,  0.089 sec
     gradient                   ...        0 min,  0.080 sec
 * total energy  :  -125.6420833 Eh     change       -0.4704027E-01 Eh
   gradient norm :     0.0837269 Eh/α   predicted    -0.4463467E-01 (  -5.11%)
   displ. norm   :     0.7061171 α      lambda       -0.3409520E-01
   maximum displ.:     0.2457656 α      in ANC's #34, #6, #51, ...

........................................................................
.............................. CYCLE    6 ..............................
........................................................................
   1   -127.9160737 -0.127916E+03  0.349E-01    0.97       0.0  T
   2   -127.9161311 -0.573712E-04  0.204E-01    0.97       1.0  T
   3   -127.9135202  0.261085E-02  0.148E-01    0.97       1.0  T
   4   -127.9160191 -0.249887E-02  0.564E-02    0.97       1.0  T
   5   -127.9164808 -0.461668E-03  0.617E-03    0.97       1.9  T
   6   -127.9164825 -0.172391E-05  0.373E-03    0.97       3.1  T
   7   -127.9164828 -0.332652E-06  0.241E-03    0.97       4.8  T
   8   -127.9164834 -0.524242E-06  0.675E-04    0.97      17.2  T
   9   -127.9164834 -0.261069E-07  0.283E-04    0.97      41.1  T
     SCC iter.                  ...        0 min,  0.080 sec
     gradient                   ...        0 min,  0.074 sec
 * total energy  :  -125.6694647 Eh     change       -0.2738136E-01 Eh
   gradient norm :     0.0556843 Eh/α   predicted    -0.2554760E-01 (  -6.70%)
   displ. norm   :     0.7473160 α      lambda       -0.2312158E-01
   maximum displ.:     0.3015112 α      in ANC's #6, #34, #10, ...

........................................................................
.............................. CYCLE    7 ..............................
........................................................................
   1   -127.9269016 -0.127927E+03  0.314E-01    1.06       0.0  T
   2   -127.9269446 -0.429959E-04  0.182E-01    1.06       1.0  T
   3   -127.9255007  0.144397E-02  0.104E-01    1.06       1.0  T
   4   -127.9268791 -0.137848E-02  0.368E-02    1.06       1.0  T
   5   -127.9270781 -0.198947E-03  0.488E-03    1.06       2.4  T
   6   -127.9270789 -0.828871E-06  0.286E-03    1.06       4.1  T
   7   -127.9270789  0.225678E-07  0.183E-03    1.06       6.3  T
   8   -127.9270792 -0.304293E-06  0.631E-04    1.06      18.4  T
   9   -127.9270792 -0.339644E-07  0.231E-04    1.06      50.4  T
     SCC iter.                  ...        0 min,  0.080 sec
     gradient                   ...        0 min,  0.074 sec
 * total energy  :  -125.6887973 Eh     change       -0.1933266E-01 Eh
   gradient norm :     0.0455842 Eh/α   predicted    -0.1801729E-01 (  -6.80%)
   displ. norm   :     0.7827985 α      lambda       -0.1748196E-01
   maximum displ.:     0.3828328 α      in ANC's #6, #10, #13, ...

........................................................................
.............................. CYCLE    8 ..............................
........................................................................
   1   -127.9361728 -0.127936E+03  0.294E-01    1.13       0.0  T
   2   -127.9362176 -0.447966E-04  0.172E-01    1.13       1.0  T
   3   -127.9355836  0.634019E-03  0.737E-02    1.13       1.0  T
   4   -127.9361860 -0.602382E-03  0.251E-02    1.13       1.0  T
   5   -127.9362803 -0.943492E-04  0.463E-03    1.13       2.5  T
   6   -127.9362813 -0.103132E-05  0.263E-03    1.13       4.4  T
   7   -127.9362812  0.101969E-06  0.180E-03    1.13       6.5  T
   8   -127.9362816 -0.320394E-06  0.491E-04    1.13      23.7  T
   9   -127.9362816 -0.196569E-07  0.214E-04    1.13      54.3  T
     SCC iter.                  ...        0 min,  0.080 sec
     gradient                   ...        0 min,  0.074 sec
 * total energy  :  -125.7037309 Eh     change       -0.1493355E-01 Eh
   gradient norm :     0.0335438 Eh/α   predicted    -0.1409726E-01 (  -5.60%)
   displ. norm   :     0.8084758 α      lambda       -0.1364219E-01
   maximum displ.:     0.4573146 α      in ANC's #6, #10, #13, ...

........................................................................
.............................. CYCLE    9 ..............................
........................................................................
   1   -127.9451710 -0.127945E+03  0.285E-01    1.19       0.0  T
   2   -127.9452026 -0.316622E-04  0.167E-01    1.19       1.0  T
   3   -127.9448645  0.338181E-03  0.577E-02    1.19       1.0  T
   4   -127.9452044 -0.339972E-03  0.158E-02    1.19       1.0  T
   5   -127.9452376 -0.331411E-04  0.426E-03    1.19       2.7  T
   6   -127.9452386 -0.103991E-05  0.240E-03    1.19       4.8  T
   7   -127.9452385  0.856977E-07  0.156E-03    1.19       7.5  T
   8   -127.9452388 -0.301667E-06  0.380E-04    1.19      30.6  T
   9   -127.9452388 -0.114314E-07  0.178E-04    1.19      65.3  T
     SCC iter.                  ...        0 min,  0.080 sec
     gradient                   ...        0 min,  0.074 sec
 * total energy  :  -125.7155641 Eh     change       -0.1183327E-01 Eh
   gradient norm :     0.0264985 Eh/α   predicted    -0.1127961E-01 (  -4.68%)
   displ. norm   :     0.8235979 α      lambda       -0.1092449E-01
   maximum displ.:     0.5225851 α      in ANC's #6, #10, #13, ...

........................................................................
.............................. CYCLE   10 ..............................
........................................................................
   1   -127.9524253 -0.127952E+03  0.274E-01    1.23       0.0  T
   2   -127.9524424 -0.171519E-04  0.162E-01    1.23       1.0  T
   3   -127.9522840  0.158394E-03  0.404E-02    1.23       1.0  T
   4   -127.9524472 -0.163214E-03  0.101E-02    1.23       1.1  T
   5   -127.9524587 -0.114403E-04  0.347E-03    1.23       3.4  T
   6   -127.9524591 -0.477227E-06  0.193E-03    1.23       6.0  T
   7   -127.9524592 -0.465918E-07  0.944E-04    1.23      12.3  T
   8   -127.9524593 -0.117670E-06  0.299E-04    1.23      38.8  T
     SCC iter.                  ...        0 min,  0.071 sec
     gradient                   ...        0 min,  0.074 sec
 * total energy  :  -125.7251792 Eh     change       -0.9615040E-02 Eh
   gradient norm :     0.0239042 Eh/α   predicted    -0.9167377E-02 (  -4.66%)
   displ. norm   :     0.8261886 α      lambda       -0.9021983E-02
   maximum displ.:     0.5641593 α      in ANC's #6, #10, #5, ...

........................................................................
.............................. CYCLE   11 ..............................
........................................................................
   1   -127.9586906 -0.127959E+03  0.253E-01    1.25       0.0  T
   2   -127.9587012 -0.106280E-04  0.149E-01    1.25       1.0  T
   3   -127.9586369  0.643417E-04  0.260E-02    1.25       1.0  T
   4   -127.9587041 -0.672349E-04  0.703E-03    1.25       1.7  T
   5   -127.9587088 -0.475796E-05  0.281E-03    1.25       4.1  T
   6   -127.9587091 -0.207723E-06  0.138E-03    1.25       8.4  T
   7   -127.9587091 -0.989199E-07  0.480E-04    1.25      24.2  T
   8   -127.9587092 -0.213133E-07  0.214E-04    1.25      54.3  T
     SCC iter.                  ...        0 min,  0.071 sec
     gradient                   ...        0 min,  0.074 sec
 * total energy  :  -125.7332276 Eh     change       -0.8048378E-02 Eh
   gradient norm :     0.0215190 Eh/α   predicted    -0.7590145E-02 (  -5.69%)
   displ. norm   :     0.8265546 α      lambda       -0.7777044E-02
   maximum displ.:     0.5979586 α      in ANC's #6, #5, #13, ...

........................................................................
.............................. CYCLE   12 ..............................
........................................................................
   1   -127.9636003 -0.127964E+03  0.230E-01    1.26       0.0  T
   2   -127.9636118 -0.114840E-04  0.135E-01    1.26       1.0  T
   3   -127.9635696  0.422191E-04  0.220E-02    1.26       1.0  T
   4   -127.9636158 -0.461725E-04  0.556E-03    1.26       2.1  T
   5   -127.9636183 -0.254175E-05  0.246E-03    1.26       4.7  T
   6   -127.9636185 -0.148150E-06  0.121E-03    1.26       9.6  T
   7   -127.9636186 -0.990109E-07  0.399E-04    1.26      29.1  T
   8   -127.9636186 -0.140752E-07  0.172E-04    1.26      67.7  T
     SCC iter.                  ...        0 min,  0.071 sec
     gradient                   ...        0 min,  0.074 sec
 * total energy  :  -125.7402039 Eh     change       -0.6976328E-02 Eh
   gradient norm :     0.0180176 Eh/α   predicted    -0.6545134E-02 (  -6.18%)
   displ. norm   :     0.8388348 α      lambda       -0.7043134E-02
   maximum displ.:     0.6246119 α      in ANC's #6, #5, #13, ...

........................................................................
.............................. CYCLE   13 ..............................
........................................................................
   1   -127.9669986 -0.127967E+03  0.222E-01    1.25       0.0  T
   2   -127.9670108 -0.122370E-04  0.130E-01    1.25       1.0  T
   3   -127.9669630  0.478484E-04  0.264E-02    1.26       1.0  T
   4   -127.9670178 -0.548292E-04  0.397E-03    1.26       2.9  T
   5   -127.9670184 -0.554901E-06  0.244E-03    1.26       4.8  T
   6   -127.9670185 -0.164808E-06  0.135E-03    1.26       8.6  T
   7   -127.9670187 -0.167720E-06  0.398E-04    1.26      29.2  T
   8   -127.9670187 -0.977627E-08  0.208E-04    1.26      56.0  T
     SCC iter.                  ...        0 min,  0.071 sec
     gradient                   ...        0 min,  0.074 sec
 * total energy  :  -125.7464030 Eh     change       -0.6199114E-02 Eh
   gradient norm :     0.0181132 Eh/α   predicted    -0.5999505E-02 (  -3.22%)
   displ. norm   :     0.8358034 α      lambda       -0.6449057E-02
   maximum displ.:     0.6483925 α      in ANC's #6, #5, #13, ...

........................................................................
.............................. CYCLE   14 ..............................
........................................................................
   1   -127.9702978 -0.127970E+03  0.210E-01    1.24       0.0  T
   2   -127.9703095 -0.116990E-04  0.122E-01    1.24       1.0  T
   3   -127.9701355  0.174009E-03  0.379E-02    1.24       1.0  T
   4   -127.9703133 -0.177773E-03  0.957E-03    1.24       1.2  T
   5   -127.9703248 -0.115650E-04  0.235E-03    1.24       4.9  T
   6   -127.9703248  0.247298E-07  0.175E-03    1.24       6.6  T
   7   -127.9703250 -0.130363E-06  0.829E-04    1.24      14.0  T
   8   -127.9703250 -0.880665E-07  0.241E-04    1.24      48.3  T
     SCC iter.                  ...        0 min,  0.071 sec
     gradient                   ...        0 min,  0.074 sec
 * total energy  :  -125.7520525 Eh     change       -0.5649524E-02 Eh
   gradient norm :     0.0140920 Eh/α   predicted    -0.5477078E-02 (  -3.05%)
   displ. norm   :     0.8487097 α      lambda       -0.5502088E-02
   maximum displ.:     0.6606404 α      in ANC's #6, #5, #13, ...

........................................................................
.............................. CYCLE   15 ..............................
........................................................................
   1   -127.9682537 -0.127968E+03  0.214E-01    1.23       0.0  T
   2   -127.9682634 -0.975941E-05  0.124E-01    1.23       1.0  T
   3   -127.9681256  0.137813E-03  0.330E-02    1.23       1.0  T
   4   -127.9682616 -0.136011E-03  0.945E-03    1.23       1.2  T
   5   -127.9682754 -0.137684E-04  0.216E-03    1.23       5.4  T
   6   -127.9682755 -0.121986E-06  0.133E-03    1.23       8.8  T
   7   -127.9682756 -0.494338E-07  0.624E-04    1.23      18.6  T
   8   -127.9682756 -0.322741E-07  0.230E-04    1.23      50.6  T
     SCC iter.                  ...        0 min,  0.071 sec
     gradient                   ...        0 min,  0.074 sec
 * total energy  :  -125.7569772 Eh     change       -0.4924629E-02 Eh
   gradient norm :     0.0132216 Eh/α   predicted    -0.4732650E-02 (  -3.90%)
   displ. norm   :     0.8522880 α      lambda       -0.4883540E-02
   maximum displ.:     0.6858140 α      in ANC's #6, #5, #13, ...

........................................................................
.............................. CYCLE   16 ..............................
........................................................................
   1   -127.9733664 -0.127973E+03  0.203E-01    1.22       0.0  T
   2   -127.9733759 -0.955847E-05  0.118E-01    1.22       1.0  T
   3   -127.9731688  0.207106E-03  0.377E-02    1.22       1.0  T
   4   -127.9733722 -0.203387E-03  0.115E-02    1.22       1.0  T
   5   -127.9733919 -0.197343E-04  0.199E-03    1.22       5.8  T
   6   -127.9733919  0.146213E-08  0.123E-03    1.22       9.4  T
   7   -127.9733920 -0.285103E-07  0.648E-04    1.22      17.9  T
   8   -127.9733920 -0.396430E-07  0.204E-04    1.22      57.0  T
     SCC iter.                  ...        0 min,  0.071 sec
     gradient                   ...        0 min,  0.074 sec
 * total energy  :  -125.7611506 Eh     change       -0.4173484E-02 Eh
   gradient norm :     0.0143689 Eh/α   predicted    -0.4215465E-02 (   1.01%)
   displ. norm   :     0.8528205 α      lambda       -0.4168952E-02
   maximum displ.:     0.6640149 α      in ANC's #6, #5, #13, ...

........................................................................
.............................. CYCLE   17 ..............................
........................................................................
   1   -127.9681869 -0.127968E+03  0.206E-01    1.22       0.0  T
   2   -127.9681959 -0.899776E-05  0.120E-01    1.22       1.0  T
   3   -127.9680355  0.160382E-03  0.352E-02    1.21       1.0  T
   4   -127.9681947 -0.159270E-03  0.962E-03    1.22       1.2  T
   5   -127.9682083 -0.135503E-04  0.232E-03    1.22       5.0  T
   6   -127.9682085 -0.234078E-06  0.139E-03    1.22       8.4  T
   7   -127.9682086 -0.468986E-07  0.679E-04    1.22      17.1  T
   8   -127.9682086 -0.389684E-07  0.193E-04    1.22      60.1  T
     SCC iter.                  ...        0 min,  0.071 sec
     gradient                   ...        0 min,  0.074 sec
 * total energy  :  -125.7645849 Eh     change       -0.3434239E-02 Eh
   gradient norm :     0.0141288 Eh/α   predicted    -0.3600525E-02 (   4.84%)
   displ. norm   :     0.8059484 α      lambda       -0.3248228E-02
   maximum displ.:     0.6474271 α      in ANC's #6, #5, #34, ...

........................................................................
.............................. CYCLE   18 ..............................
........................................................................
   1   -127.9695127 -0.127970E+03  0.171E-01    1.21       0.0  T
   2   -127.9695164 -0.371070E-05  0.994E-02    1.21       1.0  T
   3   -127.9693373  0.179063E-03  0.345E-02    1.21       1.0  T
   4   -127.9695176 -0.180253E-03  0.839E-03    1.22       1.4  T
   5   -127.9695279 -0.103730E-04  0.145E-03    1.21       8.0  T
   6   -127.9695280 -0.100904E-07  0.938E-04    1.21      12.4  T
   7   -127.9695280 -0.185759E-07  0.384E-04    1.21      30.3  T
     SCC iter.                  ...        0 min,  0.062 sec
     gradient                   ...        0 min,  0.073 sec
 * total energy  :  -125.7673539 Eh     change       -0.2769030E-02 Eh
   gradient norm :     0.0145311 Eh/α   predicted    -0.2679065E-02 (  -3.25%)
   displ. norm   :     0.7988584 α      lambda       -0.2941031E-02
   maximum displ.:     0.6153514 α      in ANC's #6, #5, #34, ...

........................................................................
.............................. CYCLE   19 ..............................
........................................................................
   1   -127.9747911 -0.127975E+03  0.165E-01    1.22       0.0  T
   2   -127.9747973 -0.620538E-05  0.965E-02    1.22       1.0  T
   3   -127.9746519  0.145403E-03  0.331E-02    1.22       1.0  T
   4   -127.9747998 -0.147871E-03  0.851E-03    1.22       1.4  T
   5   -127.9748087 -0.896014E-05  0.180E-03    1.22       6.5  T
   6   -127.9748087  0.762510E-07  0.129E-03    1.22       9.0  T
   7   -127.9748088 -0.107444E-06  0.536E-04    1.22      21.7  T
   8   -127.9748088 -0.295424E-07  0.168E-04    1.22      69.2  T
     SCC iter.                  ...        0 min,  0.071 sec
     gradient                   ...        0 min,  0.074 sec
 * total energy  :  -125.7695645 Eh     change       -0.2210590E-02 Eh
   gradient norm :     0.0199852 Eh/α   predicted    -0.2408968E-02 (   8.97%)
   displ. norm   :     0.7410936 α      lambda       -0.2681846E-02
   maximum displ.:     0.5600698 α      in ANC's #6, #5, #34, ...

........................................................................
.............................. CYCLE   20 ..............................
........................................................................
   1   -127.9823162 -0.127982E+03  0.145E-01    1.22       0.0  T
   2   -127.9823226 -0.646276E-05  0.844E-02    1.22       1.0  T
   3   -127.9822849  0.376781E-04  0.215E-02    1.22       1.0  T
   4   -127.9823245 -0.396123E-04  0.519E-03    1.22       2.2  T
   5   -127.9823274 -0.287660E-05  0.171E-03    1.22       6.8  T
   6   -127.9823276 -0.136078E-06  0.914E-04    1.22      12.7  T
   7   -127.9823276 -0.369444E-07  0.321E-04    1.22      36.2  T
     SCC iter.                  ...        0 min,  0.062 sec
     gradient                   ...        0 min,  0.073 sec
 * total energy  :  -125.7716000 Eh     change       -0.2035511E-02 Eh
   gradient norm :     0.0164049 Eh/α   predicted    -0.2077387E-02 (   2.06%)
   displ. norm   :     0.7446552 α      lambda       -0.2102829E-02
   maximum displ.:     0.5537102 α      in ANC's #6, #5, #10, ...
 * RMSD in coord.:     1.4099145 α      energy gain  -0.9473229E+00 Eh

generating ANC from model Hessian ...
Using Lindh-Hessian (1995)
 Shifting diagonal of input Hessian by    1.0024026005908730E-002
 Lowest  eigenvalues of input Hessian
    0.010000    0.010008    0.000000    0.000000    0.000000    0.000000
    0.000000    0.000000    0.010114    0.010393    0.011174    0.011341
    0.011703    0.011843    0.012436    0.012757    0.013292    0.013505
 Highest eigenvalues
    2.136912    2.138366    2.143574    2.148840    2.149779    2.640122


........................................................................
.............................. CYCLE   21 ..............................
........................................................................
   1   -127.9755967 -0.127976E+03  0.144E-01    1.24       0.0  T
   2   -127.9756044 -0.764839E-05  0.855E-02    1.24       1.0  T
   3   -127.9754988  0.105602E-03  0.292E-02    1.24       1.0  T
   4   -127.9755969 -0.980730E-04  0.994E-03    1.24       1.2  T
   5   -127.9756125 -0.156767E-04  0.185E-03    1.24       6.3  T
   6   -127.9756126 -0.717497E-07  0.112E-03    1.24      10.4  T
   7   -127.9756127 -0.495701E-07  0.432E-04    1.24      26.9  T
   8   -127.9756127 -0.144835E-07  0.148E-04    1.24      78.7  T
     SCC iter.                  ...        0 min,  0.071 sec
     gradient                   ...        0 min,  0.073 sec
 * total energy  :  -125.7731600 Eh     change       -0.1559934E-02 Eh
   gradient norm :     0.0212810 Eh/α   predicted     0.0000000E+00 (-100.00%)
   displ. norm   :     0.2119611 α      lambda       -0.1284748E-02
   maximum displ.:     0.1630166 α      in ANC's #6, #12, #14, ...

........................................................................
.............................. CYCLE   22 ..............................
........................................................................
   1   -127.9833036 -0.127983E+03  0.642E-02    1.23       0.0  T
   2   -127.9833068 -0.320262E-05  0.385E-02    1.23       1.0  T
   3   -127.9832703  0.365053E-04  0.181E-02    1.23       1.0  T
   4   -127.9833037 -0.333781E-04  0.651E-03    1.23       1.8  T
   5   -127.9833103 -0.660825E-05  0.105E-03    1.23      11.1  T
   6   -127.9833103 -0.539195E-07  0.620E-04    1.23      18.7  T
   7   -127.9833103 -0.734019E-08  0.295E-04    1.23      39.4  T
     SCC iter.                  ...        0 min,  0.062 sec
     gradient                   ...        0 min,  0.073 sec
 * total energy  :  -125.7741653 Eh     change       -0.1005363E-02 Eh
   gradient norm :     0.0107323 Eh/α   predicted    -0.6713096E-03 ( -33.23%)
   displ. norm   :     0.3977994 α      lambda       -0.1315187E-02
   maximum displ.:     0.3116418 α      in ANC's #6, #12, #14, ...

........................................................................
.............................. CYCLE   23 ..............................
........................................................................
   1   -127.9899397 -0.127990E+03  0.101E-01    1.22       0.0  T
   2   -127.9899443 -0.459575E-05  0.605E-02    1.22       1.0  T
   3   -127.9898529  0.914800E-04  0.271E-02    1.22       1.0  T
   4   -127.9899393 -0.864382E-04  0.881E-03    1.22       1.3  T
   5   -127.9899515 -0.122320E-04  0.139E-03    1.22       8.4  T
   6   -127.9899516 -0.973153E-07  0.758E-04    1.22      15.3  T
   7   -127.9899516 -0.480793E-08  0.381E-04    1.22      30.5  T
     SCC iter.                  ...        0 min,  0.063 sec
     gradient                   ...        0 min,  0.073 sec
 * total energy  :  -125.7751457 Eh     change       -0.9803924E-03 Eh
   gradient norm :     0.0079137 Eh/α   predicted    -0.7616545E-03 ( -22.31%)
   displ. norm   :     0.3791168 α      lambda       -0.7822923E-03
   maximum displ.:     0.3060362 α      in ANC's #6, #12, #14, ...

........................................................................
.............................. CYCLE   24 ..............................
........................................................................
   1   -127.9915987 -0.127992E+03  0.873E-02    1.21       0.0  T
   2   -127.9916001 -0.136903E-05  0.516E-02    1.21       1.0  T
   3   -127.9915688  0.312977E-04  0.153E-02    1.21       1.0  T
   4   -127.9915997 -0.308424E-04  0.424E-03    1.21       2.7  T
   5   -127.9916024 -0.269910E-05  0.101E-03    1.21      11.5  T
   6   -127.9916024 -0.357545E-07  0.547E-04    1.21      21.2  T
   7   -127.9916024 -0.418076E-08  0.237E-04    1.21      49.0  T
     SCC iter.                  ...        0 min,  0.080 sec
     gradient                   ...        0 min,  0.073 sec
 * total energy  :  -125.7758014 Eh     change       -0.6556720E-03 Eh
   gradient norm :     0.0105284 Eh/α   predicted    -0.4473671E-03 ( -31.77%)
   displ. norm   :     0.3551880 α      lambda       -0.6584557E-03
   maximum displ.:     0.2888874 α      in ANC's #6, #5, #12, ...

........................................................................
.............................. CYCLE   25 ..............................
........................................................................
   1   -127.9923169 -0.127992E+03  0.762E-02    1.22       0.0  T
   2   -127.9923178 -0.932792E-06  0.448E-02    1.22       1.0  T
   3   -127.9923156  0.226874E-05  0.547E-03    1.22       2.1  T
   4   -127.9923183 -0.270410E-05  0.133E-03    1.22       8.8  T
   5   -127.9923184 -0.815558E-07  0.811E-04    1.22      14.3  T
   6   -127.9923184 -0.258525E-07  0.428E-04    1.22      27.1  T
     SCC iter.                  ...        0 min,  0.054 sec
     gradient                   ...        0 min,  0.073 sec
 * total energy  :  -125.7763762 Eh     change       -0.5748147E-03 Eh
   gradient norm :     0.0085330 Eh/α   predicted    -0.3707632E-03 ( -35.50%)
   displ. norm   :     0.3755275 α      lambda       -0.6256233E-03
   maximum displ.:     0.3027395 α      in ANC's #6, #5, #7, ...

........................................................................
.............................. CYCLE   26 ..............................
........................................................................
   1   -127.9930917 -0.127993E+03  0.778E-02    1.22       0.0  T
   2   -127.9930928 -0.106465E-05  0.457E-02    1.22       1.0  T
   3   -127.9930790  0.137941E-04  0.105E-02    1.22       1.1  T
   4   -127.9930923 -0.133237E-04  0.320E-03    1.22       3.6  T
   5   -127.9930938 -0.154929E-05  0.729E-04    1.22      15.9  T
   6   -127.9930939 -0.764912E-08  0.407E-04    1.22      28.6  T
   7   -127.9930939 -0.714728E-08  0.127E-04    1.22      91.8  T
     SCC iter.                  ...        0 min,  0.063 sec
     gradient                   ...        0 min,  0.073 sec
 * total energy  :  -125.7769182 Eh     change       -0.5420028E-03 Eh
   gradient norm :     0.0049651 Eh/α   predicted    -0.3569251E-03 ( -34.15%)
   displ. norm   :     0.4091995 α      lambda       -0.5612590E-03
   maximum displ.:     0.3221413 α      in ANC's #6, #5, #7, ...

........................................................................
.............................. CYCLE   27 ..............................
........................................................................
   1   -127.9935919 -0.127994E+03  0.827E-02    1.22       0.0  T
   2   -127.9935928 -0.929105E-06  0.485E-02    1.22       1.0  T
   3   -127.9935672  0.256373E-04  0.136E-02    1.22       1.0  T
   4   -127.9935927 -0.255528E-04  0.348E-03    1.22       3.3  T
   5   -127.9935945 -0.180318E-05  0.726E-04    1.22      16.0  T
   6   -127.9935945 -0.621291E-08  0.423E-04    1.22      27.5  T
   7   -127.9935945 -0.330519E-08  0.163E-04    1.22      71.3  T
     SCC iter.                  ...        0 min,  0.062 sec
     gradient                   ...        0 min,  0.073 sec
 * total energy  :  -125.7774000 Eh     change       -0.4817604E-03 Eh
   gradient norm :     0.0035473 Eh/α   predicted    -0.3276218E-03 ( -31.99%)
   displ. norm   :     0.4229658 α      lambda       -0.4659773E-03
   maximum displ.:     0.3249643 α      in ANC's #6, #5, #7, ...

........................................................................
.............................. CYCLE   28 ..............................
........................................................................
   1   -127.9934683 -0.127993E+03  0.836E-02    1.22       0.0  T
   2   -127.9934691 -0.799521E-06  0.489E-02    1.22       1.0  T
   3   -127.9934471  0.219257E-04  0.124E-02    1.22       1.0  T
   4   -127.9934694 -0.222519E-04  0.298E-03    1.22       3.9  T
   5   -127.9934706 -0.122261E-05  0.709E-04    1.22      16.4  T
   6   -127.9934706  0.192132E-08  0.415E-04    1.22      28.0  T
   7   -127.9934706 -0.559430E-08  0.183E-04    1.22      63.5  T
     SCC iter.                  ...        0 min,  0.062 sec
     gradient                   ...        0 min,  0.073 sec
 * total energy  :  -125.7777975 Eh     change       -0.3975015E-03 Eh
   gradient norm :     0.0042694 Eh/α   predicted    -0.2746745E-03 ( -30.90%)
   displ. norm   :     0.4162521 α      lambda       -0.3750205E-03
   maximum displ.:     0.3129012 α      in ANC's #6, #7, #5, ...

........................................................................
.............................. CYCLE   29 ..............................
........................................................................
   1   -127.9933117 -0.127993E+03  0.803E-02    1.22       0.0  T
   2   -127.9933124 -0.732775E-06  0.469E-02    1.22       1.0  T
   3   -127.9932968  0.156291E-04  0.104E-02    1.22       1.1  T
   4   -127.9933128 -0.159900E-04  0.256E-03    1.22       4.5  T
   5   -127.9933137 -0.847040E-06  0.698E-04    1.22      16.6  T
   6   -127.9933136  0.917558E-08  0.398E-04    1.22      29.2  T
     SCC iter.                  ...        0 min,  0.053 sec
     gradient                   ...        0 min,  0.073 sec
 * total energy  :  -125.7781149 Eh     change       -0.3174324E-03 Eh
   gradient norm :     0.0045348 Eh/α   predicted    -0.2200014E-03 ( -30.69%)
   displ. norm   :     0.4024897 α      lambda       -0.3044217E-03
   maximum displ.:     0.2981768 α      in ANC's #6, #7, #5, ...

........................................................................
.............................. CYCLE   30 ..............................
........................................................................
   1   -127.9930519 -0.127993E+03  0.758E-02    1.22       0.0  T
   2   -127.9930526 -0.689784E-06  0.444E-02    1.22       1.0  T
   3   -127.9930434  0.917264E-05  0.809E-03    1.22       1.4  T
   4   -127.9930528 -0.939191E-05  0.218E-03    1.22       5.3  T
   5   -127.9930534 -0.615131E-06  0.647E-04    1.22      18.0  T
   6   -127.9930534  0.686977E-08  0.385E-04    1.22      30.2  T
     SCC iter.                  ...        0 min,  0.053 sec
     gradient                   ...        0 min,  0.073 sec
 * total energy  :  -125.7783694 Eh     change       -0.2545009E-03 Eh
   gradient norm :     0.0040423 Eh/α   predicted    -0.1768707E-03 ( -30.50%)
   displ. norm   :     0.3843173 α      lambda       -0.2451094E-03
   maximum displ.:     0.2815208 α      in ANC's #6, #1, #7, ...

........................................................................
.............................. CYCLE   31 ..............................
........................................................................
   1   -127.9930565 -0.127993E+03  0.717E-02    1.22       0.0  T
   2   -127.9930571 -0.650777E-06  0.421E-02    1.22       1.0  T
   3   -127.9930500  0.714069E-05  0.743E-03    1.22       1.6  T
   4   -127.9930573 -0.732217E-05  0.202E-03    1.22       5.7  T
   5   -127.9930579 -0.524201E-06  0.636E-04    1.22      18.3  T
   6   -127.9930579 -0.296112E-08  0.352E-04    1.22      33.0  T
     SCC iter.                  ...        0 min,  0.053 sec
     gradient                   ...        0 min,  0.073 sec
 * total energy  :  -125.7785704 Eh     change       -0.2009814E-03 Eh
   gradient norm :     0.0034714 Eh/α   predicted    -0.1406611E-03 ( -30.01%)
   displ. norm   :     0.3507376 α      lambda       -0.1828824E-03
   maximum displ.:     0.2563607 α      in ANC's #6, #1, #7, ...

........................................................................
.............................. CYCLE   32 ..............................
........................................................................
   1   -127.9931474 -0.127993E+03  0.625E-02    1.22       0.0  T
   2   -127.9931479 -0.564070E-06  0.367E-02    1.22       1.0  T
   3   -127.9931436  0.428889E-05  0.613E-03    1.22       1.9  T
   4   -127.9931481 -0.442071E-05  0.169E-03    1.22       6.9  T
   5   -127.9931484 -0.359301E-06  0.576E-04    1.22      20.2  T
   6   -127.9931484 -0.101362E-07  0.317E-04    1.22      36.6  T
     SCC iter.                  ...        0 min,  0.053 sec
     gradient                   ...        0 min,  0.074 sec
 * total energy  :  -125.7787185 Eh     change       -0.1481559E-03 Eh
   gradient norm :     0.0027987 Eh/α   predicted    -0.1026939E-03 ( -30.69%)
   displ. norm   :     0.3048875 α      lambda       -0.1301189E-03
   maximum displ.:     0.2212351 α      in ANC's #6, #1, #7, ...

........................................................................
.............................. CYCLE   33 ..............................
........................................................................
   1   -127.9934916 -0.127993E+03  0.524E-02    1.22       0.0  T
   2   -127.9934920 -0.417543E-06  0.308E-02    1.22       1.0  T
   3   -127.9934895  0.250673E-05  0.501E-03    1.22       2.3  T
   4   -127.9934921 -0.260848E-05  0.134E-03    1.22       8.7  T
   5   -127.9934923 -0.218894E-06  0.495E-04    1.22      23.5  T
   6   -127.9934923 -0.111896E-07  0.259E-04    1.22      44.8  T
     SCC iter.                  ...        0 min,  0.053 sec
     gradient                   ...        0 min,  0.073 sec
 * total energy  :  -125.7788251 Eh     change       -0.1066049E-03 Eh
   gradient norm :     0.0024403 Eh/α   predicted    -0.7110760E-04 ( -33.30%)
   displ. norm   :     0.2768483 α      lambda       -0.1054521E-03
   maximum displ.:     0.1970608 α      in ANC's #6, #1, #5, ...

........................................................................
.............................. CYCLE   34 ..............................
........................................................................
   1   -127.9940874 -0.127994E+03  0.460E-02    1.22       0.0  T
   2   -127.9940877 -0.323401E-06  0.271E-02    1.22       1.0  T
   3   -127.9940866  0.111211E-05  0.367E-03    1.22       3.2  T
   4   -127.9940878 -0.118956E-05  0.102E-03    1.22      11.3  T
   5   -127.9940879 -0.114281E-06  0.433E-04    1.22      26.8  T
   6   -127.9940879 -0.102593E-07  0.230E-04    1.22      50.5  T
     SCC iter.                  ...        0 min,  0.053 sec
     gradient                   ...        0 min,  0.073 sec
 * total energy  :  -125.7789139 Eh     change       -0.8873873E-04 Eh
   gradient norm :     0.0023448 Eh/α   predicted    -0.5676874E-04 ( -36.03%)
   displ. norm   :     0.2896558 α      lambda       -0.1064353E-03
   maximum displ.:     0.1976340 α      in ANC's #6, #1, #2, ...

........................................................................
.............................. CYCLE   35 ..............................
........................................................................
   1   -127.9947479 -0.127995E+03  0.482E-02    1.22       0.0  T
   2   -127.9947482 -0.307029E-06  0.283E-02    1.22       1.0  T
   3   -127.9947477  0.471100E-06  0.276E-03    1.22       4.2  T
   4   -127.9947483 -0.566286E-06  0.838E-04    1.22      13.9  T
   5   -127.9947483 -0.546783E-07  0.428E-04    1.22      27.2  T
     SCC iter.                  ...        0 min,  0.045 sec
     gradient                   ...        0 min,  0.073 sec
 * total energy  :  -125.7790046 Eh     change       -0.9068886E-04 Eh
   gradient norm :     0.0023306 Eh/α   predicted    -0.5768481E-04 ( -36.39%)
   displ. norm   :     0.3328019 α      lambda       -0.1179102E-03
   maximum displ.:     0.2177528 α      in ANC's #1, #6, #2, ...

........................................................................
.............................. CYCLE   36 ..............................
........................................................................
   1   -127.9953825 -0.127995E+03  0.559E-02    1.22       0.0  T
   2   -127.9953829 -0.353897E-06  0.328E-02    1.22       1.0  T
   3   -127.9953823  0.536836E-06  0.278E-03    1.22       4.2  T
   4   -127.9953830 -0.697944E-06  0.785E-04    1.22      14.8  T
   5   -127.9953831 -0.297552E-07  0.453E-04    1.22      25.7  T
     SCC iter.                  ...        0 min,  0.045 sec
     gradient                   ...        0 min,  0.073 sec
 * total energy  :  -125.7791037 Eh     change       -0.9916834E-04 Eh
   gradient norm :     0.0023151 Eh/α   predicted    -0.6548506E-04 ( -33.97%)
   displ. norm   :     0.3484805 α      lambda       -0.1147871E-03
   maximum displ.:     0.2360442 α      in ANC's #1, #6, #7, ...

........................................................................
.............................. CYCLE   37 ..............................
........................................................................
   1   -127.9958393 -0.127996E+03  0.588E-02    1.22       0.0  T
   2   -127.9958397 -0.368665E-06  0.345E-02    1.22       1.0  T
   3   -127.9958380  0.163625E-05  0.414E-03    1.22       2.8  T
   4   -127.9958399 -0.184153E-05  0.916E-04    1.22      12.7  T
   5   -127.9958399 -0.651051E-07  0.518E-04    1.22      22.5  T
   6   -127.9958399 -0.109713E-07  0.220E-04    1.22      52.9  T
     SCC iter.                  ...        0 min,  0.053 sec
     gradient                   ...        0 min,  0.073 sec
 * total energy  :  -125.7791990 Eh     change       -0.9527437E-04 Eh
   gradient norm :     0.0021446 Eh/α   predicted    -0.6436755E-04 ( -32.44%)
   displ. norm   :     0.3027861 α      lambda       -0.9398191E-04
   maximum displ.:     0.2108766 α      in ANC's #1, #6, #7, ...

........................................................................
.............................. CYCLE   38 ..............................
........................................................................
   1   -127.9962705 -0.127996E+03  0.510E-02    1.22       0.0  T
   2   -127.9962708 -0.305835E-06  0.300E-02    1.22       1.0  T
   3   -127.9962682  0.260584E-05  0.497E-03    1.22       2.3  T
   4   -127.9962710 -0.279419E-05  0.105E-03    1.22      11.1  T
   5   -127.9962711 -0.115776E-06  0.458E-04    1.22      25.4  T
   6   -127.9962712 -0.771541E-08  0.213E-04    1.22      54.6  T
     SCC iter.                  ...        0 min,  0.053 sec
     gradient                   ...        0 min,  0.073 sec
 * total energy  :  -125.7792782 Eh     change       -0.7917880E-04 Eh
   gradient norm :     0.0018735 Eh/α   predicted    -0.5130008E-04 ( -35.21%)
   displ. norm   :     0.3862832 α      lambda       -0.7977655E-04
   maximum displ.:     0.2725759 α      in ANC's #1, #6, #7, ...

........................................................................
.............................. CYCLE   39 ..............................
........................................................................
   1   -127.9965894 -0.127997E+03  0.651E-02    1.22       0.0  T
   2   -127.9965901 -0.634678E-06  0.384E-02    1.22       1.0  T
   3   -127.9965831  0.697869E-05  0.808E-03    1.22       1.4  T
   4   -127.9965904 -0.734907E-05  0.171E-03    1.22       6.8  T
   5   -127.9965908 -0.344967E-06  0.634E-04    1.22      18.3  T
   6   -127.9965908 -0.190796E-07  0.302E-04    1.22      38.5  T
     SCC iter.                  ...        0 min,  0.053 sec
     gradient                   ...        0 min,  0.074 sec
 * total energy  :  -125.7793709 Eh     change       -0.9273045E-04 Eh
   gradient norm :     0.0019099 Eh/α   predicted    -0.4253501E-04 ( -54.13%)
   displ. norm   :     0.2527589 α      lambda       -0.4814600E-04
   maximum displ.:     0.1801649 α      in ANC's #1, #7, #5, ...

........................................................................
.............................. CYCLE   40 ..............................
........................................................................
   1   -127.9964792 -0.127996E+03  0.426E-02    1.22       0.0  T
   2   -127.9964795 -0.323869E-06  0.252E-02    1.22       1.0  T
   3   -127.9964767  0.287235E-05  0.525E-03    1.22       2.2  T
   4   -127.9964796 -0.299225E-05  0.122E-03    1.22       9.6  T
   5   -127.9964798 -0.183365E-06  0.454E-04    1.22      25.6  T
   6   -127.9964798 -0.125878E-07  0.216E-04    1.22      53.9  T
     SCC iter.                  ...        0 min,  0.054 sec
     gradient                   ...        0 min,  0.073 sec
 * total energy  :  -125.7794304 Eh     change       -0.5947851E-04 Eh
   gradient norm :     0.0018028 Eh/α   predicted    -0.2475716E-04 ( -58.38%)
   displ. norm   :     0.1943787 α      lambda       -0.3874419E-04
   maximum displ.:     0.1345192 α      in ANC's #1, #7, #5, ...

........................................................................
.............................. CYCLE   41 ..............................
........................................................................
   1   -127.9962219 -0.127996E+03  0.330E-02    1.22       0.0  T
   2   -127.9962221 -0.207962E-06  0.195E-02    1.22       1.0  T
   3   -127.9962210  0.105367E-05  0.340E-03    1.22       3.4  T
   4   -127.9962221 -0.113219E-05  0.774E-04    1.22      15.0  T
   5   -127.9962222 -0.612971E-07  0.327E-04    1.22      35.6  T
   6   -127.9962222 -0.546142E-08  0.174E-04    1.22      66.8  T
     SCC iter.                  ...        0 min,  0.054 sec
     gradient                   ...        0 min,  0.073 sec
 * total energy  :  -125.7794783 Eh     change       -0.4790729E-04 Eh
   gradient norm :     0.0015070 Eh/α   predicted    -0.1969810E-04 ( -58.88%)
   displ. norm   :     0.1670703 α      lambda       -0.3240352E-04
   maximum displ.:     0.1174852 α      in ANC's #1, #5, #7, ...

........................................................................
.............................. CYCLE   42 ..............................
........................................................................
   1   -127.9954059 -0.127995E+03  0.276E-02    1.22       0.0  T
   2   -127.9954060 -0.138031E-06  0.162E-02    1.22       1.0  T
   3   -127.9954056  0.390649E-06  0.233E-03    1.22       5.0  T
   4   -127.9954061 -0.430558E-06  0.612E-04    1.22      19.0  T
   5   -127.9954061 -0.304672E-07  0.283E-04    1.22      41.1  T
     SCC iter.                  ...        0 min,  0.045 sec
     gradient                   ...        0 min,  0.073 sec
 * total energy  :  -125.7795180 Eh     change       -0.3968199E-04 Eh
   gradient norm :     0.0012073 Eh/α   predicted    -0.1640645E-04 ( -58.66%)
   displ. norm   :     0.1474867 α      lambda       -0.2875839E-04
   maximum displ.:     0.1027340 α      in ANC's #1, #5, #6, ...
 * RMSD in coord.:     0.6660226 α      energy gain  -0.7917964E-02 Eh

generating ANC from model Hessian ...
Using Lindh-Hessian (1995)
 Shifting diagonal of input Hessian by    1.0072414159339904E-002
 Lowest  eigenvalues of input Hessian
    0.010000    0.010055    0.000000    0.000000    0.000000    0.000000
    0.000000    0.000000    0.010101    0.010382    0.011046    0.011134
    0.011620    0.012283    0.012502    0.012867    0.013166    0.013273
 Highest eigenvalues
    2.148108    2.149438    2.149796    2.153736    2.155017    2.653971


........................................................................
.............................. CYCLE   43 ..............................
........................................................................
   1   -127.9951870 -0.127995E+03  0.248E-02    1.22       0.0  T
   2   -127.9951871 -0.705524E-07  0.146E-02    1.22       1.0  T
   3   -127.9951859  0.113483E-05  0.296E-03    1.22       3.9  T
   4   -127.9951871 -0.116127E-05  0.706E-04    1.22      16.5  T
   5   -127.9951871 -0.624005E-07  0.238E-04    1.22      48.8  T
   6   -127.9951871 -0.108332E-08  0.132E-04    1.22      88.2  T
     SCC iter.                  ...        0 min,  0.053 sec
     gradient                   ...        0 min,  0.073 sec
 * total energy  :  -125.7795525 Eh     change       -0.3449084E-04 Eh
   gradient norm :     0.0012163 Eh/α   predicted     0.0000000E+00 (-100.00%)
   displ. norm   :     0.0577949 α      lambda       -0.1478764E-05
   maximum displ.:     0.0421024 α      in ANC's #1, #7, #11, ...

........................................................................
.............................. CYCLE   44 ..............................
........................................................................
   1   -127.9952543 -0.127995E+03  0.117E-02    1.22       0.0  T
   2   -127.9952543 -0.287577E-07  0.691E-03    1.22       1.7  T
   3   -127.9952541  0.208541E-06  0.145E-03    1.22       8.0  T
   4   -127.9952543 -0.219265E-06  0.362E-04    1.22      32.1  T
   5   -127.9952543 -0.127470E-07  0.134E-04    1.22      86.7  T
     SCC iter.                  ...        0 min,  0.045 sec
     gradient                   ...        0 min,  0.073 sec
 * total energy  :  -125.7795780 Eh     change       -0.2549612E-04 Eh
   gradient norm :     0.0006861 Eh/α   predicted    -0.9756637E-05 ( -61.73%)
   displ. norm   :     0.1667714 α      lambda       -0.4510942E-04
   maximum displ.:     0.1090350 α      in ANC's #1, #7, #11, ...

........................................................................
.............................. CYCLE   45 ..............................
........................................................................
   1   -127.9956245 -0.127996E+03  0.329E-02    1.23       0.0  T
   2   -127.9956247 -0.212946E-06  0.195E-02    1.23       1.0  T
   3   -127.9956229  0.182156E-05  0.412E-03    1.23       2.8  T
   4   -127.9956248 -0.187553E-05  0.107E-03    1.23      10.9  T
   5   -127.9956249 -0.136742E-06  0.374E-04    1.23      31.1  T
   6   -127.9956249 -0.583472E-08  0.208E-04    1.23      55.8  T
     SCC iter.                  ...        0 min,  0.053 sec
     gradient                   ...        0 min,  0.073 sec
 * total energy  :  -125.7796326 Eh     change       -0.5465426E-04 Eh
   gradient norm :     0.0014407 Eh/α   predicted    -0.2283904E-04 ( -58.21%)
   displ. norm   :     0.2295649 α      lambda       -0.4690215E-04
   maximum displ.:     0.1545351 α      in ANC's #1, #7, #11, ...

........................................................................
.............................. CYCLE   46 ..............................
........................................................................
   1   -127.9963440 -0.127996E+03  0.418E-02    1.23       0.0  T
   2   -127.9963442 -0.253524E-06  0.248E-02    1.23       1.0  T
   3   -127.9963394  0.483024E-05  0.599E-03    1.23       1.9  T
   4   -127.9963442 -0.480516E-05  0.168E-03    1.23       6.9  T
   5   -127.9963446 -0.394672E-06  0.454E-04    1.23      25.6  T
   6   -127.9963446 -0.651120E-08  0.251E-04    1.23      46.4  T
     SCC iter.                  ...        0 min,  0.055 sec
     gradient                   ...        0 min,  0.073 sec
 * total energy  :  -125.7796855 Eh     change       -0.5284840E-04 Eh
   gradient norm :     0.0015460 Eh/α   predicted    -0.2400119E-04 ( -54.58%)
   displ. norm   :     0.1786840 α      lambda       -0.3103722E-04
   maximum displ.:     0.1287445 α      in ANC's #1, #7, #6, ...

........................................................................
.............................. CYCLE   47 ..............................
........................................................................
   1   -127.9968403 -0.127997E+03  0.299E-02    1.23       0.0  T
   2   -127.9968404 -0.112572E-06  0.177E-02    1.23       1.0  T
   3   -127.9968378  0.261662E-05  0.441E-03    1.23       2.6  T
   4   -127.9968404 -0.262875E-05  0.113E-03    1.23      10.2  T
   5   -127.9968406 -0.185347E-06  0.309E-04    1.23      37.7  T
   6   -127.9968406 -0.304784E-08  0.159E-04    1.23      73.2  T
     SCC iter.                  ...        0 min,  0.053 sec
     gradient                   ...        0 min,  0.073 sec
 * total energy  :  -125.7797233 Eh     change       -0.3782185E-04 Eh
   gradient norm :     0.0012514 Eh/α   predicted    -0.1574551E-04 ( -58.37%)
   displ. norm   :     0.1364216 α      lambda       -0.2655411E-04
   maximum displ.:     0.1034121 α      in ANC's #1, #7, #6, ...

........................................................................
.............................. CYCLE   48 ..............................
........................................................................
   1   -127.9969820 -0.127997E+03  0.235E-02    1.23       0.0  T
   2   -127.9969821 -0.468072E-07  0.138E-02    1.23       1.0  T
   3   -127.9969811  0.978715E-06  0.273E-03    1.23       4.3  T
   4   -127.9969821 -0.100415E-05  0.605E-04    1.23      19.2  T
   5   -127.9969821 -0.492808E-07  0.202E-04    1.23      57.7  T
   6   -127.9969821 -0.310024E-09  0.111E-04    1.23     104.8  T
     SCC iter.                  ...        0 min,  0.053 sec
     gradient                   ...        0 min,  0.073 sec
 * total energy  :  -125.7797589 Eh     change       -0.3564139E-04 Eh
   gradient norm :     0.0007997 Eh/α   predicted    -0.1338839E-04 ( -62.44%)
   displ. norm   :     0.1494853 α      lambda       -0.3192069E-04
   maximum displ.:     0.1134683 α      in ANC's #1, #2, #5, ...

........................................................................
.............................. CYCLE   49 ..............................
........................................................................
   1   -127.9967975 -0.127997E+03  0.265E-02    1.23       0.0  T
   2   -127.9967976 -0.900299E-07  0.156E-02    1.23       1.0  T
   3   -127.9967973  0.290471E-06  0.199E-03    1.23       5.8  T
   4   -127.9967976 -0.308956E-06  0.560E-04    1.23      20.8  T
   5   -127.9967976 -0.299131E-07  0.250E-04    1.23      46.4  T
     SCC iter.                  ...        0 min,  0.045 sec
     gradient                   ...        0 min,  0.073 sec
 * total energy  :  -125.7798008 Eh     change       -0.4183027E-04 Eh
   gradient norm :     0.0006953 Eh/α   predicted    -0.1612010E-04 ( -61.46%)
   displ. norm   :     0.1692163 α      lambda       -0.3113256E-04
   maximum displ.:     0.1282470 α      in ANC's #1, #2, #3, ...

........................................................................
.............................. CYCLE   50 ..............................
........................................................................
   1   -127.9961108 -0.127996E+03  0.297E-02    1.23       0.0  T
   2   -127.9961109 -0.110277E-06  0.174E-02    1.23       1.0  T
   3   -127.9961105  0.391083E-06  0.213E-03    1.23       5.5  T
   4   -127.9961109 -0.395547E-06  0.702E-04    1.23      16.6  T
   5   -127.9961109 -0.554713E-07  0.272E-04    1.23      42.7  T
     SCC iter.                  ...        0 min,  0.045 sec
     gradient                   ...        0 min,  0.073 sec
 * total energy  :  -125.7798406 Eh     change       -0.3985783E-04 Eh
   gradient norm :     0.0008434 Eh/α   predicted    -0.1576852E-04 ( -60.44%)
   displ. norm   :     0.1480531 α      lambda       -0.2279888E-04
   maximum displ.:     0.1135727 α      in ANC's #1, #2, #3, ...

........................................................................
.............................. CYCLE   51 ..............................
........................................................................
   1   -127.9957849 -0.127996E+03  0.241E-02    1.23       0.0  T
   2   -127.9957850 -0.725420E-07  0.141E-02    1.23       1.0  T
   3   -127.9957849  0.123678E-06  0.149E-03    1.23       7.8  T
   4   -127.9957850 -0.153874E-06  0.360E-04    1.23      32.3  T
   5   -127.9957850 -0.561661E-08  0.200E-04    1.23      58.1  T
     SCC iter.                  ...        0 min,  0.045 sec
     gradient                   ...        0 min,  0.073 sec
 * total energy  :  -125.7798712 Eh     change       -0.3061384E-04 Eh
   gradient norm :     0.0009355 Eh/α   predicted    -0.1151200E-04 ( -62.40%)
   displ. norm   :     0.1275992 α      lambda       -0.1961641E-04
   maximum displ.:     0.0975007 α      in ANC's #1, #2, #3, ...

........................................................................
.............................. CYCLE   52 ..............................
........................................................................
   1   -127.9957434 -0.127996E+03  0.201E-02    1.23       0.0  T
   2   -127.9957434 -0.401803E-07  0.118E-02    1.23       1.0  T
   3   -127.9957434  0.562087E-07  0.969E-04    1.23      12.0  T
   4   -127.9957435 -0.729955E-07  0.277E-04    1.23      41.9  T
     SCC iter.                  ...        0 min,  0.036 sec
     gradient                   ...        0 min,  0.073 sec
 * total energy  :  -125.7798991 Eh     change       -0.2786877E-04 Eh
   gradient norm :     0.0009522 Eh/α   predicted    -0.9882185E-05 ( -64.54%)
   displ. norm   :     0.1444252 α      lambda       -0.2402662E-04
   maximum displ.:     0.1072126 α      in ANC's #1, #2, #3, ...

........................................................................
.............................. CYCLE   53 ..............................
........................................................................
   1   -127.9957689 -0.127996E+03  0.221E-02    1.23       0.0  T
   2   -127.9957690 -0.393212E-07  0.130E-02    1.23       1.0  T
   3   -127.9957688  0.158589E-06  0.131E-03    1.23       8.9  T
   4   -127.9957690 -0.177855E-06  0.334E-04    1.23      34.8  T
   5   -127.9957690 -0.771557E-08  0.171E-04    1.23      67.8  T
     SCC iter.                  ...        0 min,  0.046 sec
     gradient                   ...        0 min,  0.073 sec
 * total energy  :  -125.7799339 Eh     change       -0.3477584E-04 Eh
   gradient norm :     0.0009073 Eh/α   predicted    -0.1212710E-04 ( -65.13%)
   displ. norm   :     0.2086018 α      lambda       -0.3592138E-04
   maximum displ.:     0.1499385 α      in ANC's #1, #2, #3, ...

........................................................................
.............................. CYCLE   54 ..............................
........................................................................
   1   -127.9959925 -0.127996E+03  0.321E-02    1.23       0.0  T
   2   -127.9959926 -0.801957E-07  0.189E-02    1.23       1.0  T
   3   -127.9959923  0.307720E-06  0.174E-03    1.23       6.7  T
   4   -127.9959926 -0.346317E-06  0.464E-04    1.23      25.1  T
   5   -127.9959927 -0.157802E-07  0.247E-04    1.23      47.0  T
     SCC iter.                  ...        0 min,  0.045 sec
     gradient                   ...        0 min,  0.073 sec
 * total energy  :  -125.7799853 Eh     change       -0.5141889E-04 Eh
   gradient norm :     0.0009250 Eh/α   predicted    -0.1831258E-04 ( -64.39%)
   displ. norm   :     0.3145766 α      lambda       -0.5251686E-04
   maximum displ.:     0.2219341 α      in ANC's #1, #2, #3, ...

........................................................................
.............................. CYCLE   55 ..............................
........................................................................
   1   -127.9961350 -0.127996E+03  0.473E-02    1.23       0.0  T
   2   -127.9961351 -0.172723E-06  0.278E-02    1.23       1.0  T
   3   -127.9961346  0.554928E-06  0.233E-03    1.23       5.0  T
   4   -127.9961352 -0.633620E-06  0.671E-04    1.23      17.3  T
   5   -127.9961352 -0.319643E-07  0.371E-04    1.23      31.3  T
     SCC iter.                  ...        0 min,  0.045 sec
     gradient                   ...        0 min,  0.073 sec
 * total energy  :  -125.7800592 Eh     change       -0.7393669E-04 Eh
   gradient norm :     0.0008938 Eh/α   predicted    -0.2741379E-04 ( -62.92%)
   displ. norm   :     0.4236863 α      lambda       -0.6593196E-04
   maximum displ.:     0.2966294 α      in ANC's #1, #2, #3, ...

........................................................................
.............................. CYCLE   56 ..............................
........................................................................
   1   -127.9961896 -0.127996E+03  0.628E-02    1.23       0.0  T
   2   -127.9961899 -0.290611E-06  0.369E-02    1.23       1.0  T
   3   -127.9961888  0.106565E-05  0.310E-03    1.23       3.7  T
   4   -127.9961900 -0.121441E-05  0.860E-04    1.23      13.5  T
   5   -127.9961901 -0.497942E-07  0.487E-04    1.23      23.9  T
   6   -127.9961901 -0.889655E-08  0.190E-04    1.23      61.2  T
     SCC iter.                  ...        0 min,  0.053 sec
     gradient                   ...        0 min,  0.080 sec
 * total energy  :  -125.7801508 Eh     change       -0.9158525E-04 Eh
   gradient norm :     0.0009483 Eh/α   predicted    -0.3560094E-04 ( -61.13%)
   displ. norm   :     0.4838894 α      lambda       -0.6960998E-04
   maximum displ.:     0.3380666 α      in ANC's #1, #2, #3, ...

........................................................................
.............................. CYCLE   57 ..............................
........................................................................
   1   -127.9962413 -0.127996E+03  0.696E-02    1.23       0.0  T
   2   -127.9962416 -0.351511E-06  0.408E-02    1.23       1.0  T
   3   -127.9962399  0.172572E-05  0.373E-03    1.24       3.1  T
   4   -127.9962418 -0.189397E-05  0.102E-03    1.23      11.4  T
   5   -127.9962419 -0.892936E-07  0.527E-04    1.23      22.0  T
   6   -127.9962419 -0.107192E-07  0.170E-04    1.23      68.3  T
     SCC iter.                  ...        0 min,  0.053 sec
     gradient                   ...        0 min,  0.073 sec
 * total energy  :  -125.7802469 Eh     change       -0.9604751E-04 Eh
   gradient norm :     0.0010976 Eh/α   predicted    -0.3842884E-04 ( -59.99%)
   displ. norm   :     0.5011527 α      lambda       -0.6744103E-04
   maximum displ.:     0.3502150 α      in ANC's #1, #2, #3, ...

........................................................................
.............................. CYCLE   58 ..............................
........................................................................
   1   -127.9962014 -0.127996E+03  0.714E-02    1.24       0.0  T
   2   -127.9962018 -0.372693E-06  0.419E-02    1.24       1.0  T
   3   -127.9962003  0.156530E-05  0.354E-03    1.24       3.3  T
   4   -127.9962020 -0.174761E-05  0.100E-03    1.24      11.6  T
   5   -127.9962021 -0.804711E-07  0.544E-04    1.24      21.4  T
   6   -127.9962021 -0.110823E-07  0.190E-04    1.24      61.1  T
     SCC iter.                  ...        0 min,  0.053 sec
     gradient                   ...        0 min,  0.073 sec
 * total energy  :  -125.7803398 Eh     change       -0.9291128E-04 Eh
   gradient norm :     0.0012504 Eh/α   predicted    -0.3748577E-04 ( -59.65%)
   displ. norm   :     0.5059900 α      lambda       -0.6447444E-04
   maximum displ.:     0.3544730 α      in ANC's #1, #2, #3, ...

........................................................................
.............................. CYCLE   59 ..............................
........................................................................
   1   -127.9963746 -0.127996E+03  0.704E-02    1.24       0.0  T
   2   -127.9963750 -0.376519E-06  0.413E-02    1.24       1.0  T
   3   -127.9963738  0.119998E-05  0.322E-03    1.24       3.6  T
   4   -127.9963751 -0.136932E-05  0.944E-04    1.24      12.3  T
   5   -127.9963752 -0.674701E-07  0.510E-04    1.24      22.8  T
   6   -127.9963752 -0.117945E-07  0.175E-04    1.24      66.5  T
     SCC iter.                  ...        0 min,  0.053 sec
     gradient                   ...        0 min,  0.073 sec
 * total energy  :  -125.7804288 Eh     change       -0.8906934E-04 Eh
   gradient norm :     0.0012893 Eh/α   predicted    -0.3590887E-04 ( -59.68%)
   displ. norm   :     0.5180056 α      lambda       -0.6308176E-04
   maximum displ.:     0.3642963 α      in ANC's #1, #2, #3, ...

........................................................................
.............................. CYCLE   60 ..............................
........................................................................
   1   -127.9963807 -0.127996E+03  0.722E-02    1.24       0.0  T
   2   -127.9963811 -0.395285E-06  0.423E-02    1.24       1.0  T
   3   -127.9963802  0.843067E-06  0.276E-03    1.24       4.2  T
   4   -127.9963812 -0.101123E-05  0.924E-04    1.24      12.6  T
   5   -127.9963813 -0.600240E-07  0.506E-04    1.24      23.0  T
   6   -127.9963813 -0.105618E-07  0.198E-04    1.24      58.6  T
     SCC iter.                  ...        0 min,  0.055 sec
     gradient                   ...        0 min,  0.073 sec
 * total energy  :  -125.7805160 Eh     change       -0.8717642E-04 Eh
   gradient norm :     0.0013746 Eh/α   predicted    -0.3530628E-04 ( -59.50%)
   displ. norm   :     0.5517641 α      lambda       -0.6495214E-04
   maximum displ.:     0.3896587 α      in ANC's #1, #2, #3, ...

........................................................................
.............................. CYCLE   61 ..............................
........................................................................
   1   -127.9962929 -0.127996E+03  0.769E-02    1.24       0.0  T
   2   -127.9962933 -0.447806E-06  0.451E-02    1.24       1.0  T
   3   -127.9962924  0.927914E-06  0.289E-03    1.24       4.0  T
   4   -127.9962935 -0.111398E-05  0.981E-04    1.24      11.8  T
   5   -127.9962936 -0.719945E-07  0.489E-04    1.24      23.8  T
   6   -127.9962936 -0.667178E-08  0.209E-04    1.24      55.5  T
     SCC iter.                  ...        0 min,  0.053 sec
     gradient                   ...        0 min,  0.074 sec
 * total energy  :  -125.7806051 Eh     change       -0.8911946E-04 Eh
   gradient norm :     0.0014120 Eh/α   predicted    -0.3687096E-04 ( -58.63%)
   displ. norm   :     0.6098511 α      lambda       -0.6911824E-04
   maximum displ.:     0.4330181 α      in ANC's #1, #2, #3, ...

........................................................................
.............................. CYCLE   62 ..............................
........................................................................
   1   -127.9962274 -0.127996E+03  0.861E-02    1.24       0.0  T
[...]
    47   6 C       48   7 N                                       1.3623077
    47   6 C       49   6 C                                       1.3849925
    49   6 C       50   6 C                                       1.3847860
    50   6 C       51   6 C                                       1.4378949
    51   6 C       52   6 C                                       1.3533227
    52   6 C       53   6 C                                       1.4381753
    39  30 Zn      54   7 N                                       2.0243518
    50   6 C       54   7 N                                       1.3588631
    53   6 C       54   7 N                                       1.3586444
    53   6 C       55   6 C                                       1.3853107
    55   6 C       56   6 C                                       1.3853778
    56   6 C       57   6 C                                       1.4382302
    57   6 C       58   6 C                                       1.3532922
    58   6 C       59   6 C                                       1.4378494
    39  30 Zn      60   7 N                                       2.0244722 (max)
    56   6 C       60   7 N                                       1.3585510
    59   6 C       60   7 N                                       1.3589620
    59   6 C       61   6 C                                       1.3847764
    40   6 C       62   6 C                                       1.4356052
    61   6 C       62   6 C                                       1.3850766
    42   6 C       63   7 N                                       1.3550734
    62   6 C       63   7 N                                       1.3623613
    40   6 C       64   1 H                                       1.0730127
    41   6 C       65   1 H                                       1.0727464
    45   6 C       66   1 H                                       1.0726834
    46   6 C       67   1 H                                       1.0730023
    49   6 C       68   1 H                                       1.0811597
    51   6 C       69   1 H                                       1.0731732
    52   6 C       70   1 H                                       1.0731653
    55   6 C       71   1 H                                       1.0809881
    57   6 C       72   1 H                                       1.0731872
    58   6 C       73   1 H                                       1.0731797
    61   6 C       74   1 H                                       1.0811933

 * 4 distinct bonds (by element types)

   Z      Z             #   av. dist./Å        max./Å        min./Å
   1 H    6 C          22     1.0752261     1.0812222     1.0726737
   6 C    6 C          41     1.3967358     1.4382437     1.2126060
   6 C    7 N          16     1.3587222     1.3623613     1.3550286
   7 N   30 Zn          4     2.0244035     2.0244722     2.0243518

           -------------------------------------------------
          |               Frequency Printout                |
           -------------------------------------------------
 projected vibrational frequencies (cm⁻¹)
eigval :       -0.00    -0.00    -0.00     0.00     0.00     0.00
eigval :       11.00    11.44    12.23    31.74    41.85    46.49
eigval :       48.52    67.05    70.80    74.86    81.14    90.59
eigval :      123.57   127.98   133.10   139.16   166.52   168.07
eigval :      181.02   181.60   185.36   194.67   195.01   196.96
eigval :      197.05   198.70   198.79   199.85   202.65   203.33
eigval :      215.00   252.50   253.06   262.89   264.77   306.10
eigval :      321.80   322.08   323.51   337.75   339.12   353.70
eigval :      357.46   366.90   369.89   372.67   377.11   385.18
eigval :      386.66   395.88   398.00   398.98   426.09   427.65
eigval :      431.96   432.75   459.77   460.00   505.65   519.62
eigval :      603.36   624.16   626.35   628.15   628.70   631.41
eigval :      631.54   646.41   646.70   648.11   648.71   660.84
eigval :      661.01   663.36   663.39   674.04   677.26   721.14
eigval :      722.21   731.19   731.25   759.49   761.49   762.92
eigval :      766.00   775.86   776.38   780.42   781.31   793.26
eigval :      799.49   799.76   804.82   807.24   808.48   812.69
eigval :      814.76   819.87   821.83   829.25   830.46   836.26
eigval :      837.62   839.68   840.75   842.88   845.44   845.80
eigval :      846.94   847.79   848.23   853.00   854.96   891.45
eigval :      959.89   990.48   991.47  1003.07  1003.94  1020.46
eigval :     1024.31  1025.25  1026.14  1035.23  1036.48  1037.28
eigval :     1037.86  1044.98  1046.87  1062.85  1064.44  1067.83
eigval :     1068.21  1070.06  1071.54  1073.16  1075.10  1096.03
eigval :     1143.53  1155.55  1155.58  1163.64  1169.78  1176.04
eigval :     1177.74  1186.53  1223.97  1226.37  1239.09  1240.70
eigval :     1284.67  1287.65  1295.62  1300.98  1301.13  1303.33
eigval :     1317.45  1318.25  1333.58  1334.13  1342.88  1343.57
eigval :     1344.64  1348.93  1354.26  1366.90  1367.22  1367.31
eigval :     1371.12  1444.10  1449.05  1450.30  1459.28  1472.67
eigval :     1482.10  1496.59  1501.18  1507.85  1508.56  1515.11
eigval :     1517.00  1520.23  1527.13  1531.74  1532.29  1549.63
eigval :     1551.49  1555.87  1555.98  1564.71  1565.37  1599.30
eigval :     1599.63  2265.13  3077.50  3077.86  3078.07  3078.39
eigval :     3079.46  3079.85  3146.21  3146.28  3146.60  3146.65
eigval :     3151.00  3151.42  3151.46  3151.78  3159.92  3160.00
eigval :     3160.64  3161.25  3165.82  3166.49  3167.25  3168.02
 reduced masses (amu)
   1: 18.52   2: 19.68   3: 16.52   4: 18.84   5: 19.86   6: 19.57   7: 11.28   8: 11.36
   9: 11.35  10: 13.75  11: 10.98  12: 12.57  13: 11.11  14: 16.97  15: 31.41  16: 34.56
  17: 23.73  18: 17.47  19: 11.12  20: 10.71  21: 10.77  22: 11.23  23: 27.27  24: 27.68
  25: 12.40  26: 12.23  27: 13.76  28: 25.10  29: 53.46  30: 49.75  31: 52.60  32: 40.61
  33: 12.82  34: 13.02  35: 12.11  36: 12.27  37: 12.10  38: 12.96  39: 11.70  40: 10.45
  41: 10.48  42: 11.89  43: 11.86  44: 11.70  45: 11.90  46: 12.02  47: 12.07  48: 10.21
  49: 11.72  50: 12.05  51: 10.95  52: 12.78  53: 12.58  54: 11.73  55: 11.68  56: 11.49
  57:  9.92  58:  9.94  59: 10.24  60: 10.30  61:  9.85  62:  9.90  63: 11.86  64: 11.88
  65: 11.59  66: 11.56  67: 11.71  68: 11.04  69: 11.19  70: 10.87  71: 10.83  72: 10.78
  73: 10.79  74: 11.18  75: 11.20  76: 10.89  77: 10.91  78: 11.21  79: 11.22  80: 11.22
  81: 11.24  82: 11.45  83: 11.34  84: 11.13  85: 11.08  86: 10.84  87: 10.84  88: 11.17
  89: 11.17  90: 11.24  91: 11.31  92: 11.38  93: 11.35  94: 11.06  95: 11.02  96: 11.72
  97:  3.77  98:  3.88  99: 11.51 100:  3.98 101:  3.91 102:  4.13 103:  4.06 104:  4.40
 105:  4.32 106:  3.85 107:  3.89 108:  3.89 109:  3.91 110:  4.08 111:  4.18 112:  3.40
 113:  3.57 114:  3.54 115:  3.62 116:  3.61 117:  3.64 118:  3.45 119:  3.40 120: 11.18
 121: 11.49 122: 11.96 123: 11.85 124: 11.59 125: 11.73 126: 11.46 127:  7.34 128: 10.61
 129:  7.33 130:  9.03 131:  9.31 132:  9.04 133:  8.93 134: 10.93 135: 10.67 136:  2.38
 137:  2.01 138:  1.96 139:  2.03 140:  2.00 141:  2.19 142:  1.93 143:  2.19 144:  8.71
 145:  5.53 146:  5.60 147:  5.60 148:  6.38 149:  6.37 150:  7.09 151:  7.09 152:  8.24
 153:  8.74 154:  8.78 155:  8.69 156:  8.75 157:  9.70 158:  9.48 159: 11.02 160:  9.93
 161: 10.00 162: 10.78 163: 11.33 164: 11.31 165: 11.52 166: 11.65 167:  9.56 168:  9.61
 169: 11.72 170: 12.14 171: 11.17 172:  9.51 173:  9.05 174:  9.05 175: 10.28 176: 11.48
 177: 11.48 178: 11.47 179: 11.45 180: 11.71 181: 11.82 182: 11.77 183: 11.75 184: 11.50
 185: 11.47 186: 11.81 187: 11.85 188: 11.73 189: 11.83 190: 11.66 191: 11.65 192: 11.61
 193: 11.63 194: 11.56 195: 11.56 196: 11.58 197: 11.58 198: 11.77 199: 11.77 200: 12.01
 201:  1.81 202:  1.81 203:  1.81 204:  1.81 205:  1.81 206:  1.81 207:  1.81 208:  1.81
 209:  1.81 210:  1.81 211:  1.81 212:  1.82 213:  1.82 214:  1.82 215:  1.97 216:  1.97
 217:  1.97 218:  1.97 219:  1.96 220:  1.96 221:  1.96 222:  1.96
 IR intensities (km·mol⁻¹)
   1:  0.04   2:  0.04   3:  1.46   4:  0.72   5:  0.47   6:  1.19   7:  0.02   8:  1.22
   9:  1.29  10:  0.11  11:  1.64  12:  0.82  13:  0.33  14:  0.80  15:  2.19  16:  0.41
  17:  0.00  18:  6.14  19:  0.13  20:  0.25  21:  0.16  22:  0.16  23: 40.19  24: 18.39
  25:  0.10  26:  0.32  27:  0.12  28:  0.48  29:  4.18  30:  0.08  31:  4.42  32:  0.69
  33:  0.59  34:  0.01  35:  0.01  36:  0.00  37:  1.03  38:  0.69  39: 10.08  40:  2.60
  41:  0.79  42:  1.02  43: 15.45  44:  0.17  45:  0.71  46:  0.00  47:  0.19  48:  7.13
  49: 17.61  50:  3.30  51: 28.95  52:  0.25  53: 21.83  54:  0.80  55: 18.71  56:  0.02
  57:  0.11  58:  0.04  59:  0.35  60:  0.01  61:  4.55  62: 54.85  63:  0.41  64:  0.37
  65: 11.99  66: 10.25  67: 12.56  68: 15.72  69:  0.11  70:  0.82  71:  0.26  72:  0.07
  73:  0.30  74:  6.10  75:  0.03  76: 16.10  77:  0.68  78:  0.14  79:  0.00  80: 34.97
  81:  3.01  82:  3.79  83:  5.41  84:  0.00  85: 11.83  86:  0.20  87:  2.82  88:  0.01
  89:  1.50  90:  0.01  91:  4.53  92:  1.47  93: 22.27  94:  0.00  95:  0.81  96:  0.14
  97: 38.45  98:  2.37  99: 13.96 100:  0.14 101:  0.03 102: 11.47 103:  0.01 104:  0.82
 105:  0.02 106:  2.84 107:  3.67 108:  0.37 109:  0.04 110:120.85 111: 32.06 112:  0.23
 113:  0.10 114:  8.44 115:  0.10 116: 19.17 117:  0.08 118:  0.79 119: 16.24 120:  0.03
 121:  8.44 122:  0.00 123: 55.12 124:  5.76 125: 47.09 126:  0.00 127:  0.24 128:  1.95
 129:  0.22 130:  3.93 131: 44.76 132:  4.04 133:  0.00 134:  3.64 135: 28.32 136:  0.80
 137:  0.26 138: 11.03 139:  1.44 140:  0.00 141: 15.79 142: 12.02 143:  0.00 144:  0.00
 145: 39.90 146:  5.69 147: 23.59 148:  0.01 149: 40.27 150:  0.87 151: 11.41 152:  0.00
 153:  0.01 154:  0.05 155: 18.14 156:  0.00 157:  1.33 158: 17.80 159: 40.17 160:  0.40
 161:  4.83 162:  0.00 163:  0.68 164: 11.60 165:  0.00 166:  0.01 167:  0.05 168:  1.35
Refinement of some symmetry elements was terminated before convergence was reached.
Some symmetry elements may remain unidentified.
Molecule has the following symmetry elements: (C2) 
It seems to be the C2 point group
 169: 56.32 170:  0.00 171:  0.33 172:  0.00 173:  0.12 174:  0.49 175: 64.96 176:  0.04
 177:  0.95 178: 17.02 179:  0.40 180:  0.04 181:  6.05 182:  0.00 183:  4.81 184:  0.44
 185:  1.68 186:  0.06 187:  4.66 188:  0.03 189:  0.02 190:  9.44 191:131.10 192:  0.01
 193: 16.11 194:  2.30 195: 37.90 196:122.56 197:  0.14 198:  0.67 199:  7.80 200:  0.00
 201:  0.29 202:  0.47 203:  1.14 204:  0.60 205:  4.10 206: 19.84 207: 19.65 208: 22.00
 209: 25.83 210: 22.32 211:130.33 212: 28.34 213:  6.48 214:  8.99 215: 81.65 216:253.99
 217:415.15 218:  1.03 219:126.53 220: 41.68 221: 16.40 222: 15.51
 Raman intensities (amu)
   1:  0.00   2:  0.00   3:  0.00   4:  0.00   5:  0.00   6:  0.00   7:  0.00   8:  0.00
   9:  0.00  10:  0.00  11:  0.00  12:  0.00  13:  0.00  14:  0.00  15:  0.00  16:  0.00
  17:  0.00  18:  0.00  19:  0.00  20:  0.00  21:  0.00  22:  0.00  23:  0.00  24:  0.00
  25:  0.00  26:  0.00  27:  0.00  28:  0.00  29:  0.00  30:  0.00  31:  0.00  32:  0.00
  33:  0.00  34:  0.00  35:  0.00  36:  0.00  37:  0.00  38:  0.00  39:  0.00  40:  0.00
  41:  0.00  42:  0.00  43:  0.00  44:  0.00  45:  0.00  46:  0.00  47:  0.00  48:  0.00
  49:  0.00  50:  0.00  51:  0.00  52:  0.00  53:  0.00  54:  0.00  55:  0.00  56:  0.00
  57:  0.00  58:  0.00  59:  0.00  60:  0.00  61:  0.00  62:  0.00  63:  0.00  64:  0.00
  65:  0.00  66:  0.00  67:  0.00  68:  0.00  69:  0.00  70:  0.00  71:  0.00  72:  0.00
  73:  0.00  74:  0.00  75:  0.00  76:  0.00  77:  0.00  78:  0.00  79:  0.00  80:  0.00
  81:  0.00  82:  0.00  83:  0.00  84:  0.00  85:  0.00  86:  0.00  87:  0.00  88:  0.00
  89:  0.00  90:  0.00  91:  0.00  92:  0.00  93:  0.00  94:  0.00  95:  0.00  96:  0.00
  97:  0.00  98:  0.00  99:  0.00 100:  0.00 101:  0.00 102:  0.00 103:  0.00 104:  0.00
 105:  0.00 106:  0.00 107:  0.00 108:  0.00 109:  0.00 110:  0.00 111:  0.00 112:  0.00
 113:  0.00 114:  0.00 115:  0.00 116:  0.00 117:  0.00 118:  0.00 119:  0.00 120:  0.00
 121:  0.00 122:  0.00 123:  0.00 124:  0.00 125:  0.00 126:  0.00 127:  0.00 128:  0.00
 129:  0.00 130:  0.00 131:  0.00 132:  0.00 133:  0.00 134:  0.00 135:  0.00 136:  0.00
 137:  0.00 138:  0.00 139:  0.00 140:  0.00 141:  0.00 142:  0.00 143:  0.00 144:  0.00
 145:  0.00 146:  0.00 147:  0.00 148:  0.00 149:  0.00 150:  0.00 151:  0.00 152:  0.00
 153:  0.00 154:  0.00 155:  0.00 156:  0.00 157:  0.00 158:  0.00 159:  0.00 160:  0.00
 161:  0.00 162:  0.00 163:  0.00 164:  0.00 165:  0.00 166:  0.00 167:  0.00 168:  0.00
 169:  0.00 170:  0.00 171:  0.00 172:  0.00 173:  0.00 174:  0.00 175:  0.00 176:  0.00
 177:  0.00 178:  0.00 179:  0.00 180:  0.00 181:  0.00 182:  0.00 183:  0.00 184:  0.00
 185:  0.00 186:  0.00 187:  0.00 188:  0.00 189:  0.00 190:  0.00 191:  0.00 192:  0.00
 193:  0.00 194:  0.00 195:  0.00 196:  0.00 197:  0.00 198:  0.00 199:  0.00 200:  0.00
 201:  0.00 202:  0.00 203:  0.00 204:  0.00 205:  0.00 206:  0.00 207:  0.00 208:  0.00
 209:  0.00 210:  0.00 211:  0.00 212:  0.00 213:  0.00 214:  0.00 215:  0.00 216:  0.00
 217:  0.00 218:  0.00 219:  0.00 220:  0.00 221:  0.00 222:  0.00
 output can be read by thermo (or use thermo option).
 writing <g98.out> molden fake output.
 recommended (thermochemical) frequency scaling factor: 1.0
           -------------------------------------------------
          |             Thermodynamic Functions             |
           -------------------------------------------------

c2  symmetry found (for desy threshold:  0.10E+00) used in thermo

          ...................................................
          :                      SETUP                      :
          :.................................................:
          :  # frequencies                         216      :
          :  # imaginary freq.                       0      :
          :  linear?                             false      :
          :  only rotor calc.                    false      :
          :  symmetry                               c2      :
          :  rotational number                       2      :
          :  scaling factor                  1.0000000      :
          :  rotor cutoff                   50.0000000 cm⁻¹ :
          :  imag. cutoff                  -20.0000000 cm⁻¹ :
          :.................................................:

    mode    ω/cm⁻¹     T·S(HO)/kcal·mol⁻¹    T·S(FR)/kcal·mol⁻¹   T·S(vib)
   ------------------------------------------------------------------------
       1     11.00    -2.33190 (  0.23%)    -1.50501 ( 99.77%)    -1.50694
       2     11.44    -2.30873 (  0.27%)    -1.49342 ( 99.73%)    -1.49565
       3     12.23    -2.26943 (  0.36%)    -1.47377 ( 99.64%)    -1.47660
       4     31.74    -1.70478 ( 13.96%)    -1.19121 ( 86.04%)    -1.26292
       5     41.85    -1.54130 ( 32.92%)    -1.10926 ( 67.08%)    -1.25149
       6     46.49    -1.47919 ( 42.78%)    -1.07809 ( 57.22%)    -1.24968
       7     48.52    -1.45405 ( 46.99%)    -1.06546 ( 53.01%)    -1.24807
       8     67.05    -1.26363 ( 76.38%)    -0.96964 ( 23.62%)    -1.19418
       9     70.80    -1.23164 ( 80.08%)    -0.95350 ( 19.92%)    -1.17624
      10     74.86    -1.19892 ( 83.40%)    -0.93697 ( 16.60%)    -1.15545
      11     81.14    -1.15179 ( 87.40%)    -0.91313 ( 12.60%)    -1.12172
      12     90.59    -1.08747 ( 91.51%)    -0.88050 (  8.49%)    -1.06989
      13    123.57    -0.90748 ( 97.39%)    -0.78851 (  2.61%)    -0.90438
      14    127.98    -0.88735 ( 97.72%)    -0.77813 (  2.28%)    -0.88487
      15    133.10    -0.86484 ( 98.05%)    -0.76649 (  1.95%)    -0.86292
      16    139.16    -0.83942 ( 98.36%)    -0.75332 (  1.64%)    -0.83801
      17    166.52    -0.73774 ( 99.19%)    -0.70014 (  0.81%)    -0.73743
      18    168.07    -0.73254 ( 99.22%)    -0.69740 (  0.78%)    -0.73227
      19    181.02    -0.69106 ( 99.42%)    -0.67540 (  0.58%)    -0.69097
      20    181.60    -0.68930 ( 99.43%)    -0.67446 (  0.57%)    -0.68921
      21    185.36    -0.67792 ( 99.47%)    -0.66839 (  0.53%)    -0.67787
      22    194.67    -0.65084 ( 99.57%)    -0.65388 (  0.43%)    -0.65085
      23    195.01    -0.64987 ( 99.57%)    -0.65336 (  0.43%)    -0.64989
      24    196.96    -0.64440 ( 99.59%)    -0.65041 (  0.41%)    -0.64442
      25    197.05    -0.64414 ( 99.59%)    -0.65027 (  0.41%)    -0.64417
      26    198.70    -0.63955 ( 99.60%)    -0.64780 (  0.40%)    -0.63959
      27    198.79    -0.63932 ( 99.60%)    -0.64767 (  0.40%)    -0.63936
      28    199.85    -0.63639 ( 99.61%)    -0.64609 (  0.39%)    -0.63643
      29    202.65    -0.62877 ( 99.63%)    -0.64197 (  0.37%)    -0.62882
      30    203.33    -0.62695 ( 99.64%)    -0.64099 (  0.36%)    -0.62700
      31    215.00    -0.59654 ( 99.71%)    -0.62444 (  0.29%)    -0.59662
      32    252.50    -0.51075 ( 99.85%)    -0.57682 (  0.15%)    -0.51085
      33    253.06    -0.50959 ( 99.85%)    -0.57616 (  0.15%)    -0.50969
      34    262.89    -0.48971 ( 99.87%)    -0.56487 (  0.13%)    -0.48980
      35    264.77    -0.48602 ( 99.87%)    -0.56277 (  0.13%)    -0.48612
   ------------------------------------------------------------------------

   temp. (K)  partition function   enthalpy   heat capacity  entropy
                                   cal/mol     cal/K/mol   cal/K/mol   J/K/mol
 298.15  VIB  0.145E+18            23714.563    157.969    145.252
         ROT  0.646E+08              888.752      2.981     38.720
         INT  0.939E+25            24603.315    160.950    183.972
         TR   0.206E+29             1481.254      4.968     45.779
         TOT                       26084.5688   165.9177   229.7519   961.2821

       T/K    H(0)-H(T)+PV         H(T)/Eh          T*S/Eh         G(T)/Eh
   ------------------------------------------------------------------------
    298.15    0.415684E-01    0.560491E+00    0.109163E+00    0.451329E+00
   ------------------------------------------------------------------------

         :::::::::::::::::::::::::::::::::::::::::::::::::::::
         ::                  THERMODYNAMIC                  ::
         :::::::::::::::::::::::::::::::::::::::::::::::::::::
         :: total free energy        -125.329934514168 Eh   ::
         ::.................................................::
         :: total energy             -125.781263092976 Eh   ::
         :: zero point energy           0.518922736042 Eh   ::
         :: G(RRHO) w/o ZPVE           -0.067594157234 Eh   ::
         :: G(RRHO) contrib.            0.451328578808 Eh   ::
         :::::::::::::::::::::::::::::::::::::::::::::::::::::

optimized geometry written to: xtbopt.xyz


           -------------------------------------------------
          | TOTAL ENERGY             -125.781263092976 Eh   |
          | TOTAL ENTHALPY           -125.220771950559 Eh   |
          | TOTAL FREE ENERGY        -125.329934514168 Eh   |
          | GRADIENT NORM               0.000362857547 Eh/α |
          | HOMO-LUMO GAP               1.278334655032 eV   |
           -------------------------------------------------

------------------------------------------------------------------------
 * finished run on 2021/11/18 at 18:34:36.537     
------------------------------------------------------------------------
 total:
 * wall-time:     0 d,  0 h,  1 min, 46.443 sec
 *  cpu-time:     0 d,  0 h,  1 min, 46.440 sec
 * ratio c/w:     1.000 speedup
 SCF:
 * wall-time:     0 d,  0 h,  0 min,  0.277 sec
 *  cpu-time:     0 d,  0 h,  0 min,  0.277 sec
 * ratio c/w:     1.000 speedup
 ANC optimizer:
 * wall-time:     0 d,  0 h,  0 min, 13.667 sec
 *  cpu-time:     0 d,  0 h,  0 min, 13.663 sec
 * ratio c/w:     1.000 speedup
 analytical hessian:
 * wall-time:     0 d,  0 h,  1 min,  2.223 sec
 *  cpu-time:     0 d,  0 h,  1 min,  2.223 sec
 * ratio c/w:     1.000 speedup

