74
 energy: -124.824277145630 gnorm: 2.268686571401 xtb: 6.4.1 (bd6e46d)
Zn        9.61674700000000    0.02433600000000   -0.00470500000000
C        11.94573800000000   -3.12245800000000    1.31798400000000
C        12.86184500000000   -2.17825000000000    1.26770200000000
C        12.45066600000000   -1.12434600000000    0.34641000000000
C        13.06953600000000    0.00000000000000    0.00000000000000
C        12.36549400000000    1.21994800000000   -0.36410500000000
C        12.69360400000000    2.18000300000000   -1.21157900000000
C        11.65882500000000    3.19628900000000   -1.22847700000000
C        10.72255700000000    2.81982700000000   -0.38158500000000
N        11.12454700000000    1.58681600000000    0.18223200000000
C         9.46148200000000    3.46482600000000   -0.00243300000000
C         8.36626500000000    2.83004300000000    0.34832700000000
C         7.29264000000000    3.14799900000000    1.31735500000000
C         6.45507700000000    2.15124500000000    1.24018900000000
C         6.89337400000000    1.14756200000000    0.25973700000000
N         7.99831200000000    1.58641500000000   -0.22455600000000
C         6.28253900000000   -0.10570900000000   -0.15381100000000
C         6.94670000000000   -1.21021500000000   -0.40823600000000
C         6.57285100000000   -2.27315700000000   -1.36576300000000
C         7.52159800000000   -3.16691200000000   -1.27674400000000
C         8.50732200000000   -2.72946300000000   -0.29386600000000
N         8.15427600000000   -1.58365700000000    0.20293100000000
C         9.73821000000000   -3.38553300000000    0.15185500000000
C        10.86125200000000   -2.73967200000000    0.41897600000000
N        11.18985200000000   -1.49223100000000   -0.17942800000000
H        12.00600000000000   -4.03223800000000    1.93553000000000
H        13.77817300000000   -2.21819900000000    1.84575000000000
H        13.62097000000000    2.19679900000000   -1.81272200000000
H        11.67572400000000    4.10097700000000   -1.84109800000000
H         9.41376000000000    4.55962900000000   -0.00621100000000
H         7.23981800000000    4.02672400000000    1.94234700000000
H         5.54344600000000    2.11557600000000    1.85751300000000
H         5.18428900000000   -0.10279800000000   -0.25308200000000
H         5.70399500000000   -2.32562200000000   -2.01471300000000
H         7.51875200000000   -4.08322100000000   -1.87550300000000
H         9.70272800000000   -4.48133400000000    0.26378000000000
C        14.04471100000000    0.00000000000000    0.00000000000000
C        15.26091700000000    0.00000000000000    0.00000000000000
Zn       19.72483700000000   -0.00926700000000   -0.16365300000000
C        17.17896800000000    3.22807700000000    1.12819700000000
C        16.25260800000000    2.30090300000000    0.98365000000000
C        16.85462100000000    1.13212300000000    0.32690600000000
C        16.26166900000000    0.00000000000000    0.00000000000000
C        16.89398300000000   -1.31318700000000   -0.02189100000000
C        16.37332000000000   -2.53274800000000    0.09962100000000
C        17.40886700000000   -3.53403100000000    0.01105400000000
C        18.56224200000000   -2.87856200000000   -0.16665800000000
N        18.27578900000000   -1.50783700000000   -0.19098400000000
C        19.90386600000000   -3.45018400000000   -0.31499700000000
C        21.04606000000000   -2.84495400000000   -0.14565100000000
C        22.32477200000000   -3.26380600000000    0.49090500000000
C        23.12464800000000   -2.25815800000000    0.35269600000000
C        22.47628600000000   -1.13258800000000   -0.35664800000000
N        21.28615700000000   -1.53013100000000   -0.61496100000000
C        22.98561100000000    0.18176500000000   -0.74347000000000
C        22.32622900000000    1.31092600000000   -0.64654000000000
C        22.72403600000000    2.59563200000000   -1.26695000000000
C        21.81683900000000    3.45875700000000   -0.92580900000000
C        20.81028100000000    2.79054400000000   -0.08741500000000
N        21.14020500000000    1.55184600000000    0.05002200000000
C        19.61483300000000    3.36180400000000    0.52614500000000
C        18.44821000000000    2.75141800000000    0.58563900000000
N        18.19719500000000    1.44905400000000    0.10130900000000
H        16.98734400000000    4.21027900000000    1.59597300000000
H        15.21029300000000    2.42575500000000    1.31558600000000
H        15.28730400000000   -2.69977300000000    0.24779800000000
H        17.23679100000000   -4.59554100000000    0.08059900000000
H        19.96479400000000   -4.51830000000000   -0.60107600000000
H        22.47792100000000   -4.22712500000000    0.95200800000000
H        24.14695400000000   -2.26091500000000    0.71966400000000
H        24.01967700000000    0.14843600000000   -1.14041600000000
H        23.60010100000000    2.79831100000000   -1.88991800000000
H        21.85649100000000    4.50999700000000   -1.24743700000000
H        19.70143100000000    4.35147900000000    0.95670400000000
74
 energy: -125.359037306979 gnorm: 0.559316298539 xtb: 6.4.1 (bd6e46d)
Zn        9.62061364572727    0.02596812436543   -0.00410538099942
C        11.94082072687484   -3.13153077917093    1.31436146886786
C        12.86627023786646   -2.17335754370223    1.26464744758230
C        12.39064724973716   -1.15323660232077    0.35366898068664
C        12.90945208114387    0.01194525846476   -0.00011904504427
C        12.31793419550333    1.23257724553239   -0.36191870489420
C        12.69740647234373    2.19561087619842   -1.22217790648249
C        11.67481874860521    3.20067694574472   -1.23744614364692
C        10.71430951065967    2.81236647219922   -0.37612208986157
N        11.10471902278515    1.58391023335452    0.18328563906752
C         9.47288136973028    3.46789717635607   -0.00415979741967
C         8.35662627171586    2.82055703352831    0.34993592745107
C         7.29738422732532    3.15350644653446    1.30892753553102
C         6.43944627740514    2.14433085080636    1.24246551877967
C         6.88682980261487    1.14809477232401    0.26850652406656
N         8.01636524379929    1.57968780538536   -0.21975068422898
C         6.27461620752476   -0.09073859378700   -0.14931636629466
C         6.95054657234284   -1.21660298325542   -0.41206470474169
C         6.56750790347288   -2.26892394170431   -1.35938565497704
C         7.52834247896499   -3.18005525502560   -1.27548976741438
C         8.51344319399381   -2.73854238697197   -0.29817878280603
N         8.15595592180162   -1.57075228941181    0.19327173774316
C         9.72417677476582   -3.39208402051503    0.14704083089854
C        10.86645724518630   -2.73466904228453    0.42168940011721
N        11.17913662884889   -1.50002656536946   -0.16511187995900
H        12.00278390459175   -4.02956834383985    1.93179755239592
H        13.77845095192374   -2.21229215244601    1.84370964314463
H        13.61812689755182    2.19788949772835   -1.81131988458402
H        11.67786026028506    4.09940363913274   -1.84093272608548
H         9.41912440847372    4.55846083512586   -0.00371883993046
H         7.24248576452068    4.02583338490197    1.94021682796387
H         5.54310202088996    2.11172811760741    1.85600237452359
H         5.18602530900171   -0.10023390178619   -0.25474047328144
H         5.70522987280892   -2.32166651799470   -2.01160113374853
H         7.52324457164449   -4.08374683413097   -1.87333866337175
H         9.70079895876371   -4.47931308491402    0.26389533502977
C        14.13026574838390    0.00511812274925   -0.00236820239834
C        15.19505841501319   -0.00574048820672   -0.00408657783765
Zn       19.72085627039023   -0.01058850022446   -0.16465399667554
C        17.18298590136981    3.23696203665218    1.13075481000687
C        16.24995514193859    2.29652897276785    0.98037343276334
C        16.91046869221191    1.16336947225788    0.33240187069609
C        16.40720395073079   -0.01375792674221   -0.00053195677744
C        16.94062550323524   -1.32451756076186   -0.02284482982143
C        16.36787060164847   -2.54754899384815    0.10051749229702
C        17.39312462120905   -3.53571780505434    0.01106778679884
C        18.56946231208799   -2.87133424332834   -0.17415216396613
N        18.29262144655882   -1.50731278579664   -0.18975496435429
C        19.88838983466803   -3.45556313963176   -0.31613690801505
C        21.05864644789648   -2.83330421145589   -0.14787797986885
C        22.31503286465744   -3.26983788013868    0.48227480368389
C        23.13999414540789   -2.24757221617591    0.35062727766106
C        22.48388833345832   -1.13493101837176   -0.35148794544258
N        21.26910884132241   -1.52398010660489   -0.60551686086406
C        22.99377266761469    0.16588082617482   -0.74260226932984
C        22.32437099531033    1.31759384932901   -0.64973530008196
C        22.73049545340680    2.58881573740248   -1.26617944187055
C        21.80972813412643    3.47191375449963   -0.92063131068340
C        20.80830111248401    2.79958579459206   -0.08697417022029
N        21.13906133450506    1.54047521541688    0.04280614911526
C        19.62618979458399    3.36584560527157    0.52333133709143
C        18.44018828785192    2.74426477677414    0.58836960473048
N        18.20679569580866    1.45708249402743    0.10555911404562
H        16.99132184315404    4.20774049472831    1.59391348319994
H        15.21409672241788    2.42002680269556    1.31204681275683
H        15.29215972669692   -2.70165052889355    0.24716388901504
H        17.23546918772316   -4.59555245622005    0.08077697869023
H        19.95941977616512   -4.51790305985459   -0.59234528526856
H        22.47564115407489   -4.22608001502460    0.95116944704735
H        24.14967292731493   -2.25720163231395    0.72017088489028
H        24.01708314947789    0.14893619906796   -1.13919359381897
H        23.59815663061630    2.79379705242429   -1.88768027168435
H        21.85182143044409    4.50922105990817   -1.24437189353435
H        19.70257897283949    4.35383042524921    0.95337963394673
74
 energy: -125.518542781837 gnorm: 0.323348569711 xtb: 6.4.1 (bd6e46d)
Zn        9.62338019459406    0.02762671216167   -0.00234878483468
C        11.93476870965781   -3.14785773327142    1.30368787609941
C        12.86357841246734   -2.17588111934018    1.25554161073035
C        12.31495442689611   -1.17457007068143    0.36898090763724
C        12.79343059913840    0.02865638097818    0.00017094857297
C        12.24503760126517    1.24719339314208   -0.36707200243116
C        12.69258582537903    2.22265063047708   -1.23188042465974
C        11.69536957761706    3.21104732754054   -1.24255183059039
C        10.69976937579107    2.80874704190222   -0.37570445713830
N        11.04715236432530    1.58106586661837    0.17123719194319
C         9.48608261569769    3.46879667663298   -0.00484822528846
C         8.35117383940409    2.80462254642706    0.35252616804120
C         7.29665570038256    3.15657719571876    1.28840600562541
C         6.41610155816557    2.14005004345142    1.23967689825440
C         6.88173873996458    1.14798746205843    0.28614101980806
N         8.04911243146980    1.55729444662314   -0.19235038897970
C         6.26681584240553   -0.07098184520658   -0.14183473236165
C         6.95408614572990   -1.21485484977361   -0.42011968883815
C         6.56288542955260   -2.26959682310090   -1.34264576748205
C         7.53189377216810   -3.19933892131728   -1.26764109343786
C         8.51967224600625   -2.74806888895744   -0.30861483096291
N         8.16755055545058   -1.54680834137964    0.15912567535126
C         9.70014037257685   -3.40692712090684    0.14150231444732
C        10.85380610291340   -2.74262489701699    0.43074484783851
N        11.12889514487109   -1.51797270046088   -0.12570030290675
H        11.99334890662802   -4.02954047200974    1.92350244789258
H        13.77590605100520   -2.19453919008824    1.83441645872217
H        13.61058379043302    2.20188886322927   -1.80741439882105
H        11.68578816603956    4.10082559762883   -1.84275179649853
H         9.43436471004233    4.55561148608644    0.00156678703553
H         7.25061464984263    4.02227269732087    1.92990415184230
H         5.53544574585436    2.10101021667846    1.85424582677935
H         5.18716633521801   -0.09069461033553   -0.25774707648528
H         5.70812233637563   -2.31077199793079   -2.00067421609607
H         7.53567348551712   -4.09053809607816   -1.86824866963503
H         9.69098249325810   -4.48285306626508    0.26211797227016
C        14.05123745015906    0.01584222236794   -0.00556863968189
C        15.26672484141826   -0.01735816730758   -0.00541613445549
Zn       19.71746682995079   -0.01047250587532   -0.16753573058142
C        17.19255609711528    3.24903639595025    1.13288075276885
C        16.25962155573157    2.29667566565823    0.96857586763377
C        16.98202761707336    1.18979035748943    0.33910624767257
C        16.52355038839637   -0.03386777219153    0.00814282565772
C        17.01316422322731   -1.33889088972507   -0.02716445884430
C        16.37370759000849   -2.56659444859566    0.09618487493541
C        17.37464296983420   -3.53774323668129    0.00519116045364
C        18.58208150125904   -2.87064743318615   -0.18967918985957
N        18.34132539461340   -1.51510431807742   -0.18547708936585
C        19.87132541542505   -3.45956386482502   -0.31640588392957
C        21.06607045855695   -2.81593133896708   -0.15441206577642
C        22.30610216363455   -3.26950942996534    0.45862822979411
C        23.15996166020517   -2.23774825859611    0.34009440388497
C        22.49173003333954   -1.13776794839094   -0.34001033562799
N        21.24202930632744   -1.50482589297910   -0.57243264244926
C        23.00319226952501    0.14493306212594   -0.73821281652982
C        22.32345210612911    1.31764363862828   -0.65936732518219
C        22.73424223493911    2.58266476052817   -1.25873082762687
C        21.80620889588182    3.48638747818120   -0.90731089614188
C        20.80996448923067    2.80871772614779   -0.08687105948467
N        21.13237752297164    1.52489080845759    0.01724485292977
C        19.64537128007690    3.37703771840400    0.52059769581059
C        18.44777662751125    2.74688090922463    0.59833584536107
N        18.24936667213291    1.47868023294750    0.11968031093606
H        17.00290468574368    4.20739065118250    1.59148968742941
H        15.22716850477225    2.40094645547572    1.29895330275617
H        15.30637476259420   -2.70505828393858    0.24517691990421
H        17.22945488595380   -4.59674826821125    0.08112045021443
H        19.94359609665847   -4.52015991497129   -0.56521900973506
H        22.46687971440794   -4.21945831145112    0.94393541061253
H        24.16005931351834   -2.24698915956670    0.72103861822744
H        24.01578457933765    0.14772161380378   -1.13477432000572
H        23.59425870047868    2.78111209576904   -1.88150080694704
H        21.83860780942501    4.51209256604432   -1.23489721810268
H        19.70882409833204    4.36648924456088    0.94126557190134
74
 energy: -125.595043046859 gnorm: 0.182310912922 xtb: 6.4.1 (bd6e46d)
Zn        9.61344811376875    0.02852924119392    0.00066202708563
C        11.92406396295087   -3.17063775086394    1.28788550756202
C        12.85101120685771   -2.17907580235865    1.24634429896357
C        12.27273184222571   -1.18271008770879    0.38733504657661
C        12.75945810290768    0.04634942440201   -0.00050442456924
C        12.18933199710396    1.25960700859235   -0.37407972520030
C        12.68146452582613    2.25237264062001   -1.23534078248786
C        11.71254504495539    3.23146647357689   -1.23870093124764
C        10.67602678042713    2.81278067460987   -0.38314162838219
N        10.97547913865579    1.57101635078939    0.12331443154851
C         9.49407820196421    3.46991522829258   -0.00456172947878
C         8.35339508202926    2.78169504844373    0.36420225821327
C         7.29239766283063    3.15582586948135    1.26095950198871
C         6.38912041865673    2.14048560881309    1.22672396026397
C         6.88169129787794    1.14196147157260    0.31269909287918
N         8.09294873346778    1.52121833088763   -0.13877641463327
C         6.26458679514780   -0.05228334264318   -0.13378155806168
C         6.96289881687800   -1.20476548435477   -0.43916376038247
C         6.55751794192147   -2.27218517137514   -1.32115901464943
C         7.52577198128066   -3.22094647945794   -1.25197081690032
C         8.52178867833191   -2.75575981125891   -0.32570210791190
N         8.18953487321522   -1.51321803249244    0.10169031132277
C         9.66553663781457   -3.43113720046213    0.13845302356314
C        10.82418105467213   -2.76226471213777    0.45136300250262
N        11.06732280943675   -1.52607952613828   -0.05263889710278
H        11.97942049887162   -4.04339292011631    1.90594726363721
H        13.76630062076945   -2.16938553000217    1.81580451854726
H        13.59806983078410    2.21114700422872   -1.79776595430498
H        11.69650163175711    4.11527750611278   -1.83957495166827
H         9.45007151837498    4.55291178362622    0.00589392234424
H         7.25933494451244    4.01886902170500    1.90497501667704
H         5.51715190206653    2.08735535847667    1.84447863276866
H         5.18974508891290   -0.07665739952994   -0.25572620046484
H         5.70653806483424   -2.29630614645551   -1.97889363173917
H         7.54857909527571   -4.10653219440979   -1.85404795694246
H         9.66612988031109   -4.50078107816910    0.25308466316739
C        14.04820909918184    0.02565921617200   -0.00816727817777
C        15.25876817293736   -0.02992105172600   -0.00115773018295
Zn       19.71797377552325   -0.01041911427742   -0.17154473012263
C        17.21449029510699    3.26242716631831    1.13239607415735
C        16.28233349231709    2.29821664150390    0.95374416552879
C        17.01704328345018    1.20475748741205    0.34048166357862
C        16.55486117979972   -0.05656754146683    0.02563751422176
C        17.07008399374035   -1.35039965594891   -0.03256995759042
C        16.39011852233605   -2.58500266432601    0.08501390307215
C        17.36434214080878   -3.54281743805200   -0.01202793934313
C        18.60265146235945   -2.87861591139545   -0.20612503825842
N        18.39146545083450   -1.52876110140563   -0.17649017105244
C        19.86055144488811   -3.46454101489170   -0.31128066635491
C        21.06781127358049   -2.79296036583695   -0.15692090449873
C        22.29812706693777   -3.26191419281165    0.42323241262947
C        23.17950155739546   -2.23033624467323    0.31589413522545
C        22.49708394545490   -1.13450741835636   -0.32069449482891
N        21.21124209859181   -1.47517672342860   -0.51886712142712
C        23.00975625046162    0.12599814513613   -0.73017835937547
C        22.31791221353005    1.31332819861696   -0.67900608173601
C        22.73654765675948    2.57531295086658   -1.24764092099062
C        21.81152065340376    3.49751241968052   -0.88433523739794
C        20.81700916213163    2.81607953505805   -0.08987160929680
N        21.11837742118509    1.50604109777338   -0.02704492599500
C        19.67575198936778    3.39636249531415    0.51874131104606
C        18.47194611831710    2.75878867455502    0.61569832123442
N        18.29031467466860    1.49657174211097    0.14800471766959
H        17.02811451280303    4.21430932630163    1.58708025574796
H        15.25239066319465    2.37258167633225    1.27395873796885
H        15.33144405507092   -2.70999785523997    0.23997984262779
H        17.22627730186388   -4.60147023104191    0.07580660358907
H        19.92648557486997   -4.52946177783777   -0.51294145981002
H        22.45378690663886   -4.20638653635866    0.92113078776627
H        24.17417064822742   -2.23288451056945    0.71262197629301
H        24.01933862314636    0.14602486632851   -1.11826587429609
H        23.59234116846538    2.76142862152203   -1.87067987397301
H        21.82277104889948    4.51870224423642   -1.21184425836007
H        19.72673532407696    4.39737146891499    0.91194921722762
74
 energy: -125.642083313084 gnorm: 0.083727011510 xtb: 6.4.1 (bd6e46d)
Zn        9.58121142664260    0.02788144104271    0.00576240425890
C        11.90910407775908   -3.18931797601249    1.27706076820260
C        12.82383704552660   -2.17757514678476    1.23588714826038
C        12.21835354582620   -1.16822917563436    0.41777432940407
C        12.72849493633303    0.06076881305853   -0.00191527876989
C        12.12640481626926    1.25156084122111   -0.39088764353675
C        12.66233803481705    2.27170586922977   -1.23003806483154
C        11.72049519255029    3.25597226150580   -1.23151003806174
C        10.64137737588139    2.81889016586458   -0.39973232215043
N        10.89857475889255    1.55627082673718    0.05651026343326
C         9.48807015162346    3.47442329565205   -0.00483908808121
C         8.35888037901438    2.75419804039459    0.38848386808187
C         7.28557232345768    3.15230038356693    1.24144756200668
C         6.36578994920283    2.14376555229381    1.21197395788429
C         6.88314595247003    1.12984332055680    0.34193189285141
N         8.12898198973509    1.48638092840159   -0.07823844036787
C         6.26849232836496   -0.04143845996732   -0.12719672685930
C         6.97710584747313   -1.19176582852013   -0.46978543188158
C         6.54959346332598   -2.27369080618437   -1.30904026486934
C         7.50832947428262   -3.23827650082314   -1.23587410582027
C         8.51861963263895   -2.75891559788662   -0.34533216972175
N         8.21087774548635   -1.48150431015583    0.04109459708336
C         9.63176278204447   -3.45088246044112    0.13800745186687
C        10.78475530708670   -2.77306357017206    0.48613675802883
N        10.99082371602916   -1.51357897694408    0.02571985894918
H        11.97264297208178   -4.07047605348513    1.88069821889181
H        13.75190429103585   -2.14224236502073    1.78109981851164
H        13.58692510932525    2.21598457460923   -1.77446482709544
H        11.70710219373649    4.14526913845587   -1.82575701550732
H         9.44925497263752    4.55407568800632    0.00309290895989
H         7.25865435626002    4.02367864627721    1.87106805726120
H         5.48848784635964    2.07899603689589    1.82121978867870
H         5.19395241108694   -0.06902946073530   -0.24153005565599
H         5.69203821866580   -2.28566157135644   -1.95407045660385
H         7.54927614849485   -4.13082055566954   -1.82706441761367
H         9.63844604074244   -4.52233485416564    0.23138663844652
C        14.04910020998352    0.03315637746087   -0.01018585637698
C        15.24568413640724   -0.04266469789737    0.00828792379509
Zn       19.73797805699826   -0.01389594639202   -0.17010883596961
C        17.24428541614182    3.26968496296781    1.13100640416275
C        16.32104577464558    2.29191682316330    0.93879372714432
C        17.05635471953171    1.20046521274280    0.34784640949450
C        16.57639580296799   -0.07769641665949    0.05251751577432
C        17.12749144049198   -1.34863459677689   -0.03135276325921
C        16.41540055449852   -2.59001694797635    0.06964712208203
C        17.36413742112175   -3.55074060311449   -0.03478114375184
C        18.62972799140566   -2.89048418893813   -0.21460986710819
N        18.44181049255051   -1.54110252061581   -0.16843464241051
C        19.86555799138122   -3.47562651700254   -0.29617929537721
C        21.06930511602494   -2.76788808321794   -0.14756329276008
C        22.29637817563221   -3.25271235201608    0.39228550286380
C        23.19552060259542   -2.22625189479555    0.28970457067954
C        22.50194018598054   -1.12421371576054   -0.29925246610336
N        21.19125194845425   -1.44939999725174   -0.46998626009593
C        23.01180544618120    0.11564031556241   -0.71985021390419
C        22.30614375447440    1.31063655828375   -0.70755380449381
C        22.74127205466222    2.56955291463709   -1.24205009257888
C        21.82705385989714    3.50438541476465   -0.86153301295046
C        20.82656468757158    2.82149894008504   -0.09806241029680
N        21.10352695143767    1.49097019729279   -0.07436695544448
C        19.70779275372824    3.41625952973959    0.51283875298470
C        18.50501973132047    2.76688699470254    0.63752629268931
N        18.34145792009930    1.49617371856033    0.18434507039946
H        17.05790320407033    4.22434356223822    1.57987625465063
H        15.28589285899296    2.33731040823474    1.23572626382824
H        15.35902999476483   -2.70165641511721    0.22959008626441
H        17.23072712724028   -4.61054670698345    0.06013495699662
H        19.92680465298617   -4.54510913767898   -0.45125857343145
H        22.44877414876925   -4.19848470563744    0.88415637258281
H        24.19056910025001   -2.22124525231881    0.68789530980111
H        24.02920574516684    0.14927705805449   -1.08445987226965
H        23.60032619876580    2.74241410686416   -1.86055637400575
H        21.81726683543770    4.52960074001063   -1.17520978017393
H        19.74964512421097    4.43503270697352    0.86610003293515
74
 energy: -125.669464673752 gnorm: 0.055684475087 xtb: 6.4.1 (bd6e46d)
Zn        9.54167876281687    0.02094508830594    0.01539483394142
C        11.88975854045700   -3.19833218332203    1.27265835904889
C        12.79010531909159   -2.17318842691465    1.23081408127596
C        12.16471275273053   -1.14256328822351    0.45523690791345
C        12.70357726998084    0.06917025346292   -0.00180595471848
C        12.07729451953180    1.23598057875581   -0.41819073443936
C        12.64269890824694    2.28320942828420   -1.22497035122325
C        11.71699911139497    3.27692267464954   -1.22655116421834
C        10.60598089720055    2.81988937615883   -0.42696350384114
N        10.83740819739468    1.53843976062101   -0.01543813907837
C         9.46880322039020    3.47736788257658   -0.00432170449779
C         8.35766829144203    2.73330908776531    0.41530471001328
C         7.26557302239664    3.15279889427126    1.23028180388996
C         6.34204438362110    2.14832332657168    1.20307542158590
C         6.88106478844426    1.11274229025557    0.37321098229554
N         8.14462805233562    1.45729647047786   -0.01840038672604
C         6.26900358076121   -0.04072285877427   -0.12229021565645
C         6.98072688337187   -1.18298100658656   -0.50081949305241
C         6.53040091937424   -2.27846477990686   -1.30670523058775
C         7.47999125528216   -3.25118775913350   -1.22707213194991
C         8.50857494989255   -2.75825739316166   -0.36867386154015
N         8.21910249717384   -1.46419953154414   -0.01231622229788
C         9.60272408865274   -3.45916420176569    0.13752029306117
C        10.74129109895936   -2.77128276072327    0.52584169171298
N        10.92216162666751   -1.48912289733789    0.10172520745787
H        11.97277054729299   -4.10492904593492    1.84049323589641
H        13.73730490349343   -2.12321694863429    1.74045056096772
H        13.58153091887550    2.22733353317845   -1.74424009776950
H        11.72195685866246    4.18637216819533   -1.79415142072605
H         9.43311343678051    4.55562902589630    0.00140024504594
H         7.23819477753392    4.04264356120267    1.83093427973489
H         5.44470355843915    2.08294308220495    1.78501604854434
H         5.19317144652495   -0.06607389326072   -0.22063695837160
H         5.65718154010064   -2.28504609234124   -1.92832426141701
H         7.52663286337249   -4.16454660982486   -1.78773715695314
H         9.60708403582442   -4.53589001544473    0.20098698007024
C        14.04712523223925    0.03761043654435   -0.00851264819314
C        15.23626992337120   -0.05199207089332    0.02358406373754
Zn       19.76455345743891   -0.01544249282391   -0.15978323989568
C        17.27709260975492    3.27020621969671    1.12926044851931
C        16.36259428316364    2.28513142794671    0.92975285725754
C        17.09462917103539    1.18433249230715    0.36679633821694
C        16.58883112285839   -0.09152922290703    0.08404061079518
C        17.16683825245488   -1.34407735111397   -0.02651150601926
C        16.44091759648558   -2.58940873907270    0.05206547970306
C        17.37528526120203   -3.55883842177506   -0.05770415640315
C        18.65331619686381   -2.89948852936297   -0.21696719963225
N        18.47805660921453   -1.54803363841554   -0.15996015491147
C        19.88657222835436   -3.48814207014714   -0.27314215720394
C        21.07683068215457   -2.75086234263510   -0.13145480502341
C        22.31354459086768   -3.24867668361870    0.36669240124886
C        23.21489947063741   -2.22553604487259    0.26769169732480
C        22.50891526423390   -1.10932485871335   -0.27809260817151
N        21.18716357059304   -1.42956043376361   -0.42553674884403
C        23.01672491435865    0.11660742321386   -0.71089594476620
C        22.30160399896721    1.31137141241284   -0.73527116496648
C        22.75681526015992    2.57007946957995   -1.24255669516920
C        21.85373896108457    3.51003377718870   -0.84777958717000
C        20.83858149053313    2.82458697872525   -0.11467293676109
N        21.09621825343502    1.48539593721928   -0.11775663180844
C        19.73515170718906    3.42941438876285    0.49986124618688
C        18.54033937441365    2.76536704108992    0.65834548122832
N        18.38782684350338    1.48014546425492    0.22654656884037
H        17.09251917494981    4.23341287452615    1.56498974382772
H        15.31907300132574    2.31060911298610    1.19396928852891
H        15.38427894833332   -2.69116813794128    0.21185011175342
H        17.24234849223305   -4.61972437039623    0.03042937381355
H        19.94642341032094   -4.56502097750240   -0.37649115068269
H        22.46341272571881   -4.20412907727305    0.83388284638671
H        24.21788346707232   -2.21573680000786    0.64554091958795
H        24.04805572667888    0.15572029935030   -1.03794028544410