74
 energy: -125.781263092880 gnorm: 0.000363138068 xtb: 6.4.1 (bd6e46d)
Zn        9.20178336100737   -0.06348191109650    0.07102335973186
C        11.74712243728843   -3.36902262909223    0.96588215601364
C        12.69656298043470   -2.43846860493846    0.70530124303199
C        12.00371604045100   -1.23076394002095    0.35633531627295
C        12.63738570136480   -0.02749364977864    0.01094567886247
C        11.96719251263850    1.15938252671360   -0.32150760607332
C        12.62190849186803    2.37747765469400   -0.70620473431763
C        11.64424589705749    3.28371254800689   -0.94764444252222
C        10.39479161548106    2.61670432341990   -0.71327252837063
N        10.62261421737358    1.32715220655281   -0.33782921509304
C         9.15152822600909    3.21138781021564   -0.85161420120822
C         7.92756560029674    2.59797823550510   -0.64373297476291
C         6.65207022093187    3.24532289765034   -0.79148776897769
C         5.70914710858720    2.31789267994620   -0.50479622874925
C         6.40764313744042    1.10243580657982   -0.18337287838449
N         7.74834634341301    1.30252858286802   -0.27472651984389
C         5.79376136776619   -0.09039383229006    0.16203554061518
C         6.44383655062650   -1.27496229155749    0.46795706485792
C         5.78259785153577   -2.50291020284414    0.81888947972253
C         6.75372951158936   -3.41872203169745    1.04215042230428
C         8.00908218934994   -2.75084744938814    0.82908918122326
N         7.79031615399706   -1.45525208431369    0.48221521243156
C         9.25186585691005   -3.34549096102351    0.96850873303156
C        10.47670541420343   -2.72592185533171    0.78351197305197
N        10.66434771977153   -1.42783915181137    0.41517866524703
H        11.87950906676762   -4.39277598054253    1.25856806613845
H        13.76340765274559   -2.53962942858433    0.75260748668276
H        13.68429041123754    2.50092188658582   -0.78934908045693
H        11.74461508077740    4.30593431212288   -1.25790545099858
H         9.13648238074220    4.25041152269510   -1.15023863138603
H         6.51584538765444    4.27104000667873   -1.07610682902138
H         4.64155074946772    2.42731689319714   -0.50662569713852
H         4.71322638872006   -0.09822500787182    0.19334803067144
H         4.71859778684878   -2.62819451550656    0.88113155663662
H         6.64907068349639   -4.44869261527247    1.32484639085683
H         9.26910232028293   -4.38781632693760    1.25539229206766
C        14.04154929784358   -0.01092528026118   -0.00439037261690
C        15.25402193679012    0.00416771663054   -0.01416611473323
Zn       20.09407900436899    0.06229353037656   -0.07027992420469
C        17.57161577960281    3.34775269954507    0.95429387143996
C        16.61593470041312    2.42078996498741    0.70354982180318
C        17.29997118300694    1.21979508237907    0.31597370060701
C        16.65822960398122    0.02047294744105   -0.02810266562033
C        17.32034458811766   -1.16388455057861   -0.38502505160090
C        16.65648623659385   -2.38203748458495   -0.75363611906991
C        17.62787196849080   -3.28679669467045   -1.02403866689964
C        18.88264190882315   -2.61804297577403   -0.82578691880812
N        18.66403666377292   -1.32980032093219   -0.44039754307217
C        20.12206404514030   -3.20816737276648   -1.00960774644355
C        21.35055398574779   -2.58955516517878   -0.84909730343527
C        22.62180888545144   -3.22919231297113   -1.05480822670210
C        23.57127671424317   -2.29706793340127   -0.80754843606545
C        22.88093120642326   -1.08696306582130   -0.45059260469083
N        21.53861964641233   -1.29443266514678   -0.48331346735902
C        23.50271600478426    0.10759550566485   -0.12578597554974
C        22.86026264030408    1.28489619137211    0.22132841056487
C        23.52965718755834    2.51276291957177    0.55712641607420
C        22.56448770533370    3.41857660312641    0.83881623720964
C        21.30461098199608    2.74533931009811    0.67488637007554
N        21.51484765018872    1.45610836960773    0.30010401071974
C        20.06585901365235    3.33095172822532    0.87527921160286
C        18.83702611671205    2.71004166966172    0.72402547942644
N        18.64029690839780    1.41764973632925    0.34055562281338
H        17.44651689618932    4.36617948107655    1.26816238498532
H        15.55061269995574    2.52001061851649    0.78119690626459
H        15.59244118227537   -2.50693453401637   -0.80710134922160
H        17.51988253726235   -4.30882016502722   -1.33248666722968
H        20.12988530396471   -4.24638287919188   -1.31119302022055
H        22.75086415910702   -4.25315727205752   -1.34898723575646
H        24.63829956408923   -2.40026795182370   -0.85750607825586
H        24.58344464522279    0.12231627863047   -0.14433571976973
H        24.59462130732549    2.64468864515501    0.57045707405988
H        22.67619035118873    4.44533410819904    1.13037454657026
H        20.05570035216711    4.36833256655005    1.17977339618054
