      -----------------------------------------------------------      
     |                   =====================                   |     
     |                           x T B                           |     
     |                   =====================                   |     
     |                         S. Grimme                         |     
     |          Mulliken Center for Theoretical Chemistry        |     
     |                    University of Bonn                     |     
      -----------------------------------------------------------      

   * xtb version 6.4.1 (bd6e46d) compiled by 'conda@4901f00b25ba' on 2021-06-10

   xtb is free software: you can redistribute it and/or modify it under
   the terms of the GNU Lesser General Public License as published by
   the Free Software Foundation, either version 3 of the License, or
   (at your option) any later version.
   
   xtb is distributed in the hope that it will be useful,
   but WITHOUT ANY WARRANTY; without even the implied warranty of
   MERCHANTABILITY or FITNESS FOR A PARTICULAR PURPOSE.  See the
   GNU Lesser General Public License for more details.
   
   Cite this work as:
   * C. Bannwarth, E. Caldeweyher, S. Ehlert, A. Hansen, P. Pracht,
     J. Seibert, S. Spicher, S. Grimme, WIREs Comput. Mol. Sci., 2020, 11,
     e01493. DOI: 10.1002/wcms.1493
   
   for GFN2-xTB:
   * C. Bannwarth, S. Ehlert and S. Grimme., J. Chem. Theory Comput., 2019,
     15, 1652-1671. DOI: 10.1021/acs.jctc.8b01176
   for GFN1-xTB:
   * S. Grimme, C. Bannwarth, P. Shushkov, J. Chem. Theory Comput., 2017,
     13, 1989-2009. DOI: 10.1021/acs.jctc.7b00118
   for GFN0-xTB:
   * P. Pracht, E. Caldeweyher, S. Ehlert, S. Grimme, ChemRxiv, 2019, preprint.
     DOI: 10.26434/chemrxiv.8326202.v1
   for GFN-FF:
   * S. Spicher and S. Grimme, Angew. Chem. Int. Ed., 2020, 59, 15665-15673.
     DOI: 10.1002/anie.202004239
   
   for DFT-D4:
   * E. Caldeweyher, C. Bannwarth and S. Grimme, J. Chem. Phys., 2017,
     147, 034112. DOI: 10.1063/1.4993215
   * E. Caldeweyher, S. Ehlert, A. Hansen, H. Neugebauer, S. Spicher,
     C. Bannwarth and S. Grimme, J. Chem. Phys., 2019, 150, 154122.
     DOI: 10.1063/1.5090222
   * E. Caldeweyher, J.-M. Mewes, S. Ehlert and S. Grimme, Phys. Chem. Chem. Phys.
     2020, 22, 8499-8512. DOI: 10.1039/D0CP00502A
   
   for sTDA-xTB:
   * S. Grimme and C. Bannwarth, J. Chem. Phys., 2016, 145, 054103.
     DOI: 10.1063/1.4959605
   
   in the mass-spec context:
   * V. Asgeirsson, C. Bauer and S. Grimme, Chem. Sci., 2017, 8, 4879.
     DOI: 10.1039/c7sc00601b
   * J. Koopman and S. Grimme, ACS Omega 2019, 4, 12, 15120-15133.
     DOI: 10.1021/acsomega.9b02011
   
   for metadynamics refer to:
   * S. Grimme, J. Chem. Theory Comput., 2019, 155, 2847-2862
     DOI: 10.1021/acs.jctc.9b00143
   
   for SPH calculations refer to:
   * S. Spicher and S. Grimme, J. Chem. Theory Comput., 2021, 17, 1701-1714
     DOI: 10.1021/acs.jctc.0c01306
   
   with help from (in alphabetical order)
   P. Atkinson, C. Bannwarth, F. Bohle, G. Brandenburg, E. Caldeweyher
   M. Checinski, S. Dohm, S. Ehlert, S. Ehrlich, I. Gerasimov, J. Koopman
   C. Lavigne, S. Lehtola, F. März, M. Müller, F. Musil, H. Neugebauer
   J. Pisarek, C. Plett, P. Pracht, J. Seibert, P. Shushkov, S. Spicher
   M. Stahn, M. Steiner, T. Strunk, J. Stückrath, T. Rose, and J. Unsleber
   
 * started run on 2021/11/21 at 01:41:42.840     

           -------------------------------------------------
          |                Calculation Setup                |
           -------------------------------------------------

          program call               : /home/jeff/miniconda3/bin/xtb /home/jeff/chem/final-year-proejct/Fe+2_2_5_outenergy/input_structure.xyz --gfn 2 --parallel 1 --etemp 300 --chrg 0 --uhf 0 -I det_control.in
          coordinate file            : /home/jeff/chem/final-year-proejct/Fe+2_2_5_outenergy/input_structure.xyz
          omp threads                :                     1
          number of atoms            :                   185
          number of electrons        :                   624
          charge                     :                     0
          spin                       :                   0.0
          first test random number   :      0.87263395907952

   ID    Z sym.   atoms
    1   26 Fe     1, 37, 81, 116, 151
    2    6 C      2-9, 11-15, 17-21, 23, 24, 38-45, 47-51, 53-57, 59, 60,
                  73-80, 82-89, 91-95, 97-101, 103, 104, 117-124, 126-130,
                  132-136, 138, 139, 152-159, 161-165, 167-171, 173, 174
    3    7 N      10, 16, 22, 25, 46, 52, 58, 61, 90, 96, 102, 105, 125, 131,
                  137, 140, 160, 166, 172, 175
    4    1 H      26-36, 62-72, 106-115, 141-150, 176-185

           -------------------------------------------------
          |                 G F N 2 - x T B                 |
           -------------------------------------------------

        Reference                      10.1021/acs.jctc.8b01176
      * Hamiltonian:
        H0-scaling (s, p, d)           1.850000    2.230000    2.230000
        zeta-weighting                 0.500000
      * Dispersion:
        s8                             2.700000
        a1                             0.520000
        a2                             5.000000
        s9                             5.000000
      * Repulsion:
        kExp                           1.500000    1.000000
        rExp                           1.000000
      * Coulomb:
        alpha                          2.000000
        third order                    shell-resolved
        anisotropic                    true
        a3                             3.000000
        a5                             4.000000
        cn-shift                       1.200000
        cn-exp                         4.000000
        max-rad                        5.000000


          ...................................................
          :                      SETUP                      :
          :.................................................:
          :  # basis functions                 614          :
          :  # atomic orbitals                 609          :
          :  # shells                          323          :
          :  # electrons                       624          :
          :  max. iterations                   250          :
          :  Hamiltonian                  GFN2-xTB          :
          :  restarted?                      false          :
          :  GBSA solvation                  false          :
          :  PC potential                    false          :
          :  electronic temp.          300.0000000     K    :
          :  accuracy                    1.0000000          :
          :  -> integral cutoff          0.2500000E+02      :
          :  -> integral neglect         0.1000000E-07      :
          :  -> SCF convergence          0.1000000E-05 Eh   :
          :  -> wf. convergence          0.1000000E-03 e    :
          :  Broyden damping             0.4000000          :
          ...................................................

 iter      E             dE          RMSdq      gap      omega  full diag
   1   -336.7141372 -0.336714E+03  0.789E+00    0.00       0.0  T
   2   -324.7713678  0.119428E+02  0.893E+00    0.03       1.0  T
   3   -257.7305191  0.670408E+02  0.966E+00    0.01       1.0  T
   4   -302.9995665 -0.452690E+02  0.923E+00    0.14       1.0  T
   5   -321.0700760 -0.180705E+02  0.580E+00    0.02       1.0  T
   6   -327.4399489 -0.636987E+01  0.612E+00    0.19       1.0  T
   7   -333.5131809 -0.607323E+01  0.471E+00    0.00       1.0  T
   8   -314.3419938  0.191712E+02  0.771E+00    0.01       1.0  T
   9   -303.8877600  0.104542E+02  0.824E+00    0.02       1.0  T
  10   -303.8914352 -0.367524E-02  0.708E+00    0.11       1.0  T
  11   -298.2378583  0.565358E+01  0.702E+00    0.15       1.0  T
  12   -326.1982237 -0.279604E+02  0.549E+00    0.04       1.0  T
  13   -331.2513176 -0.505309E+01  0.586E+00    0.01       1.0  T
  14   -332.9460293 -0.169471E+01  0.492E+00    0.06       1.0  T
  15   -333.8069641 -0.860935E+00  0.444E+00    0.05       1.0  T
  16   -333.5377014  0.269263E+00  0.453E+00    0.05       1.0  T
  17   -335.5065153 -0.196881E+01  0.379E+00    0.05       1.0  T
  18   -335.2325357  0.273980E+00  0.383E+00    0.01       1.0  T
  19   -330.0381996  0.519434E+01  0.565E+00    0.13       1.0  T
  20   -329.8278303  0.210369E+00  0.564E+00    0.09       1.0  T
  21   -329.9389026 -0.111072E+00  0.565E+00    0.12       1.0  T
  22   -336.6221610 -0.668326E+01  0.378E+00    0.17       1.0  T
  23   -336.6577872 -0.356262E-01  0.364E+00    0.15       1.0  T
  24   -336.3793165  0.278471E+00  0.348E+00    0.01       1.0  T
  25   -336.1595322  0.219784E+00  0.373E+00    0.03       1.0  T
  26   -336.8497880 -0.690256E+00  0.333E+00    0.06       1.0  T
  27   -336.6371540  0.212634E+00  0.357E+00    0.06       1.0  T
  28   -336.9169682 -0.279814E+00  0.343E+00    0.08       1.0  T
  29   -336.2054512  0.711517E+00  0.294E+00    0.01       1.0  T
  30   -335.7333671  0.472084E+00  0.320E+00    0.04       1.0  T
  31   -336.3499993 -0.616632E+00  0.286E+00    0.02       1.0  T
  32   -335.2004211  0.114958E+01  0.365E+00    0.02       1.0  T
  33   -334.5724687  0.627952E+00  0.365E+00    0.03       1.0  T
  34   -330.0975881  0.447488E+01  0.568E+00    0.18       1.0  T
  35   -330.1373190 -0.397310E-01  0.569E+00    0.16       1.0  T
  36   -333.9189134 -0.378159E+01  0.450E+00    0.01       1.0  T
  37   -334.3312835 -0.412370E+00  0.472E+00    0.00       1.0  T
  38   -335.5395192 -0.120824E+01  0.428E+00    0.01       1.0  T
  39   -334.8883429  0.651176E+00  0.451E+00    0.01       1.0  T
  40   -336.6046271 -0.171628E+01  0.406E+00    0.06       1.0  T
  41   -336.3857586  0.218869E+00  0.418E+00    0.12       1.0  T
  42   -336.4880227 -0.102264E+00  0.389E+00    0.18       1.0  T
  43   -336.7538686 -0.265846E+00  0.342E+00    0.06       1.0  T
  44   -336.9004412 -0.146573E+00  0.315E+00    0.00       1.0  T
  45   -337.3960478 -0.495607E+00  0.277E+00    0.01       1.0  T
  46   -336.9169690  0.479079E+00  0.223E+00    0.07       1.0  T
  47   -336.9489541 -0.319851E-01  0.209E+00    0.07       1.0  T
  48   -337.4774502 -0.528496E+00  0.169E+00    0.00       1.0  T
  49   -336.1238644  0.135359E+01  0.275E+00    0.06       1.0  T
  50   -336.4576926 -0.333828E+00  0.254E+00    0.09       1.0  T
  51   -336.7394050 -0.281712E+00  0.258E+00    0.05       1.0  T
  52   -337.1574275 -0.418023E+00  0.243E+00    0.01       1.0  T
  53   -337.4948140 -0.337387E+00  0.225E+00    0.02       1.0  T
  54   -336.6381156  0.856698E+00  0.269E+00    0.02       1.0  T
  55   -337.1778484 -0.539733E+00  0.227E+00    0.01       1.0  T
  56   -337.5269698 -0.349121E+00  0.205E+00    0.02       1.0  T
  57   -337.4268016  0.100168E+00  0.199E+00    0.01       1.0  T
  58   -337.8899949 -0.463193E+00  0.181E+00    0.15       1.0  T
  59   -337.8596765  0.303185E-01  0.175E+00    0.10       1.0  T
  60   -337.8575574  0.211910E-02  0.175E+00    0.09       1.0  T
  61   -337.8480146  0.954278E-02  0.178E+00    0.08       1.0  T
  62   -337.8475569  0.457654E-03  0.155E+00    0.09       1.0  T
  63   -337.8380410  0.951589E-02  0.156E+00    0.08       1.0  T
  64   -337.8390821 -0.104104E-02  0.154E+00    0.08       1.0  T
  65   -337.8390540  0.280526E-04  0.155E+00    0.08       1.0  T
  66   -337.8382065  0.847529E-03  0.152E+00    0.08       1.0  T
  67   -337.8344620  0.374449E-02  0.142E+00    0.08       1.0  T
  68   -337.8293227  0.513935E-02  0.137E+00    0.08       1.0  T
  69   -337.8613673 -0.320446E-01  0.132E+00    0.10       1.0  T
  70   -337.8695637 -0.819647E-02  0.127E+00    0.10       1.0  T
  71   -337.8714913 -0.192760E-02  0.979E-01    0.10       1.0  T
  72   -337.8494413  0.220500E-01  0.803E-01    0.08       1.0  T
  73   -337.8831437 -0.337023E-01  0.833E-01    0.10       1.0  T
  74   -337.8942329 -0.110892E-01  0.717E-01    0.11       1.0  T
  75   -337.8988137 -0.458078E-02  0.643E-01    0.12       1.0  T
  76   -337.9000962 -0.128248E-02  0.521E-01    0.13       1.0  T
  77   -337.9030020 -0.290586E-02  0.428E-01    0.14       1.0  T
  78   -337.9048635 -0.186146E-02  0.390E-01    0.15       1.0  T
  79   -337.9071213 -0.225785E-02  0.318E-01    0.15       1.0  T
  80   -337.9102614 -0.314010E-02  0.256E-01    0.17       1.0  T
  81   -337.9120484 -0.178696E-02  0.212E-01    0.19       1.0  T
  82   -337.9128817 -0.833296E-03  0.164E-01    0.20       1.0  T
  83   -337.9133504 -0.468763E-03  0.118E-01    0.21       1.0  T
  84   -337.9132791  0.713357E-04  0.950E-02    0.20       1.0  T
  85   -337.9133387 -0.596234E-04  0.733E-02    0.20       1.0  T
  86   -337.9134526 -0.113895E-03  0.636E-02    0.20       1.0  T
  87   -337.9135343 -0.816657E-04  0.562E-02    0.20       1.0  T
  88   -337.9136033 -0.689606E-04  0.547E-02    0.20       1.0  T
  89   -337.9137273 -0.124076E-03  0.513E-02    0.21       1.0  T
  90   -337.9138195 -0.921266E-04  0.481E-02    0.21       1.0  T
  91   -337.9138625 -0.430295E-04  0.445E-02    0.21       1.0  T
  92   -337.9138948 -0.323360E-04  0.398E-02    0.21       1.0  T
  93   -337.9139715 -0.766477E-04  0.351E-02    0.22       1.0  T
  94   -337.9140596 -0.881680E-04  0.298E-02    0.22       1.0  T
  95   -337.9141280 -0.683358E-04  0.253E-02    0.22       1.0  T
  96   -337.9141746 -0.466115E-04  0.215E-02    0.22       1.0  T
  97   -337.9142137 -0.391184E-04  0.178E-02    0.23       1.0  T
  98   -337.9142380 -0.242566E-04  0.151E-02    0.23       1.0  T
  99   -337.9142521 -0.141193E-04  0.125E-02    0.23       1.0  T
 100   -337.9142602 -0.807955E-05  0.110E-02    0.24       1.0  T
 101   -337.9142666 -0.646181E-05  0.895E-03    0.24       1.0  T
 102   -337.9142704 -0.380616E-05  0.758E-03    0.24       1.0  T
 103   -337.9142725 -0.206889E-05  0.669E-03    0.24       1.1  T
 104   -337.9142740 -0.150599E-05  0.575E-03    0.24       1.3  T
 105   -337.9142751 -0.113800E-05  0.494E-03    0.24       1.5  T
 106   -337.9142759 -0.761937E-06  0.439E-03    0.24       1.7  T
 107   -337.9142764 -0.513322E-06  0.408E-03    0.24       1.8  T
 108   -337.9142770 -0.552383E-06  0.373E-03    0.24       2.0  T
 109   -337.9142775 -0.540875E-06  0.320E-03    0.24       2.3  T
 110   -337.9142780 -0.461272E-06  0.266E-03    0.24       2.8  T
 111   -337.9142784 -0.433974E-06  0.215E-03    0.24       3.4  T
 112   -337.9142788 -0.351264E-06  0.173E-03    0.24       4.2  T
 113   -337.9142790 -0.230892E-06  0.141E-03    0.24       5.2  T
 114   -337.9142792 -0.171383E-06  0.103E-03    0.24       7.1  T
 115   -337.9142792 -0.849983E-07  0.712E-04    0.24      10.3  T
 116   -337.9142793 -0.438000E-07  0.528E-04    0.24      13.9  T

   *** convergence criteria satisfied after 116 iterations ***

         #    Occupation            Energy/Eh            Energy/eV
      -------------------------------------------------------------
         1        2.0000           -0.6667493             -18.1432
       ...           ...                  ...                  ...
       306        2.0000           -0.3367292              -9.1629
       307        2.0000           -0.3367191              -9.1626
       308        1.9886           -0.3294096              -8.9637
       309        1.9881           -0.3293652              -8.9625
       310        1.9876           -0.3293331              -8.9616
       311        1.9799           -0.3288647              -8.9489
       312        1.9793           -0.3288383              -8.9481 (HOMO)
       313        0.0160           -0.3199273              -8.7057 (LUMO)
       314        0.0156           -0.3199038              -8.7050
       315        0.0153           -0.3198826              -8.7044
       316        0.0150           -0.3198661              -8.7040
       317        0.0146           -0.3198416              -8.7033
       ...           ...                  ...                  ...
       609                          1.4202888              38.6480
      -------------------------------------------------------------
                  HL-Gap            0.0089110 Eh            0.2425 eV
             Fermi-level           -0.3245061 Eh           -8.8303 eV

 SCC (total)                   0 d,  0 h,  0 min, 10.986 sec
 SCC setup                      ...        0 min,  0.006 sec (  0.056%)
 Dispersion                     ...        0 min,  0.013 sec (  0.121%)
 classical contributions        ...        0 min,  0.002 sec (  0.015%)
 integral evaluation            ...        0 min,  0.112 sec (  1.024%)
 iterations                     ...        0 min, 10.521 sec ( 95.769%)
 molecular gradient             ...        0 min,  0.320 sec (  2.915%)
 printout                       ...        0 min,  0.011 sec (  0.100%)

         :::::::::::::::::::::::::::::::::::::::::::::::::::::
         ::                     SUMMARY                     ::
         :::::::::::::::::::::::::::::::::::::::::::::::::::::
         :: total energy            -332.159762287391 Eh    ::
         :: gradient norm              0.000920738585 Eh/a0 ::
         :: HOMO-LUMO gap              0.242480683667 eV    ::
         ::.................................................::
         :: SCC energy              -337.914279289897 Eh    ::
         :: -> isotropic ES           -0.037842555237 Eh    ::
         :: -> anisotropic ES          0.054839579892 Eh    ::
         :: -> anisotropic XC          0.182016838780 Eh    ::
         :: -> dispersion             -0.276884798090 Eh    ::
         :: repulsion energy           5.759174166155 Eh    ::
         :: add. restraining           0.000000000000 Eh    ::
         :: total charge              -0.000000000047 e     ::
         :::::::::::::::::::::::::::::::::::::::::::::::::::::

           -------------------------------------------------
          |                Property Printout                |
           -------------------------------------------------

    * Orbital Energies and Occupations

         #    Occupation            Energy/Eh            Energy/eV
      -------------------------------------------------------------
         1        2.0000           -0.6667493             -18.1432
       ...           ...                  ...                  ...
       300        2.0000           -0.3381379              -9.2012
       301        2.0000           -0.3380887              -9.1999
       302        2.0000           -0.3380776              -9.1996
       303        2.0000           -0.3369766              -9.1696
       304        2.0000           -0.3369669              -9.1693
       305        2.0000           -0.3369652              -9.1693
       306        2.0000           -0.3367292              -9.1629
       307        2.0000           -0.3367191              -9.1626
       308        1.9886           -0.3294096              -8.9637
       309        1.9881           -0.3293652              -8.9625
       310        1.9876           -0.3293331              -8.9616
       311        1.9799           -0.3288647              -8.9489
       312        1.9793           -0.3288383              -8.9481 (HOMO)
       313        0.0160           -0.3199273              -8.7057 (LUMO)
       314        0.0156           -0.3199038              -8.7050
       315        0.0153           -0.3198826              -8.7044
       316        0.0150           -0.3198661              -8.7040
       317        0.0146           -0.3198416              -8.7033
       318                         -0.3078049              -8.3758
       319                         -0.3017120              -8.2100
       320                         -0.2940205              -8.0007
       321                         -0.2898785              -7.8880
       322                         -0.2898698              -7.8878
       323                         -0.2898659              -7.8877
       ...                                ...                  ...
       609                          1.4202888              38.6480
      -------------------------------------------------------------
                  HL-Gap            0.0089110 Eh            0.2425 eV
             Fermi-level           -0.3245061 Eh           -8.8303 eV

     #   Z          covCN         q      C6AA      α(0)
     1  26 Fe       3.084     0.562     5.146     7.318
     2   6 C        3.027    -0.055    29.326     8.883
     3   6 C        3.014    -0.054    29.329     8.884
     4   6 C        3.182     0.070    26.027     8.327
     5   6 C        2.955     0.012    27.755     8.641
     6   6 C        3.182     0.070    26.028     8.328
     7   6 C        3.014    -0.054    29.326     8.883
     8   6 C        3.026    -0.055    29.326     8.883
     9   6 C        3.159     0.064    26.262     8.378
    10   7 N        2.637    -0.214    25.668     7.524
    11   6 C        2.903    -0.061    29.509     8.907
    12   6 C        3.155     0.065    26.251     8.378
    13   6 C        3.023    -0.054    29.303     8.879
    14   6 C        3.013    -0.055    29.353     8.887
    15   6 C        3.166     0.070    26.095     8.348
    16   7 N        2.638    -0.213    25.643     7.521
    17   6 C        2.903    -0.059    29.475     8.902
    18   6 C        3.166     0.070    26.094     8.348
    19   6 C        3.013    -0.055    29.353     8.887
    20   6 C        3.023    -0.054    29.303     8.879
    21   6 C        3.155     0.065    26.252     8.378
    22   7 N        2.638    -0.213    25.645     7.521
    23   6 C        2.903    -0.061    29.508     8.907
    24   6 C        3.159     0.064    26.261     8.378
    25   7 N        2.637    -0.214    25.671     7.525
    26   1 H        0.926     0.030     2.581     2.512
    27   1 H        0.926     0.032     2.558     2.501
    28   1 H        0.926     0.032     2.560     2.502
    29   1 H        0.926     0.030     2.580     2.512
    30   1 H        0.926     0.049     2.329     2.387
    31   1 H        0.926     0.031     2.578     2.511
    32   1 H        0.926     0.031     2.574     2.509
    33   1 H        0.926     0.047     2.355     2.400
    34   1 H        0.926     0.031     2.574     2.509
    35   1 H        0.926     0.031     2.578     2.511
    36   1 H        0.926     0.049     2.329     2.386
    37  26 Fe       3.084     0.562     5.146     7.318
    38   6 C        3.027    -0.055    29.326     8.883
    39   6 C        3.014    -0.054    29.328     8.883
    40   6 C        3.182     0.070    26.026     8.327
    41   6 C        2.955     0.012    27.755     8.641
    42   6 C        3.182     0.070    26.025     8.327
    43   6 C        3.014    -0.054    29.331     8.884
    44   6 C        3.027    -0.055    29.325     8.883
    45   6 C        3.159     0.064    26.260     8.378
    46   7 N        2.637    -0.214    25.670     7.525
    47   6 C        2.903    -0.061    29.509     8.907
    48   6 C        3.155     0.065    26.252     8.378
    49   6 C        3.023    -0.054    29.303     8.879
    50   6 C        3.013    -0.055    29.353     8.887
    51   6 C        3.166     0.070    26.095     8.348
    52   7 N        2.638    -0.213    25.643     7.521
    53   6 C        2.903    -0.059    29.476     8.902
    54   6 C        3.166     0.070    26.095     8.348
    55   6 C        3.013    -0.055    29.353     8.887
    56   6 C        3.023    -0.054    29.303     8.879
    57   6 C        3.155     0.065    26.253     8.378
    58   7 N        2.638    -0.213    25.644     7.521
    59   6 C        2.903    -0.061    29.509     8.907
    60   6 C        3.159     0.064    26.260     8.378
    61   7 N        2.637    -0.214    25.671     7.525
    62   1 H        0.926     0.030     2.581     2.512
    63   1 H        0.926     0.032     2.557     2.501
    64   1 H        0.926     0.032     2.555     2.499
    65   1 H        0.926     0.030     2.581     2.512
    66   1 H        0.926     0.049     2.329     2.387
    67   1 H        0.926     0.031     2.578     2.511
    68   1 H        0.926     0.031     2.574     2.509
    69   1 H        0.926     0.047     2.355     2.400
    70   1 H        0.926     0.031     2.574     2.509
    71   1 H        0.926     0.031     2.578     2.511
    72   1 H        0.926     0.049     2.329     2.387
    73   6 C        1.988    -0.031    31.867     9.116
    74   6 C        1.987    -0.031    31.871     9.117
    75   6 C        1.988    -0.031    31.868     9.117
    76   6 C        1.988    -0.031    31.869     9.117
    77   6 C        1.987    -0.031    31.870     9.117
    78   6 C        1.987    -0.031    31.869     9.117
    79   6 C        1.988    -0.031    31.870     9.117
    80   6 C        1.988    -0.031    31.866     9.116
    81  26 Fe       3.080     0.567     5.143     7.316
    82   6 C        3.026    -0.055    29.325     8.883
    83   6 C        3.015    -0.054    29.331     8.884
    84   6 C        3.182     0.070    26.019     8.326
    85   6 C        2.955     0.011    27.759     8.642
    86   6 C        3.182     0.070    26.019     8.326
    87   6 C        3.015    -0.054    29.327     8.883
    88   6 C        3.027    -0.055    29.325     8.883
    89   6 C        3.160     0.064    26.266     8.378
    90   7 N        2.637    -0.215    25.700     7.529
    91   6 C        2.903    -0.059    29.472     8.901
    92   6 C        3.160     0.064    26.266     8.378
    93   6 C        3.027    -0.055    29.325     8.883
    94   6 C        3.014    -0.054    29.332     8.884
    95   6 C        3.182     0.070    26.017     8.325
    96   7 N        2.637    -0.215    25.699     7.529
    97   6 C        2.955     0.011    27.760     8.642
    98   6 C        3.183     0.070    26.016     8.325
    99   6 C        3.015    -0.054    29.331     8.884
   100   6 C        3.026    -0.055    29.325     8.883
   101   6 C        3.160     0.064    26.265     8.378
   102   7 N        2.637    -0.215    25.699     7.529
   103   6 C        2.903    -0.059    29.472     8.902
   104   6 C        3.160     0.064    26.265     8.378
   105   7 N        2.637    -0.215    25.697     7.529
   106   1 H        0.926     0.030     2.580     2.512
   107   1 H        0.926     0.032     2.559     2.502
   108   1 H        0.926     0.032     2.563     2.504
   109   1 H        0.926     0.030     2.581     2.512
   110   1 H        0.926     0.050     2.321     2.382
   111   1 H        0.926     0.030     2.580     2.512
   112   1 H        0.926     0.032     2.559     2.501
   113   1 H        0.926     0.032     2.560     2.502
   114   1 H        0.926     0.030     2.580     2.512
   115   1 H        0.926     0.050     2.321     2.382
   116  26 Fe       3.082     0.568     5.143     7.315
   117   6 C        3.026    -0.055    29.325     8.883
   118   6 C        3.014    -0.054    29.329     8.884
   119   6 C        3.182     0.070    26.019     8.326
   120   6 C        2.955     0.011    27.760     8.642
   121   6 C        3.183     0.070    26.017     8.325
   122   6 C        3.015    -0.055    29.333     8.884
   123   6 C        3.027    -0.055    29.325     8.883
   124   6 C        3.160     0.064    26.266     8.378
   125   7 N        2.637    -0.215    25.699     7.529
   126   6 C        2.903    -0.059    29.470     8.901
   127   6 C        3.160     0.064    26.267     8.378
   128   6 C        3.026    -0.055    29.326     8.883
   129   6 C        3.015    -0.054    29.331     8.884
   130   6 C        3.182     0.070    26.020     8.326
   131   7 N        2.637    -0.215    25.699     7.529
   132   6 C        2.955     0.011    27.759     8.642
   133   6 C        3.182     0.070    26.022     8.327
   134   6 C        3.015    -0.054    29.328     8.883
   135   6 C        3.026    -0.055    29.326     8.883
   136   6 C        3.160     0.064    26.268     8.379
   137   7 N        2.637    -0.215    25.700     7.529
   138   6 C        2.903    -0.059    29.471     8.901
   139   6 C        3.160     0.064    26.268     8.379
   140   7 N        2.637    -0.215    25.701     7.529
   141   1 H        0.926     0.030     2.580     2.512
   142   1 H        0.926     0.032     2.561     2.503
   143   1 H        0.926     0.032     2.559     2.501
   144   1 H        0.926     0.030     2.580     2.512
   145   1 H        0.926     0.050     2.320     2.382
   146   1 H        0.926     0.030     2.580     2.512
   147   1 H        0.926     0.032     2.562     2.503
   148   1 H        0.926     0.032     2.563     2.504
   149   1 H        0.926     0.030     2.580     2.512
   150   1 H        0.926     0.050     2.321     2.382
   151  26 Fe       3.081     0.567     5.143     7.316
   152   6 C        3.026    -0.055    29.326     8.883
   153   6 C        3.015    -0.054    29.330     8.884
   154   6 C        3.182     0.070    26.021     8.326
   155   6 C        2.955     0.011    27.759     8.642
   156   6 C        3.182     0.070    26.021     8.326
   157   6 C        3.015    -0.054    29.329     8.884
   158   6 C        3.026    -0.055    29.326     8.883
   159   6 C        3.160     0.064    26.266     8.378
   160   7 N        2.637    -0.215    25.699     7.529
   161   6 C        2.903    -0.059    29.472     8.902
   162   6 C        3.159     0.064    26.267     8.379
   163   6 C        3.027    -0.054    29.324     8.882
   164   6 C        3.014    -0.054    29.328     8.883
   165   6 C        3.183     0.070    26.017     8.325
   166   7 N        2.637    -0.215    25.700     7.529
   167   6 C        2.955     0.011    27.760     8.642
   168   6 C        3.183     0.070    26.017     8.325
   169   6 C        3.014    -0.054    29.332     8.884
   170   6 C        3.027    -0.055    29.324     8.883
   171   6 C        3.160     0.064    26.266     8.378
   172   7 N        2.637    -0.215    25.697     7.529
   173   6 C        2.903    -0.059    29.472     8.901
   174   6 C        3.160     0.064    26.266     8.378
   175   7 N        2.637    -0.215    25.699     7.529
   176   1 H        0.926     0.030     2.580     2.512
   177   1 H        0.926     0.032     2.563     2.503
   178   1 H        0.926     0.032     2.562     2.503
   179   1 H        0.926     0.030     2.581     2.512
   180   1 H        0.926     0.050     2.321     2.383
   181   1 H        0.926     0.030     2.581     2.512
   182   1 H        0.926     0.032     2.560     2.502
   183   1 H        0.926     0.032     2.557     2.501
   184   1 H        0.926     0.030     2.580     2.512
   185   1 H        0.926     0.050     2.321     2.382

 Mol. C6AA /au·bohr⁶  :     583970.348645
 Mol. C8AA /au·bohr⁸  :   15334687.143594
 Mol. α(0) /au        :       1254.462527


Wiberg/Mayer (AO) data.
largest (>0.10) Wiberg bond orders for each atom

 ---------------------------------------------------------------------------
     #   Z sym  total        # sym  WBO       # sym  WBO       # sym  WBO
 ---------------------------------------------------------------------------
     1  26 Fe   3.279 --    16 N    0.660    22 N    0.660    10 N    0.657
                            25 N    0.656
     2   6 C    3.957 --     3 C    1.644    24 C    1.171    26 H    0.972
     3   6 C    3.963 --     2 C    1.644     4 C    1.182    27 H    0.968
     4   6 C    3.928 --     5 C    1.262    25 N    1.256     3 C    1.182
     5   6 C    3.951 --     6 C    1.262     4 C    1.262    73 C    1.169
     6   6 C    3.928 --     5 C    1.262    10 N    1.256     7 C    1.181
     7   6 C    3.963 --     8 C    1.645     6 C    1.181    28 H    0.969
     8   6 C    3.957 --     7 C    1.645     9 C    1.171    29 H    0.972
     9   6 C    3.938 --    11 C    1.361    10 N    1.217     8 C    1.171
    10   7 N    3.416 --     6 C    1.256     9 C    1.217     1 Fe   0.657
    11   6 C    3.943 --    12 C    1.361     9 C    1.361    30 H    0.963
    12   6 C    3.942 --    11 C    1.361    16 N    1.227    13 C    1.163
    13   6 C    3.962 --    14 C    1.660    12 C    1.163    31 H    0.972
    14   6 C    3.960 --    13 C    1.660    15 C    1.164    32 H    0.972
    15   6 C    3.944 --    17 C    1.358    16 N    1.239    14 C    1.164
    16   7 N    3.412 --    15 C    1.239    12 C    1.227     1 Fe   0.660
    17   6 C    3.940 --    15 C    1.358    18 C    1.358    33 H    0.965
    18   6 C    3.944 --    17 C    1.358    22 N    1.239    19 C    1.164
    19   6 C    3.960 --    20 C    1.660    18 C    1.164    34 H    0.972
    20   6 C    3.962 --    19 C    1.660    21 C    1.163    35 H    0.972
    21   6 C    3.942 --    23 C    1.361    22 N    1.226    20 C    1.163
    22   7 N    3.412 --    18 C    1.239    21 C    1.226     1 Fe   0.660
    23   6 C    3.943 --    21 C    1.361    24 C    1.360    36 H    0.963
    24   6 C    3.938 --    23 C    1.360    25 N    1.218     2 C    1.171
    25   7 N    3.416 --     4 C    1.256    24 C    1.218     1 Fe   0.656
    26   1 H    0.998 --     2 C    0.972
    27   1 H    0.998 --     3 C    0.968
    28   1 H    0.998 --     7 C    0.969
    29   1 H    0.998 --     8 C    0.972
    30   1 H    0.996 --    11 C    0.963
    31   1 H    0.998 --    13 C    0.972
    32   1 H    0.998 --    14 C    0.972
    33   1 H    0.997 --    17 C    0.965
    34   1 H    0.998 --    19 C    0.972
    35   1 H    0.998 --    20 C    0.972
    36   1 H    0.996 --    23 C    0.963
    37  26 Fe   3.279 --    52 N    0.660    58 N    0.660    46 N    0.657
                            61 N    0.656
    38   6 C    3.957 --    39 C    1.645    60 C    1.171    62 H    0.972
    39   6 C    3.963 --    38 C    1.645    40 C    1.181    63 H    0.969
    40   6 C    3.928 --    41 C    1.263    61 N    1.256    39 C    1.181
    41   6 C    3.951 --    40 C    1.263    42 C    1.263    80 C    1.167
    42   6 C    3.928 --    41 C    1.263    46 N    1.256    43 C    1.181
    43   6 C    3.963 --    44 C    1.645    42 C    1.181    64 H    0.969
    44   6 C    3.957 --    43 C    1.645    45 C    1.171    65 H    0.972
    45   6 C    3.938 --    47 C    1.360    46 N    1.218    44 C    1.171
    46   7 N    3.416 --    42 C    1.256    45 C    1.218    37 Fe   0.657
    47   6 C    3.943 --    48 C    1.362    45 C    1.360    66 H    0.963
    48   6 C    3.942 --    47 C    1.362    52 N    1.226    49 C    1.163
    49   6 C    3.962 --    50 C    1.660    48 C    1.163    67 H    0.972
    50   6 C    3.960 --    49 C    1.660    51 C    1.164    68 H    0.972
    51   6 C    3.944 --    53 C    1.358    52 N    1.239    50 C    1.164
    52   7 N    3.412 --    51 C    1.239    48 C    1.226    37 Fe   0.660
    53   6 C    3.940 --    51 C    1.358    54 C    1.358    69 H    0.965
    54   6 C    3.944 --    53 C    1.358    58 N    1.239    55 C    1.164
    55   6 C    3.960 --    56 C    1.660    54 C    1.164    70 H    0.972
    56   6 C    3.962 --    55 C    1.660    57 C    1.163    71 H    0.972
    57   6 C    3.942 --    59 C    1.362    58 N    1.226    56 C    1.163
    58   7 N    3.412 --    54 C    1.239    57 C    1.226    37 Fe   0.660
    59   6 C    3.943 --    57 C    1.362    60 C    1.360    72 H    0.963
    60   6 C    3.938 --    59 C    1.360    61 N    1.218    38 C    1.171
    61   7 N    3.416 --    40 C    1.256    60 C    1.218    37 Fe   0.656
    62   1 H    0.998 --    38 C    0.972
    63   1 H    0.998 --    39 C    0.969
    64   1 H    0.998 --    43 C    0.969
    65   1 H    0.998 --    44 C    0.972
    66   1 H    0.996 --    47 C    0.963
    67   1 H    0.998 --    49 C    0.972
    68   1 H    0.998 --    50 C    0.972
    69   1 H    0.997 --    53 C    0.965
    70   1 H    0.998 --    55 C    0.972
    71   1 H    0.998 --    56 C    0.972
    72   1 H    0.996 --    59 C    0.963
    73   6 C    3.927 --    74 C    2.582     5 C    1.169
    74   6 C    3.930 --    73 C    2.582    85 C    1.170
    75   6 C    3.927 --    76 C    2.579    97 C    1.172
    76   6 C    3.927 --    75 C    2.579   120 C    1.172
    77   6 C    3.927 --    78 C    2.578   132 C    1.173
    78   6 C    3.927 --    77 C    2.578   155 C    1.173
    79   6 C    3.929 --    80 C    2.583   167 C    1.168
    80   6 C    3.927 --    79 C    2.583    41 C    1.167
    81  26 Fe   3.247 --   105 N    0.653    90 N    0.652    96 N    0.652
                           102 N    0.652
    82   6 C    3.958 --    83 C    1.644   104 C    1.172   106 H    0.972
    83   6 C    3.961 --    82 C    1.644    84 C    1.182   107 H    0.969
    84   6 C    3.928 --    85 C    1.260   105 N    1.259    83 C    1.182
    85   6 C    3.943 --    86 C    1.260    84 C    1.260    74 C    1.170
    86   6 C    3.929 --    85 C    1.260    90 N    1.259    87 C    1.182
    87   6 C    3.961 --    88 C    1.644    86 C    1.182   108 H    0.969
    88   6 C    3.958 --    87 C    1.644    89 C    1.172   109 H    0.972
    89   6 C    3.937 --    91 C    1.361    90 N    1.216    88 C    1.172
    90   7 N    3.408 --    86 C    1.259    89 C    1.216    81 Fe   0.652
    91   6 C    3.937 --    92 C    1.361    89 C    1.361   110 H    0.963
    92   6 C    3.937 --    91 C    1.361    96 N    1.216    93 C    1.172
    93   6 C    3.958 --    94 C    1.644    92 C    1.172   111 H    0.972
    94   6 C    3.961 --    93 C    1.644    95 C    1.182   112 H    0.969
    95   6 C    3.928 --    97 C    1.259    96 N    1.259    94 C    1.182
    96   7 N    3.408 --    95 C    1.259    92 C    1.216    81 Fe   0.652
    97   6 C    3.943 --    98 C    1.259    95 C    1.259    75 C    1.172
    98   6 C    3.928 --    97 C    1.259   102 N    1.259    99 C    1.182
    99   6 C    3.961 --   100 C    1.644    98 C    1.182   113 H    0.969
   100   6 C    3.958 --    99 C    1.644   101 C    1.172   114 H    0.972
   101   6 C    3.937 --   103 C    1.361   102 N    1.216   100 C    1.172
   102   7 N    3.408 --    98 C    1.259   101 C    1.216    81 Fe   0.652
   103   6 C    3.937 --   101 C    1.361   104 C    1.361   115 H    0.963
   104   6 C    3.937 --   103 C    1.361   105 N    1.216    82 C    1.172
   105   7 N    3.408 --    84 C    1.259   104 C    1.216    81 Fe   0.653
   106   1 H    0.998 --    82 C    0.972
   107   1 H    0.998 --    83 C    0.969
   108   1 H    0.998 --    87 C    0.969
   109   1 H    0.998 --    88 C    0.972
   110   1 H    0.996 --    91 C    0.963
   111   1 H    0.998 --    93 C    0.972
   112   1 H    0.998 --    94 C    0.969
   113   1 H    0.998 --    99 C    0.969
   114   1 H    0.998 --   100 C    0.972
   115   1 H    0.996 --   103 C    0.963
   116  26 Fe   3.248 --   131 N    0.652   137 N    0.652   140 N    0.652
                           125 N    0.652
   117   6 C    3.958 --   118 C    1.644   139 C    1.172   141 H    0.972
   118   6 C    3.961 --   117 C    1.644   119 C    1.182   142 H    0.969
   119   6 C    3.928 --   120 C    1.259   140 N    1.259   118 C    1.182
   120   6 C    3.942 --   119 C    1.259   121 C    1.259    76 C    1.172
   121   6 C    3.928 --   125 N    1.259   120 C    1.259   122 C    1.182
   122   6 C    3.961 --   123 C    1.644   121 C    1.182   143 H    0.969
   123   6 C    3.958 --   122 C    1.644   124 C    1.172   144 H    0.972
   124   6 C    3.937 --   126 C    1.361   125 N    1.216   123 C    1.172
   125   7 N    3.407 --   121 C    1.259   124 C    1.216   116 Fe   0.652
   126   6 C    3.937 --   127 C    1.361   124 C    1.361   145 H    0.963
   127   6 C    3.937 --   126 C    1.361   131 N    1.215   128 C    1.172
   128   6 C    3.958 --   129 C    1.643   127 C    1.172   146 H    0.972
   129   6 C    3.961 --   128 C    1.643   130 C    1.182   147 H    0.968
   130   6 C    3.928 --   131 N    1.259   132 C    1.258   129 C    1.182
   131   7 N    3.408 --   130 C    1.259   127 C    1.215   116 Fe   0.652
   132   6 C    3.942 --   133 C    1.259   130 C    1.258    77 C    1.173
   133   6 C    3.928 --   137 N    1.259   132 C    1.259   134 C    1.182
   134   6 C    3.961 --   135 C    1.643   133 C    1.182   148 H    0.968
   135   6 C    3.958 --   134 C    1.643   136 C    1.172   149 H    0.972
   136   6 C    3.937 --   138 C    1.361   137 N    1.216   135 C    1.172
   137   7 N    3.408 --   133 C    1.259   136 C    1.216   116 Fe   0.652
   138   6 C    3.937 --   139 C    1.361   136 C    1.361   150 H    0.963
   139   6 C    3.937 --   138 C    1.361   140 N    1.216   117 C    1.172
   140   7 N    3.407 --   119 C    1.259   139 C    1.216   116 Fe   0.652
   141   1 H    0.998 --   117 C    0.972
   142   1 H    0.998 --   118 C    0.969
   143   1 H    0.998 --   122 C    0.969
   144   1 H    0.998 --   123 C    0.972
   145   1 H    0.996 --   126 C    0.963
   146   1 H    0.998 --   128 C    0.972
   147   1 H    0.998 --   129 C    0.968
   148   1 H    0.998 --   134 C    0.968
   149   1 H    0.998 --   135 C    0.972
   150   1 H    0.996 --   138 C    0.963
   151  26 Fe   3.248 --   172 N    0.653   166 N    0.652   160 N    0.652
                           175 N    0.652
   152   6 C    3.957 --   153 C    1.644   174 C    1.172   176 H    0.972
   153   6 C    3.961 --   152 C    1.644   154 C    1.182   177 H    0.968
   154   6 C    3.928 --   175 N    1.259   155 C    1.259   153 C    1.182
   155   6 C    3.943 --   156 C    1.259   154 C    1.259    78 C    1.173
   156   6 C    3.928 --   160 N    1.259   155 C    1.259   157 C    1.182
   157   6 C    3.961 --   158 C    1.643   156 C    1.182   178 H    0.968
   158   6 C    3.957 --   157 C    1.643   159 C    1.172   179 H    0.972
   159   6 C    3.937 --   161 C    1.360   160 N    1.216   158 C    1.172
   160   7 N    3.408 --   156 C    1.259   159 C    1.216   151 Fe   0.652
   161   6 C    3.937 --   162 C    1.361   159 C    1.360   180 H    0.963
   162   6 C    3.937 --   161 C    1.361   166 N    1.216   163 C    1.171
   163   6 C    3.958 --   164 C    1.644   162 C    1.171   181 H    0.972
   164   6 C    3.961 --   163 C    1.644   165 C    1.181   182 H    0.970
   165   6 C    3.929 --   167 C    1.261   166 N    1.259   164 C    1.181
   166   7 N    3.408 --   165 C    1.259   162 C    1.216   151 Fe   0.652
   167   6 C    3.942 --   165 C    1.261   168 C    1.261    79 C    1.168
   168   6 C    3.929 --   167 C    1.261   172 N    1.259   169 C    1.181
   169   6 C    3.961 --   170 C    1.644   168 C    1.181   183 H    0.969
   170   6 C    3.958 --   169 C    1.644   171 C    1.171   184 H    0.972
   171   6 C    3.937 --   173 C    1.361   172 N    1.216   170 C    1.171
   172   7 N    3.408 --   168 C    1.259   171 C    1.216   151 Fe   0.653
   173   6 C    3.937 --   171 C    1.361   174 C    1.361   185 H    0.963
   174   6 C    3.937 --   173 C    1.361   175 N    1.216   152 C    1.172
   175   7 N    3.408 --   154 C    1.259   174 C    1.216   151 Fe   0.652
   176   1 H    0.998 --   152 C    0.972
   177   1 H    0.998 --   153 C    0.968
   178   1 H    0.998 --   157 C    0.968
   179   1 H    0.998 --   158 C    0.972
   180   1 H    0.996 --   161 C    0.963
   181   1 H    0.998 --   163 C    0.972
   182   1 H    0.998 --   164 C    0.970
   183   1 H    0.998 --   169 C    0.969
   184   1 H    0.998 --   170 C    0.972
   185   1 H    0.996 --   173 C    0.963
 ---------------------------------------------------------------------------

Topologies differ in total number of bonds
Writing topology from bond orders to xtbtopo.mol

molecular dipole:
                 x           y           z       tot (Debye)
 q only:        0.005      -0.003      -0.001
   full:        0.005      -0.004       0.000       0.016
molecular quadrupole (traceless):
                xx          xy          yy          xz          yz          zz
 q only:       34.411      -0.586     -10.294      -0.088      -0.548     -24.117
  q+dip:       80.332      -0.743      -1.089       0.304      -3.068     -79.243
   full:       52.646      -0.764      -8.022       0.207      -1.442     -44.625


           -------------------------------------------------
          | TOTAL ENERGY             -332.159762287391 Eh   |
          | GRADIENT NORM               0.000920738585 Eh/α |
          | HOMO-LUMO GAP               0.242480683667 eV   |
           -------------------------------------------------

------------------------------------------------------------------------
 * finished run on 2021/11/21 at 01:41:53.925     
------------------------------------------------------------------------
 total:
 * wall-time:     0 d,  0 h,  0 min, 11.085 sec
 *  cpu-time:     0 d,  0 h,  0 min, 11.085 sec
 * ratio c/w:     1.000 speedup
 SCF:
 * wall-time:     0 d,  0 h,  0 min, 10.988 sec
 *  cpu-time:     0 d,  0 h,  0 min, 10.988 sec
 * ratio c/w:     1.000 speedup

