 Entering Gaussian System
 *********************************************
 Gaussian 98:
 frequency output generated by the xtb code
 *********************************************
                         Standard orientation:
 --------------------------------------------------------------------
  Center     Atomic     Atomic              Coordinates (Angstroms)
  Number     Number      Type              X           Y           Z
 --------------------------------------------------------------------
    1         26             0       11.744282   -0.002611   -0.009731
    2          6             0       14.243624   -3.392072    0.026622
    3          6             0       15.235479   -2.470795    0.016916
    4          6             0       14.594280   -1.191808    0.000872
    5          6             0       15.269849    0.032525   -0.013582
    6          6             0       14.570048    1.243085   -0.021660
    7          6             0       15.185678    2.534645   -0.029727
    8          6             0       14.175731    3.436122   -0.026282
    9          6             0       12.950933    2.689198   -0.017546
   10          7             0       13.213311    1.344264   -0.015786
   11          6             0       11.709095    3.293668   -0.011795
   12          6             0       10.481326    2.661574   -0.010735
   13          6             0        9.237890    3.381515   -0.010637
   14          6             0        8.250411    2.458235   -0.018423
   15          6             0        8.893474    1.176254   -0.021650
   16          7             0       10.251216    1.313672   -0.015894
   17          6             0        8.235804   -0.037653   -0.029177
   18          6             0        8.917562   -1.238206   -0.024350
   19          6             0        8.300268   -2.532802   -0.025110
   20          6             0        9.305934   -3.436155   -0.010436
   21          6             0       10.534656   -2.691457   -0.002250
   22          7             0       10.277749   -1.348457   -0.011921
   23          6             0       11.774715   -3.298863    0.013330
   24          6             0       13.004222   -2.669730    0.015107
   25          7             0       13.239838   -1.319892    0.000860
   26          1             0       14.324234   -4.461846    0.039713
   27          1             0       16.297664   -2.620673    0.020362
   28          1             0       16.244716    2.705479   -0.036190
   29          1             0       14.235018    4.507376   -0.029571
   30          1             0       11.698219    4.374488   -0.010381
   31          1             0        9.156214    4.451499   -0.005864
   32          1             0        7.188021    2.607691   -0.021266
   33          1             0        7.156922   -0.048419   -0.036682
   34          1             0        7.241129   -2.703488   -0.034854
   35          1             0        9.245690   -4.507570   -0.005704
   36          1             0       11.785407   -4.379639    0.022971
   37         26             0       44.106493    0.026685   -0.007367
   38          6             0       41.620106    3.371086    0.600514
   39          6             0       40.624776    2.468186    0.437156
   40          6             0       41.261111    1.207511    0.206878
   41          6             0       40.580852    0.005313   -0.010532
   42          6             0       41.275915   -1.189030   -0.224305
   43          6             0       40.655315   -2.457804   -0.452938
   44          6             0       41.661816   -3.349281   -0.610502
   45          6             0       42.889483   -2.619055   -0.477548
   46          7             0       42.632269   -1.294003   -0.241309
   47          6             0       44.128965   -3.219387   -0.581406
   48          6             0       45.359140   -2.601681   -0.471710
   49          6             0       46.599745   -3.315458   -0.597493
   50          6             0       47.590806   -2.409268   -0.441797
   51          6             0       46.952725   -1.143965   -0.220732
   52          7             0       45.594440   -1.274675   -0.240471
   53          6             0       47.615099    0.049913   -0.015640
   54          6             0       46.937976    1.234575    0.194607
   55          6             0       47.560291    2.507604    0.416297
   56          6             0       46.558096    3.399813    0.581143
   57          6             0       45.326452    2.670054    0.458941
   58          7             0       45.578187    1.347080    0.221997
   59          6             0       44.088711    3.271490    0.573937
   60          6             0       42.856782    2.656105    0.468097
   61          7             0       42.616066    1.328702    0.227731
   62          1             0       41.543598    4.423866    0.792515
   63          1             0       39.563135    2.619255    0.466344
   64          1             0       39.595655   -2.621669   -0.484545
   65          1             0       41.598410   -4.403454   -0.799663
   66          1             0       44.135662   -4.283803   -0.769165
   67          1             0       46.677220   -4.369951   -0.780823
   68          1             0       48.652607   -2.560257   -0.469828
   69          1             0       48.694032    0.057171   -0.018881
   70          1             0       48.620111    2.672709    0.438887
   71          1             0       46.622510    4.454561    0.768048
   72          1             0       44.082195    4.335220    0.765560
   73          6             0       16.665236    0.045346   -0.015862
   74          6             0       17.884761    0.046381   -0.018967
   75          6             0       19.221261    0.051522   -0.017975
   76          6             0       20.445188    0.051556   -0.014796
   77          6             0       21.781544    0.050077   -0.011305
   78          6             0       23.001196    0.044332   -0.005494
   79          6             0       32.849419   -0.007643   -0.010747
   80          6             0       34.069047   -0.014637   -0.016514
   81          6             0       35.405473   -0.014930   -0.011899
   82          6             0       36.629334   -0.016696   -0.021395
   83          6             0       37.965890   -0.011464   -0.015231
   84          6             0       39.185345   -0.002314   -0.015149
   85         26             0       27.925261    0.018700   -0.004390
   86          6             0       25.439945   -3.363031    0.356119
   87          6             0       24.443351   -2.451532    0.261723
   88          6             0       25.078132   -1.176562    0.125534
   89          6             0       24.395965    0.037770   -0.003705
   90          6             0       25.091024    1.244798   -0.132468
   91          6             0       24.469991    2.526282   -0.270694
   92          6             0       25.476355    3.426855   -0.366650
   93          6             0       26.703690    2.689116   -0.285964
   94          7             0       26.446699    1.350505   -0.143036
   95          6             0       27.942876    3.295213   -0.347846
   96          6             0       29.175449    2.676374   -0.280758
   97          6             0       30.410717    3.401551   -0.354462
   98          6             0       31.407291    2.490072   -0.259794
   99          6             0       30.772457    1.214500   -0.129446
  100          7             0       29.418008    1.334624   -0.141969
  101          6             0       31.454575   -0.000810   -0.009883
  102          6             0       30.759552   -1.208552    0.111642
  103          6             0       31.380598   -2.491276    0.237769
  104          6             0       30.374244   -3.391754    0.334816
  105          6             0       29.146911   -2.652730    0.266447
  106          7             0       29.403865   -1.313574    0.128764
  107          6             0       27.907738   -3.258041    0.335932
  108          6             0       26.675182   -2.638398    0.276711
  109          7             0       26.432575   -1.296843    0.136067
  110          1             0       25.365083   -4.427396    0.468348
  111          1             0       23.381937   -2.605621    0.279892
  112          1             0       23.410297    2.691667   -0.289545
  113          1             0       25.412953    4.491696   -0.481512
  114          1             0       27.948653    4.370165   -0.461295
  115          1             0       30.485623    4.466135   -0.464390
  116          1             0       32.468715    2.644399   -0.275236
  117          1             0       32.440318   -2.657483    0.248562
  118          1             0       30.437639   -4.457362    0.442312
  119          1             0       27.901963   -4.333158    0.447822
 --------------------------------------------------------------------
     1 basis functions        1 primitive gaussians
     1 alpha electrons        1 beta electrons

 Harmonic frequencies (cm**-1), IR intensities (km*mol⁻¹),
 Raman scattering activities (A**4/amu), Raman depolarization ratios,
 reduced masses (AMU), force constants (mDyne/A) and normal coordinates:
                      1                      2                      3
                        a                      a                      a 
 Frequencies --    -1.8841                 0.7258                 1.1780
 Red. masses --    11.2467                14.7087                13.9379
 Frc consts  --     0.0000                 0.0000                 0.0000
 IR Inten    --    15.3845               212.7546                 7.1323
 Raman Activ --     0.0000                 0.0000                 0.0000
 Depolar     --     0.0000                 0.0000                 0.0000
 Atom AN      X      Y      Z        X      Y      Z        X      Y      Z
   1  26    -0.00   0.00   0.01     0.00  -0.01  -0.12    -0.00  -0.01  -0.11
   2   6    -0.00   0.00   0.18     0.00  -0.00   0.08     0.00  -0.00  -0.11
   3   6    -0.00   0.00   0.13     0.00  -0.00   0.07     0.00  -0.00  -0.07
   4   6    -0.00   0.00   0.06     0.00  -0.00   0.02     0.00  -0.00  -0.04
   5   6    -0.00   0.00  -0.00     0.00  -0.00  -0.00    -0.00  -0.00  -0.00
   6   6    -0.00   0.00  -0.06    -0.00  -0.00  -0.05    -0.00  -0.00   0.02
   7   6    -0.00  -0.00  -0.13    -0.00  -0.00  -0.08    -0.00  -0.00   0.06
   8   6    -0.00  -0.00  -0.18    -0.00  -0.00  -0.12    -0.00  -0.00   0.08
   9   6    -0.00   0.00  -0.14    -0.00  -0.00  -0.11    -0.00  -0.00   0.04
  10   7    -0.00   0.00  -0.07    -0.00  -0.00  -0.08    -0.00  -0.00   0.01
  11   6    -0.00   0.00  -0.17    -0.00  -0.00  -0.15    -0.00  -0.00   0.04
  12   6    -0.00   0.00  -0.14    -0.00  -0.00  -0.16    -0.00  -0.01   0.01
  13   6    -0.00   0.00  -0.17    -0.00  -0.00  -0.20    -0.00  -0.01   0.01
  14   6    -0.00   0.00  -0.12    -0.00  -0.01  -0.19    -0.00  -0.01  -0.03
  15   6    -0.00   0.00  -0.05     0.00  -0.01  -0.14    -0.00  -0.01  -0.05
  16   7    -0.00   0.00  -0.07     0.00  -0.01  -0.13    -0.00  -0.01  -0.03
  17   6    -0.00   0.00   0.01     0.00  -0.01  -0.11    -0.00  -0.01  -0.10
  18   6    -0.00   0.00   0.08     0.00  -0.00  -0.07     0.00  -0.01  -0.12
  19   6    -0.00   0.00   0.15     0.00  -0.01  -0.04     0.00  -0.01  -0.17
  20   6    -0.00   0.00   0.19     0.00  -0.00   0.01     0.00  -0.01  -0.18
  21   6    -0.00   0.00   0.15     0.00  -0.00   0.01     0.00  -0.01  -0.14
  22   7    -0.00   0.00   0.09     0.00  -0.00  -0.04     0.00  -0.01  -0.11
  23   6    -0.00   0.00   0.18     0.00  -0.00   0.05     0.00  -0.01  -0.14
  24   6    -0.00   0.00   0.15     0.00  -0.00   0.04     0.00  -0.00  -0.11
  25   7    -0.00   0.00   0.08     0.00  -0.00   0.01     0.00  -0.00  -0.07
  26   1    -0.00   0.00   0.07     0.00  -0.00   0.03     0.00  -0.00  -0.04
  27   1    -0.00   0.00   0.04     0.00  -0.00   0.03     0.00  -0.00  -0.02
  28   1    -0.00  -0.00  -0.04    -0.00  -0.00  -0.02    -0.00   0.00   0.02
  29   1    -0.00  -0.00  -0.07    -0.00  -0.00  -0.04    -0.00  -0.00   0.03
  30   1    -0.00   0.00  -0.07    -0.00  -0.00  -0.05    -0.00  -0.00   0.02
  31   1    -0.00   0.00  -0.07    -0.00  -0.00  -0.07    -0.00  -0.00   0.01
  32   1    -0.00   0.00  -0.04    -0.00  -0.00  -0.06    -0.00  -0.00  -0.01
  33   1    -0.00  -0.00   0.00     0.00  -0.00  -0.04    -0.00  -0.00  -0.03
  34   1    -0.00  -0.00   0.05     0.00  -0.00  -0.01     0.00  -0.00  -0.05
  35   1    -0.00   0.00   0.07     0.00  -0.00   0.01     0.00  -0.00  -0.06
  36   1    -0.00   0.00   0.07     0.00  -0.00   0.02     0.00  -0.00  -0.05
  37  26     0.00   0.00   0.01    -0.00  -0.01  -0.12     0.00  -0.01  -0.11
  38   6    -0.00  -0.04   0.21     0.01   0.01  -0.07     0.01  -0.02   0.05
  39   6    -0.00  -0.03   0.15     0.01   0.01  -0.04     0.01  -0.01   0.05
  40   6    -0.00  -0.01   0.08     0.00   0.00  -0.03     0.00  -0.01   0.01
  41   6     0.00  -0.00   0.00    -0.00  -0.00  -0.01     0.00  -0.00  -0.01
  42   6     0.00   0.01  -0.07    -0.00  -0.00  -0.00    -0.00   0.00  -0.04
  43   6     0.00   0.03  -0.15    -0.01  -0.01   0.02    -0.01   0.01  -0.06
  44   6     0.00   0.04  -0.20    -0.01  -0.01   0.02    -0.01   0.01  -0.09
  45   6     0.00   0.03  -0.16    -0.01  -0.01  -0.00    -0.01   0.01  -0.09
  46   7     0.00   0.02  -0.08    -0.00  -0.01  -0.02    -0.00   0.00  -0.07
  47   6     0.00   0.04  -0.19    -0.01  -0.01  -0.01    -0.01   0.01  -0.12
  48   6     0.00   0.03  -0.16    -0.01  -0.01  -0.04    -0.01   0.01  -0.12
  49   6     0.00   0.04  -0.20    -0.01  -0.01  -0.04    -0.01   0.01  -0.16
  50   6     0.00   0.03  -0.14    -0.01  -0.01  -0.07    -0.01   0.00  -0.15
  51   6     0.00   0.02  -0.07    -0.00  -0.01  -0.08    -0.00  -0.00  -0.11
  52   7     0.00   0.02  -0.08    -0.00  -0.01  -0.06    -0.00   0.00  -0.10
  53   6     0.00   0.00   0.01    -0.00  -0.01  -0.10     0.00  -0.01  -0.09
  54   6     0.00  -0.01   0.08     0.00  -0.00  -0.11     0.00  -0.01  -0.06
  55   6    -0.00  -0.02   0.16     0.01   0.00  -0.14     0.01  -0.02  -0.03
  56   6    -0.00  -0.03   0.22     0.01   0.00  -0.14     0.01  -0.02  -0.00
  57   6    -0.00  -0.03   0.17     0.01   0.00  -0.11     0.01  -0.02  -0.00
  58   7     0.00  -0.01   0.10     0.00  -0.00  -0.10     0.00  -0.01  -0.04
  59   6    -0.00  -0.04   0.21     0.01   0.01  -0.10     0.01  -0.02   0.02
  60   6    -0.00  -0.03   0.17     0.01   0.01  -0.08     0.01  -0.01   0.02
  61   7    -0.00  -0.02   0.09     0.00   0.00  -0.06     0.00  -0.01  -0.00
  62   1    -0.00  -0.01   0.08     0.00   0.00  -0.02     0.00  -0.01   0.02
  63   1    -0.00  -0.01   0.05     0.00   0.00  -0.01     0.00  -0.00   0.02
  64   1     0.00   0.01  -0.05    -0.00  -0.00   0.01    -0.00   0.00  -0.02
  65   1     0.00   0.01  -0.08    -0.00  -0.00   0.01    -0.00   0.00  -0.03
  66   1     0.00   0.01  -0.08    -0.00  -0.00   0.00    -0.00   0.00  -0.04
  67   1     0.00   0.01  -0.08    -0.00  -0.00  -0.01    -0.00   0.00  -0.05
  68   1     0.00   0.01  -0.04    -0.00  -0.00  -0.02    -0.00   0.00  -0.05
  69   1     0.00   0.00   0.00    -0.00  -0.00  -0.03     0.00  -0.00  -0.03
  70   1    -0.00  -0.01   0.05     0.00   0.00  -0.04     0.00  -0.01  -0.01
  71   1    -0.00  -0.01   0.08     0.00   0.00  -0.04     0.00  -0.01   0.01
  72   1    -0.00  -0.01   0.08     0.00   0.00  -0.03     0.00  -0.01   0.01
  73   6    -0.00   0.00  -0.00     0.00  -0.00   0.02    -0.00   0.00   0.01
  74   6    -0.00   0.00  -0.00     0.00  -0.00   0.03    -0.00   0.00   0.03
  75   6    -0.00  -0.00  -0.01     0.00   0.00   0.05    -0.00   0.00   0.04
  76   6    -0.00  -0.00  -0.01     0.00   0.00   0.06    -0.00   0.00   0.05
  77   6    -0.00  -0.00  -0.01     0.00   0.00   0.07    -0.00   0.01   0.06
  78   6    -0.00  -0.00  -0.01     0.00   0.00   0.08    -0.00   0.01   0.07
  79   6     0.00  -0.00  -0.01    -0.00   0.00   0.07     0.00   0.01   0.07
  80   6     0.00  -0.00  -0.00    -0.00   0.00   0.06     0.00   0.00   0.06
  81   6     0.00  -0.00  -0.00    -0.00   0.00   0.05     0.00   0.00   0.05
  82   6     0.00  -0.00  -0.00    -0.00   0.00   0.04     0.00   0.00   0.03
  83   6     0.00  -0.00  -0.00    -0.00   0.00   0.02     0.00   0.00   0.02
  84   6     0.00  -0.00   0.00    -0.00   0.00   0.01     0.00   0.00   0.01
  85  26    -0.00  -0.00  -0.02    -0.00   0.01   0.20    -0.00   0.02   0.18
  86   6    -0.00   0.00   0.02     0.00  -0.01  -0.05     0.00   0.03   0.26
  87   6    -0.00   0.00   0.01     0.00  -0.01  -0.01    -0.00   0.02   0.21
  88   6    -0.00  -0.00   0.00     0.00  -0.00   0.04    -0.00   0.01   0.14
  89   6    -0.00  -0.00  -0.01     0.00   0.00   0.09    -0.00   0.01   0.08
  90   6    -0.00  -0.00  -0.02    -0.00   0.01   0.14    -0.00   0.00   0.02
  91   6     0.00  -0.00  -0.03    -0.00   0.02   0.20     0.00  -0.01  -0.04
  92   6     0.00  -0.00  -0.04    -0.00   0.02   0.25     0.00  -0.01  -0.08
  93   6     0.00  -0.00  -0.03    -0.00   0.02   0.22     0.00  -0.01  -0.05
  94   7    -0.00  -0.00  -0.02    -0.00   0.01   0.16    -0.00   0.00   0.02
  95   6     0.00  -0.00  -0.04    -0.00   0.02   0.24    -0.00  -0.01  -0.08
  96   6     0.00  -0.00  -0.03    -0.00   0.02   0.21    -0.00  -0.01  -0.05
  97   6     0.00  -0.00  -0.03    -0.00   0.02   0.24    -0.00  -0.01  -0.09
  98   6     0.00  -0.00  -0.03    -0.00   0.02   0.20    -0.00  -0.01  -0.05
  99   6     0.00  -0.00  -0.02    -0.00   0.01   0.14     0.00   0.00   0.02
 100   7     0.00  -0.00  -0.02    -0.00   0.01   0.16    -0.00   0.00   0.02
 101   6     0.00  -0.00  -0.01    -0.00   0.01   0.08     0.00   0.01   0.07
 102   6     0.00  -0.00   0.00     0.00   0.00   0.03    -0.00   0.01   0.14
 103   6    -0.00  -0.00   0.01     0.00  -0.00  -0.02    -0.00   0.02   0.20
 104   6    -0.00   0.00   0.02     0.00  -0.01  -0.05    -0.00   0.03   0.26
 105   6    -0.00   0.00   0.01     0.00  -0.01  -0.02    -0.00   0.02   0.22
 106   7     0.00  -0.00   0.00     0.00  -0.00   0.04    -0.00   0.02   0.16
 107   6    -0.00   0.00   0.02     0.00  -0.01  -0.04    -0.00   0.03   0.26
 108   6    -0.00   0.00   0.01     0.00  -0.01  -0.02     0.00   0.02   0.22
 109   7    -0.00  -0.00   0.00     0.00  -0.00   0.04    -0.00   0.02   0.16
 110   1    -0.00   0.00   0.01     0.00  -0.00  -0.03     0.00   0.01   0.09
 111   1    -0.00   0.00   0.00     0.00  -0.00  -0.01    -0.00   0.01   0.06
 112   1     0.00  -0.00  -0.01    -0.00   0.00   0.06     0.00  -0.00  -0.02
 113   1     0.00  -0.00  -0.01    -0.00   0.01   0.09     0.00  -0.00  -0.04
 114   1     0.00  -0.00  -0.01    -0.00   0.01   0.09     0.00  -0.00  -0.04
 115   1     0.00  -0.00  -0.01    -0.00   0.01   0.08    -0.00  -0.00  -0.04
 116   1     0.00  -0.00  -0.01    -0.00   0.00   0.06    -0.00  -0.00  -0.02
 117   1    -0.00  -0.00   0.00     0.00  -0.00  -0.01    -0.00   0.01   0.06
 118   1    -0.00   0.00   0.01     0.00  -0.00  -0.03    -0.00   0.01   0.09
 119   1    -0.00   0.00   0.01     0.00  -0.00  -0.02    -0.00   0.01   0.09
                      4                      5                      6
                        a                      a                      a 
 Frequencies --     2.2428                 6.7279                 7.0709
 Red. masses --    16.2763                11.5152                11.6034
 Frc consts  --     0.0000                 0.0000                 0.0000
 IR Inten    --     1.9463                10.3050                 8.5824
 Raman Activ --     0.0000                 0.0000                 0.0000
 Depolar     --     0.0000                 0.0000                 0.0000
 Atom AN      X      Y      Z        X      Y      Z        X      Y      Z
   1  26     0.00  -0.15   0.01    -0.00   0.01   0.00     0.00  -0.00  -0.00
   2   6     0.07  -0.02   0.00    -0.10  -0.07   0.00     0.00   0.00   0.11
   3   6     0.05   0.00   0.00    -0.07  -0.10   0.00     0.00   0.00   0.14
   4   6     0.03  -0.01   0.00    -0.04  -0.08   0.00     0.00   0.00   0.11
   5   6    -0.00   0.00  -0.00    -0.00  -0.10   0.00     0.00   0.00   0.12
   6   6    -0.03  -0.01  -0.00     0.03  -0.08   0.00    -0.00   0.00   0.11
   7   6    -0.05   0.00  -0.00     0.07  -0.09   0.00    -0.00   0.00   0.13
   8   6    -0.07  -0.02  -0.00     0.10  -0.07  -0.00    -0.00   0.00   0.11
   9   6    -0.06  -0.04  -0.00     0.08  -0.03   0.00    -0.00   0.00   0.06
  10   7    -0.03  -0.04   0.00     0.04  -0.04   0.00    -0.00   0.00   0.06
  11   6    -0.07  -0.07   0.00     0.09   0.01  -0.00    -0.00  -0.00   0.01
  12   6    -0.05  -0.10   0.01     0.07   0.04  -0.00    -0.00  -0.00  -0.05
  13   6    -0.07  -0.12   0.01     0.10   0.08  -0.00    -0.00  -0.00  -0.11
  14   6    -0.05  -0.14   0.01     0.07   0.11  -0.00    -0.00  -0.00  -0.16
  15   6    -0.02  -0.13   0.01     0.03   0.09  -0.00     0.00  -0.00  -0.14
  16   7    -0.03  -0.11   0.01     0.04   0.05  -0.00    -0.00  -0.00  -0.07
  17   6     0.00  -0.14   0.01    -0.00   0.11  -0.00     0.00  -0.00  -0.17
  18   6     0.03  -0.13   0.01    -0.04   0.09  -0.00     0.00  -0.00  -0.13
  19   6     0.05  -0.14   0.02    -0.08   0.10   0.00     0.00  -0.00  -0.16
  20   6     0.07  -0.12   0.01    -0.10   0.08   0.00     0.00  -0.00  -0.10
  21   6     0.06  -0.09   0.01    -0.08   0.04   0.00     0.00  -0.00  -0.05
  22   7     0.03  -0.11   0.01    -0.04   0.05   0.00     0.00  -0.00  -0.07
  23   6     0.07  -0.07   0.01    -0.10   0.00   0.00     0.00   0.00   0.01
  24   6     0.06  -0.04   0.01    -0.08  -0.03   0.00     0.00   0.00   0.06
  25   7     0.03  -0.04   0.00    -0.04  -0.04   0.00     0.00   0.00   0.07
  26   1     0.03  -0.00   0.00    -0.04  -0.02   0.00     0.00   0.00   0.03
  27   1     0.02   0.01  -0.00    -0.02  -0.04   0.00     0.00   0.00   0.05
  28   1    -0.02   0.01  -0.00     0.02  -0.04  -0.00    -0.00   0.00   0.05
  29   1    -0.03  -0.01  -0.00     0.04  -0.02  -0.00    -0.00   0.00   0.03
  30   1    -0.03  -0.02   0.00     0.04   0.00  -0.00    -0.00  -0.00   0.00
  31   1    -0.03  -0.04   0.00     0.04   0.02  -0.00    -0.00  -0.00  -0.03
  32   1    -0.02  -0.05   0.00     0.02   0.04  -0.00    -0.00  -0.00  -0.06
  33   1     0.00  -0.05   0.00    -0.00   0.04  -0.00     0.00  -0.00  -0.06
  34   1     0.02  -0.05   0.01    -0.02   0.04  -0.00     0.00  -0.00  -0.06
  35   1     0.03  -0.04   0.00    -0.04   0.02   0.00     0.00  -0.00  -0.03
  36   1     0.03  -0.02   0.00    -0.04   0.00   0.00     0.00   0.00   0.01
  37  26     0.00  -0.15   0.01     0.00  -0.01   0.00    -0.00  -0.00   0.02
  38   6     0.07  -0.02   0.00     0.10   0.07  -0.00    -0.02   0.00  -0.09
  39   6     0.05   0.00  -0.00     0.07   0.10  -0.00    -0.01   0.00  -0.12
  40   6     0.02  -0.01   0.00     0.04   0.08  -0.00    -0.01   0.00  -0.09
  41   6    -0.00   0.00  -0.00     0.00   0.10  -0.00    -0.00   0.00  -0.11
  42   6    -0.02  -0.01   0.00    -0.03   0.08  -0.00     0.01   0.00  -0.09
  43   6    -0.05   0.00  -0.00    -0.07   0.10  -0.00     0.01   0.00  -0.12
  44   6    -0.07  -0.02   0.00    -0.10   0.07  -0.00     0.02   0.00  -0.09
  45   6    -0.05  -0.04   0.00    -0.07   0.03  -0.00     0.01   0.00  -0.05
  46   7    -0.03  -0.04   0.00    -0.04   0.04  -0.00     0.01   0.00  -0.05
  47   6    -0.07  -0.07   0.01    -0.09  -0.00  -0.00     0.02   0.00  -0.00
  48   6    -0.05  -0.10   0.01    -0.07  -0.04   0.00     0.01  -0.00   0.05
  49   6    -0.07  -0.12   0.01    -0.09  -0.08   0.00     0.02  -0.01   0.10
  50   6    -0.05  -0.14   0.01    -0.07  -0.11   0.01     0.01  -0.01   0.15
  51   6    -0.02  -0.13   0.01    -0.03  -0.09   0.01     0.01  -0.01   0.13
  52   7    -0.03  -0.11   0.01    -0.04  -0.05   0.00     0.01  -0.00   0.07
  53   6     0.00  -0.14   0.01     0.00  -0.11   0.01     0.00  -0.01   0.16
  54   6     0.03  -0.13   0.01     0.04  -0.09   0.01    -0.01  -0.01   0.13
  55   6     0.05  -0.14   0.01     0.07  -0.11   0.01    -0.01  -0.01   0.15
  56   6     0.07  -0.12   0.01     0.10  -0.08   0.01    -0.02  -0.01   0.10
  57   6     0.05  -0.10   0.01     0.08  -0.04   0.00    -0.01  -0.00   0.05
  58   7     0.03  -0.11   0.01     0.04  -0.05   0.01    -0.01  -0.00   0.07
  59   6     0.07  -0.07   0.01     0.10  -0.00   0.00    -0.02   0.00  -0.00
  60   6     0.05  -0.04   0.00     0.08   0.03  -0.00    -0.01   0.00  -0.05
  61   7     0.03  -0.04   0.00     0.04   0.04  -0.00    -0.01   0.00  -0.05
  62   1     0.03  -0.00   0.00     0.04   0.02  -0.00    -0.01   0.00  -0.03
  63   1     0.02   0.01  -0.00     0.02   0.04  -0.00    -0.00   0.00  -0.04
  64   1    -0.02   0.01  -0.00    -0.02   0.04  -0.00     0.00   0.00  -0.05
  65   1    -0.03  -0.00   0.00    -0.04   0.02  -0.00     0.01   0.00  -0.03
  66   1    -0.03  -0.02   0.00    -0.04  -0.00  -0.00     0.01   0.00  -0.00
  67   1    -0.03  -0.04   0.00    -0.04  -0.02   0.00     0.01  -0.00   0.03
  68   1    -0.02  -0.05   0.00    -0.02  -0.04   0.00     0.00  -0.00   0.06
  69   1     0.00  -0.05   0.00     0.00  -0.04   0.00     0.00  -0.00   0.06
  70   1     0.02  -0.05   0.00     0.02  -0.04   0.00    -0.00  -0.00   0.06
  71   1     0.03  -0.04   0.00     0.04  -0.02   0.00    -0.01  -0.00   0.03
  72   1     0.03  -0.02   0.00     0.04  -0.00   0.00    -0.01   0.00  -0.00
  73   6    -0.00   0.03  -0.00    -0.00  -0.13   0.00     0.00   0.00   0.16
  74   6    -0.00   0.05  -0.01    -0.00  -0.15   0.00     0.00   0.00   0.17
  75   6    -0.00   0.07  -0.01    -0.00  -0.16  -0.00     0.00   0.00   0.18
  76   6    -0.00   0.09  -0.01    -0.00  -0.16  -0.00     0.00   0.00   0.17
  77   6    -0.00   0.10  -0.01    -0.00  -0.15  -0.00     0.00   0.00   0.16
  78   6    -0.00   0.11  -0.01    -0.00  -0.13  -0.00     0.00   0.00   0.14
  79   6    -0.00   0.11  -0.01     0.00   0.13  -0.00    -0.00  -0.00  -0.14
  80   6    -0.00   0.10  -0.01     0.00   0.15  -0.00    -0.00  -0.00  -0.16
  81   6    -0.00   0.09  -0.01     0.00   0.16  -0.00    -0.00   0.00  -0.17
  82   6    -0.00   0.07  -0.01     0.00   0.16  -0.00    -0.00   0.00  -0.17
  83   6    -0.00   0.05  -0.00     0.00   0.15  -0.00    -0.00   0.00  -0.16
  84   6    -0.00   0.03  -0.00     0.00   0.13  -0.00    -0.00   0.00  -0.14
  85  26    -0.00   0.24  -0.02     0.00  -0.00  -0.00     0.00   0.00  -0.02
  86   6    -0.00   0.11  -0.01     0.09  -0.07  -0.00     0.01   0.00   0.07
  87   6    -0.00   0.11  -0.01     0.07  -0.09  -0.00     0.01   0.00   0.10
  88   6    -0.00   0.11  -0.01     0.03  -0.08  -0.00     0.00   0.00   0.08
  89   6    -0.00   0.11  -0.01    -0.00  -0.10  -0.00     0.00   0.00   0.10
  90   6    -0.00   0.11  -0.01    -0.03  -0.08  -0.00    -0.00   0.00   0.08
  91   6    -0.00   0.11  -0.01    -0.07  -0.09  -0.00    -0.01   0.00   0.10
  92   6    -0.00   0.11  -0.01    -0.09  -0.07  -0.00    -0.01   0.00   0.07
  93   6    -0.00   0.11  -0.01    -0.07  -0.03  -0.00    -0.01   0.00   0.03
  94   7    -0.00   0.12  -0.01    -0.04  -0.04  -0.00    -0.00   0.00   0.04
  95   6    -0.00   0.11  -0.01    -0.09   0.00  -0.00    -0.01   0.00  -0.01
  96   6    -0.00   0.11  -0.01    -0.07   0.03  -0.00    -0.01  -0.00  -0.05
  97   6    -0.00   0.11  -0.00    -0.09   0.07  -0.00    -0.01  -0.00  -0.09
  98   6    -0.00   0.11  -0.01    -0.07   0.09  -0.00    -0.01  -0.00  -0.12
  99   6    -0.00   0.11  -0.01    -0.03   0.08  -0.00    -0.00  -0.00  -0.09
 100   7    -0.00   0.12  -0.01    -0.04   0.04  -0.00    -0.00  -0.00  -0.06
 101   6    -0.00   0.11  -0.01     0.00   0.10  -0.00     0.00  -0.00  -0.11
 102   6    -0.00   0.11  -0.01     0.03   0.08  -0.00     0.00  -0.00  -0.09
 103   6    -0.00   0.11  -0.01     0.07   0.09   0.00     0.01  -0.00  -0.11
 104   6    -0.00   0.11  -0.01     0.09   0.07   0.00     0.01  -0.00  -0.08
 105   6    -0.00   0.11  -0.01     0.07   0.03  -0.00     0.01   0.00  -0.04
 106   7    -0.00   0.12  -0.01     0.04   0.04  -0.00     0.00   0.00  -0.06
 107   6    -0.00   0.11  -0.01     0.09  -0.00  -0.00     0.01   0.00  -0.01
 108   6    -0.00   0.11  -0.01     0.07  -0.03  -0.00     0.01   0.00   0.03
 109   7    -0.00   0.12  -0.01     0.04  -0.04  -0.00     0.00   0.00   0.04
 110   1    -0.00   0.03  -0.00     0.03  -0.02  -0.00     0.00   0.00   0.02
 111   1    -0.00   0.03  -0.00     0.02  -0.04  -0.00     0.00   0.00   0.04
 112   1    -0.00   0.03  -0.00    -0.02  -0.04  -0.00    -0.00   0.00   0.04
 113   1    -0.00   0.03  -0.00    -0.03  -0.02  -0.00    -0.00   0.00   0.02
 114   1    -0.00   0.03  -0.00    -0.03   0.00  -0.00    -0.00   0.00  -0.00
 115   1    -0.00   0.03  -0.00    -0.03   0.02  -0.00    -0.00  -0.00  -0.03
 116   1    -0.00   0.03  -0.00    -0.02   0.04  -0.00    -0.00  -0.00  -0.04
 117   1    -0.00   0.03  -0.00     0.02   0.04   0.00     0.00  -0.00  -0.04
 118   1    -0.00   0.03  -0.00     0.03   0.02   0.00     0.00  -0.00  -0.02
 119   1    -0.00   0.03  -0.00     0.03  -0.00   0.00     0.00   0.00  -0.00
                      7                      8                      9
                        a                      a                      a 
 Frequencies --    10.8315                17.9345                19.1138
 Red. masses --    12.7285                13.2084                12.2763
 Frc consts  --     0.0000                 0.0000                 0.0000
 IR Inten    --    12.7485                 5.6534                27.4536
 Raman Activ --     0.0000                 0.0000                 0.0000
 Depolar     --     0.0000                 0.0000                 0.0000
 Atom AN      X      Y      Z        X      Y      Z        X      Y      Z
   1  26     0.00  -0.00  -0.04     0.00   0.06   0.02    -0.00  -0.04   0.07
   2   6    -0.00  -0.01  -0.14     0.09   0.09   0.05    -0.05  -0.05   0.13
   3   6    -0.00  -0.01  -0.15     0.06   0.12   0.04    -0.04  -0.07   0.10
   4   6    -0.00  -0.01  -0.12     0.03   0.10   0.02    -0.02  -0.06   0.07
   5   6     0.00  -0.01  -0.13    -0.00   0.12   0.02    -0.00  -0.07   0.04
   6   6     0.00  -0.01  -0.12    -0.03   0.10   0.02     0.02  -0.06   0.07
   7   6     0.00  -0.01  -0.15    -0.06   0.12   0.04     0.04  -0.07   0.10
   8   6     0.01  -0.01  -0.14    -0.09   0.09   0.05     0.05  -0.05   0.13
   9   6     0.01  -0.00  -0.09    -0.07   0.06   0.04     0.04  -0.03   0.11
  10   7     0.00  -0.00  -0.09    -0.04   0.07   0.03     0.02  -0.04   0.08
  11   6     0.01  -0.00  -0.05    -0.09   0.03   0.03     0.05  -0.02   0.10
  12   6     0.01   0.00   0.02    -0.07  -0.01   0.01     0.04   0.00   0.03
  13   6     0.01   0.00   0.08    -0.09  -0.04  -0.01     0.05   0.02  -0.02
  14   6     0.00   0.01   0.15    -0.06  -0.07  -0.04     0.04   0.04  -0.11
  15   6     0.00   0.00   0.13    -0.03  -0.05  -0.03     0.02   0.03  -0.10
  16   7     0.00   0.00   0.05    -0.04  -0.01  -0.01     0.02   0.01  -0.02
  17   6    -0.00   0.01   0.17     0.00  -0.07  -0.05     0.00   0.04  -0.15
  18   6    -0.00   0.00   0.13     0.03  -0.05  -0.04    -0.02   0.03  -0.10
  19   6    -0.01   0.01   0.15     0.07  -0.06  -0.04    -0.04   0.04  -0.11
  20   6    -0.01   0.00   0.08     0.09  -0.04  -0.01    -0.05   0.02  -0.03
  21   6    -0.00   0.00   0.02     0.07  -0.01   0.01    -0.04   0.00   0.03
  22   7    -0.00   0.00   0.05     0.04  -0.01  -0.01    -0.02   0.01  -0.02
  23   6    -0.01  -0.00  -0.05     0.09   0.03   0.03    -0.05  -0.02   0.10
  24   6    -0.00  -0.00  -0.09     0.07   0.06   0.04    -0.04  -0.03   0.11
  25   7    -0.00  -0.00  -0.09     0.04   0.07   0.03    -0.02  -0.04   0.08
  26   1    -0.00  -0.00  -0.05     0.03   0.03   0.02    -0.02  -0.02   0.05
  27   1    -0.00  -0.00  -0.05     0.02   0.04   0.01    -0.01  -0.02   0.03
  28   1     0.00  -0.00  -0.05    -0.02   0.04   0.01     0.01  -0.02   0.03
  29   1     0.00  -0.00  -0.05    -0.03   0.03   0.02     0.02  -0.02   0.05
  30   1     0.00  -0.00  -0.02    -0.03   0.01   0.01     0.02  -0.00   0.04
  31   1     0.00   0.00   0.02    -0.03  -0.01  -0.00     0.02   0.01  -0.00
  32   1     0.00   0.00   0.06    -0.02  -0.03  -0.02     0.01   0.02  -0.05
  33   1    -0.00   0.00   0.07     0.00  -0.03  -0.02     0.00   0.02  -0.06
  34   1    -0.00   0.00   0.06     0.02  -0.03  -0.02    -0.01   0.02  -0.05
  35   1    -0.00   0.00   0.02     0.03  -0.01  -0.00    -0.02   0.01  -0.00
  36   1    -0.00  -0.00  -0.02     0.03   0.01   0.01    -0.02  -0.00   0.04
  37  26    -0.00  -0.00  -0.04     0.00   0.07  -0.04    -0.00  -0.03  -0.06
  38   6    -0.02   0.01  -0.15     0.09   0.11  -0.09    -0.05  -0.03  -0.11
  39   6    -0.02   0.00  -0.16     0.06   0.13  -0.06    -0.04  -0.05  -0.09
  40   6    -0.01  -0.00  -0.13     0.03   0.11  -0.04    -0.02  -0.05  -0.06
  41   6    -0.00  -0.00  -0.14    -0.00   0.13  -0.02     0.00  -0.06  -0.05
  42   6     0.01   0.00  -0.13    -0.03   0.11  -0.04     0.02  -0.05  -0.06
  43   6     0.02   0.00  -0.16    -0.06   0.13  -0.06     0.04  -0.05  -0.09
  44   6     0.02   0.01  -0.15    -0.09   0.11  -0.09     0.05  -0.03  -0.11
  45   6     0.02   0.01  -0.09    -0.07   0.07  -0.07     0.04  -0.02  -0.09
  46   7     0.01   0.00  -0.09    -0.04   0.08  -0.05     0.02  -0.03  -0.06
  47   6     0.02   0.01  -0.05    -0.09   0.04  -0.06     0.05  -0.00  -0.07
  48   6     0.02   0.00   0.03    -0.07  -0.00  -0.02     0.04   0.01  -0.02
  49   6     0.02  -0.00   0.09    -0.09  -0.04   0.02     0.05   0.02   0.03
  50   6     0.02  -0.01   0.16    -0.06  -0.08   0.08     0.04   0.02   0.09
  51   6     0.01  -0.01   0.14    -0.03  -0.06   0.07     0.02   0.01   0.08
  52   7     0.01  -0.00   0.06    -0.04  -0.02   0.02     0.02   0.00   0.02
  53   6     0.00  -0.01   0.18     0.00  -0.09   0.10     0.00   0.02   0.12
  54   6    -0.01  -0.01   0.14     0.03  -0.06   0.07    -0.02   0.01   0.08
  55   6    -0.02  -0.01   0.16     0.07  -0.08   0.08    -0.04   0.02   0.09
  56   6    -0.02  -0.00   0.09     0.09  -0.04   0.02    -0.05   0.02   0.02
  57   6    -0.02   0.00   0.03     0.07  -0.00  -0.02    -0.04   0.01  -0.02
  58   7    -0.01  -0.00   0.06     0.04  -0.02   0.02    -0.02   0.00   0.02
  59   6    -0.02   0.00  -0.05     0.09   0.04  -0.06    -0.05  -0.00  -0.07
  60   6    -0.02   0.00  -0.09     0.07   0.07  -0.07    -0.04  -0.02  -0.09
  61   7    -0.01   0.00  -0.09     0.04   0.08  -0.05    -0.02  -0.03  -0.06
  62   1    -0.01   0.00  -0.05     0.03   0.03  -0.03    -0.02  -0.01  -0.04
  63   1    -0.01   0.00  -0.06     0.02   0.05  -0.02    -0.01  -0.02  -0.03
  64   1     0.01   0.00  -0.06    -0.02   0.05  -0.02     0.01  -0.02  -0.03
  65   1     0.01   0.00  -0.05    -0.03   0.03  -0.03     0.02  -0.01  -0.04
  66   1     0.01   0.00  -0.02    -0.03   0.01  -0.02     0.02   0.00  -0.03
  67   1     0.01  -0.00   0.02    -0.03  -0.01   0.00     0.02   0.01   0.00
  68   1     0.00  -0.00   0.06    -0.02  -0.03   0.03     0.01   0.01   0.04
  69   1     0.00  -0.00   0.07     0.00  -0.04   0.04     0.00   0.01   0.05
  70   1    -0.00  -0.00   0.07     0.02  -0.03   0.03    -0.01   0.01   0.04
  71   1    -0.01  -0.00   0.02     0.03  -0.01   0.00    -0.02   0.01   0.00
  72   1    -0.01   0.00  -0.02     0.03   0.01  -0.02    -0.02   0.00  -0.03
  73   6     0.00  -0.01  -0.14    -0.00   0.14   0.01    -0.00  -0.08   0.01
  74   6     0.00  -0.01  -0.13    -0.00   0.12  -0.01    -0.00  -0.07  -0.05
  75   6     0.00  -0.01  -0.11    -0.00   0.09  -0.03    -0.00  -0.05  -0.10
  76   6     0.00  -0.01  -0.09    -0.00   0.04  -0.04    -0.00  -0.01  -0.14
  77   6     0.00  -0.01  -0.05    -0.00  -0.01  -0.05    -0.00   0.01  -0.16
  78   6     0.00  -0.00  -0.01    -0.00  -0.05  -0.06     0.00   0.04  -0.17
  79   6    -0.00  -0.01  -0.03    -0.00  -0.07   0.10     0.00   0.02   0.14
  80   6    -0.00  -0.01  -0.07    -0.00  -0.02   0.10     0.00  -0.00   0.13
  81   6    -0.00  -0.01  -0.10    -0.00   0.02   0.09     0.00  -0.03   0.10
  82   6    -0.00  -0.01  -0.13    -0.00   0.08   0.06    -0.00  -0.06   0.06
  83   6    -0.00  -0.01  -0.15    -0.00   0.12   0.03     0.00  -0.07   0.02
  84   6    -0.00  -0.01  -0.15    -0.00   0.14   0.00     0.00  -0.08  -0.02
  85  26     0.00   0.01   0.16    -0.00  -0.17  -0.00     0.00   0.09   0.00
  86   6    -0.00   0.01   0.09    -0.01  -0.07  -0.06    -0.02   0.04  -0.11
  87   6    -0.00   0.00   0.06    -0.01  -0.07  -0.07    -0.01   0.04  -0.15
  88   6    -0.00   0.00   0.05    -0.01  -0.07  -0.05    -0.01   0.04  -0.12
  89   6     0.00   0.00   0.02    -0.00  -0.07  -0.06     0.00   0.04  -0.15
  90   6     0.00   0.00   0.05     0.00  -0.07  -0.05     0.01   0.04  -0.12
  91   6     0.00   0.00   0.06     0.01  -0.07  -0.07     0.01   0.04  -0.15
  92   6     0.00   0.01   0.09     0.01  -0.07  -0.06     0.02   0.04  -0.11
  93   6     0.00   0.01   0.10     0.01  -0.07  -0.03     0.01   0.04  -0.05
  94   7     0.00   0.01   0.08     0.00  -0.08  -0.03     0.01   0.04  -0.07
  95   6     0.00   0.01   0.11     0.01  -0.08  -0.01     0.02   0.04   0.01
  96   6     0.00   0.01   0.09     0.01  -0.08   0.02     0.01   0.04   0.06
  97   6     0.00   0.01   0.08     0.01  -0.08   0.05     0.02   0.04   0.12
  98   6     0.00   0.00   0.04     0.01  -0.08   0.08     0.01   0.04   0.15
  99   6     0.00   0.00   0.04     0.00  -0.08   0.06     0.01   0.04   0.11
 100   7     0.00   0.00   0.07     0.00  -0.08   0.03     0.01   0.04   0.07
 101   6    -0.00  -0.00   0.01    -0.00  -0.08   0.08     0.00   0.04   0.13
 102   6    -0.00   0.00   0.04    -0.00  -0.08   0.07    -0.01   0.04   0.11
 103   6    -0.00   0.00   0.04    -0.01  -0.08   0.08    -0.01   0.04   0.15
 104   6    -0.00   0.01   0.08    -0.01  -0.08   0.05    -0.02   0.04   0.12
 105   6    -0.00   0.01   0.09    -0.01  -0.08   0.02    -0.01   0.04   0.06
 106   7    -0.00   0.00   0.07    -0.00  -0.08   0.04    -0.01   0.04   0.07
 107   6    -0.00   0.01   0.11    -0.01  -0.08  -0.01    -0.02   0.04   0.01
 108   6    -0.00   0.01   0.10    -0.01  -0.07  -0.03    -0.01   0.04  -0.05
 109   7    -0.00   0.01   0.08    -0.01  -0.08  -0.03    -0.01   0.04  -0.07
 110   1    -0.00   0.00   0.03    -0.00  -0.02  -0.02    -0.01   0.01  -0.03
 111   1    -0.00   0.00   0.01    -0.00  -0.02  -0.03    -0.00   0.01  -0.06
 112   1     0.00   0.00   0.01     0.00  -0.02  -0.02     0.00   0.01  -0.06
 113   1     0.00   0.00   0.03     0.00  -0.02  -0.02     0.01   0.01  -0.03
 114   1     0.00   0.00   0.04     0.00  -0.02  -0.00     0.01   0.01   0.00
 115   1     0.00   0.00   0.03     0.00  -0.02   0.01     0.01   0.01   0.04
 116   1     0.00  -0.00   0.01     0.00  -0.02   0.03     0.00   0.01   0.05
 117   1    -0.00  -0.00   0.01    -0.00  -0.02   0.03    -0.00   0.01   0.05
 118   1    -0.00   0.00   0.03    -0.00  -0.02   0.01    -0.01   0.01   0.04
 119   1    -0.00   0.00   0.04    -0.00  -0.02  -0.00    -0.01   0.01   0.00
                     10                     11                     12
                        a                      a                      a 
 Frequencies --    25.9421                28.1841                29.8206
 Red. masses --    11.8711                12.1067                10.9238
 Frc consts  --     0.0000                 0.0000                 0.0000
 IR Inten    --     5.2321                 4.8043                28.7201
 Raman Activ --     0.0000                 0.0000                 0.0000
 Depolar     --     0.0000                 0.0000                 0.0000
 Atom AN      X      Y      Z        X      Y      Z        X      Y      Z
   1  26     0.00   0.06   0.02     0.00  -0.01   0.06     0.00   0.00   0.00
   2   6     0.08   0.09   0.04    -0.01  -0.01   0.11     0.00   0.00   0.03
   3   6     0.06   0.11   0.02    -0.01  -0.02   0.03     0.00   0.00   0.04
   4   6     0.03   0.09   0.00    -0.00  -0.02  -0.00     0.00   0.00   0.02
   5   6    -0.00   0.11  -0.01     0.00  -0.02  -0.05     0.00   0.00   0.00
   6   6    -0.03   0.09   0.00     0.01  -0.02  -0.01     0.00   0.00  -0.02
   7   6    -0.06   0.11   0.02     0.01  -0.02   0.03     0.00  -0.00  -0.04
   8   6    -0.08   0.08   0.04     0.02  -0.02   0.10     0.00   0.00  -0.03
   9   6    -0.06   0.06   0.04     0.01  -0.01   0.10     0.00   0.00  -0.02
  10   7    -0.03   0.07   0.02     0.01  -0.01   0.04     0.00   0.00  -0.01
  11   6    -0.08   0.03   0.05     0.02  -0.01   0.12     0.00   0.00   0.00
  12   6    -0.06  -0.00   0.02     0.01  -0.00   0.06     0.00   0.00   0.02
  13   6    -0.08  -0.03   0.01     0.02   0.00   0.02     0.00   0.00   0.04
  14   6    -0.06  -0.05  -0.03     0.01   0.01  -0.07     0.00   0.00   0.04
  15   6    -0.03  -0.04  -0.03     0.01   0.01  -0.08     0.00   0.00   0.02
  16   7    -0.03  -0.01  -0.00     0.01   0.00  -0.00     0.00   0.00   0.01
  17   6     0.00  -0.05  -0.05     0.00   0.01  -0.14     0.00   0.00  -0.00
  18   6     0.03  -0.04  -0.03    -0.00   0.01  -0.09     0.00  -0.00  -0.02
  19   6     0.06  -0.05  -0.03    -0.01   0.01  -0.08     0.00  -0.00  -0.04
  20   6     0.08  -0.03   0.00    -0.01   0.01   0.02     0.00  -0.00  -0.04
  21   6     0.06  -0.00   0.02    -0.01   0.00   0.06     0.00  -0.00  -0.02
  22   7     0.03  -0.01  -0.00    -0.00   0.00  -0.01     0.00  -0.00  -0.01
  23   6     0.08   0.03   0.04    -0.01  -0.00   0.12     0.00  -0.00  -0.00
  24   6     0.06   0.06   0.04    -0.01  -0.01   0.10     0.00   0.00   0.02
  25   7     0.03   0.07   0.02    -0.00  -0.01   0.04     0.00  -0.00   0.01
  26   1     0.03   0.03   0.02    -0.01  -0.00   0.05     0.00   0.00   0.01
  27   1     0.02   0.04   0.00    -0.00  -0.01   0.00     0.00   0.00   0.01
  28   1    -0.02   0.04   0.00     0.00  -0.01   0.00     0.00  -0.00  -0.01
  29   1    -0.03   0.03   0.02     0.01  -0.00   0.04     0.00   0.00  -0.01
  30   1    -0.03   0.01   0.02     0.01  -0.00   0.05     0.00   0.00   0.00
  31   1    -0.03  -0.01   0.01     0.01   0.00   0.02     0.00   0.00   0.01
  32   1    -0.02  -0.02  -0.01     0.00   0.00  -0.04     0.00   0.00   0.01
  33   1     0.00  -0.02  -0.02     0.00   0.00  -0.06     0.00   0.00  -0.00
  34   1     0.02  -0.02  -0.02    -0.00   0.00  -0.04     0.00  -0.00  -0.01
  35   1     0.03  -0.01   0.00    -0.01   0.00   0.02     0.00  -0.00  -0.01
  36   1     0.03   0.01   0.02    -0.01  -0.00   0.05     0.00  -0.00  -0.00
  37  26     0.00  -0.05   0.02    -0.00   0.03   0.06    -0.00  -0.00  -0.00
  38   6    -0.06  -0.08   0.04     0.04   0.03   0.11    -0.00  -0.01   0.04
  39   6    -0.05  -0.09   0.01     0.03   0.06   0.04    -0.00  -0.01   0.04
  40   6    -0.02  -0.08  -0.01     0.01   0.05   0.00    -0.00  -0.00   0.02
  41   6     0.00  -0.09  -0.03    -0.00   0.07  -0.04    -0.00  -0.00   0.00
  42   6     0.02  -0.08  -0.01    -0.02   0.05   0.00    -0.00   0.00  -0.02
  43   6     0.05  -0.09   0.00    -0.03   0.05   0.04    -0.00   0.01  -0.04
  44   6     0.06  -0.08   0.04    -0.04   0.03   0.11    -0.00   0.01  -0.04
  45   6     0.05  -0.05   0.04    -0.04   0.01   0.10    -0.00   0.00  -0.02
  46   7     0.03  -0.06   0.01    -0.02   0.03   0.05    -0.00   0.00  -0.01
  47   6     0.06  -0.03   0.05    -0.04  -0.01   0.12    -0.00  -0.00   0.00
  48   6     0.05  -0.00   0.02    -0.04  -0.01   0.05    -0.00  -0.00   0.02
  49   6     0.06   0.02   0.01    -0.04  -0.02   0.01    -0.00  -0.01   0.04
  50   6     0.05   0.05  -0.03    -0.03  -0.02  -0.08    -0.00  -0.01   0.04
  51   6     0.02   0.04  -0.03    -0.02  -0.01  -0.08    -0.00  -0.00   0.02
  52   7     0.03   0.01  -0.00    -0.02  -0.00  -0.01    -0.00  -0.00   0.01
  53   6    -0.00   0.05  -0.05    -0.00  -0.01  -0.14    -0.00  -0.00   0.00
  54   6    -0.02   0.04  -0.03     0.01  -0.01  -0.08    -0.00   0.00  -0.02
  55   6    -0.05   0.05  -0.03     0.03  -0.02  -0.08    -0.00   0.01  -0.04
  56   6    -0.06   0.02   0.01     0.04  -0.02   0.02    -0.00   0.01  -0.04
  57   6    -0.05  -0.00   0.02     0.03  -0.01   0.06    -0.00   0.00  -0.02
  58   7    -0.03   0.01  -0.00     0.02  -0.00  -0.01    -0.00   0.00  -0.01
  59   6    -0.06  -0.03   0.05     0.04  -0.01   0.12    -0.00   0.00  -0.00
  60   6    -0.05  -0.05   0.04     0.03   0.01   0.10    -0.00  -0.00   0.02
  61   7    -0.03  -0.06   0.01     0.02   0.03   0.05    -0.00  -0.00   0.01
  62   1    -0.02  -0.02   0.02     0.02   0.01   0.04    -0.00  -0.00   0.01
  63   1    -0.01  -0.03  -0.00     0.01   0.02   0.00    -0.00  -0.00   0.01
  64   1     0.01  -0.03  -0.00    -0.01   0.02   0.01    -0.00   0.00  -0.01
  65   1     0.02  -0.02   0.02    -0.02   0.01   0.04    -0.00   0.00  -0.01
  66   1     0.02  -0.01   0.02    -0.02  -0.00   0.05    -0.00  -0.00   0.00
  67   1     0.02   0.01   0.01    -0.02  -0.01   0.01    -0.00  -0.00   0.01
  68   1     0.01   0.02  -0.01    -0.01  -0.01  -0.04    -0.00  -0.00   0.01
  69   1    -0.00   0.02  -0.02    -0.00  -0.00  -0.06    -0.00  -0.00   0.00
  70   1    -0.01   0.02  -0.02     0.01  -0.01  -0.04    -0.00   0.00  -0.01
  71   1    -0.02   0.01   0.01     0.02  -0.01   0.02    -0.00   0.00  -0.01
  72   1    -0.02  -0.01   0.02     0.02  -0.00   0.05    -0.00   0.00  -0.00
  73   6    -0.00   0.12  -0.04     0.00  -0.02  -0.12     0.00   0.00  -0.00
  74   6    -0.00   0.07  -0.06     0.00  -0.01  -0.18     0.00  -0.00  -0.00
  75   6    -0.00   0.00  -0.08     0.00   0.00  -0.21     0.00  -0.00  -0.00
  76   6    -0.00  -0.08  -0.09     0.00   0.02  -0.22     0.00  -0.00  -0.00
  77   6    -0.00  -0.14  -0.08     0.00   0.03  -0.20     0.00  -0.00  -0.00
  78   6    -0.00  -0.17  -0.07     0.00   0.04  -0.15     0.00  -0.00  -0.00
  79   6     0.00   0.15  -0.04    -0.00  -0.09  -0.17    -0.00   0.00   0.00
  80   6     0.00   0.12  -0.07    -0.00  -0.06  -0.21    -0.00   0.00   0.00
  81   6     0.00   0.08  -0.08    -0.00  -0.03  -0.22    -0.00   0.00   0.00
  82   6     0.00   0.01  -0.09    -0.00   0.03  -0.21    -0.00   0.00   0.00
  83   6     0.00  -0.04  -0.08    -0.00   0.06  -0.16    -0.00   0.00   0.00
  84   6     0.00  -0.09  -0.06    -0.00   0.09  -0.10    -0.00  -0.00   0.00
  85  26    -0.00  -0.01   0.03    -0.00  -0.02   0.08    -0.00   0.00  -0.00
  86   6     0.12  -0.10   0.01    -0.05   0.03   0.09     0.00   0.03   0.29
  87   6     0.09  -0.14  -0.03    -0.04   0.04   0.00     0.00   0.03   0.29
  88   6     0.04  -0.12  -0.03    -0.02   0.03  -0.03     0.00   0.01   0.14
  89   6    -0.00  -0.14  -0.05     0.00   0.03  -0.08     0.00  -0.00  -0.00
  90   6    -0.04  -0.11  -0.03     0.02   0.03  -0.03     0.00  -0.01  -0.14
  91   6    -0.09  -0.14  -0.02     0.04   0.04   0.00     0.00  -0.03  -0.29
  92   6    -0.12  -0.10   0.01     0.05   0.03   0.09     0.00  -0.03  -0.29
  93   6    -0.10  -0.05   0.03     0.04   0.02   0.10     0.00  -0.01  -0.14
  94   7    -0.05  -0.07   0.00     0.02   0.01   0.03     0.00  -0.01  -0.07
  95   6    -0.12  -0.00   0.05     0.05   0.00   0.14     0.00  -0.00  -0.00
  96   6    -0.10   0.04   0.05     0.04  -0.02   0.09    -0.00   0.01   0.14
  97   6    -0.12   0.09   0.05     0.05  -0.04   0.07    -0.00   0.03   0.29
  98   6    -0.09   0.12   0.02     0.03  -0.07  -0.03    -0.00   0.03   0.29
  99   6    -0.04   0.10   0.01     0.02  -0.06  -0.05    -0.00   0.01   0.14
 100   7    -0.05   0.06   0.02     0.02  -0.03   0.02    -0.00   0.01   0.07
 101   6     0.00   0.12  -0.01    -0.00  -0.07  -0.10    -0.00   0.00   0.00
 102   6     0.04   0.10   0.01    -0.02  -0.06  -0.05    -0.00  -0.01  -0.14
 103   6     0.09   0.12   0.02    -0.04  -0.07  -0.03    -0.00  -0.03  -0.29
 104   6     0.12   0.09   0.05    -0.05  -0.04   0.07    -0.00  -0.03  -0.29
 105   6     0.10   0.04   0.05    -0.04  -0.02   0.09    -0.00  -0.01  -0.14
 106   7     0.05   0.05   0.02    -0.02  -0.03   0.02    -0.00  -0.01  -0.07
 107   6     0.12  -0.00   0.05    -0.05   0.00   0.14     0.00   0.00  -0.00
 108   6     0.10  -0.05   0.03    -0.04   0.02   0.10     0.00   0.01   0.13
 109   7     0.05  -0.07   0.00    -0.02   0.01   0.03     0.00   0.01   0.07
 110   1     0.05  -0.03   0.01    -0.02   0.01   0.04     0.00   0.01   0.11
 111   1     0.03  -0.05  -0.01    -0.01   0.01  -0.01     0.00   0.01   0.11
 112   1    -0.03  -0.05  -0.01     0.01   0.01  -0.01     0.00  -0.01  -0.11
 113   1    -0.05  -0.03   0.01     0.02   0.01   0.04     0.00  -0.01  -0.11
 114   1    -0.05   0.00   0.02     0.02   0.00   0.06     0.00  -0.00  -0.00
 115   1    -0.05   0.03   0.02     0.02  -0.01   0.03    -0.00   0.01   0.11
 116   1    -0.03   0.05   0.00     0.01  -0.02  -0.02    -0.00   0.01   0.11
 117   1     0.03   0.05   0.00    -0.01  -0.02  -0.02    -0.00  -0.01  -0.11
 118   1     0.05   0.03   0.02    -0.02  -0.01   0.03    -0.00  -0.01  -0.11
 119   1     0.05  -0.00   0.02    -0.02   0.00   0.06     0.00   0.00  -0.00
                     13                     14                     15
                        a                      a                      a 
 Frequencies --    30.9633                31.0581                39.9122
 Red. masses --    10.9292                10.9286                11.4349
 Frc consts  --     0.0000                 0.0000                 0.0000
 IR Inten    --     2.5994                24.6508                 5.8751
 Raman Activ --     0.0000                 0.0000                 0.0000
 Depolar     --     0.0000                 0.0000                 0.0000
 Atom AN      X      Y      Z        X      Y      Z        X      Y      Z
   1  26     0.00   0.00  -0.00    -0.00   0.00   0.00    -0.00  -0.00  -0.03
   2   6    -0.00   0.00   0.07     0.00  -0.00  -0.29    -0.01  -0.01  -0.07
   3   6    -0.00   0.00   0.07     0.00  -0.00  -0.29    -0.00  -0.01   0.05
   4   6     0.00   0.00   0.03     0.00  -0.00  -0.14    -0.00  -0.00   0.08
   5   6     0.00   0.00   0.00     0.00   0.00   0.00    -0.00  -0.00   0.14
   6   6     0.00  -0.00  -0.03     0.00   0.00   0.14     0.00  -0.00   0.08
   7   6    -0.00  -0.00  -0.07     0.00   0.00   0.29     0.00  -0.01   0.05
   8   6    -0.00  -0.00  -0.07    -0.00   0.00   0.29     0.00  -0.00  -0.07
   9   6     0.00  -0.00  -0.03    -0.00   0.00   0.13     0.00  -0.00  -0.09
  10   7     0.00  -0.00  -0.02    -0.00   0.00   0.07     0.00  -0.00  -0.00
  11   6     0.00  -0.00  -0.00    -0.00   0.00   0.00     0.00  -0.00  -0.15
  12   6     0.00  -0.00   0.03    -0.00   0.00  -0.13     0.00   0.00  -0.09
  13   6     0.00  -0.00   0.07    -0.00   0.00  -0.29     0.00   0.00  -0.07
  14   6     0.00  -0.00   0.07    -0.00   0.00  -0.29     0.00   0.00   0.05
  15   6     0.00  -0.00   0.04    -0.00  -0.00  -0.13    -0.00   0.00   0.08
  16   7     0.00  -0.00   0.02    -0.00   0.00  -0.08    -0.00   0.00  -0.00
  17   6     0.00   0.00   0.00    -0.00  -0.00  -0.00    -0.00   0.00   0.15
  18   6     0.00   0.00  -0.03    -0.00  -0.00   0.13    -0.00   0.00   0.08
  19   6     0.00   0.00  -0.07    -0.00  -0.00   0.28    -0.01   0.00   0.05
  20   6     0.00  -0.00  -0.07    -0.00   0.00   0.28    -0.01   0.00  -0.07
  21   6     0.00   0.00  -0.03    -0.00  -0.00   0.13    -0.00  -0.00  -0.09
  22   7     0.00   0.00  -0.02    -0.00  -0.00   0.08    -0.00  -0.00  -0.00
  23   6     0.00   0.00  -0.00     0.00  -0.00   0.00    -0.01  -0.00  -0.15
  24   6     0.00   0.00   0.03     0.00  -0.00  -0.13    -0.00  -0.00  -0.09
  25   7     0.00   0.00   0.02     0.00  -0.00  -0.07    -0.00  -0.00   0.00
  26   1    -0.00   0.00   0.03     0.00  -0.00  -0.11    -0.00  -0.00  -0.04
  27   1    -0.00   0.00   0.03     0.00  -0.00  -0.11    -0.00  -0.00   0.03
  28   1    -0.00  -0.00  -0.03     0.00   0.00   0.11     0.00  -0.00   0.03
  29   1    -0.00  -0.00  -0.03    -0.00   0.00   0.11     0.00  -0.00  -0.04
  30   1     0.00  -0.00  -0.00    -0.00   0.00   0.00     0.00  -0.00  -0.07
  31   1     0.00  -0.00   0.03    -0.00   0.00  -0.11     0.00   0.00  -0.04
  32   1     0.00  -0.00   0.03    -0.00  -0.00  -0.11     0.00   0.00   0.03
  33   1     0.00   0.00   0.00    -0.00  -0.00  -0.00    -0.00   0.00   0.06
  34   1     0.00  -0.00  -0.03    -0.00  -0.00   0.11    -0.00   0.00   0.03
  35   1     0.00  -0.00  -0.03    -0.00   0.00   0.11    -0.00   0.00  -0.04
  36   1     0.00   0.00  -0.00     0.00  -0.00   0.00    -0.00  -0.00  -0.07
  37  26    -0.00  -0.00  -0.00     0.00  -0.00   0.00     0.00  -0.00   0.03
  38   6    -0.00   0.05  -0.29     0.00   0.01  -0.07     0.00  -0.01   0.08
  39   6    -0.00   0.05  -0.29     0.00   0.01  -0.07     0.00   0.01  -0.05
  40   6    -0.00   0.02  -0.13     0.00   0.01  -0.03     0.00   0.02  -0.08
  41   6    -0.00  -0.00   0.00     0.00   0.00  -0.00     0.00   0.03  -0.15
  42   6    -0.00  -0.02   0.13     0.00  -0.01   0.03    -0.00   0.02  -0.08
  43   6    -0.00  -0.05   0.29     0.00  -0.01   0.07    -0.00   0.01  -0.05
  44   6     0.00  -0.05   0.29     0.00  -0.01   0.07    -0.00  -0.01   0.08
  45   6     0.00  -0.02   0.13     0.00  -0.01   0.03    -0.00  -0.01   0.09
  46   7     0.00  -0.01   0.07     0.00  -0.00   0.02    -0.00   0.00   0.00
  47   6     0.00  -0.00  -0.00     0.00  -0.00   0.00    -0.00  -0.03   0.16
  48   6     0.00   0.02  -0.13     0.00   0.01  -0.03    -0.00  -0.02   0.09
  49   6     0.00   0.05  -0.28     0.00   0.01  -0.07    -0.00  -0.01   0.07
  50   6    -0.00   0.05  -0.28     0.00   0.01  -0.07    -0.00   0.01  -0.05
  51   6    -0.00   0.02  -0.13     0.00   0.01  -0.03    -0.00   0.01  -0.08
  52   7    -0.00   0.01  -0.08     0.00   0.00  -0.02    -0.00  -0.00   0.00
  53   6    -0.00   0.00   0.00     0.00   0.00  -0.00     0.00   0.02  -0.15
  54   6     0.00  -0.02   0.13     0.00  -0.01   0.03     0.00   0.01  -0.08
  55   6     0.00  -0.05   0.28     0.00  -0.01   0.07     0.00   0.01  -0.05
  56   6     0.00  -0.05   0.28     0.00  -0.01   0.07     0.00  -0.01   0.07
  57   6    -0.00  -0.02   0.13     0.00  -0.01   0.03     0.00  -0.02   0.09
  58   7    -0.00  -0.01   0.08     0.00  -0.00   0.02     0.00  -0.00   0.00
  59   6    -0.00   0.00  -0.00     0.00  -0.00   0.00     0.01  -0.03   0.16
  60   6    -0.00   0.02  -0.13     0.00   0.01  -0.03     0.00  -0.01   0.09
  61   7    -0.00   0.01  -0.07     0.00   0.00  -0.02     0.00   0.00   0.00
  62   1    -0.00   0.02  -0.11    -0.00   0.00  -0.03     0.00  -0.01   0.04
  63   1    -0.00   0.02  -0.11     0.00   0.00  -0.03     0.00   0.01  -0.03
  64   1    -0.00  -0.02   0.11     0.00  -0.00   0.03    -0.00   0.01  -0.03
  65   1     0.00  -0.02   0.11     0.00  -0.00   0.03    -0.00  -0.01   0.04
  66   1     0.00  -0.00  -0.00     0.00  -0.00   0.00    -0.00  -0.01   0.07
  67   1     0.00   0.02  -0.11     0.00   0.00  -0.03    -0.00  -0.01   0.04
  68   1    -0.00   0.02  -0.11     0.00   0.00  -0.03    -0.00   0.00  -0.03
  69   1    -0.00   0.00   0.00     0.00   0.00  -0.00    -0.00   0.01  -0.06
  70   1     0.00  -0.02   0.11     0.00  -0.00   0.03     0.00   0.00  -0.03
  71   1     0.00  -0.02   0.11     0.00  -0.00   0.03     0.00  -0.01   0.04
  72   1    -0.00   0.00  -0.00     0.00  -0.00   0.00     0.00  -0.01   0.07
  73   6     0.00  -0.00   0.00     0.00   0.00  -0.00    -0.00  -0.00   0.21
  74   6     0.00  -0.00   0.00     0.00   0.00  -0.00    -0.00   0.00   0.22
  75   6     0.00  -0.00   0.00     0.00   0.00  -0.00    -0.00   0.01   0.19
  76   6     0.00  -0.00   0.00     0.00   0.00  -0.00    -0.00   0.02   0.12
  77   6     0.00  -0.00   0.00     0.00  -0.00  -0.00    -0.00   0.02   0.04
  78   6     0.00  -0.00   0.00     0.00  -0.00  -0.00     0.00   0.01  -0.05
  79   6    -0.00   0.00   0.00     0.00   0.00  -0.00     0.00  -0.02   0.05
  80   6    -0.00   0.00   0.00     0.00   0.00  -0.00     0.00  -0.00  -0.04
  81   6    -0.00  -0.00   0.00     0.00   0.00  -0.00     0.00   0.01  -0.13
  82   6    -0.00  -0.00   0.00     0.00   0.00  -0.00     0.00   0.03  -0.20
  83   6    -0.00  -0.00   0.00     0.00   0.00  -0.00     0.00   0.04  -0.23
  84   6    -0.00  -0.00   0.00     0.00   0.00  -0.00     0.00   0.04  -0.21
  85  26    -0.00   0.00  -0.00     0.00  -0.00   0.00     0.00  -0.01   0.00
  86   6     0.00   0.00   0.03     0.00   0.00   0.05    -0.02  -0.00  -0.13
  87   6     0.00   0.00   0.03     0.00   0.00   0.04    -0.01   0.00  -0.14
  88   6     0.00   0.00   0.01     0.00   0.00   0.02    -0.01   0.00  -0.10
  89   6     0.00  -0.00   0.00     0.00  -0.00  -0.00     0.00   0.01  -0.10
  90   6    -0.00  -0.00  -0.01     0.00  -0.00  -0.02     0.01   0.00  -0.10
  91   6    -0.00  -0.00  -0.03    -0.00  -0.01  -0.05     0.01   0.00  -0.14
  92   6    -0.00  -0.00  -0.03    -0.00  -0.01  -0.05     0.02  -0.00  -0.13
  93   6    -0.00  -0.00  -0.01    -0.00  -0.00  -0.02     0.02  -0.00  -0.07
  94   7    -0.00  -0.00  -0.01    -0.00  -0.00  -0.01     0.01  -0.00  -0.07
  95   6    -0.00   0.00   0.00    -0.00  -0.00   0.00     0.02  -0.00   0.00
  96   6    -0.00   0.00   0.01    -0.00   0.00   0.02     0.01  -0.00   0.07
  97   6    -0.00   0.00   0.03    -0.00   0.00   0.04     0.02  -0.00   0.13
  98   6    -0.00   0.00   0.03    -0.00   0.00   0.04     0.01  -0.01   0.14
  99   6    -0.00   0.00   0.01     0.00   0.00   0.02     0.01  -0.01   0.10
 100   7    -0.00   0.00   0.01     0.00   0.00   0.01     0.01  -0.01   0.07
 101   6    -0.00   0.00   0.00     0.00   0.00  -0.00     0.00  -0.01   0.09
 102   6     0.00  -0.00  -0.01     0.00  -0.00  -0.02    -0.00  -0.01   0.10
 103   6     0.00  -0.00  -0.03     0.00  -0.00  -0.04    -0.01  -0.01   0.14
 104   6     0.00  -0.00  -0.03     0.00  -0.00  -0.04    -0.02  -0.00   0.13
 105   6     0.00  -0.00  -0.02     0.00  -0.00  -0.02    -0.01  -0.00   0.07
 106   7     0.00  -0.00  -0.01     0.00  -0.00  -0.01    -0.01  -0.01   0.07
 107   6     0.00  -0.00  -0.00     0.00   0.00   0.00    -0.02  -0.00   0.00
 108   6     0.00   0.00   0.01     0.00   0.00   0.02    -0.01  -0.00  -0.07
 109   7    -0.00  -0.00   0.01     0.00   0.00   0.01    -0.01  -0.00  -0.07
 110   1     0.00   0.00   0.01     0.00   0.00   0.02    -0.01  -0.00  -0.04
 111   1     0.00   0.00   0.01     0.00   0.00   0.02    -0.00   0.00  -0.05
 112   1    -0.00  -0.00  -0.01    -0.00  -0.00  -0.02     0.00   0.00  -0.05
 113   1    -0.00  -0.00  -0.01    -0.00  -0.00  -0.02     0.01  -0.00  -0.04
 114   1    -0.00   0.00   0.00    -0.00  -0.00   0.00     0.01  -0.00   0.00
 115   1    -0.00   0.00   0.01    -0.00   0.00   0.02     0.01  -0.00   0.04
 116   1    -0.00   0.00   0.01    -0.00   0.00   0.02     0.00  -0.00   0.05
 117   1     0.00  -0.00  -0.01     0.00  -0.00  -0.02    -0.00  -0.00   0.05
 118   1     0.00  -0.00  -0.01     0.00  -0.00  -0.02    -0.01  -0.00   0.04
 119   1     0.00  -0.00  -0.00     0.00   0.00   0.00    -0.01  -0.00   0.00
                     16                     17                     18
                        a                      a                      a 
 Frequencies --    48.9625                51.3828                69.6204
 Red. masses --    18.1865                11.2401                11.6615
 Frc consts  --     0.0000                 0.0000                 0.0000
 IR Inten    --    15.8588                 8.4517                 4.4648
 Raman Activ --     0.0000                 0.0000                 0.0000
 Depolar     --     0.0000                 0.0000                 0.0000
 Atom AN      X      Y      Z        X      Y      Z        X      Y      Z
   1  26     0.27  -0.00  -0.00     0.01   0.00   0.00     0.00   0.00   0.06
   2   6     0.12  -0.01  -0.00     0.01   0.00  -0.04     0.00   0.00   0.01
   3   6     0.12  -0.00  -0.01     0.01   0.01   0.09     0.00   0.01   0.11
   4   6     0.10  -0.01  -0.01     0.01   0.00   0.12     0.00   0.01   0.12
   5   6     0.09  -0.00  -0.01     0.01   0.01   0.17     0.00   0.01   0.13
   6   6     0.11   0.00  -0.00     0.00   0.01   0.12     0.00   0.01   0.12
   7   6     0.12  -0.00  -0.00     0.00   0.01   0.09    -0.00   0.01   0.11
   8   6     0.13   0.01   0.00     0.00   0.00  -0.04    -0.00   0.00   0.01
   9   6     0.12   0.02   0.00     0.00   0.00  -0.07    -0.00   0.00  -0.03
  10   7     0.12   0.01  -0.00     0.01   0.00   0.03    -0.00   0.00   0.06
  11   6     0.12   0.02   0.00     0.00   0.00  -0.15    -0.00   0.00  -0.13
  12   6     0.13   0.01   0.00     0.00   0.00  -0.10    -0.00   0.00  -0.10
  13   6     0.13   0.01   0.00     0.00  -0.00  -0.10    -0.00   0.00  -0.13
  14   6     0.13   0.00  -0.00     0.00  -0.00   0.03    -0.00  -0.00  -0.00
  15   6     0.14   0.00  -0.00     0.00  -0.00   0.08    -0.00  -0.00   0.07
  16   7     0.15   0.01  -0.00     0.01   0.00  -0.00    -0.00   0.00   0.01
  17   6     0.14   0.00  -0.00     0.01  -0.00   0.14    -0.00  -0.00   0.14
  18   6     0.13   0.00  -0.00     0.01  -0.00   0.08     0.00  -0.00   0.07
  19   6     0.13   0.00   0.00     0.01  -0.00   0.03     0.00  -0.00  -0.00
  20   6     0.12  -0.00   0.00     0.01  -0.00  -0.10     0.00  -0.00  -0.13
  21   6     0.13  -0.01   0.00     0.01  -0.00  -0.10     0.00  -0.00  -0.10
  22   7     0.14  -0.01   0.00     0.01  -0.00  -0.00     0.00  -0.00   0.01
  23   6     0.12  -0.02   0.00     0.01  -0.00  -0.15     0.00  -0.00  -0.13
  24   6     0.12  -0.02   0.00     0.01   0.00  -0.07     0.00   0.00  -0.03
  25   7     0.12  -0.02  -0.00     0.01   0.00   0.03     0.00   0.00   0.06
  26   1     0.04  -0.00   0.00     0.00   0.00  -0.03     0.00   0.00  -0.01
  27   1     0.03   0.00  -0.00     0.00   0.00   0.04     0.00   0.00   0.05
  28   1     0.04  -0.00  -0.00     0.00   0.00   0.04    -0.00   0.00   0.05
  29   1     0.04   0.00   0.00     0.00   0.00  -0.03    -0.00   0.00  -0.01
  30   1     0.04   0.01   0.00     0.00   0.00  -0.07    -0.00   0.00  -0.06
  31   1     0.04   0.00   0.00     0.00   0.00  -0.05    -0.00   0.00  -0.07
  32   1     0.04  -0.00  -0.00     0.00  -0.00   0.02    -0.00  -0.00   0.01
  33   1     0.04   0.00  -0.00     0.00  -0.00   0.06    -0.00  -0.00   0.06
  34   1     0.04   0.00   0.00     0.00  -0.00   0.02     0.00  -0.00   0.01
  35   1     0.03  -0.00   0.00     0.00  -0.00  -0.05     0.00  -0.00  -0.07
  36   1     0.03  -0.01   0.00     0.00  -0.00  -0.07     0.00  -0.00  -0.06
  37  26    -0.27  -0.00   0.00    -0.01   0.01   0.01     0.00   0.00  -0.06
  38   6    -0.12   0.01   0.00     0.00   0.02  -0.03    -0.01  -0.01  -0.01
  39   6    -0.12  -0.00  -0.00    -0.00  -0.00   0.09    -0.00   0.01  -0.10
  40   6    -0.10   0.01  -0.00    -0.00  -0.01   0.12    -0.00   0.01  -0.12
  41   6    -0.09   0.00  -0.01    -0.01  -0.02   0.17     0.00   0.01  -0.13
  42   6    -0.10  -0.00  -0.01    -0.01  -0.01   0.12     0.00   0.01  -0.12
  43   6    -0.12   0.00  -0.01    -0.01  -0.00   0.09     0.01   0.01  -0.10
  44   6    -0.13  -0.01  -0.00    -0.02   0.02  -0.03     0.01  -0.01  -0.01
  45   6    -0.12  -0.02  -0.00    -0.01   0.02  -0.06     0.01  -0.01   0.02
  46   7    -0.12  -0.01  -0.00    -0.01   0.00   0.03     0.00   0.00  -0.06
  47   6    -0.12  -0.02   0.00    -0.01   0.03  -0.15     0.01  -0.03   0.12
  48   6    -0.13  -0.01   0.00    -0.01   0.02  -0.10     0.01  -0.02   0.10
  49   6    -0.12  -0.00   0.00    -0.02   0.01  -0.10     0.01  -0.02   0.13
  50   6    -0.13   0.00  -0.00    -0.01  -0.01   0.03     0.01   0.00   0.00
  51   6    -0.13  -0.00  -0.00    -0.01  -0.02   0.07     0.00   0.02  -0.07
  52   7    -0.14  -0.01  -0.00    -0.01  -0.00  -0.00     0.00   0.00  -0.01
  53   6    -0.14  -0.00  -0.01    -0.01  -0.03   0.14    -0.00   0.03  -0.13
  54   6    -0.13   0.00  -0.00    -0.00  -0.02   0.07    -0.00   0.02  -0.07
  55   6    -0.13  -0.00  -0.00    -0.00  -0.01   0.03    -0.01   0.00   0.00
  56   6    -0.12   0.00   0.01     0.00   0.02  -0.10    -0.01  -0.02   0.13
  57   6    -0.13   0.01   0.01    -0.00   0.02  -0.10    -0.01  -0.02   0.10
  58   7    -0.14   0.01   0.00    -0.00   0.00  -0.00    -0.00   0.00  -0.01
  59   6    -0.12   0.02   0.01     0.00   0.03  -0.15    -0.01  -0.03   0.12
  60   6    -0.12   0.01   0.01    -0.00   0.02  -0.06    -0.01  -0.01   0.02
  61   7    -0.12   0.01   0.00    -0.00   0.00   0.03    -0.00   0.00  -0.06
  62   1    -0.04   0.00   0.00     0.00   0.01  -0.03    -0.00  -0.00   0.01
  63   1    -0.03  -0.00  -0.00    -0.00  -0.00   0.04    -0.00   0.00  -0.05
  64   1    -0.03   0.00  -0.00    -0.00  -0.00   0.04     0.00   0.00  -0.05
  65   1    -0.04  -0.00   0.00    -0.01   0.01  -0.03     0.00  -0.00   0.01
  66   1    -0.03  -0.01   0.00    -0.00   0.01  -0.07     0.00  -0.01   0.06
  67   1    -0.03  -0.00   0.00    -0.01   0.01  -0.05     0.00  -0.01   0.06
  68   1    -0.04   0.00  -0.00    -0.00  -0.01   0.02     0.00   0.00  -0.01
  69   1    -0.04   0.00  -0.00    -0.00  -0.01   0.06    -0.00   0.01  -0.05
  70   1    -0.04  -0.00  -0.00     0.00  -0.01   0.02    -0.00   0.00  -0.01
  71   1    -0.03   0.00   0.00     0.00   0.01  -0.05    -0.00  -0.01   0.06
  72   1    -0.03   0.00   0.00     0.00   0.01  -0.07    -0.00  -0.01   0.06
  73   6     0.08  -0.00  -0.01     0.00   0.00   0.19     0.00   0.00   0.06
  74   6     0.08  -0.00  -0.00     0.00  -0.01   0.12     0.00  -0.01  -0.09
  75   6     0.07   0.00   0.00     0.00  -0.01   0.03     0.00  -0.02  -0.20
  76   6     0.07   0.00   0.01     0.00  -0.02  -0.08     0.00  -0.03  -0.26
  77   6     0.06   0.00   0.01     0.00  -0.03  -0.16     0.00  -0.03  -0.23
  78   6     0.06  -0.00   0.01     0.00  -0.02  -0.20    -0.00  -0.01  -0.11
  79   6    -0.06   0.00   0.01    -0.00  -0.02  -0.20    -0.00   0.01   0.11
  80   6    -0.06   0.00   0.01    -0.00  -0.03  -0.17    -0.00   0.02   0.23
  81   6    -0.07   0.00   0.01    -0.00  -0.04  -0.09    -0.00   0.03   0.26
  82   6    -0.07   0.00  -0.00    -0.00  -0.04   0.03    -0.00   0.02   0.20
  83   6    -0.08   0.00  -0.01    -0.00  -0.04   0.12    -0.00   0.02   0.09
  84   6    -0.08   0.00  -0.01    -0.00  -0.02   0.18     0.00   0.01  -0.06
  85  26     0.00   0.00  -0.00     0.00   0.01  -0.01    -0.00   0.00   0.00
  86   6     0.00  -0.01  -0.01     0.00   0.01   0.09    -0.00   0.02   0.14
  87   6     0.01   0.00  -0.00     0.00  -0.01  -0.05    -0.00   0.01   0.11
  88   6     0.03  -0.01   0.01     0.00  -0.01  -0.11    -0.00   0.00   0.04
  89   6     0.05  -0.00   0.01     0.00  -0.02  -0.17    -0.00  -0.00  -0.01
  90   6     0.03   0.01   0.01     0.00  -0.01  -0.11    -0.00   0.00   0.04
  91   6     0.01  -0.01   0.00    -0.00  -0.01  -0.05    -0.00   0.01   0.11
  92   6    -0.00   0.01  -0.01    -0.00   0.01   0.09    -0.00   0.02   0.14
  93   6     0.01   0.02  -0.01    -0.00   0.01   0.10    -0.00   0.01   0.07
  94   7     0.03   0.02  -0.00     0.00   0.00  -0.02    -0.00   0.00   0.04
  95   6    -0.00   0.04  -0.02    -0.00   0.02   0.18    -0.00   0.00  -0.00
  96   6    -0.01   0.03  -0.01    -0.00   0.02   0.10    -0.00  -0.01  -0.07
  97   6    -0.00   0.01  -0.01    -0.00   0.02   0.09    -0.00  -0.01  -0.14
  98   6    -0.01  -0.00   0.00    -0.00   0.00  -0.05    -0.00  -0.01  -0.11
  99   6    -0.03   0.01   0.01    -0.00  -0.00  -0.10    -0.00  -0.00  -0.04
 100   7    -0.03   0.03  -0.00    -0.00   0.01  -0.02    -0.00  -0.00  -0.04
 101   6    -0.05   0.00   0.01    -0.00  -0.01  -0.17    -0.00   0.00   0.01
 102   6    -0.03  -0.00   0.01    -0.00  -0.00  -0.10    -0.00  -0.00  -0.04
 103   6    -0.01   0.01   0.01     0.00   0.00  -0.05    -0.00  -0.01  -0.11
 104   6     0.00  -0.01  -0.00     0.00   0.02   0.09    -0.00  -0.01  -0.14
 105   6    -0.01  -0.03  -0.00     0.00   0.01   0.10    -0.00  -0.01  -0.07
 106   7    -0.03  -0.02   0.00    -0.00   0.00  -0.02    -0.00  -0.00  -0.04
 107   6     0.00  -0.04  -0.01     0.00   0.02   0.18    -0.00   0.00  -0.00
 108   6     0.01  -0.03  -0.01     0.00   0.01   0.10    -0.00   0.01   0.07
 109   7     0.03  -0.03   0.00     0.00  -0.00  -0.02    -0.00   0.00   0.04
 110   1    -0.00  -0.00  -0.00     0.00   0.01   0.05    -0.00   0.01   0.06
 111   1     0.00   0.00  -0.00     0.00  -0.00  -0.03    -0.00   0.00   0.04
 112   1     0.00  -0.01   0.00    -0.00  -0.00  -0.03    -0.00   0.00   0.04
 113   1    -0.01   0.00  -0.00    -0.00   0.01   0.05    -0.00   0.01   0.06
 114   1    -0.00   0.01  -0.01    -0.00   0.01   0.08    -0.00   0.00  -0.00
 115   1     0.00   0.00  -0.00    -0.00   0.01   0.05    -0.00  -0.01  -0.06
 116   1    -0.00  -0.00   0.00    -0.00  -0.00  -0.03    -0.00  -0.00  -0.04
 117   1    -0.00   0.01   0.00     0.00  -0.00  -0.03    -0.00  -0.00  -0.04
 118   1     0.01  -0.00  -0.00     0.00   0.01   0.05    -0.00  -0.01  -0.06
 119   1     0.00  -0.01  -0.00     0.00   0.01   0.08    -0.00   0.00  -0.00
                     19                     20                     21
                        a                      a                      a 
 Frequencies --    82.1821                85.1975                90.0806
 Red. masses --    15.4488                13.8648                12.7945
 Frc consts  --     0.0000                 0.0000                 0.0000
 IR Inten    --    13.8054                 2.5184                 5.5347
 Raman Activ --     0.0000                 0.0000                 0.0000
 Depolar     --     0.0000                 0.0000                 0.0000
 Atom AN      X      Y      Z        X      Y      Z        X      Y      Z
   1  26    -0.00   0.01  -0.11     0.01  -0.05  -0.03     0.00   0.06  -0.06
   2   6     0.01   0.01  -0.02    -0.03  -0.05  -0.00     0.04   0.05   0.01
   3   6     0.00   0.02  -0.07    -0.02  -0.06  -0.01     0.02   0.06   0.00
   4   6     0.00   0.01  -0.08    -0.00  -0.05  -0.02     0.01   0.05  -0.01
   5   6    -0.00   0.01  -0.06     0.00  -0.06  -0.01    -0.00   0.06  -0.01
   6   6    -0.00   0.01  -0.08     0.01  -0.05  -0.02    -0.00   0.06  -0.01
   7   6    -0.01   0.02  -0.07     0.03  -0.06  -0.02    -0.02   0.06   0.00
   8   6    -0.01   0.01  -0.02     0.04  -0.05  -0.01    -0.03   0.05   0.01
   9   6    -0.01   0.01   0.00     0.03  -0.03  -0.00    -0.03   0.04  -0.00
  10   7    -0.00   0.01  -0.06     0.01  -0.04  -0.01    -0.01   0.04  -0.02
  11   6    -0.01   0.00   0.09     0.04  -0.01   0.02    -0.04   0.02   0.01
  12   6    -0.01  -0.00   0.08     0.03  -0.00   0.02    -0.03   0.00   0.01
  13   6    -0.01  -0.00   0.13     0.04   0.01   0.03    -0.04  -0.01   0.04
  14   6    -0.01  -0.01   0.03     0.03   0.02   0.01    -0.03  -0.02   0.02
  15   6    -0.00  -0.00  -0.06     0.02   0.02  -0.02    -0.01  -0.02  -0.01
  16   7    -0.01  -0.00  -0.03     0.02   0.00  -0.01    -0.01   0.00  -0.01
  17   6    -0.00  -0.01  -0.11     0.01   0.02  -0.03     0.00  -0.02  -0.02
  18   6     0.00  -0.00  -0.06    -0.01   0.02  -0.02     0.02  -0.02  -0.01
  19   6     0.01  -0.01   0.03    -0.02   0.02   0.01     0.03  -0.02   0.02
  20   6     0.01  -0.00   0.13    -0.03   0.01   0.03     0.04  -0.01   0.04
  21   6     0.01   0.00   0.08    -0.02  -0.01   0.02     0.03   0.00   0.01
  22   7     0.00   0.00  -0.03    -0.01  -0.00  -0.01     0.02   0.00  -0.01
  23   6     0.01   0.01   0.09    -0.03  -0.02   0.02     0.04   0.02   0.01
  24   6     0.01   0.01   0.00    -0.02  -0.04  -0.00     0.03   0.04  -0.00
  25   7     0.00   0.01  -0.06    -0.01  -0.04  -0.01     0.01   0.04  -0.02
  26   1     0.00   0.00   0.00    -0.01  -0.01   0.00     0.01   0.02   0.00
  27   1     0.00   0.01  -0.03    -0.01  -0.02  -0.01     0.01   0.02   0.00
  28   1    -0.00   0.01  -0.03     0.01  -0.02  -0.01    -0.01   0.02   0.00
  29   1    -0.00   0.00   0.00     0.02  -0.01  -0.00    -0.01   0.01   0.01
  30   1    -0.00   0.00   0.05     0.02  -0.00   0.01    -0.01   0.01   0.01
  31   1    -0.00  -0.00   0.07     0.02   0.00   0.02    -0.02  -0.00   0.02
  32   1    -0.00  -0.00   0.01     0.01   0.01   0.00    -0.01  -0.01   0.01
  33   1    -0.00  -0.00  -0.04     0.00   0.01  -0.01     0.00  -0.01  -0.00
  34   1     0.00  -0.00   0.01    -0.01   0.01   0.00     0.01  -0.01   0.01
  35   1     0.00  -0.00   0.07    -0.01   0.00   0.02     0.02  -0.00   0.02
  36   1     0.00   0.00   0.05    -0.01  -0.01   0.01     0.02   0.01   0.01
  37  26    -0.00   0.04  -0.11     0.01  -0.05  -0.02    -0.00  -0.07   0.08
  38   6     0.01   0.02  -0.02    -0.03  -0.05  -0.01    -0.03  -0.04  -0.02
  39   6     0.00   0.03  -0.07    -0.02  -0.06  -0.01    -0.02  -0.05  -0.01
  40   6     0.00   0.03  -0.08    -0.00  -0.05  -0.01    -0.00  -0.05   0.01
  41   6    -0.00   0.03  -0.06     0.00  -0.06  -0.01     0.00  -0.05  -0.00
  42   6    -0.00   0.03  -0.08     0.01  -0.05  -0.01     0.00  -0.05   0.01
  43   6    -0.01   0.03  -0.07     0.03  -0.06  -0.01     0.02  -0.05  -0.01
  44   6    -0.01   0.02  -0.02     0.04  -0.05  -0.01     0.03  -0.04  -0.02
  45   6    -0.01   0.01   0.00     0.03  -0.03  -0.01     0.02  -0.03  -0.00
  46   7    -0.00   0.02  -0.06     0.01  -0.04  -0.01     0.01  -0.04   0.02
  47   6    -0.01  -0.01   0.10     0.04  -0.02   0.00     0.03  -0.01  -0.03
  48   6    -0.01  -0.01   0.09     0.04  -0.00   0.00     0.03   0.00  -0.02
  49   6    -0.01  -0.03   0.14     0.04   0.01   0.01     0.03   0.02  -0.06
  50   6    -0.01  -0.01   0.03     0.03   0.02   0.01     0.03   0.03  -0.02
  51   6    -0.01   0.01  -0.07     0.02   0.02   0.00     0.01   0.01   0.02
  52   7    -0.01   0.00  -0.03     0.02   0.00  -0.00     0.01  -0.00   0.02
  53   6    -0.00   0.01  -0.12     0.01   0.02   0.00    -0.00   0.02   0.04
  54   6     0.00   0.01  -0.07    -0.01   0.02   0.00    -0.01   0.01   0.02
  55   6     0.01  -0.01   0.03    -0.02   0.02   0.01    -0.03   0.03  -0.02
  56   6     0.01  -0.03   0.14    -0.04   0.01   0.01    -0.04   0.02  -0.06
  57   6     0.01  -0.01   0.09    -0.03  -0.01   0.00    -0.03   0.00  -0.02
  58   7     0.00   0.01  -0.03    -0.01  -0.00  -0.00    -0.01  -0.00   0.02
  59   6     0.01  -0.01   0.10    -0.03  -0.02  -0.00    -0.03  -0.01  -0.03
  60   6     0.01   0.01   0.00    -0.02  -0.04  -0.01    -0.02  -0.03  -0.00
  61   7     0.00   0.02  -0.06    -0.01  -0.04  -0.01    -0.01  -0.04   0.02
  62   1     0.00   0.00   0.00    -0.01  -0.01  -0.00    -0.01  -0.01  -0.01
  63   1     0.00   0.01  -0.03    -0.01  -0.02  -0.00    -0.01  -0.02  -0.01
  64   1    -0.00   0.01  -0.03     0.01  -0.02  -0.00     0.01  -0.02  -0.01
  65   1    -0.00   0.00   0.00     0.02  -0.01  -0.00     0.01  -0.01  -0.01
  66   1    -0.00  -0.01   0.05     0.02  -0.00   0.00     0.01  -0.00  -0.02
  67   1    -0.00  -0.01   0.07     0.02   0.00   0.00     0.01   0.01  -0.03
  68   1    -0.00  -0.00   0.01     0.01   0.01   0.00     0.01   0.01  -0.01
  69   1    -0.00   0.01  -0.05     0.00   0.01   0.00    -0.00   0.01   0.01
  70   1     0.00  -0.00   0.01    -0.01   0.01   0.00    -0.01   0.01  -0.01
  71   1     0.00  -0.01   0.07    -0.01   0.00   0.00    -0.01   0.01  -0.03
  72   1     0.00  -0.01   0.05    -0.01  -0.01   0.00    -0.01  -0.00  -0.02
  73   6     0.00   0.00   0.03    -0.00  -0.01   0.01     0.00   0.00   0.02
  74   6     0.00  -0.06   0.16    -0.00   0.23   0.04     0.00  -0.27   0.04
  75   6     0.00  -0.08   0.21    -0.00   0.33   0.05     0.00  -0.37   0.04
  76   6     0.00  -0.09   0.18    -0.00   0.35   0.03     0.00  -0.36   0.03
  77   6     0.00  -0.07   0.08    -0.00   0.26   0.00     0.00  -0.24   0.00
  78   6     0.00  -0.02  -0.07    -0.00   0.02  -0.03     0.00   0.03  -0.03
  79   6     0.00  -0.01  -0.07    -0.01   0.03  -0.02    -0.00  -0.03   0.03
  80   6     0.00  -0.10   0.08    -0.00   0.26   0.03    -0.00   0.21   0.03
  81   6     0.00  -0.14   0.18    -0.00   0.35   0.06    -0.00   0.31   0.02
  82   6     0.00  -0.13   0.22    -0.00   0.34   0.07    -0.00   0.33  -0.01
  83   6     0.00  -0.09   0.17    -0.00   0.24   0.05    -0.00   0.24  -0.02
  84   6    -0.00  -0.00   0.03    -0.00  -0.01  -0.00     0.00   0.00  -0.03
  85  26     0.01   0.02  -0.26    -0.02  -0.13  -0.15    -0.00   0.00  -0.07
  86   6     0.01   0.02   0.12    -0.01  -0.03   0.08    -0.07   0.07   0.04
  87   6     0.01   0.01  -0.00    -0.01  -0.04   0.02    -0.05   0.09   0.02
  88   6     0.01  -0.00  -0.11    -0.01  -0.04  -0.04    -0.02   0.07  -0.02
  89   6     0.00  -0.01  -0.14    -0.01  -0.04  -0.06     0.00   0.08  -0.03
  90   6    -0.00  -0.00  -0.11     0.00  -0.04  -0.05     0.02   0.07  -0.02
  91   6    -0.00   0.01  -0.00    -0.00  -0.04   0.02     0.05   0.09   0.02
  92   6    -0.00   0.02   0.12    -0.00  -0.03   0.08     0.07   0.07   0.04
  93   6    -0.00   0.02   0.07    -0.00  -0.03   0.04     0.05   0.03   0.01
  94   7    -0.00   0.00  -0.09    -0.00  -0.05  -0.04     0.02   0.04  -0.02
  95   6    -0.00   0.03   0.15    -0.01  -0.03   0.07     0.07   0.00   0.01
  96   6     0.00   0.03   0.07    -0.01  -0.04   0.03     0.05  -0.03  -0.00
  97   6    -0.00   0.03   0.12    -0.01  -0.03   0.06     0.07  -0.06   0.01
  98   6     0.00   0.02  -0.00    -0.01  -0.04   0.01     0.05  -0.08   0.01
  99   6     0.00   0.01  -0.11    -0.02  -0.04  -0.05     0.01  -0.06   0.00
 100   7     0.00   0.01  -0.09    -0.02  -0.05  -0.05     0.02  -0.04  -0.01
 101   6     0.00   0.00  -0.14    -0.01  -0.04  -0.05    -0.00  -0.07   0.01
 102   6     0.00   0.01  -0.11    -0.00  -0.04  -0.05    -0.02  -0.06   0.00
 103   6     0.00   0.02  -0.00    -0.00  -0.04   0.01    -0.05  -0.08   0.01
 104   6     0.01   0.03   0.12    -0.00  -0.03   0.06    -0.07  -0.06   0.01
 105   6     0.01   0.02   0.07    -0.01  -0.04   0.03    -0.05  -0.03  -0.00
 106   7     0.00   0.01  -0.09    -0.00  -0.05  -0.05    -0.03  -0.04  -0.01
 107   6     0.01   0.03   0.15    -0.01  -0.03   0.07    -0.07   0.00   0.01
 108   6     0.01   0.02   0.07    -0.01  -0.04   0.04    -0.05   0.03   0.01
 109   7     0.01   0.00  -0.09    -0.01  -0.05  -0.04    -0.02   0.04  -0.02
 110   1     0.00   0.01   0.07    -0.00  -0.01   0.04    -0.03   0.02   0.02
 111   1     0.00   0.00  -0.00    -0.00  -0.01   0.01    -0.01   0.03   0.01
 112   1    -0.00   0.00  -0.00    -0.00  -0.01   0.01     0.01   0.03   0.01
 113   1    -0.00   0.01   0.07    -0.00  -0.01   0.04     0.03   0.02   0.02
 114   1    -0.00   0.01   0.08    -0.00  -0.01   0.04     0.03   0.00   0.01
 115   1    -0.00   0.01   0.07    -0.00  -0.01   0.03     0.03  -0.02   0.00
 116   1     0.00   0.01  -0.00    -0.00  -0.01   0.01     0.01  -0.03   0.01
 117   1     0.00   0.01  -0.00    -0.00  -0.01   0.01    -0.02  -0.03   0.01
 118   1     0.00   0.01   0.07    -0.00  -0.01   0.03    -0.03  -0.02   0.00
 119   1     0.00   0.01   0.08    -0.00  -0.01   0.04    -0.03   0.00   0.01
                     22                     23                     24
                        a                      a                      a 
 Frequencies --    93.2183                93.3345                95.6726
 Red. masses --    29.8729                29.0451                18.3851
 Frc consts  --     0.0000                 0.0000                 0.0000
 IR Inten    --   109.2339                 4.2954               153.7469
 Raman Activ --     0.0000                 0.0000                 0.0000
 Depolar     --     0.0000                 0.0000                 0.0000
 Atom AN      X      Y      Z        X      Y      Z        X      Y      Z
   1  26     0.00   0.00   0.47     0.02   0.01   0.41    -0.17  -0.00   0.03
   2   6     0.00  -0.00  -0.17     0.01   0.00  -0.15    -0.08   0.02  -0.00
   3   6     0.00  -0.00  -0.16     0.01   0.01  -0.15    -0.06  -0.01  -0.00
   4   6     0.00  -0.00   0.00     0.00   0.01   0.00    -0.02   0.01   0.00
   5   6    -0.00   0.00   0.00    -0.00   0.01   0.00     0.01  -0.00   0.00
[...]
 119   1     0.00  -0.00   0.00     0.00   0.00  -0.00     0.00   0.01  -0.00
                    346                    347                    348
                        a                      a                      a 
 Frequencies --  3165.3903              3165.5205              3165.8561
 Red. masses --     1.9675                 1.9668                 1.9671
 Frc consts  --     0.0000                 0.0000                 0.0000
 IR Inten    --   272.0034               151.5517               174.0278
 Raman Activ --     0.0000                 0.0000                 0.0000
 Depolar     --     0.0000                 0.0000                 0.0000
 Atom AN      X      Y      Z        X      Y      Z        X      Y      Z
   1  26     0.00  -0.00  -0.00     0.00  -0.00  -0.00     0.00   0.00  -0.00
   2   6    -0.00   0.08  -0.00    -0.00   0.02  -0.00    -0.00   0.00  -0.00
   3   6    -0.12   0.01  -0.00    -0.03   0.00  -0.00    -0.01   0.00  -0.00
   4   6    -0.00  -0.00   0.00    -0.00  -0.00   0.00    -0.00  -0.00   0.00
   5   6    -0.00   0.00  -0.00    -0.00  -0.00  -0.00    -0.00  -0.00   0.00
   6   6     0.00  -0.00   0.00    -0.00   0.00  -0.00    -0.00   0.00  -0.00
   7   6     0.07   0.01  -0.00    -0.03  -0.00   0.00    -0.04  -0.01   0.00
   8   6     0.00   0.05  -0.00     0.00  -0.02   0.00    -0.00  -0.03   0.00
   9   6    -0.00   0.00   0.00     0.00  -0.00  -0.00     0.00  -0.00  -0.00
  10   7    -0.00  -0.00  -0.00     0.00   0.00  -0.00     0.00   0.00   0.00
  11   6     0.00   0.00   0.00    -0.00  -0.00   0.00    -0.00  -0.00  -0.00
  12   6     0.00   0.00   0.00     0.00   0.00   0.00    -0.00  -0.00  -0.00
  13   6    -0.00   0.01   0.00     0.00   0.00   0.00     0.00  -0.00  -0.00
  14   6    -0.01   0.00  -0.00    -0.00   0.00  -0.00     0.00  -0.00   0.00
  15   6    -0.00  -0.00  -0.00    -0.00  -0.00   0.00     0.00   0.00   0.00
  16   7     0.00  -0.00  -0.00    -0.00   0.00  -0.00     0.00   0.00   0.00
  17   6    -0.00   0.00  -0.00    -0.00  -0.00  -0.00     0.00  -0.00  -0.00
  18   6    -0.00   0.00  -0.00    -0.00   0.00   0.00    -0.00   0.00  -0.00
  19   6    -0.00  -0.00  -0.00    -0.00  -0.00  -0.00    -0.00  -0.00  -0.00
  20   6     0.00  -0.00   0.00     0.00  -0.00   0.00    -0.00  -0.00   0.00
  21   6     0.00  -0.00   0.00     0.00  -0.00   0.00     0.00   0.00   0.00
  22   7    -0.00  -0.00  -0.00    -0.00  -0.00   0.00     0.00   0.00   0.00
  23   6    -0.00   0.00  -0.00    -0.00   0.00  -0.00    -0.00   0.00  -0.00
  24   6     0.00   0.00   0.00     0.00   0.00   0.00     0.00   0.00   0.00
  25   7     0.00  -0.00   0.00     0.00  -0.00   0.00     0.00   0.00  -0.00
  26   1     0.02  -0.25   0.00     0.00  -0.06   0.00     0.00  -0.01   0.00
  27   1     0.40  -0.06   0.00     0.10  -0.01   0.00     0.02  -0.00   0.00
  28   1    -0.22  -0.04   0.00     0.10   0.02  -0.00     0.14   0.02  -0.00
  29   1    -0.01  -0.15   0.00     0.00   0.06  -0.00     0.00   0.09  -0.00
  30   1     0.00  -0.01  -0.00    -0.00   0.00   0.00    -0.00   0.00   0.00
  31   1     0.00  -0.03  -0.00     0.00  -0.00  -0.00    -0.00   0.01   0.00
  32   1     0.03  -0.00   0.00     0.00  -0.00   0.00    -0.01   0.00  -0.00
  33   1     0.00   0.00   0.00     0.00   0.00   0.00    -0.00  -0.00  -0.00
  34   1     0.01   0.00   0.00     0.00   0.00   0.00     0.00   0.00   0.00
  35   1     0.00   0.00  -0.00     0.00   0.00  -0.00     0.00   0.00  -0.00
  36   1    -0.00  -0.00   0.00    -0.00  -0.00   0.00    -0.00  -0.00  -0.00
  37  26    -0.00   0.00   0.00    -0.00  -0.00  -0.00     0.00   0.00   0.00
  38   6     0.00  -0.11  -0.02    -0.00   0.05   0.01    -0.00   0.03   0.00
  39   6     0.16  -0.02  -0.00    -0.08   0.01   0.00    -0.04   0.00   0.00
  40   6     0.00   0.01   0.00    -0.00  -0.00  -0.00    -0.00  -0.00  -0.00
  41   6     0.00  -0.00  -0.00     0.00   0.00   0.00    -0.00  -0.00  -0.00
  42   6    -0.00   0.00   0.00     0.00  -0.00  -0.00    -0.00   0.00   0.00
  43   6    -0.04  -0.01  -0.00     0.12   0.01   0.00    -0.08  -0.01  -0.00
  44   6    -0.00  -0.03  -0.01     0.00   0.08   0.01    -0.00  -0.06  -0.01
  45   6     0.00  -0.00  -0.00    -0.00   0.00   0.00     0.00  -0.00  -0.00
  46   7     0.00   0.00   0.00    -0.00  -0.00  -0.00     0.00   0.00   0.00
  47   6    -0.00  -0.00  -0.00     0.00   0.00   0.00    -0.00  -0.00  -0.00
  48   6    -0.00  -0.00  -0.00     0.00  -0.00  -0.00    -0.00   0.00   0.00
  49   6     0.00  -0.01  -0.00    -0.00   0.00   0.00     0.00  -0.00  -0.00
  50   6     0.01  -0.00  -0.00    -0.00   0.00   0.00     0.00  -0.00  -0.00
  51   6     0.00   0.00   0.00    -0.00  -0.00  -0.00     0.00   0.00   0.00
  52   7    -0.00   0.00   0.00     0.00  -0.00  -0.00    -0.00   0.00   0.00
  53   6     0.00  -0.00  -0.00     0.00   0.00   0.00    -0.00  -0.00  -0.00
  54   6    -0.00   0.00   0.00     0.00  -0.00  -0.00    -0.00   0.00  -0.00
  55   6    -0.00   0.00   0.00     0.01   0.00   0.00    -0.00  -0.00  -0.00
  56   6    -0.00  -0.00  -0.00     0.00   0.01   0.00     0.00  -0.00  -0.00
  57   6     0.00   0.00   0.00    -0.00   0.00   0.00     0.00  -0.00  -0.00
  58   7     0.00   0.00   0.00    -0.00  -0.00  -0.00    -0.00  -0.00  -0.00
  59   6     0.00  -0.00  -0.00    -0.00   0.00   0.00    -0.00   0.00   0.00
  60   6    -0.00  -0.00  -0.00     0.00   0.00   0.00     0.00   0.00   0.00
  61   7    -0.00   0.00   0.00     0.00  -0.00  -0.00     0.00  -0.00  -0.00
  62   1    -0.02   0.34   0.06     0.01  -0.17  -0.03     0.01  -0.08  -0.01
  63   1    -0.53   0.08   0.01     0.25  -0.04  -0.01     0.12  -0.02  -0.00
  64   1     0.14   0.02   0.00    -0.40  -0.06  -0.01     0.27   0.04   0.01
  65   1     0.01   0.10   0.02    -0.01  -0.25  -0.05     0.01   0.17   0.03
  66   1    -0.00   0.00   0.00     0.00  -0.01  -0.00    -0.00   0.00   0.00
  67   1    -0.00   0.02   0.00     0.00  -0.01  -0.00    -0.00   0.01   0.00
  68   1    -0.03   0.00   0.00     0.01  -0.00  -0.00    -0.01   0.00   0.00
  69   1    -0.00  -0.00   0.00    -0.00   0.00  -0.00     0.00  -0.00   0.00
  70   1     0.00   0.00   0.00    -0.02  -0.00  -0.00     0.00   0.00   0.00
  71   1     0.00   0.01   0.00    -0.00  -0.02  -0.00     0.00   0.00   0.00
  72   1     0.00   0.01   0.00    -0.00  -0.00  -0.00    -0.00  -0.00  -0.00
  73   6     0.00   0.00  -0.00     0.00  -0.00   0.00    -0.00  -0.00   0.00
  74   6    -0.00  -0.00   0.00    -0.00  -0.00   0.00    -0.00   0.00   0.00
  75   6     0.00  -0.00   0.00     0.00  -0.00   0.00     0.00  -0.00   0.00
  76   6     0.00   0.00  -0.00     0.00   0.00  -0.00    -0.00   0.00  -0.00
  77   6    -0.00   0.00  -0.00    -0.00   0.00  -0.00     0.00   0.00  -0.00
  78   6     0.00  -0.00   0.00     0.00  -0.00   0.00    -0.00  -0.00   0.00
  79   6    -0.00   0.00  -0.00    -0.00   0.00  -0.00    -0.00  -0.00   0.00
  80   6     0.00  -0.00   0.00    -0.00  -0.00   0.00     0.00   0.00  -0.00
  81   6     0.00  -0.00   0.00     0.00  -0.00   0.00    -0.00   0.00  -0.00
  82   6    -0.00   0.00   0.00    -0.00  -0.00  -0.00     0.00   0.00   0.00
  83   6     0.00   0.00   0.00     0.00  -0.00  -0.00    -0.00   0.00   0.00
  84   6    -0.00  -0.00  -0.00    -0.00   0.00   0.00    -0.00  -0.00  -0.00
  85  26     0.00  -0.00   0.00     0.00  -0.00   0.00    -0.00   0.00  -0.00
  86   6    -0.00  -0.05   0.01    -0.00  -0.07   0.01    -0.00  -0.06   0.01
  87   6    -0.08  -0.01   0.00    -0.11  -0.01   0.00    -0.08  -0.01   0.00
  88   6    -0.00   0.00  -0.00    -0.00   0.00  -0.00    -0.00   0.00  -0.00
  89   6    -0.00  -0.00   0.00    -0.00  -0.00   0.00     0.00  -0.00   0.00
  90   6     0.00  -0.00  -0.00     0.00   0.00  -0.00     0.00   0.01  -0.00
  91   6     0.00  -0.00   0.00     0.06  -0.01   0.00     0.17  -0.02   0.00
  92   6    -0.00  -0.00   0.00     0.00  -0.04   0.00     0.00  -0.12   0.01
  93   6    -0.00  -0.00   0.00    -0.00  -0.00   0.00    -0.00  -0.00   0.00
  94   7     0.00  -0.00   0.00    -0.00   0.00  -0.00    -0.00   0.00  -0.00
  95   6     0.00   0.00  -0.00     0.00   0.00  -0.00     0.00  -0.00   0.00
  96   6    -0.00   0.00  -0.00    -0.00   0.00  -0.00     0.00   0.00  -0.00
  97   6     0.00   0.05  -0.01     0.00   0.06  -0.01    -0.00  -0.01   0.00
  98   6     0.08   0.01  -0.00     0.09   0.01  -0.00    -0.01  -0.00   0.00
  99   6     0.00  -0.00   0.00     0.00  -0.00   0.00    -0.00   0.00  -0.00
 100   7    -0.00  -0.00   0.00    -0.00  -0.00   0.00     0.00   0.00  -0.00
 101   6     0.00   0.00  -0.00     0.00   0.00  -0.00     0.00  -0.00   0.00
 102   6    -0.00  -0.00   0.00    -0.00  -0.00   0.00     0.00   0.00  -0.00
 103   6    -0.01   0.00  -0.00    -0.11   0.01  -0.00     0.11  -0.01   0.00
 104   6    -0.00   0.01  -0.00    -0.00   0.08  -0.01     0.00  -0.07   0.01
 105   6     0.00   0.00  -0.00     0.00   0.00  -0.00    -0.00  -0.00   0.00
 106   7    -0.00   0.00  -0.00     0.00  -0.00   0.00    -0.00   0.00  -0.00
 107   6    -0.00  -0.00   0.00    -0.00   0.00  -0.00     0.00  -0.00   0.00
 108   6     0.00  -0.00   0.00     0.00  -0.00   0.00     0.00  -0.00   0.00
 109   7     0.00   0.00  -0.00     0.00   0.00  -0.00     0.00   0.00  -0.00
 110   1     0.01   0.16  -0.02     0.02   0.22  -0.02     0.01   0.18  -0.02
 111   1     0.25   0.04  -0.00     0.36   0.05  -0.01     0.27   0.04  -0.00
 112   1    -0.00   0.00  -0.00    -0.19   0.03  -0.00    -0.57   0.09  -0.01
 113   1    -0.00   0.00  -0.00    -0.01   0.12  -0.01    -0.02   0.36  -0.04
 114   1     0.00  -0.00   0.00     0.00  -0.00   0.00     0.00   0.01  -0.00
 115   1    -0.01  -0.16   0.02    -0.01  -0.20   0.02     0.00   0.03  -0.00
 116   1    -0.25  -0.04   0.00    -0.31  -0.04   0.00     0.03   0.00  -0.00
 117   1     0.03  -0.01   0.00     0.37  -0.06   0.00    -0.35   0.06  -0.00
 118   1     0.00  -0.02   0.00     0.01  -0.24   0.02    -0.01   0.24  -0.02
 119   1    -0.00   0.00  -0.00    -0.00  -0.00   0.00     0.00   0.01  -0.00
                    349                    350                    351
                        a                      a                      a 
 Frequencies --  3165.9405              3166.0419              3166.3075
 Red. masses --     1.9669                 1.9664                 1.9675
 Frc consts  --     0.0000                 0.0000                 0.0000
 IR Inten    --  5608.4872              6461.4300               143.3294
 Raman Activ --     0.0000                 0.0000                 0.0000
 Depolar     --     0.0000                 0.0000                 0.0000
 Atom AN      X      Y      Z        X      Y      Z        X      Y      Z
   1  26     0.00  -0.00  -0.00    -0.00   0.00   0.00     0.00  -0.00   0.00
   2   6    -0.00   0.10  -0.00     0.00  -0.03   0.00    -0.00   0.05  -0.00
   3   6    -0.16   0.02  -0.00     0.05  -0.00   0.00    -0.08   0.01  -0.00
   4   6    -0.00  -0.01   0.00     0.00   0.00  -0.00    -0.00  -0.00   0.00
   5   6    -0.00   0.00  -0.00     0.00  -0.00   0.00    -0.00   0.00  -0.00
   6   6    -0.00   0.00  -0.00     0.00  -0.00   0.00    -0.00   0.00  -0.00
   7   6    -0.07  -0.01   0.00     0.04   0.00  -0.00    -0.05  -0.01   0.00
   8   6     0.00  -0.05   0.00     0.00   0.03  -0.00    -0.00  -0.04   0.00
   9   6     0.00  -0.00  -0.00    -0.00   0.00   0.00     0.00  -0.00  -0.00
  10   7     0.00   0.00   0.00    -0.00  -0.00  -0.00     0.00   0.00  -0.00
  11   6    -0.00  -0.00  -0.00     0.00   0.00   0.00    -0.00  -0.00  -0.00
  12   6    -0.00   0.00  -0.00     0.00   0.00   0.00    -0.00  -0.00  -0.00
  13   6     0.00  -0.00  -0.00    -0.00   0.00   0.00     0.00  -0.01  -0.00
  14   6     0.00  -0.00   0.00    -0.00   0.00  -0.00     0.01  -0.00   0.00
  15   6     0.00   0.00  -0.00    -0.00  -0.00  -0.00     0.00   0.00   0.00
  16   7     0.00  -0.00   0.00    -0.00   0.00  -0.00    -0.00   0.00   0.00
  17   6     0.00   0.00   0.00    -0.00  -0.00  -0.00     0.00   0.00   0.00
  18   6     0.00  -0.00   0.00    -0.00   0.00  -0.00     0.00  -0.00   0.00
  19   6     0.01   0.00   0.00    -0.00  -0.00  -0.00     0.01   0.00   0.00
  20   6     0.00   0.01  -0.00    -0.00  -0.00   0.00     0.00   0.01  -0.00
  21   6    -0.00  -0.00  -0.00     0.00  -0.00   0.00    -0.00   0.00  -0.00
  22   7     0.00  -0.00   0.00    -0.00  -0.00  -0.00    -0.00  -0.00   0.00
  23   6    -0.00   0.00  -0.00     0.00  -0.00   0.00    -0.00   0.00  -0.00
  24   6     0.00   0.00   0.00    -0.00  -0.00  -0.00     0.00   0.00   0.00
  25   7     0.00  -0.00   0.00    -0.00   0.00   0.00     0.00  -0.00   0.00
  26   1     0.02  -0.33   0.00    -0.01   0.10  -0.00     0.01  -0.16   0.00
  27   1     0.51  -0.07   0.00    -0.15   0.02  -0.00     0.25  -0.04   0.00
  28   1     0.22   0.04  -0.00    -0.12  -0.02   0.00     0.17   0.03  -0.00
  29   1     0.01   0.14  -0.00    -0.00  -0.08   0.00     0.01   0.12  -0.00
  30   1    -0.00   0.00   0.00     0.00  -0.00  -0.00    -0.00   0.00   0.00
  31   1    -0.00   0.01   0.00     0.00  -0.01  -0.00    -0.00   0.02   0.00
  32   1    -0.01   0.00  -0.00     0.01  -0.00   0.00    -0.02   0.00  -0.00
  33   1    -0.00   0.00  -0.00     0.00   0.00   0.00    -0.00  -0.00  -0.00
  34   1    -0.02  -0.00  -0.00     0.01   0.00   0.00    -0.03  -0.00  -0.00
  35   1    -0.00  -0.02   0.00     0.00   0.01  -0.00    -0.00  -0.02   0.00
  36   1    -0.00  -0.01   0.00     0.00   0.00  -0.00    -0.00  -0.00   0.00
  37  26     0.00  -0.00   0.00    -0.00  -0.00  -0.00    -0.00  -0.00   0.00
  38   6    -0.00   0.07   0.01     0.00  -0.00  -0.00     0.00  -0.05  -0.01
  39   6    -0.10   0.01   0.00     0.01  -0.00  -0.00     0.08  -0.01  -0.00
  40   6    -0.00  -0.00  -0.00     0.00   0.00   0.00     0.00   0.00   0.00
  41   6    -0.00   0.00   0.00     0.00   0.00   0.00     0.00   0.00   0.00
  42   6    -0.00   0.00   0.00     0.00  -0.00  -0.00     0.00  -0.00  -0.00
  43   6    -0.10  -0.01  -0.00     0.03   0.00   0.00     0.08   0.01   0.00
  44   6    -0.00  -0.07  -0.01     0.00   0.02   0.00     0.00   0.05   0.01
  45   6     0.00  -0.00  -0.00    -0.00   0.00   0.00    -0.00   0.00   0.00
  46   7     0.00   0.00   0.00    -0.00  -0.00  -0.00    -0.00  -0.00  -0.00
  47   6    -0.00  -0.00  -0.00     0.00   0.00   0.00     0.00   0.00   0.00
  48   6    -0.00   0.00   0.00     0.00   0.00   0.00     0.00   0.00  -0.00
  49   6     0.00  -0.00  -0.00    -0.00   0.00   0.00    -0.00   0.01   0.00
  50   6     0.00  -0.00  -0.00    -0.00   0.00   0.00    -0.01   0.00   0.00
  51   6     0.00   0.00   0.00    -0.00  -0.00  -0.00    -0.00  -0.00  -0.00
  52   7     0.00  -0.00  -0.00    -0.00   0.00   0.00     0.00  -0.00  -0.00
  53   6     0.00   0.00  -0.00    -0.00   0.00   0.00    -0.00  -0.00   0.00
  54   6     0.00  -0.00  -0.00    -0.00   0.00   0.00    -0.00   0.00   0.00
  55   6     0.00   0.00   0.00    -0.00  -0.00  -0.00    -0.01  -0.00  -0.00
  56   6     0.00   0.00   0.00    -0.00  -0.00  -0.00    -0.00  -0.01  -0.00
  57   6    -0.00  -0.00  -0.00     0.00  -0.00  -0.00     0.00  -0.00  -0.00
  58   7     0.00   0.00   0.00    -0.00  -0.00  -0.00     0.00   0.00   0.00
  59   6    -0.00   0.00   0.00     0.00  -0.00  -0.00     0.00  -0.00  -0.00
  60   6     0.00   0.00   0.00    -0.00  -0.00  -0.00    -0.00  -0.00  -0.00
  61   7     0.00  -0.00  -0.00     0.00  -0.00  -0.00    -0.00   0.00   0.00
  62   1     0.02  -0.22  -0.04    -0.00   0.01   0.00    -0.01   0.17   0.03
  63   1     0.34  -0.05  -0.01    -0.02   0.00   0.00    -0.25   0.04   0.01
  64   1     0.32   0.05   0.01    -0.09  -0.01  -0.00    -0.26  -0.04  -0.01
  65   1     0.01   0.21   0.04    -0.00  -0.06  -0.01    -0.01  -0.17  -0.03
  66   1    -0.00   0.00   0.00     0.00  -0.00  -0.00     0.00  -0.01  -0.00
  67   1    -0.00   0.01   0.00     0.00  -0.01  -0.00     0.00  -0.03  -0.00
  68   1    -0.01   0.00   0.00     0.01  -0.00  -0.00     0.03  -0.00  -0.00
  69   1    -0.00  -0.00   0.00     0.00   0.00  -0.00     0.00   0.00  -0.00
  70   1    -0.01  -0.00  -0.00     0.00   0.00   0.00     0.03   0.00   0.00
  71   1    -0.00  -0.01  -0.00     0.00   0.00   0.00     0.00   0.03   0.00
  72   1    -0.00  -0.01  -0.00     0.00   0.00   0.00     0.00   0.01   0.00
  73   6    -0.00   0.00  -0.00     0.00  -0.00   0.00    -0.00   0.00  -0.00
  74   6    -0.00  -0.00   0.00     0.00   0.00  -0.00    -0.00  -0.00   0.00
  75   6     0.00  -0.00  -0.00     0.00   0.00  -0.00     0.00  -0.00   0.00
  76   6    -0.00  -0.00   0.00    -0.00  -0.00   0.00    -0.00   0.00  -0.00
  77   6     0.00  -0.00   0.00     0.00  -0.00   0.00     0.00   0.00  -0.00
  78   6     0.00   0.00  -0.00    -0.00   0.00  -0.00    -0.00  -0.00   0.00
  79   6     0.00   0.00  -0.00    -0.00   0.00  -0.00    -0.00  -0.00   0.00
  80   6     0.00  -0.00   0.00     0.00  -0.00   0.00    -0.00   0.00  -0.00
  81   6    -0.00  -0.00   0.00    -0.00  -0.00   0.00     0.00   0.00  -0.00
  82   6     0.00   0.00  -0.00     0.00   0.00  -0.00    -0.00  -0.00  -0.00
  83   6    -0.00  -0.00  -0.00     0.00  -0.00  -0.00     0.00  -0.00   0.00
  84   6    -0.00   0.00   0.00     0.00   0.00   0.00     0.00   0.00  -0.00
  85  26    -0.00  -0.00   0.00    -0.00  -0.00   0.00    -0.00   0.00  -0.00
  86   6     0.00   0.05  -0.01     0.00   0.08  -0.01     0.00   0.08  -0.01
  87   6     0.07   0.01  -0.00     0.13   0.01  -0.00     0.11   0.01  -0.00
  88   6     0.00  -0.00   0.00     0.00  -0.00   0.00     0.00  -0.00   0.00
  89   6     0.00   0.00  -0.00     0.00   0.00  -0.00     0.00  -0.00   0.00
  90   6    -0.00  -0.00   0.00     0.00   0.00  -0.00     0.00   0.00  -0.00
  91   6    -0.04   0.01  -0.00     0.06  -0.01   0.00     0.12  -0.01   0.00
  92   6    -0.00   0.03  -0.00    -0.00  -0.04   0.00     0.00  -0.08   0.01
  93   6     0.00   0.00  -0.00    -0.00  -0.00   0.00    -0.00  -0.00   0.00
  94   7     0.00  -0.00   0.00    -0.00   0.00  -0.00    -0.00   0.00  -0.00
  95   6     0.00   0.00  -0.00     0.00   0.00  -0.00     0.00  -0.00   0.00
  96   6    -0.00   0.00  -0.00    -0.00   0.00  -0.00     0.00  -0.00   0.00
  97   6     0.00   0.03  -0.00     0.00   0.12  -0.01    -0.00  -0.06   0.01
  98   6     0.05   0.01  -0.00     0.18   0.02  -0.00    -0.09  -0.01   0.00
  99   6     0.00  -0.00   0.00     0.00  -0.01   0.00    -0.00   0.00  -0.00
 100   7    -0.00  -0.00   0.00    -0.00  -0.00   0.00     0.00   0.00  -0.00
 101   6     0.00   0.00  -0.00     0.00   0.00  -0.00    -0.00  -0.00   0.00
 102   6    -0.00  -0.00   0.00     0.00   0.00  -0.00    -0.00  -0.00   0.00
 103   6    -0.03   0.00  -0.00     0.06  -0.01   0.00    -0.05   0.01  -0.00
 104   6    -0.00   0.02  -0.00     0.00  -0.04   0.00    -0.00   0.04  -0.00
 105   6     0.00   0.00  -0.00    -0.00  -0.00   0.00     0.00   0.00  -0.00
 106   7     0.00  -0.00   0.00    -0.00   0.00  -0.00     0.00  -0.00   0.00
 107   6     0.00   0.00  -0.00     0.00   0.00  -0.00     0.00   0.00  -0.00
 108   6    -0.00   0.00  -0.00    -0.00   0.00  -0.00    -0.00   0.00  -0.00
 109   7    -0.00  -0.00   0.00    -0.00  -0.00   0.00    -0.00  -0.00   0.00
 110   1    -0.01  -0.15   0.02    -0.02  -0.26   0.03    -0.02  -0.24   0.02
 111   1    -0.23  -0.03   0.00    -0.42  -0.06   0.01    -0.37  -0.05   0.01
 112   1     0.13  -0.02   0.00    -0.20   0.03  -0.00    -0.40   0.06  -0.01
 113   1     0.01  -0.09   0.01    -0.01   0.11  -0.01    -0.01   0.25  -0.03
 114   1    -0.00  -0.00   0.00     0.00  -0.01   0.00     0.00   0.01  -0.00
 115   1    -0.01  -0.10   0.01    -0.03  -0.37   0.04     0.01   0.19  -0.02
 116   1    -0.15  -0.02   0.00    -0.58  -0.09   0.01     0.28   0.04  -0.00
 117   1     0.08  -0.01   0.00    -0.20   0.03  -0.00     0.17  -0.03   0.00
 118   1     0.00  -0.06   0.01    -0.01   0.12  -0.01     0.01  -0.11   0.01
 119   1     0.00  -0.00   0.00     0.00  -0.00   0.00     0.00  -0.01   0.00
