      -----------------------------------------------------------      
     |                   =====================                   |     
     |                           x T B                           |     
     |                   =====================                   |     
     |                         S. Grimme                         |     
     |          Mulliken Center for Theoretical Chemistry        |     
     |                    University of Bonn                     |     
      -----------------------------------------------------------      

   * xtb version 6.4.1 (bd6e46d) compiled by 'conda@4901f00b25ba' on 2021-06-10

   xtb is free software: you can redistribute it and/or modify it under
   the terms of the GNU Lesser General Public License as published by
   the Free Software Foundation, either version 3 of the License, or
   (at your option) any later version.
   
   xtb is distributed in the hope that it will be useful,
   but WITHOUT ANY WARRANTY; without even the implied warranty of
   MERCHANTABILITY or FITNESS FOR A PARTICULAR PURPOSE.  See the
   GNU Lesser General Public License for more details.
   
   Cite this work as:
   * C. Bannwarth, E. Caldeweyher, S. Ehlert, A. Hansen, P. Pracht,
     J. Seibert, S. Spicher, S. Grimme, WIREs Comput. Mol. Sci., 2020, 11,
     e01493. DOI: 10.1002/wcms.1493
   
   for GFN2-xTB:
   * C. Bannwarth, S. Ehlert and S. Grimme., J. Chem. Theory Comput., 2019,
     15, 1652-1671. DOI: 10.1021/acs.jctc.8b01176
   for GFN1-xTB:
   * S. Grimme, C. Bannwarth, P. Shushkov, J. Chem. Theory Comput., 2017,
     13, 1989-2009. DOI: 10.1021/acs.jctc.7b00118
   for GFN0-xTB:
   * P. Pracht, E. Caldeweyher, S. Ehlert, S. Grimme, ChemRxiv, 2019, preprint.
     DOI: 10.26434/chemrxiv.8326202.v1
   for GFN-FF:
   * S. Spicher and S. Grimme, Angew. Chem. Int. Ed., 2020, 59, 15665-15673.
     DOI: 10.1002/anie.202004239
   
   for DFT-D4:
   * E. Caldeweyher, C. Bannwarth and S. Grimme, J. Chem. Phys., 2017,
     147, 034112. DOI: 10.1063/1.4993215
   * E. Caldeweyher, S. Ehlert, A. Hansen, H. Neugebauer, S. Spicher,
     C. Bannwarth and S. Grimme, J. Chem. Phys., 2019, 150, 154122.
     DOI: 10.1063/1.5090222
   * E. Caldeweyher, J.-M. Mewes, S. Ehlert and S. Grimme, Phys. Chem. Chem. Phys.
     2020, 22, 8499-8512. DOI: 10.1039/D0CP00502A
   
   for sTDA-xTB:
   * S. Grimme and C. Bannwarth, J. Chem. Phys., 2016, 145, 054103.
     DOI: 10.1063/1.4959605
   
   in the mass-spec context:
   * V. Asgeirsson, C. Bauer and S. Grimme, Chem. Sci., 2017, 8, 4879.
     DOI: 10.1039/c7sc00601b
   * J. Koopman and S. Grimme, ACS Omega 2019, 4, 12, 15120-15133.
     DOI: 10.1021/acsomega.9b02011
   
   for metadynamics refer to:
   * S. Grimme, J. Chem. Theory Comput., 2019, 155, 2847-2862
     DOI: 10.1021/acs.jctc.9b00143
   
   for SPH calculations refer to:
   * S. Spicher and S. Grimme, J. Chem. Theory Comput., 2021, 17, 1701-1714
     DOI: 10.1021/acs.jctc.0c01306
   
   with help from (in alphabetical order)
   P. Atkinson, C. Bannwarth, F. Bohle, G. Brandenburg, E. Caldeweyher
   M. Checinski, S. Dohm, S. Ehlert, S. Ehrlich, I. Gerasimov, J. Koopman
   C. Lavigne, S. Lehtola, F. März, M. Müller, F. Musil, H. Neugebauer
   J. Pisarek, C. Plett, P. Pracht, J. Seibert, P. Shushkov, S. Spicher
   M. Stahn, M. Steiner, T. Strunk, J. Stückrath, T. Rose, and J. Unsleber
   
 * started run on 2021/11/19 at 11:39:15.774     

           -------------------------------------------------
          |                Calculation Setup                |
           -------------------------------------------------

          program call               : /home/jeff/miniconda3/bin/xtb input_structure_1.xyz --gfn 2 --ohess normal --parallel 1 --etemp 300 --chrg 0 --uhf 0 -I det_control.in
          hostname                   : jelfscompute1
          coordinate file            : input_structure_1.xyz
          omp threads                :                     1
          number of atoms            :                   119
          number of electrons        :                   404
          charge                     :                     0
          spin                       :                   0.0
          first test random number   :      0.01093322355631

   ID    Z sym.   atoms
    1   26 Fe     1, 37, 85
    2    6 C      2-9, 11-15, 17-21, 23, 24, 38-45, 47-51, 53-57, 59, 60,
                  73-84, 86-93, 95-99, 101-105, 107, 108
    3    7 N      10, 16, 22, 25, 46, 52, 58, 61, 94, 100, 106, 109
    4    1 H      26-36, 62-72, 110-119

molecular fragmentation (1/2 indicates fragments):
111111111111111111111111111111111111222222222222222222222222222222222222
22222222222222222222222222222222222222222222222
# atoms in fragment 1/2:    36    83
 fragment masses (1/2) :      363.17      869.47
CMA distance (Bohr)    :  46.777
constraining FC (au)   :  0.0500

           -------------------------------------------------
          |                 G F N 2 - x T B                 |
           -------------------------------------------------

        Reference                      10.1021/acs.jctc.8b01176
      * Hamiltonian:
        H0-scaling (s, p, d)           1.850000    2.230000    2.230000
        zeta-weighting                 0.500000
      * Dispersion:
        s8                             2.700000
        a1                             0.520000
        a2                             5.000000
        s9                             5.000000
      * Repulsion:
        kExp                           1.500000    1.000000
        rExp                           1.000000
      * Coulomb:
        alpha                          2.000000
        third order                    shell-resolved
        anisotropic                    true
        a3                             3.000000
        a5                             4.000000
        cn-shift                       1.200000
        cn-exp                         4.000000
        max-rad                        5.000000


          ...................................................
          :                      SETUP                      :
          :.................................................:
          :  # basis functions                 398          :
          :  # atomic orbitals                 395          :
          :  # shells                          209          :
          :  # electrons                       404          :
          :  max. iterations                   250          :
          :  Hamiltonian                  GFN2-xTB          :
          :  restarted?                      false          :
          :  GBSA solvation                  false          :
          :  PC potential                    false          :
          :  electronic temp.          300.0000000     K    :
          :  accuracy                    1.0000000          :
          :  -> integral cutoff          0.2500000E+02      :
          :  -> integral neglect         0.1000000E-07      :
          :  -> SCF convergence          0.1000000E-05 Eh   :
          :  -> wf. convergence          0.1000000E-03 e    :
          :  Broyden damping             0.4000000          :
          ...................................................

 iter      E             dE          RMSdq      gap      omega  full diag
   1   -215.1913474 -0.215191E+03  0.867E+00    0.10       0.0  T
   2   -201.5947350  0.135966E+02  0.118E+01    0.04       1.0  T
   3   -197.2413062  0.435343E+01  0.897E+00    0.01       1.0  T
   4   -200.1194784 -0.287817E+01  0.772E+00    0.09       1.0  T
   5   -199.2784168  0.841062E+00  0.799E+00    0.01       1.0  T
   6   -203.7315288 -0.445311E+01  0.723E+00    0.05       1.0  T
   7   -209.9509076 -0.621938E+01  0.578E+00    0.04       1.0  T
   8   -215.4410824 -0.549017E+01  0.505E+00    0.13       1.0  T
   9   -209.2446347  0.619645E+01  0.501E+00    0.05       1.0  T
  10   -213.3033626 -0.405873E+01  0.460E+00    0.02       1.0  T
  11   -208.3827990  0.492056E+01  0.677E+00    0.04       1.0  T
  12   -214.2968475 -0.591405E+01  0.446E+00    0.02       1.0  T
  13   -216.6259495 -0.232910E+01  0.468E+00    0.03       1.0  T
  14   -215.9049380  0.721012E+00  0.438E+00    0.05       1.0  T
  15   -216.0643674 -0.159429E+00  0.440E+00    0.08       1.0  T
  16   -215.3611718  0.703196E+00  0.412E+00    0.05       1.0  T
  17   -217.0416538 -0.168048E+01  0.454E+00    0.07       1.0  T
  18   -217.4609268 -0.419273E+00  0.468E+00    0.03       1.0  T
  19   -217.1087487  0.352178E+00  0.433E+00    0.04       1.0  T
  20   -216.5164022  0.592347E+00  0.448E+00    0.01       1.0  T
  21   -214.3619521  0.215445E+01  0.485E+00    0.04       1.0  T
  22   -213.1569619  0.120499E+01  0.531E+00    0.05       1.0  T
  23   -210.2597893  0.289717E+01  0.645E+00    0.06       1.0  T
  24   -212.8926363 -0.263285E+01  0.566E+00    0.07       1.0  T
  25   -212.9891185 -0.964822E-01  0.564E+00    0.07       1.0  T
  26   -212.9444043  0.447142E-01  0.562E+00    0.07       1.0  T
  27   -211.0275044  0.191690E+01  0.671E+00    0.01       1.0  T
  28   -210.7717202  0.255784E+00  0.674E+00    0.00       1.0  T
  29   -209.7141452  0.105758E+01  0.683E+00    0.05       1.0  T
  30   -208.7720179  0.942127E+00  0.704E+00    0.13       1.0  T
  31   -208.6033280  0.168690E+00  0.694E+00    0.04       1.0  T
  32   -210.2042763 -0.160095E+01  0.683E+00    0.01       1.0  T
  33   -208.9551444  0.124913E+01  0.744E+00    0.08       1.0  T
  34   -209.0484166 -0.932723E-01  0.770E+00    0.06       1.0  T
  35   -208.1968548  0.851562E+00  0.820E+00    0.04       1.0  T
  36   -210.1566544 -0.195980E+01  0.775E+00    0.00       1.0  T
  37   -210.0848446  0.718097E-01  0.779E+00    0.01       1.0  T
  38   -210.9385472 -0.853703E+00  0.747E+00    0.04       1.0  T
  39   -210.8709509  0.675963E-01  0.749E+00    0.03       1.0  T
  40   -211.5146415 -0.643691E+00  0.742E+00    0.01       1.0  T
  41   -212.4587844 -0.944143E+00  0.696E+00    0.03       1.0  T
  42   -211.8654825  0.593302E+00  0.727E+00    0.02       1.0  T
  43   -211.9131411 -0.476585E-01  0.726E+00    0.03       1.0  T
  44   -212.0675979 -0.154457E+00  0.741E+00    0.02       1.0  T
  45   -213.0158877 -0.948290E+00  0.683E+00    0.03       1.0  T
  46   -215.4508441 -0.243496E+01  0.559E+00    0.03       1.0  T
  47   -215.2499775  0.200867E+00  0.554E+00    0.02       1.0  T
  48   -215.6465733 -0.396596E+00  0.517E+00    0.03       1.0  T
  49   -215.9564791 -0.309906E+00  0.483E+00    0.03       1.0  T
  50   -217.6292814 -0.167280E+01  0.488E+00    0.05       1.0  T
  51   -217.6150194  0.142621E-01  0.478E+00    0.05       1.0  T
  52   -217.0109207  0.604099E+00  0.464E+00    0.01       1.0  T
  53   -216.1010672  0.909854E+00  0.444E+00    0.02       1.0  T
  54   -214.2234009  0.187767E+01  0.594E+00    0.02       1.0  T
  55   -214.7531832 -0.529782E+00  0.542E+00    0.03       1.0  T
  56   -215.1135986 -0.360415E+00  0.499E+00    0.02       1.0  T
  57   -216.6466162 -0.153302E+01  0.362E+00    0.01       1.0  T
  58   -212.5788041  0.406781E+01  0.661E+00    0.04       1.0  T
  59   -212.4759391  0.102865E+00  0.670E+00    0.03       1.0  T
  60   -212.5546437 -0.787047E-01  0.666E+00    0.04       1.0  T
  61   -213.2412117 -0.686568E+00  0.612E+00    0.04       1.0  T
  62   -216.1699820 -0.292877E+01  0.391E+00    0.01       1.0  T
  63   -214.9485746  0.122141E+01  0.498E+00    0.07       1.0  T
  64   -213.1766851  0.177189E+01  0.623E+00    0.04       1.0  T
  65   -216.5992497 -0.342256E+01  0.308E+00    0.04       1.0  T
  66   -215.8477741  0.751476E+00  0.403E+00    0.03       1.0  T
  67   -215.8161889  0.315853E-01  0.377E+00    0.01       1.0  T
  68   -213.1341733  0.268202E+01  0.602E+00    0.01       1.0  T
  69   -217.5762569 -0.444208E+01  0.234E+00    0.01       1.0  T
  70   -216.3455529  0.123070E+01  0.294E+00    0.01       1.0  T
  71   -217.5132928 -0.116774E+01  0.205E+00    0.01       1.0  T
  72   -216.4420451  0.107125E+01  0.275E+00    0.01       1.0  T
  73   -216.0329392  0.409106E+00  0.320E+00    0.02       1.0  T
  74   -215.7085576  0.324382E+00  0.347E+00    0.00       1.0  T
  75   -215.7498068 -0.412492E-01  0.343E+00    0.00       1.0  T
  76   -215.9193655 -0.169559E+00  0.325E+00    0.01       1.0  T
  77   -215.9992016 -0.798360E-01  0.317E+00    0.01       1.0  T
  78   -216.0383141 -0.391125E-01  0.314E+00    0.02       1.0  T
  79   -216.2077046 -0.169391E+00  0.299E+00    0.03       1.0  T
  80   -216.4299884 -0.222284E+00  0.278E+00    0.03       1.0  T
  81   -217.5005623 -0.107057E+01  0.210E+00    0.00       1.0  T
  82   -217.8807315 -0.380169E+00  0.162E+00    0.02       1.0  T
  83   -216.8796167  0.100111E+01  0.233E+00    0.00       1.0  T
  84   -217.3400273 -0.460411E+00  0.201E+00    0.01       1.0  T
  85   -217.8811357 -0.541108E+00  0.135E+00    0.02       1.0  T
  86   -217.8515540  0.295817E-01  0.773E-01    0.02       1.0  T
  87   -217.6681759  0.183378E+00  0.131E+00    0.00       1.0  T
  88   -217.7716745 -0.103499E+00  0.929E-01    0.01       1.0  T
  89   -217.8408239 -0.691495E-01  0.921E-01    0.01       1.0  T
  90   -217.8513173 -0.104933E-01  0.758E-01    0.01       1.0  T
  91   -217.7815241  0.697932E-01  0.101E+00    0.00       1.0  T
  92   -217.8753265 -0.938024E-01  0.622E-01    0.00       1.0  T
  93   -217.7065182  0.168808E+00  0.118E+00    0.01       1.0  T
  94   -217.8399311 -0.133413E+00  0.768E-01    0.01       1.0  T
  95   -217.8896279 -0.496967E-01  0.536E-01    0.01       1.0  T
  96   -217.9159652 -0.263374E-01  0.266E-01    0.00       1.0  T
  97   -217.9116695  0.429571E-02  0.285E-01    0.00       1.0  T
  98   -217.9204262 -0.875670E-02  0.260E-01    0.00       1.0  T
  99   -217.9239229 -0.349663E-02  0.193E-01    0.00       1.0  T
 100   -217.9235818  0.341014E-03  0.182E-01    0.00       1.0  T
 101   -217.9240709 -0.489038E-03  0.140E-01    0.00       1.0  T
 102   -217.9193493  0.472159E-02  0.228E-01    0.00       1.0  T
 103   -217.9217266 -0.237735E-02  0.182E-01    0.00       1.0  T
 104   -217.9248356 -0.310899E-02  0.107E-01    0.00       1.0  T
 105   -217.9158554  0.898026E-02  0.238E-01    0.01       1.0  T
 106   -217.9234648 -0.760945E-02  0.127E-01    0.00       1.0  T
 107   -217.9251934 -0.172858E-02  0.860E-02    0.00       1.0  T
 108   -217.9258482 -0.654806E-03  0.617E-02    0.00       1.0  T
 109   -217.9227279  0.312030E-02  0.136E-01    0.01       1.0  T
 110   -217.9240222 -0.129425E-02  0.109E-01    0.00       1.0  T
 111   -217.9260464 -0.202427E-02  0.563E-02    0.00       1.0  T
 112   -217.9260905 -0.440863E-04  0.560E-02    0.00       1.0  T
 113   -217.9260185  0.720009E-04  0.570E-02    0.00       1.0  T
 114   -217.9259343  0.842504E-04  0.535E-02    0.00       1.0  T
 115   -217.9261408 -0.206567E-03  0.402E-02    0.00       1.0  T
 116   -217.9262591 -0.118295E-03  0.256E-02    0.00       1.0  T
 117   -217.9262949 -0.357715E-04  0.187E-02    0.00       1.0  T
 118   -217.9263232 -0.283113E-04  0.961E-03    0.00       1.0  T
 119   -217.9263300 -0.678380E-05  0.791E-03    0.00       1.2  T
 120   -217.9263328 -0.276353E-05  0.570E-03    0.00       1.6  T
 121   -217.9263294  0.334862E-05  0.775E-03    0.00       1.2  T
 122   -217.9263325 -0.307509E-05  0.387E-03    0.00       2.4  T
 123   -217.9263328 -0.300926E-06  0.383E-03    0.00       2.4  T
 124   -217.9263258  0.694338E-05  0.668E-03    0.00       1.4  T
 125   -217.9263314 -0.560431E-05  0.448E-03    0.00       2.0  T
 126   -217.9263345 -0.307854E-05  0.236E-03    0.00       3.9  T
 127   -217.9263345  0.635709E-07  0.286E-03    0.00       3.2  T
 128   -217.9263347 -0.278449E-06  0.220E-03    0.00       4.2  T
 129   -217.9263348 -0.285097E-07  0.161E-03    0.00       5.7  T
 130   -217.9263349 -0.135735E-06  0.933E-04    0.00       9.8  T
 131   -217.9263349 -0.607099E-08  0.866E-04    0.00      10.6  T

   *** convergence criteria satisfied after 131 iterations ***

         #    Occupation            Energy/Eh            Energy/eV
      -------------------------------------------------------------
         1        2.0000           -0.6826025             -18.5746
       ...           ...                  ...                  ...
       196        1.9301           -0.3408226              -9.2743
       197        1.9104           -0.3405778              -9.2676
       198        1.8801           -0.3402856              -9.2596
       199        1.8798           -0.3402828              -9.2596
       200        1.4583           -0.3386115              -9.2141
       201        1.4551           -0.3386039              -9.2139
       202        0.9819           -0.3376363              -9.1876 (HOMO)
       203        0.9518           -0.3375790              -9.1860 (LUMO)
       204        0.9377           -0.3375522              -9.1853
       205        0.6717           -0.3370229              -9.1709
       206        0.0002           -0.3289490              -8.9512
       207        0.0002           -0.3289451              -8.9511
       ...           ...                  ...                  ...
       395                          2.2703647              61.7798
      -------------------------------------------------------------
                  HL-Gap            0.0000573 Eh            0.0016 eV
             Fermi-level           -0.3376706 Eh           -9.1885 eV

 SCC (total)                   0 d,  0 h,  0 min,  4.392 sec
 SCC setup                      ...        0 min,  0.003 sec (  0.063%)
 Dispersion                     ...        0 min,  0.005 sec (  0.123%)
 classical contributions        ...        0 min,  0.001 sec (  0.018%)
 integral evaluation            ...        0 min,  0.053 sec (  1.215%)
 iterations                     ...        0 min,  4.185 sec ( 95.287%)
 molecular gradient             ...        0 min,  0.141 sec (  3.214%)
 printout                       ...        0 min,  0.003 sec (  0.080%)

         :::::::::::::::::::::::::::::::::::::::::::::::::::::
         ::                     SUMMARY                     ::
         :::::::::::::::::::::::::::::::::::::::::::::::::::::
         :: total energy            -213.708289481139 Eh    ::
         :: gradient norm              1.097106861874 Eh/a0 ::
         :: HOMO-LUMO gap              0.001558747948 eV    ::
         ::.................................................::
         :: SCC energy              -217.926334911850 Eh    ::
         :: -> isotropic ES            0.010480794291 Eh    ::
         :: -> anisotropic ES          0.031290058337 Eh    ::
         :: -> anisotropic XC          0.150817500882 Eh    ::
         :: -> dispersion             -0.154658765294 Eh    ::
         :: repulsion energy           4.217643532400 Eh    ::
         :: add. restraining           0.000000000000 Eh    ::
         :: total charge               0.000000000000 e     ::
         :::::::::::::::::::::::::::::::::::::::::::::::::::::

      ----------------------------------------------------------- 
     |                   =====================                   |
     |                        A N C O P T                        |
     |                   =====================                   |
     |               Approximate Normal Coordinate               |
     |                Rational Function Optimizer                |
      ----------------------------------------------------------- 

          ...................................................
          :                      SETUP                      :
          :.................................................:
          :   optimization level            normal          :
          :   max. optcycles                   357          :
          :   ANC micro-cycles                  20          :
          :   degrees of freedom               351          :
          :.................................................:
          :   RF solver                   davidson          :
          :   write xtbopt.log                true          :
          :   linear?                        false          :
          :   energy convergence         0.5000000E-05 Eh   :
          :   grad. convergence          0.1000000E-02 Eh/α :
          :   maximium RF displ.         1.0000000          :
          :   Hlow (freq-cutoff)         0.1000000E-01      :
          :   Hmax (freq-cutoff)         5.0000000          :
          :   S6 in model hess.         20.0000000          :
          ...................................................

generating ANC from model Hessian ...
Using Lindh-Hessian (1995)
 Shifting diagonal of input Hessian by    1.0134268716269094E-002
 Lowest  eigenvalues of input Hessian
    0.010000    0.010034    0.010102    0.010109    0.010113    0.010116
    0.010123    0.010127    0.000000    0.000000    0.000000    0.000000
    0.000000    0.000000    0.010142    0.010146    0.010154    0.010163
 Highest eigenvalues
    2.472860    2.628587    2.682208    2.687821    3.327668    3.495154


........................................................................
.............................. CYCLE    1 ..............................
........................................................................
   1   -217.9263350 -0.217926E+03  0.615E-04    0.00       0.0  T
   2   -217.9255827  0.752255E-03  0.644E-02    0.00       1.0  T
   3   -217.9263112 -0.728452E-03  0.111E-02    0.00       1.0  T
   4   -217.9259737  0.337411E-03  0.460E-02    0.00       1.0  T
   5   -217.9262846 -0.310846E-03  0.154E-02    0.00       1.0  T
   6   -217.9263252 -0.406511E-04  0.725E-03    0.00       1.3  T
   7   -217.9262997  0.255590E-04  0.134E-02    0.00       1.0  T
   8   -217.9263218 -0.220730E-04  0.846E-03    0.00       1.1  T
   9   -217.9263311 -0.936522E-05  0.450E-03    0.00       2.0  T
  10   -217.9263349 -0.379737E-05  0.739E-04    0.00      12.4  T
  11   -217.9263350 -0.652204E-07  0.352E-04    0.00      26.1  T
  12   -217.9263349  0.623064E-07  0.630E-04    0.00      14.5  T
     SCC iter.                  ...        0 min,  0.377 sec
     gradient                   ...        0 min,  0.141 sec
 * total energy  :  -213.7082895 Eh     change       -0.1104274E-07 Eh
   gradient norm :     1.0971055 Eh/α   predicted     0.0000000E+00 (-100.00%)
   displ. norm   :     0.5276901 α      lambda       -0.4951200E+00
   maximum displ.:     0.1359270 α      in ANC's #351, #283, #282, ...

........................................................................
.............................. CYCLE    2 ..............................
........................................................................
   1   -217.8656353 -0.217866E+03  0.873E-01    0.01       0.0  T
   2   -213.3266570  0.453898E+01  0.452E+00    0.06       1.0  T
   3   -216.2108867 -0.288423E+01  0.287E+00    0.00       1.0  T
   4   -214.3332908  0.187760E+01  0.494E+00    0.04       1.0  T
   5   -216.3729717 -0.203968E+01  0.289E+00    0.06       1.0  T
   6   -216.2894757  0.834959E-01  0.299E+00    0.03       1.0  T
   7   -213.7618050  0.252767E+01  0.504E+00    0.05       1.0  T
   8   -217.6722507 -0.391045E+01  0.125E+00    0.00       1.0  T
   9   -216.7092736  0.962977E+00  0.268E+00    0.03       1.0  T
  10   -215.0088005  0.170047E+01  0.418E+00    0.02       1.0  T
  11   -215.1196148 -0.110814E+00  0.432E+00    0.02       1.0  T
  12   -215.6692878 -0.549673E+00  0.381E+00    0.02       1.0  T
  13   -216.7909804 -0.112169E+01  0.255E+00    0.03       1.0  T
  14   -216.6597851  0.131195E+00  0.292E+00    0.02       1.0  T
  15   -216.6577534  0.203169E-02  0.287E+00    0.02       1.0  T
  16   -217.3256885 -0.667935E+00  0.188E+00    0.01       1.0  T
  17   -217.2691705  0.565180E-01  0.203E+00    0.03       1.0  T
  18   -217.2693748 -0.204265E-03  0.203E+00    0.03       1.0  T
  19   -217.0656916  0.203683E+00  0.243E+00    0.01       1.0  T
  20   -217.1413072 -0.756156E-01  0.236E+00    0.01       1.0  T
  21   -216.9897157  0.151591E+00  0.261E+00    0.02       1.0  T
  22   -217.3775630 -0.387847E+00  0.205E+00    0.01       1.0  T
  23   -217.7462262 -0.368663E+00  0.109E+00    0.03       1.0  T
  24   -217.8430877 -0.968615E-01  0.984E-01    0.01       1.0  T
  25   -217.8627612 -0.196735E-01  0.870E-01    0.00       1.0  T
  26   -217.8650097 -0.224849E-02  0.961E-01    0.02       1.0  T
  27   -217.8733537 -0.834404E-02  0.904E-01    0.01       1.0  T
  28   -217.8896312 -0.162775E-01  0.615E-01    0.01       1.0  T
  29   -217.8437025  0.459286E-01  0.808E-01    0.02       1.0  T
  30   -217.8661765 -0.224739E-01  0.679E-01    0.01       1.0  T
  31   -217.8216513  0.445252E-01  0.854E-01    0.01       1.0  T
  32   -217.8572771 -0.356258E-01  0.711E-01    0.01       1.0  T
  33   -217.8794985 -0.222215E-01  0.607E-01    0.01       1.0  T
  34   -217.8722475  0.725103E-02  0.611E-01    0.01       1.0  T
  35   -217.9351058 -0.628583E-01  0.160E-01    0.01       1.0  T
  36   -217.9327087  0.239713E-02  0.168E-01    0.00       1.0  T
  37   -217.9371812 -0.447250E-02  0.841E-02    0.01       1.0  T
  38   -217.9380625 -0.881290E-03  0.409E-02    0.01       1.0  T
  39   -217.9377070  0.355406E-03  0.568E-02    0.01       1.0  T
  40   -217.9381059 -0.398875E-03  0.227E-02    0.00       1.0  T
  41   -217.9381208 -0.148684E-04  0.197E-02    0.01       1.0  T
  42   -217.9381836 -0.628069E-04  0.822E-03    0.00       1.1  T
  43   -217.9381731  0.105399E-04  0.106E-02    0.00       1.0  T
  44   -217.9381700  0.301890E-05  0.114E-02    0.00       1.0  T
  45   -217.9381899 -0.198539E-04  0.188E-03    0.00       4.9  T
  46   -217.9381888  0.108904E-05  0.293E-03    0.00       3.1  T
  47   -217.9381887  0.689148E-07  0.276E-03    0.00       3.3  T
  48   -217.9381897 -0.973197E-06  0.132E-03    0.00       6.9  T
  49   -217.9381898 -0.115288E-06  0.903E-04    0.00      10.2  T
  50   -217.9381899 -0.110094E-06  0.486E-04    0.00      18.9  T
     SCC iter.                  ...        0 min,  1.564 sec
     gradient                   ...        0 min,  0.141 sec
 * total energy  :  -214.0355084 Eh     change       -0.3272189E+00 Eh
   gradient norm :     0.4132278 Eh/α   predicted    -0.3165315E+00 (  -3.27%)
   displ. norm   :     0.5751682 α      lambda       -0.1764167E+00
   maximum displ.:     0.2090116 α      in ANC's #122, #121, #123, ...

........................................................................
.............................. CYCLE    3 ..............................
........................................................................
   1   -217.8983304 -0.217898E+03  0.147E+00    0.02       0.0  T
   2   -209.6472590  0.825107E+01  0.548E+00    0.28       1.0  T
   3   -215.9635446 -0.631629E+01  0.409E+00    0.00       1.0  T
   4   -210.2196929  0.574385E+01  0.686E+00    0.11       1.0  T
   5   -215.1467835 -0.492709E+01  0.423E+00    0.00       1.0  T
   6   -210.2804466  0.486634E+01  0.632E+00    0.07       1.0  T
   7   -216.4133407 -0.613289E+01  0.296E+00    0.05       1.0  T
   8   -216.7663948 -0.353054E+00  0.265E+00    0.01       1.0  T
   9   -217.0199513 -0.253557E+00  0.246E+00    0.02       1.0  T
  10   -216.4605476  0.559404E+00  0.308E+00    0.02       1.0  T
  11   -216.7195667 -0.259019E+00  0.260E+00    0.02       1.0  T
  12   -217.0957297 -0.376163E+00  0.259E+00    0.00       1.0  T
  13   -216.2878997  0.807830E+00  0.325E+00    0.06       1.0  T
  14   -216.1717315  0.116168E+00  0.335E+00    0.06       1.0  T
  15   -216.1133105  0.584210E-01  0.340E+00    0.06       1.0  T
  16   -216.1337104 -0.203999E-01  0.337E+00    0.05       1.0  T
  17   -216.1757177 -0.420073E-01  0.333E+00    0.06       1.0  T
  18   -217.8092534 -0.163354E+01  0.109E+00    0.02       1.0  T
  19   -215.3010529  0.250820E+01  0.381E+00    0.02       1.0  T
  20   -217.0149251 -0.171387E+01  0.246E+00    0.02       1.0  T
  21   -216.9940336  0.208916E-01  0.245E+00    0.00       1.0  T
  22   -216.9963006 -0.226709E-02  0.275E+00    0.04       1.0  T
  23   -216.9321728  0.641279E-01  0.280E+00    0.04       1.0  T
  24   -217.0795094 -0.147337E+00  0.261E+00    0.03       1.0  T
  25   -217.2934399 -0.213930E+00  0.227E+00    0.00       1.0  T
  26   -217.7058558 -0.412416E+00  0.153E+00    0.01       1.0  T
  27   -217.4885414  0.217314E+00  0.170E+00    0.01       1.0  T
  28   -217.8306236 -0.342082E+00  0.124E+00    0.01       1.0  T
  29   -217.7222478  0.108376E+00  0.162E+00    0.01       1.0  T
  30   -217.6630273  0.592205E-01  0.178E+00    0.00       1.0  T
  31   -217.6798217 -0.167944E-01  0.170E+00    0.01       1.0  T
  32   -217.8079103 -0.128089E+00  0.133E+00    0.00       1.0  T
  33   -217.8629444 -0.550341E-01  0.108E+00    0.00       1.0  T
  34   -217.9710311 -0.108087E+00  0.253E-01    0.01       1.0  T
  35   -217.9627775  0.825353E-02  0.419E-01    0.02       1.0  T
  36   -217.9652139 -0.243639E-02  0.372E-01    0.02       1.0  T
  37   -217.9683604 -0.314647E-02  0.252E-01    0.01       1.0  T
  38   -217.9598760  0.848437E-02  0.405E-01    0.00       1.0  T
  39   -217.9733074 -0.134313E-01  0.174E-01    0.01       1.0  T
  40   -217.9636957  0.961163E-02  0.278E-01    0.00       1.0  T
  41   -217.9639540 -0.258287E-03  0.245E-01    0.00       1.0  T
  42   -217.9692013 -0.524724E-02  0.153E-01    0.01       1.0  T
  43   -217.9733489 -0.414759E-02  0.625E-02    0.01       1.0  T
  44   -217.9709973  0.235158E-02  0.124E-01    0.01       1.0  T
  45   -217.9736591 -0.266185E-02  0.395E-02    0.01       1.0  T
  46   -217.9736019  0.572097E-04  0.337E-02    0.01       1.0  T
  47   -217.9735955  0.642245E-05  0.279E-02    0.01       1.0  T
  48   -217.9736858 -0.903116E-04  0.683E-03    0.01       1.3  T
  49   -217.9735849  0.100882E-03  0.268E-02    0.01       1.0  T
  50   -217.9736709 -0.859441E-04  0.132E-02    0.01       1.0  T
  51   -217.9736895 -0.185916E-04  0.590E-03    0.01       1.6  T
  52   -217.9736895 -0.179591E-08  0.540E-03    0.01       1.7  T
  53   -217.9736913 -0.183330E-05  0.402E-03    0.01       2.3  T
  54   -217.9736932 -0.190765E-05  0.220E-03    0.01       4.2  T
  55   -217.9736937 -0.502210E-06  0.124E-03    0.01       7.4  T
  56   -217.9736937 -0.346605E-07  0.971E-04    0.01       9.4  T
  57   -217.9736936  0.142702E-06  0.128E-03    0.01       7.2  T
  58   -217.9736935  0.920581E-07  0.147E-03    0.01       6.2  T
  59   -217.9736937 -0.186372E-06  0.105E-03    0.01       8.8  T
  60   -217.9736939 -0.163070E-06  0.474E-04    0.01      19.4  T
     SCC iter.                  ...        0 min,  1.884 sec
     gradient                   ...        0 min,  0.141 sec
 * total energy  :  -214.1688527 Eh     change       -0.1333443E+00 Eh
   gradient norm :     0.1867843 Eh/α   predicted    -0.1173895E+00 ( -11.97%)
   displ. norm   :     0.6728600 α      lambda       -0.9453715E-01
   maximum displ.:     0.2632788 α      in ANC's #122, #121, #123, ...

........................................................................
.............................. CYCLE    4 ..............................
........................................................................
   1   -217.8893581 -0.217889E+03  0.213E+00    0.06       0.0  T
   2   -209.1391831  0.875017E+01  0.614E+00    0.14       1.0  T
   3   -210.3125596 -0.117338E+01  0.737E+00    0.03       1.0  T
   4   -211.6025287 -0.128997E+01  0.627E+00    0.06       1.0  T
   5   -211.7653030 -0.162774E+00  0.620E+00    0.02       1.0  T
   6   -216.4412040 -0.467590E+01  0.369E+00    0.03       1.0  T
   7   -217.6071495 -0.116595E+01  0.171E+00    0.00       1.0  T
   8   -216.6532491  0.953900E+00  0.303E+00    0.02       1.0  T
   9   -216.1848661  0.468383E+00  0.355E+00    0.08       1.0  T
  10   -216.6290722 -0.444206E+00  0.309E+00    0.08       1.0  T
  11   -217.8945928 -0.126552E+01  0.117E+00    0.04       1.0  T
  12   -217.1611616  0.733431E+00  0.269E+00    0.02       1.0  T
  13   -217.0099925  0.151169E+00  0.287E+00    0.04       1.0  T
  14   -217.0093807  0.611783E-03  0.287E+00    0.04       1.0  T
  15   -216.6312188  0.378162E+00  0.322E+00    0.04       1.0  T
  16   -216.7081946 -0.769758E-01  0.318E+00    0.04       1.0  T
  17   -216.5613100  0.146885E+00  0.325E+00    0.04       1.0  T
  18   -216.2952652  0.266045E+00  0.388E+00    0.08       1.0  T
  19   -216.9575641 -0.662299E+00  0.361E+00    0.02       1.0  T
  20   -217.0415991 -0.840350E-01  0.368E+00    0.03       1.0  T
  21   -217.8221020 -0.780503E+00  0.243E+00    0.02       1.0  T
  22   -217.2060270  0.616075E+00  0.298E+00    0.03       1.0  T
  23   -216.5432278  0.662799E+00  0.337E+00    0.05       1.0  T
  24   -217.0630468 -0.519819E+00  0.282E+00    0.01       1.0  T
  25   -216.9756171  0.874297E-01  0.289E+00    0.03       1.0  T
  26   -217.4836028 -0.507986E+00  0.249E+00    0.01       1.0  T
  27   -217.9295307 -0.445928E+00  0.156E+00    0.02       1.0  T
  28   -217.9283058  0.122492E-02  0.114E+00    0.02       1.0  T
  29   -218.0067422 -0.784364E-01  0.621E-01    0.00       1.0  T
  30   -218.0222970 -0.155548E-01  0.756E-01    0.02       1.0  T
  31   -217.9582669  0.640301E-01  0.833E-01    0.01       1.0  T
  32   -217.9961760 -0.379092E-01  0.622E-01    0.00       1.0  T
  33   -217.9624891  0.336869E-01  0.793E-01    0.01       1.0  T
  34   -217.9675590 -0.506989E-02  0.645E-01    0.00       1.0  T
  35   -217.9388995  0.286595E-01  0.732E-01    0.01       1.0  T
  36   -218.0045056 -0.656061E-01  0.474E-01    0.01       1.0  T
  37   -218.0010183  0.348730E-02  0.567E-01    0.00       1.0  T
  38   -217.9772636  0.237546E-01  0.749E-01    0.00       1.0  T
  39   -217.9908658 -0.136021E-01  0.681E-01    0.00       1.0  T
  40   -218.0226386 -0.317729E-01  0.300E-01    0.01       1.0  T
  41   -218.0258011 -0.316243E-02  0.179E-01    0.01       1.0  T
  42   -218.0256553  0.145779E-03  0.180E-01    0.01       1.0  T
  43   -218.0262693 -0.613987E-03  0.186E-01    0.01       1.0  T
  44   -218.0300140 -0.374470E-02  0.698E-02    0.02       1.0  T
  45   -218.0297756  0.238337E-03  0.511E-02    0.02       1.0  T
  46   -218.0299016 -0.125975E-03  0.376E-02    0.02       1.0  T
  47   -218.0301298 -0.228156E-03  0.207E-02    0.02       1.0  T
  48   -218.0301128  0.169610E-04  0.205E-02    0.02       1.0  T
  49   -218.0301434 -0.306223E-04  0.650E-03    0.02       1.4  T
  50   -218.0301335  0.991791E-05  0.863E-03    0.02       1.1  T
  51   -218.0301418 -0.827354E-05  0.554E-03    0.02       1.7  T
  52   -218.0301420 -0.194356E-06  0.473E-03    0.02       1.9  T
  53   -218.0301444 -0.245127E-05  0.303E-03    0.02       3.0  T
  54   -218.0301454 -0.938048E-06  0.217E-03    0.02       4.2  T
  55   -218.0301455 -0.131678E-06  0.112E-03    0.02       8.2  T
  56   -218.0301454  0.129655E-06  0.100E-03    0.02       9.2  T
  57   -218.0301454 -0.695403E-07  0.783E-04    0.02      11.7  T
  58   -218.0301455 -0.736563E-07  0.397E-04    0.02      23.1  T
     SCC iter.                  ...        0 min,  1.819 sec
     gradient                   ...        0 min,  0.141 sec
 * total energy  :  -214.2415728 Eh     change       -0.7272008E-01 Eh
   gradient norm :     0.0863655 Eh/α   predicted    -0.6866919E-01 (  -5.57%)
   displ. norm   :     0.7413882 α      lambda       -0.5662893E-01
   maximum displ.:     0.2607996 α      in ANC's #122, #65, #66, ...

........................................................................
.............................. CYCLE    5 ..............................
........................................................................
   1   -217.8628025 -0.217863E+03  0.230E+00    0.09       0.0  T
   2   -206.4543905  0.114084E+02  0.733E+00    0.04       1.0  T
   3   -215.4359598 -0.898157E+01  0.410E+00    0.06       1.0  T
   4   -210.1821887  0.525377E+01  0.712E+00    0.31       1.0  T
   5   -213.1602656 -0.297808E+01  0.569E+00    0.11       1.0  T
   6   -213.2946319 -0.134366E+00  0.542E+00    0.07       1.0  T
   7   -216.9270849 -0.363245E+01  0.302E+00    0.05       1.0  T
   8   -216.6804135  0.246671E+00  0.322E+00    0.07       1.0  T
   9   -217.1455690 -0.465156E+00  0.267E+00    0.07       1.0  T
  10   -216.5343506  0.611218E+00  0.321E+00    0.08       1.0  T
  11   -216.6075806 -0.732300E-01  0.327E+00    0.10       1.0  T
  12   -217.9143328 -0.130675E+01  0.158E+00    0.04       1.0  T
  13   -217.5738498  0.340483E+00  0.221E+00    0.06       1.0  T
  14   -217.0305732  0.543277E+00  0.294E+00    0.05       1.0  T
  15   -217.0123548  0.182184E-01  0.297E+00    0.05       1.0  T
  16   -216.7818835  0.230471E+00  0.325E+00    0.08       1.0  T
  17   -217.5337255 -0.751842E+00  0.211E+00    0.02       1.0  T
  18   -217.7695825 -0.235857E+00  0.142E+00    0.02       1.0  T
  19   -216.7603061  0.100928E+01  0.265E+00    0.03       1.0  T
  20   -216.6958958  0.644103E-01  0.271E+00    0.01       1.0  T
  21   -216.6874029  0.849287E-02  0.304E+00    0.02       1.0  T
  22   -217.8775147 -0.119011E+01  0.207E+00    0.04       1.0  T
  23   -217.9021107 -0.245960E-01  0.230E+00    0.01       1.0  T
  24   -217.9047822 -0.267153E-02  0.230E+00    0.01       1.0  T
  25   -217.8297174  0.750648E-01  0.221E+00    0.03       1.0  T
  26   -217.8313581 -0.164065E-02  0.196E+00    0.03       1.0  T
  27   -217.9753984 -0.144040E+00  0.111E+00    0.05       1.0  T
  28   -217.9966027 -0.212042E-01  0.123E+00    0.04       1.0  T
  29   -217.9928598  0.374283E-02  0.121E+00    0.01       1.0  T
  30   -218.0289438 -0.360840E-01  0.640E-01    0.01       1.0  T
  31   -217.9853804  0.435634E-01  0.789E-01    0.00       1.0  T
  32   -218.0298925 -0.445121E-01  0.516E-01    0.01       1.0  T
  33   -218.0501834 -0.202909E-01  0.471E-01    0.02       1.0  T
  34   -218.0620665 -0.118832E-01  0.274E-01    0.03       1.0  T
  35   -218.0578409  0.422567E-02  0.289E-01    0.02       1.0  T
  36   -218.0557499  0.209102E-02  0.322E-01    0.02       1.0  T
  37   -218.0602562 -0.450635E-02  0.285E-01    0.02       1.0  T
  38   -218.0604964 -0.240228E-03  0.295E-01    0.02       1.0  T
  39   -218.0645729 -0.407650E-02  0.238E-01    0.02       1.0  T
  40   -218.0656213 -0.104833E-02  0.203E-01    0.02       1.0  T
  41   -218.0675045 -0.188326E-02  0.110E-01    0.03       1.0  T
  42   -218.0674724  0.321243E-04  0.838E-02    0.03       1.0  T
  43   -218.0677858 -0.313385E-03  0.713E-02    0.02       1.0  T
  44   -218.0674406  0.345152E-03  0.903E-02    0.02       1.0  T
  45   -218.0677300 -0.289343E-03  0.612E-02    0.02       1.0  T
  46   -218.0679113 -0.181339E-03  0.339E-02    0.02       1.0  T
  47   -218.0679067  0.461148E-05  0.244E-02    0.02       1.0  T
  48   -218.0679155 -0.884156E-05  0.155E-02    0.02       1.0  T
  49   -218.0679214 -0.584645E-05  0.628E-03    0.02       1.5  T
  50   -218.0679246 -0.318179E-05  0.481E-03    0.02       1.9  T
  51   -218.0679232  0.136142E-05  0.651E-03    0.02       1.4  T
  52   -218.0679253 -0.211147E-05  0.159E-03    0.02       5.8  T
  53   -218.0679253  0.417844E-07  0.204E-03    0.02       4.5  T
  54   -218.0679254 -0.124250E-06  0.845E-04    0.02      10.9  T
  55   -218.0679254 -0.291407E-07  0.605E-04    0.02      15.1  T
     SCC iter.                  ...        0 min,  1.726 sec
     gradient                   ...        0 min,  0.141 sec
 * total energy  :  -214.2893044 Eh     change       -0.4773164E-01 Eh
   gradient norm :     0.0770104 Eh/α   predicted    -0.4387770E-01 (  -8.07%)
   displ. norm   :     0.8002569 α      lambda       -0.4532359E-01
   maximum displ.:     0.2993076 α      in ANC's #65, #66, #122, ...

........................................................................
.............................. CYCLE    6 ..............................
........................................................................
   1   -217.8478508 -0.217848E+03  0.211E+00    0.13       0.0  T
   2   -203.4320233  0.144158E+02  0.698E+00    0.02       1.0  T
   3   -214.3121341 -0.108801E+02  0.475E+00    0.04       1.0  T
   4   -216.6112478 -0.229911E+01  0.353E+00    0.04       1.0  T
   5   -213.6234800  0.298777E+01  0.553E+00    0.04       1.0  T
   6   -212.5967061  0.102677E+01  0.589E+00    0.05       1.0  T
   7   -216.6650174 -0.406831E+01  0.365E+00    0.07       1.0  T
   8   -216.3234261  0.341591E+00  0.388E+00    0.01       1.0  T
   9   -216.2257653  0.976608E-01  0.400E+00    0.11       1.0  T
  10   -216.1684627  0.573026E-01  0.414E+00    0.17       1.0  T
  11   -215.7846230  0.383840E+00  0.394E+00    0.03       1.0  T
  12   -216.8773990 -0.109278E+01  0.286E+00    0.01       1.0  T
  13   -217.5059372 -0.628538E+00  0.258E+00    0.06       1.0  T
  14   -217.4930777  0.128595E-01  0.259E+00    0.06       1.0  T
  15   -216.5344025  0.958675E+00  0.299E+00    0.03       1.0  T
  16   -217.1144619 -0.580059E+00  0.267E+00    0.01       1.0  T
  17   -217.0868671  0.275948E-01  0.264E+00    0.01       1.0  T
  18   -217.4117533 -0.324886E+00  0.229E+00    0.01       1.0  T
  19   -216.0338183  0.137794E+01  0.300E+00    0.03       1.0  T
  20   -217.0582257 -0.102441E+01  0.262E+00    0.01       1.0  T
  21   -216.6730347  0.385191E+00  0.348E+00    0.07       1.0  T
  22   -217.7541727 -0.108114E+01  0.159E+00    0.02       1.0  T
  23   -217.8649221 -0.110749E+00  0.148E+00    0.03       1.0  T
  24   -217.5784291  0.286493E+00  0.211E+00    0.02       1.0  T
  25   -217.6335887 -0.551596E-01  0.208E+00    0.02       1.0  T
  26   -217.1713323  0.462256E+00  0.295E+00    0.07       1.0  T
  27   -217.6440230 -0.472691E+00  0.196E+00    0.01       1.0  T
  28   -217.8611116 -0.217089E+00  0.149E+00    0.03       1.0  T
  29   -217.8165979  0.445137E-01  0.166E+00    0.02       1.0  T
  30   -217.8662600 -0.496621E-01  0.153E+00    0.02       1.0  T
  31   -217.8680126 -0.175258E-02  0.158E+00    0.02       1.0  T
  32   -217.7767101  0.913025E-01  0.180E+00    0.01       1.0  T
  33   -218.0711824 -0.294472E+00  0.135E+00    0.00       1.0  T
  34   -218.0540428  0.171396E-01  0.158E+00    0.01       1.0  T
  35   -218.0705770 -0.165342E-01  0.126E+00    0.02       1.0  T
  36   -218.0817140 -0.111371E-01  0.581E-01    0.02       1.0  T
  37   -218.0298740  0.518400E-01  0.940E-01    0.00       1.0  T
  38   -218.0874581 -0.575841E-01  0.397E-01    0.02       1.0  T
  39   -218.0948980 -0.743988E-02  0.371E-01    0.02       1.0  T
  40   -218.0921040  0.279396E-02  0.353E-01    0.03       1.0  T
  41   -218.0991029 -0.699882E-02  0.196E-01    0.03       1.0  T
  42   -218.0939584  0.514449E-02  0.377E-01    0.04       1.0  T
  43   -218.0977862 -0.382784E-02  0.268E-01    0.04       1.0  T
  44   -218.1002633 -0.247705E-02  0.207E-01    0.03       1.0  T
  45   -218.0986390  0.162429E-02  0.178E-01    0.03       1.0  T
  46   -218.0989496 -0.310581E-03  0.159E-01    0.04       1.0  T
  47   -218.1001448 -0.119528E-02  0.107E-01    0.04       1.0  T
  48   -218.1008799 -0.735084E-03  0.565E-02    0.04       1.0  T
  49   -218.1008623  0.175728E-04  0.315E-02    0.04       1.0  T
  50   -218.1009247 -0.623676E-04  0.318E-02    0.04       1.0  T
  51   -218.1010048 -0.800804E-04  0.300E-02    0.04       1.0  T
  52   -218.1010118 -0.699240E-05  0.297E-02    0.04       1.0  T
  53   -218.1010084  0.334427E-05  0.299E-02    0.04       1.0  T
  54   -218.1010115 -0.305133E-05  0.296E-02    0.04       1.0  T
  55   -218.1010248 -0.132714E-04  0.245E-02    0.04       1.0  T
  56   -218.1010287 -0.392080E-05  0.222E-02    0.04       1.0  T
  57   -218.1010341 -0.545791E-05  0.185E-02    0.04       1.0  T
  58   -218.1010387 -0.456673E-05  0.145E-02    0.04       1.0  T
  59   -218.1010417 -0.303199E-05  0.909E-03    0.04       1.0  T
  60   -218.1010435 -0.173154E-05  0.742E-03    0.04       1.2  T
  61   -218.1010444 -0.973327E-06  0.508E-03    0.04       1.8  T
  62   -218.1010450 -0.545221E-06  0.370E-03    0.04       2.5  T
  63   -218.1010453 -0.314594E-06  0.320E-03    0.04       2.9  T
  64   -218.1010455 -0.170866E-06  0.244E-03    0.04       3.8  T
  65   -218.1010458 -0.279119E-06  0.181E-03    0.04       5.1  T
  66   -218.1010460 -0.246719E-06  0.118E-03    0.04       7.8  T
  67   -218.1010461 -0.682650E-07  0.968E-04    0.04       9.5  T
  68   -218.1010461 -0.807340E-07  0.623E-04    0.04      14.7  T
     SCC iter.                  ...        0 min,  2.135 sec
     gradient                   ...        0 min,  0.141 sec
 * total energy  :  -214.3283813 Eh     change       -0.3907690E-01 Eh
   gradient norm :     0.0678206 Eh/α   predicted    -0.3717467E-01 (  -4.87%)
   displ. norm   :     0.8076812 α      lambda       -0.3563403E-01
   maximum displ.:     0.3256536 α      in ANC's #65, #90, #66, ...

........................................................................
.............................. CYCLE    7 ..............................
........................................................................
   1   -217.9137715 -0.217914E+03  0.171E+00    0.14       0.0  T
   2   -204.3004216  0.136133E+02  0.709E+00    0.01       1.0  T
   3   -216.2166544 -0.119162E+02  0.424E+00    0.07       1.0  T
   4   -216.6819814 -0.465327E+00  0.383E+00    0.11       1.0  T
   5   -217.8696511 -0.118767E+01  0.178E+00    0.09       1.0  T
   6   -216.0722896  0.179736E+01  0.402E+00    0.13       1.0  T
   7   -213.3113629  0.276093E+01  0.616E+00    0.11       1.0  T
   8   -217.1134793 -0.380212E+01  0.320E+00    0.03       1.0  T
   9   -216.4189945  0.694485E+00  0.454E+00    0.11       1.0  T
  10   -216.8053523 -0.386358E+00  0.399E+00    0.06       1.0  T
  11   -216.6104683  0.194884E+00  0.427E+00    0.07       1.0  T
  12   -217.7768897 -0.116642E+01  0.208E+00    0.02       1.0  T
  13   -217.9998259 -0.222936E+00  0.131E+00    0.03       1.0  T
  14   -218.0389667 -0.391408E-01  0.108E+00    0.08       1.0  T
  15   -218.0693083 -0.303416E-01  0.108E+00    0.06       1.0  T
  16   -218.1044755 -0.351672E-01  0.616E-01    0.02       1.0  T
  17   -217.9967392  0.107736E+00  0.131E+00    0.00       1.0  T
  18   -217.9973840 -0.644759E-03  0.127E+00    0.00       1.0  T
  19   -218.0860651 -0.886811E-01  0.989E-01    0.02       1.0  T
  20   -218.1275253 -0.414602E-01  0.500E-01    0.04       1.0  T
  21   -218.1167017  0.108236E-01  0.700E-01    0.04       1.0  T
  22   -218.1224538 -0.575214E-02  0.699E-01    0.05       1.0  T
  23   -218.1343536 -0.118998E-01  0.409E-01    0.05       1.0  T
  24   -218.1289191  0.543458E-02  0.416E-01    0.04       1.0  T
  25   -218.1348705 -0.595143E-02  0.182E-01    0.04       1.0  T
  26   -218.1343494  0.521099E-03  0.218E-01    0.04       1.0  T
  27   -218.1325726  0.177681E-02  0.231E-01    0.04       1.0  T
  28   -218.1348928 -0.232019E-02  0.166E-01    0.04       1.0  T
  29   -218.1332727  0.162008E-02  0.224E-01    0.04       1.0  T
  30   -218.1351223 -0.184967E-02  0.182E-01    0.04       1.0  T
  31   -218.1367015 -0.157920E-02  0.135E-01    0.04       1.0  T
  32   -218.1367670 -0.655083E-04  0.146E-01    0.04       1.0  T
  33   -218.1372495 -0.482444E-03  0.128E-01    0.05       1.0  T
  34   -218.1376169 -0.367419E-03  0.105E-01    0.05       1.0  T
  35   -218.1380773 -0.460373E-03  0.584E-02    0.05       1.0  T
  36   -218.1382518 -0.174525E-03  0.266E-02    0.05       1.0  T
  37   -218.1382614 -0.961753E-05  0.255E-02    0.05       1.0  T
  38   -218.1382687 -0.728439E-05  0.231E-02    0.05       1.0  T
  39   -218.1382741 -0.542789E-05  0.208E-02    0.05       1.0  T
  40   -218.1382754 -0.127736E-05  0.204E-02    0.05       1.0  T
  41   -218.1383033 -0.279148E-04  0.468E-03    0.05       2.0  T
  42   -218.1383026  0.719878E-06  0.381E-03    0.05       2.4  T
  43   -218.1383025  0.121518E-06  0.363E-03    0.05       2.5  T
  44   -218.1383035 -0.101616E-05  0.196E-03    0.05       4.7  T
  45   -218.1383035 -0.123102E-07  0.150E-03    0.05       6.1  T
  46   -218.1383037 -0.179627E-06  0.100E-03    0.05       9.2  T
  47   -218.1383038 -0.653448E-07  0.371E-04    0.05      24.7  T
     SCC iter.                  ...        0 min,  1.474 sec
     gradient                   ...        0 min,  0.141 sec
 * total energy  :  -214.3584775 Eh     change       -0.3009614E-01 Eh
   gradient norm :     0.0528023 Eh/α   predicted    -0.2943993E-01 (  -2.18%)
   displ. norm   :     0.7768618 α      lambda       -0.2531517E-01
   maximum displ.:     0.3097075 α      in ANC's #65, #90, #66, ...

........................................................................
.............................. CYCLE    8 ..............................
........................................................................
   1   -218.0609796 -0.218061E+03  0.130E+00    0.12       0.0  T
   2   -211.5698893  0.649109E+01  0.697E+00    0.04       1.0  T
   3   -211.0514463  0.518443E+00  0.709E+00    0.14       1.0  T
   4   -215.4308710 -0.437942E+01  0.506E+00    0.03       1.0  T
   5   -212.4905646  0.294031E+01  0.624E+00    0.03       1.0  T
   6   -215.7524451 -0.326188E+01  0.515E+00    0.03       1.0  T
   7   -213.3085674  0.244388E+01  0.573E+00    0.02       1.0  T
   8   -214.4765666 -0.116800E+01  0.465E+00    0.01       1.0  T
   9   -214.1557683  0.320798E+00  0.526E+00    0.02       1.0  T
  10   -214.6953124 -0.539544E+00  0.436E+00    0.03       1.0  T
  11   -215.4509745 -0.755662E+00  0.407E+00    0.03       1.0  T
  12   -217.7302207 -0.227925E+01  0.244E+00    0.01       1.0  T
  13   -217.0363726  0.693848E+00  0.316E+00    0.08       1.0  T
  14   -217.0254995  0.108731E-01  0.317E+00    0.08       1.0  T
  15   -216.9165171  0.108982E+00  0.308E+00    0.01       1.0  T
  16   -217.6804608 -0.763944E+00  0.227E+00    0.08       1.0  T
  17   -217.1792747  0.501186E+00  0.271E+00    0.02       1.0  T
  18   -217.3848082 -0.205533E+00  0.242E+00    0.00       1.0  T
  19   -217.6843464 -0.299538E+00  0.197E+00    0.04       1.0  T
  20   -217.9551536 -0.270807E+00  0.163E+00    0.08       1.0  T
  21   -218.0176832 -0.625296E-01  0.166E+00    0.11       1.0  T
  22   -217.9640198  0.536634E-01  0.180E+00    0.11       1.0  T
  23   -218.0514264 -0.874066E-01  0.136E+00    0.09       1.0  T
  24   -218.1013123 -0.498859E-01  0.118E+00    0.10       1.0  T
  25   -218.0413378  0.599745E-01  0.123E+00    0.00       1.0  T
  26   -218.0923384 -0.510006E-01  0.123E+00    0.10       1.0  T
  27   -218.1157110 -0.233725E-01  0.128E+00    0.04       1.0  T
  28   -218.1255994 -0.988847E-02  0.108E+00    0.03       1.0  T
  29   -218.1534359 -0.278365E-01  0.813E-01    0.05       1.0  T
  30   -218.1573566 -0.392071E-02  0.400E-01    0.05       1.0  T
  31   -218.1670656 -0.970901E-02  0.408E-01    0.06       1.0  T
  32   -218.1721710 -0.510537E-02  0.469E-01    0.07       1.0  T
  33   -218.1737967 -0.162573E-02  0.474E-01    0.07       1.0  T
  34   -218.1751278 -0.133110E-02  0.417E-01    0.07       1.0  T
  35   -218.1748794  0.248412E-03  0.423E-01    0.06       1.0  T
  36   -218.1753249 -0.445471E-03  0.327E-01    0.07       1.0  T
  37   -218.1755050 -0.180150E-03  0.330E-01    0.07       1.0  T
  38   -218.1754688  0.362142E-04  0.275E-01    0.07       1.0  T
  39   -218.1729074  0.256136E-02  0.177E-01    0.06       1.0  T
  40   -218.1736329 -0.725482E-03  0.179E-01    0.06       1.0  T
  41   -218.1739752 -0.342278E-03  0.178E-01    0.06       1.0  T
  42   -218.1737445  0.230718E-03  0.167E-01    0.06       1.0  T
  43   -218.1747184 -0.973906E-03  0.149E-01    0.06       1.0  T
  44   -218.1755374 -0.819004E-03  0.140E-01    0.07       1.0  T
  45   -218.1756590 -0.121638E-03  0.108E-01    0.07       1.0  T
  46   -218.1758521 -0.193107E-03  0.858E-02    0.07       1.0  T
  47   -218.1759903 -0.138176E-03  0.775E-02    0.07       1.0  T
  48   -218.1760301 -0.397293E-04  0.590E-02    0.07       1.0  T
  49   -218.1760806 -0.505170E-04  0.372E-02    0.07       1.0  T
  50   -218.1760959 -0.153122E-04  0.291E-02    0.07       1.0  T
  51   -218.1761122 -0.163022E-04  0.158E-02    0.07       1.0  T
  52   -218.1761205 -0.833085E-05  0.854E-03    0.07       1.1  T
  53   -218.1761205 -0.204512E-07  0.738E-03    0.07       1.2  T
  54   -218.1761225 -0.193103E-05  0.905E-03    0.07       1.0  T
  55   -218.1761234 -0.908947E-06  0.820E-03    0.07       1.1  T
  56   -218.1761236 -0.260819E-06  0.796E-03    0.07       1.2  T
  57   -218.1761238 -0.208452E-06  0.816E-03    0.07       1.1  T
  58   -218.1761239 -0.104857E-06  0.780E-03    0.07       1.2  T
  59   -218.1761241 -0.182974E-06  0.729E-03    0.07       1.3  T
  60   -218.1761244 -0.271475E-06  0.678E-03    0.07       1.4  T
  61   -218.1761251 -0.679856E-06  0.518E-03    0.07       1.8  T
  62   -218.1761256 -0.492367E-06  0.429E-03    0.07       2.1  T
  63   -218.1761259 -0.287267E-06  0.339E-03    0.07       2.7  T
  64   -218.1761260 -0.138359E-06  0.269E-03    0.07       3.4  T
  65   -218.1761260 -0.315145E-07  0.219E-03    0.07       4.2  T
  66   -218.1761260 -0.175858E-07  0.162E-03    0.07       5.6  T
  67   -218.1761261 -0.274666E-07  0.102E-03    0.07       9.0  T
  68   -218.1761261 -0.216960E-07  0.403E-04    0.07      22.7  T
  69   -218.1761261 -0.852825E-08  0.296E-04    0.07      30.9  T
     SCC iter.                  ...        0 min,  2.164 sec
     gradient                   ...        0 min,  0.142 sec
 * total energy  :  -214.3792371 Eh     change       -0.2075960E-01 Eh
   gradient norm :     0.0404844 Eh/α   predicted    -0.2029663E-01 (  -2.23%)
   displ. norm   :     0.7554739 α      lambda       -0.1683162E-01
   maximum displ.:     0.2835903 α      in ANC's #23, #25, #65, ...

........................................................................
.............................. CYCLE    9 ..............................
........................................................................
   1   -218.1779031 -0.218178E+03  0.922E-01    0.10       0.0  T
   2   -215.0597516  0.311815E+01  0.596E+00    0.14       1.0  T
   3   -216.6682432 -0.160849E+01  0.411E+00    0.07       1.0  T
   4   -217.2800575 -0.611814E+00  0.378E+00    0.05       1.0  T
   5   -217.5850449 -0.304987E+00  0.297E+00    0.01       1.0  T
   6   -216.4692618  0.111578E+01  0.434E+00    0.02       1.0  T
   7   -216.5606146 -0.913527E-01  0.410E+00    0.01       1.0  T
   8   -217.1477562 -0.587142E+00  0.351E+00    0.14       1.0  T
   9   -217.5829656 -0.435209E+00  0.266E+00    0.03       1.0  T
  10   -217.5840144 -0.104883E-02  0.215E+00    0.02       1.0  T
  11   -217.9634652 -0.379451E+00  0.168E+00    0.07       1.0  T
  12   -218.0413903 -0.779250E-01  0.173E+00    0.14       1.0  T
  13   -218.0744236 -0.330333E-01  0.176E+00    0.17       1.0  T
  14   -218.1154078 -0.409842E-01  0.154E+00    0.17       1.0  T
  15   -218.1803199 -0.649121E-01  0.984E-01    0.09       1.0  T
  16   -218.1681085  0.122115E-01  0.876E-01    0.06       1.0  T
  17   -217.8770082  0.291100E+00  0.212E+00    0.03       1.0  T
  18   -218.1467372 -0.269729E+00  0.113E+00    0.12       1.0  T
  19   -218.0752538  0.714834E-01  0.162E+00    0.03       1.0  T
  20   -218.0918327 -0.165789E-01  0.149E+00    0.03       1.0  T
  21   -218.1099347 -0.181020E-01  0.155E+00    0.02       1.0  T
  22   -218.0628165  0.471182E-01  0.177E+00    0.00       1.0  T
  23   -218.0147732  0.480433E-01  0.196E+00    0.01       1.0  T
  24   -218.0930565 -0.782833E-01  0.142E+00    0.01       1.0  T
  25   -218.1886586 -0.956020E-01  0.585E-01    0.04       1.0  T
  26   -218.1572115  0.314471E-01  0.902E-01    0.03       1.0  T
  27   -218.1698974 -0.126859E-01  0.755E-01    0.03       1.0  T
  28   -218.1896734 -0.197760E-01  0.572E-01    0.05       1.0  T
  29   -218.2031366 -0.134632E-01  0.286E-01    0.06       1.0  T
  30   -218.2032995 -0.162924E-03  0.216E-01    0.06       1.0  T
  31   -218.2077158 -0.441632E-02  0.799E-02    0.07       1.0  T
  32   -218.2061550  0.156082E-02  0.170E-01    0.07       1.0  T
  33   -218.2065249 -0.369935E-03  0.172E-01    0.07       1.0  T
  34   -218.2067609 -0.236010E-03  0.161E-01    0.07       1.0  T
  35   -218.2069987 -0.237729E-03  0.141E-01    0.07       1.0  T
  36   -218.2073849 -0.386195E-03  0.116E-01    0.07       1.0  T
  37   -218.2075321 -0.147268E-03  0.105E-01    0.07       1.0  T
  38   -218.2079403 -0.408167E-03  0.539E-02    0.07       1.0  T
  39   -218.2080205 -0.802286E-04  0.456E-02    0.07       1.0  T
  40   -218.2080412 -0.206753E-04  0.377E-02    0.07       1.0  T
  41   -218.2080818 -0.405731E-04  0.199E-02    0.07       1.0  T
  42   -218.2080840 -0.218339E-05  0.152E-02    0.07       1.0  T
  43   -218.2080868 -0.278594E-05  0.903E-03    0.07       1.0  T
  44   -218.2080877 -0.954088E-06  0.412E-03    0.07       2.2  T
  45   -218.2080879 -0.177755E-06  0.255E-03    0.07       3.6  T
  46   -218.2080880 -0.134852E-06  0.919E-04    0.07      10.0  T
  47   -218.2080880 -0.212115E-07  0.442E-04    0.07      20.7  T
     SCC iter.                  ...        0 min,  1.472 sec
     gradient                   ...        0 min,  0.142 sec
 * total energy  :  -214.3932142 Eh     change       -0.1397716E-01 Eh
   gradient norm :     0.0335258 Eh/α   predicted    -0.1321907E-01 (  -5.42%)
   displ. norm   :     0.8194019 α      lambda       -0.1370154E-01
   maximum displ.:     0.3392745 α      in ANC's #23, #25, #35, ...

........................................................................
.............................. CYCLE   10 ..............................
........................................................................
   1   -218.2265178 -0.218227E+03  0.836E-01    0.11       0.0  T
   2   -216.1812327  0.204529E+01  0.588E+00    0.10       1.0  T
   3   -216.4097861 -0.228553E+00  0.429E+00    0.02       1.0  T
   4   -218.1933662 -0.178358E+01  0.114E+00    0.11       1.0  T
   5   -216.9278760  0.126549E+01  0.426E+00    0.15       1.0  T
   6   -217.5083558 -0.580480E+00  0.318E+00    0.07       1.0  T
   7   -218.2180462 -0.709690E+00  0.685E-01    0.10       1.0  T
   8   -218.1343698  0.836764E-01  0.898E-01    0.03       1.0  T
   9   -218.1559265 -0.215567E-01  0.959E-01    0.03       1.0  T
  10   -218.2173790 -0.614526E-01  0.721E-01    0.12       1.0  T
  11   -218.2133042  0.407482E-02  0.729E-01    0.12       1.0  T
  12   -218.2110568  0.224744E-02  0.754E-01    0.13       1.0  T
  13   -218.2130075 -0.195075E-02  0.716E-01    0.14       1.0  T
  14   -218.2179178 -0.491031E-02  0.636E-01    0.12       1.0  T
  15   -218.2223370 -0.441921E-02  0.544E-01    0.11       1.0  T
  16   -218.2283775 -0.604047E-02  0.393E-01    0.10       1.0  T
  17   -218.2307638 -0.238630E-02  0.306E-01    0.09       1.0  T
  18   -218.2320376 -0.127380E-02  0.216E-01    0.09       1.0  T
  19   -218.2329805 -0.942900E-03  0.124E-01    0.09       1.0  T
  20   -218.2324348  0.545704E-03  0.160E-01    0.08       1.0  T
  21   -218.2334766 -0.104178E-02  0.859E-02    0.08       1.0  T
  22   -218.2332285  0.248110E-03  0.957E-02    0.08       1.0  T
  23   -218.2334646 -0.236147E-03  0.664E-02    0.08       1.0  T
  24   -218.2335989 -0.134247E-03  0.282E-02    0.08       1.0  T
  25   -218.2336117 -0.128460E-04  0.251E-02    0.08       1.0  T
  26   -218.2336131 -0.134664E-05  0.203E-02    0.08       1.0  T
  27   -218.2336291 -0.160126E-04  0.890E-03    0.08       1.0  T
  28   -218.2336309 -0.186249E-05  0.514E-03    0.08       1.8  T
  29   -218.2336315 -0.527280E-06  0.358E-03    0.08       2.6  T
  30   -218.2336319 -0.469197E-06  0.862E-04    0.08      10.6  T
  31   -218.2336319  0.608847E-08  0.870E-04    0.08      10.5  T
     SCC iter.                  ...        0 min,  0.969 sec
     gradient                   ...        0 min,  0.142 sec
 * total energy  :  -214.4061792 Eh     change       -0.1296493E-01 Eh
   gradient norm :     0.0331869 Eh/α   predicted    -0.1145053E-01 ( -11.68%)
   displ. norm   :     0.9421416 α      lambda       -0.1652745E-01
   maximum displ.:     0.3960285 α      in ANC's #35, #23, #25, ...

........................................................................
.............................. CYCLE   11 ..............................
........................................................................
   1   -218.2409925 -0.218241E+03  0.123E+00    0.16       0.0  T
   2   -211.7235864  0.651741E+01  0.745E+00    0.05       1.0  T
   3   -216.0292306 -0.430564E+01  0.435E+00    0.12       1.0  T
   4   -216.5559982 -0.526768E+00  0.385E+00    0.13       1.0  T
   5   -216.8596332 -0.303635E+00  0.348E+00    0.02       1.0  T
   6   -216.8638011 -0.416792E-02  0.348E+00    0.03       1.0  T
   7   -216.5370456  0.326756E+00  0.385E+00    0.14       1.0  T
   8   -217.5990190 -0.106197E+01  0.259E+00    0.08       1.0  T
   9   -211.0790450  0.651997E+01  0.720E+00    0.13       1.0  T
  10   -211.4102245 -0.331180E+00  0.682E+00    0.12       1.0  T
  11   -209.9756919  0.143453E+01  0.714E+00    0.06       1.0  T
  12   -211.2103705 -0.123468E+01  0.699E+00    0.08       1.0  T
  13   -210.5312660  0.679104E+00  0.701E+00    0.02       1.0  T
  14   -211.1275052 -0.596239E+00  0.689E+00    0.10       1.0  T
  15   -211.5995922 -0.472087E+00  0.682E+00    0.08       1.0  T
  16   -216.5981969 -0.499860E+01  0.448E+00    0.01       1.0  T
  17   -216.7334558 -0.135259E+00  0.460E+00    0.02       1.0  T
  18   -217.7894227 -0.105597E+01  0.394E+00    0.00       1.0  T
  19   -218.2107533 -0.421331E+00  0.293E+00    0.08       1.0  T
  20   -218.2260767 -0.153234E-01  0.294E+00    0.24       1.0  T
  21   -218.2315615 -0.548486E-02  0.296E+00    0.17       1.0  T
  22   -218.2300784  0.148317E-02  0.303E+00    0.13       1.0  T
  23   -218.2255846  0.449377E-02  0.312E+00    0.12       1.0  T
  24   -218.2283299 -0.274532E-02  0.309E+00    0.13       1.0  T
  25   -218.2271179  0.121200E-02  0.300E+00    0.12       1.0  T
  26   -218.2244461  0.267182E-02  0.260E+00    0.16       1.0  T
  27   -218.2225161  0.192997E-02  0.249E+00    0.13       1.0  T
  28   -217.3091162  0.913400E+00  0.387E+00    0.02       1.0  T
  29   -218.1830779 -0.873962E+00  0.163E+00    0.07       1.0  T
  30   -217.6159523  0.567126E+00  0.291E+00    0.05       1.0  T
  31   -218.2485764 -0.632624E+00  0.109E+00    0.18       1.0  T
  32   -217.7152769  0.533299E+00  0.287E+00    0.03       1.0  T
  33   -218.0876050 -0.372328E+00  0.176E+00    0.02       1.0  T
  34   -217.7905639  0.297041E+00  0.278E+00    0.03       1.0  T
  35   -218.2203539 -0.429790E+00  0.912E-01    0.06       1.0  T
  36   -218.2417754 -0.214215E-01  0.733E-01    0.07       1.0  T
  37   -218.2470233 -0.524791E-02  0.654E-01    0.08       1.0  T
  38   -218.2538943 -0.687105E-02  0.525E-01    0.09       1.0  T
  39   -218.2597829 -0.588861E-02  0.322E-01    0.11       1.0  T
  40   -218.2619333 -0.215034E-02  0.173E-01    0.12       1.0  T
  41   -218.2622294 -0.296095E-03  0.153E-01    0.12       1.0  T
  42   -218.2617658  0.463575E-03  0.176E-01    0.12       1.0  T
  43   -218.2622275 -0.461754E-03  0.132E-01    0.12       1.0  T
  44   -218.2622234  0.416433E-05  0.111E-01    0.13       1.0  T
  45   -218.2627173 -0.493960E-03  0.804E-02    0.12       1.0  T
  46   -218.2629986 -0.281234E-03  0.634E-02    0.12       1.0  T
  47   -218.2631516 -0.153007E-03  0.562E-02    0.12       1.0  T
  48   -218.2633933 -0.241687E-03  0.557E-02    0.11       1.0  T
  49   -218.2634018 -0.849751E-05  0.578E-02    0.11       1.0  T
  50   -218.2633889  0.128470E-04  0.601E-02    0.11       1.0  T
  51   -218.2634370 -0.481112E-04  0.514E-02    0.11       1.0  T
  52   -218.2634584 -0.213981E-04  0.467E-02    0.11       1.0  T
  53   -218.2634963 -0.378655E-04  0.362E-02    0.11       1.0  T
  54   -218.2635289 -0.325960E-04  0.268E-02    0.11       1.0  T
  55   -218.2635559 -0.270589E-04  0.141E-02    0.11       1.0  T
  56   -218.2635645 -0.855776E-05  0.806E-03    0.11       1.1  T
  57   -218.2635643  0.183918E-06  0.875E-03    0.11       1.0  T
  58   -218.2635655 -0.122807E-05  0.626E-03    0.11       1.5  T
  59   -218.2635669 -0.135682E-05  0.393E-03    0.11       2.3  T
  60   -218.2635671 -0.157296E-06  0.411E-03    0.11       2.2  T
  61   -218.2635673 -0.217405E-06  0.368E-03    0.11       2.5  T
  62   -218.2635673 -0.760470E-07  0.343E-03    0.11       2.7  T
  63   -218.2635674 -0.766449E-07  0.325E-03    0.11       2.8  T
  64   -218.2635675 -0.345601E-07  0.317E-03    0.11       2.9  T
  65   -218.2635675 -0.782021E-07  0.261E-03    0.11       3.5  T
  66   -218.2635676 -0.584780E-07  0.191E-03    0.11       4.8  T
  67   -218.2635676 -0.221483E-07  0.129E-03    0.11       7.1  T
  68   -218.2635676  0.733434E-08  0.103E-03    0.11       8.9  T
  69   -218.2635676 -0.146464E-07  0.835E-04    0.11      11.0  T
  70   -218.2635677 -0.258982E-07  0.522E-04    0.11      17.6  T
     SCC iter.                  ...        0 min,  2.197 sec
     gradient                   ...        0 min,  0.142 sec
 * total energy  :  -214.4228416 Eh     change       -0.1666242E-01 Eh
   gradient norm :     0.0368819 Eh/α   predicted    -0.1559887E-01 (  -6.38%)
   displ. norm   :     0.9320304 α      lambda       -0.1929853E-01
   maximum displ.:     0.4220313 α      in ANC's #35, #23, #43, ...

........................................................................
.............................. CYCLE   12 ..............................
........................................................................
   1   -218.2719923 -0.218272E+03  0.126E+00    0.20       0.0  T
   2   -213.1934136  0.507858E+01  0.560E+00    0.03       1.0  T
   3   -215.8108422 -0.261743E+01  0.462E+00    0.09       1.0  T
   4   -216.0983269 -0.287485E+00  0.400E+00    0.05       1.0  T
   5   -216.5901954 -0.491868E+00  0.370E+00    0.14       1.0  T
   6   -215.8770331  0.713162E+00  0.412E+00    0.03       1.0  T
   7   -216.3831698 -0.506137E+00  0.411E+00    0.17       1.0  T
   8   -213.9021328  0.248104E+01  0.644E+00    0.01       1.0  T
   9   -217.4996888 -0.359756E+01  0.349E+00    0.03       1.0  T
  10   -217.9024453 -0.402757E+00  0.339E+00    0.00       1.0  T
  11   -218.2341790 -0.331734E+00  0.242E+00    0.12       1.0  T
  12   -218.2402558 -0.607679E-02  0.213E+00    0.11       1.0  T
  13   -218.2732825 -0.330267E-01  0.154E+00    0.17       1.0  T
  14   -218.2735338 -0.251334E-03  0.111E+00    0.17       1.0  T
  15   -218.2603884  0.131454E-01  0.822E-01    0.10       1.0  T
  16   -218.2808284 -0.204400E-01  0.462E-01    0.13       1.0  T
  17   -218.2923155 -0.114871E-01  0.300E-01    0.25       1.0  T
  18   -218.2969964 -0.468092E-02  0.276E-01    0.24       1.0  T
  19   -218.2976593 -0.662838E-03  0.238E-01    0.24       1.0  T
  20   -218.3002785 -0.261924E-02  0.216E-01    0.21       1.0  T
  21   -218.3004457 -0.167197E-03  0.212E-01    0.20       1.0  T
  22   -218.3010118 -0.566051E-03  0.191E-01    0.20       1.0  T
  23   -218.3036965 -0.268474E-02  0.129E-01    0.17       1.0  T
  24   -218.3054321 -0.173558E-02  0.179E-01    0.13       1.0  T
  25   -218.3054384 -0.631747E-05  0.183E-01    0.13       1.0  T
  26   -218.3050564  0.381949E-03  0.199E-01    0.12       1.0  T
  27   -218.3055247 -0.468218E-03  0.976E-02    0.13       1.0  T
  28   -218.3055303 -0.564269E-05  0.944E-02    0.13       1.0  T
  29   -218.3054428  0.875413E-04  0.954E-02    0.13       1.0  T
  30   -218.3055238 -0.810350E-04  0.632E-02    0.13       1.0  T
  31   -218.3055573 -0.334678E-04  0.206E-02    0.13       1.0  T
  32   -218.3055939 -0.366047E-04  0.214E-02    0.13       1.0  T
  33   -218.3056047 -0.108089E-04  0.262E-02    0.14       1.0  T
  34   -218.3056039  0.816834E-06  0.152E-02    0.13       1.0  T
  35   -218.3056082 -0.433186E-05  0.123E-02    0.14       1.0  T
  36   -218.3056089 -0.746486E-06  0.940E-03    0.14       1.0  T
  37   -218.3056097 -0.794011E-06  0.760E-03    0.13       1.2  T
  38   -218.3056104 -0.623109E-06  0.664E-03    0.13       1.4  T
  39   -218.3056112 -0.801554E-06  0.628E-03    0.13       1.5  T
  40   -218.3056120 -0.876983E-06  0.434E-03    0.13       2.1  T
  41   -218.3056132 -0.115426E-05  0.162E-03    0.13       5.7  T
  42   -218.3056135 -0.302927E-06  0.667E-04    0.13      13.8  T
  43   -218.3056136 -0.581032E-07  0.376E-04    0.13      24.4  T
     SCC iter.                  ...        0 min,  1.344 sec
     gradient                   ...        0 min,  0.142 sec
 * total energy  :  -214.4390046 Eh     change       -0.1616300E-01 Eh
   gradient norm :     0.0779579 Eh/α   predicted    -0.1803141E-01 (  11.56%)
   displ. norm   :     0.9400496 α      lambda       -0.1766020E-01
   maximum displ.:     0.3888786 α      in ANC's #23, #35, #25, ...

........................................................................
.............................. CYCLE   13 ..............................
........................................................................
   1   -218.2771503 -0.218277E+03  0.848E-01    0.22       0.0  T
   2   -216.2298460  0.204730E+01  0.385E+00    0.04       1.0  T
   3   -218.1437203 -0.191387E+01  0.130E+00    0.19       1.0  T
   4   -216.8402258  0.130349E+01  0.388E+00    0.04       1.0  T
   5   -216.9060874 -0.658616E-01  0.384E+00    0.06       1.0  T
   6   -217.3642637 -0.458176E+00  0.313E+00    0.05       1.0  T
   7   -218.2648566 -0.900593E+00  0.366E-01    0.31       1.0  T
   8   -218.2773162 -0.124596E-01  0.341E-01    0.13       1.0  T
   9   -218.2855379 -0.822171E-02  0.173E-01    0.20       1.0  T
  10   -218.2870011 -0.146322E-02  0.185E-01    0.19       1.0  T
  11   -218.2872996 -0.298468E-03  0.323E-01    0.15       1.0  T
  12   -218.2523406  0.349590E-01  0.945E-01    0.08       1.0  T
  13   -218.1598359  0.925047E-01  0.158E+00    0.04       1.0  T
  14   -218.1742437 -0.144077E-01  0.146E+00    0.04       1.0  T
  15   -218.2403826 -0.661389E-01  0.964E-01    0.07       1.0  T
  16   -218.2701199 -0.297373E-01  0.565E-01    0.09       1.0  T
  17   -218.2806455 -0.105256E-01  0.361E-01    0.10       1.0  T
  18   -218.2877434 -0.709792E-02  0.163E-01    0.13       1.0  T
  19   -218.2893042 -0.156085E-02  0.943E-02    0.14       1.0  T
  20   -218.2898707 -0.566425E-03  0.532E-02    0.15       1.0  T
  21   -218.2899857 -0.115022E-03  0.425E-02    0.15       1.0  T
  22   -218.2900275 -0.418568E-04  0.327E-02    0.15       1.0  T
  23   -218.2900648 -0.372178E-04  0.219E-02    0.15       1.0  T
  24   -218.2900813 -0.164946E-04  0.122E-02    0.16       1.0  T
  25   -218.2900886 -0.737131E-05  0.601E-03    0.16       1.5  T
  26   -218.2900917 -0.306386E-05  0.752E-04    0.16      12.2  T
  27   -218.2900917 -0.395148E-07  0.141E-03    0.16       6.5  T
  28   -218.2900918 -0.804928E-07  0.262E-04    0.16      34.9  T
  29   -218.2900918  0.133204E-07  0.575E-04    0.16      16.0  T
     SCC iter.                  ...        0 min,  0.908 sec
     gradient                   ...        0 min,  0.142 sec
 * total energy  :  -214.4561076 Eh     change       -0.1710300E-01 Eh
   gradient norm :     0.0965744 Eh/α   predicted    -0.1663320E-01 (  -2.75%)
   displ. norm   :     0.8727069 α      lambda       -0.2658161E-01
   maximum displ.:     0.3077714 α      in ANC's #23, #35, #25, ...

........................................................................
.............................. CYCLE   14 ..............................
........................................................................
   1   -218.1503161 -0.218150E+03  0.601E-01    0.23       0.0  T
   2   -212.3620242  0.578829E+01  0.654E+00    0.04       1.0  T
   3   -218.1047447 -0.574272E+01  0.860E-01    0.28       1.0  T
   4   -218.1003279  0.441682E-02  0.649E-01    0.12       1.0  T
   5   -218.1528195 -0.524916E-01  0.355E-01    0.17       1.0  T
   6   -218.1550573 -0.223783E-02  0.282E-01    0.32       1.0  T
   7   -218.1563849 -0.132761E-02  0.229E-01    0.36       1.0  T
   8   -218.1558796  0.505325E-03  0.230E-01    0.35       1.0  T
   9   -218.1571855 -0.130590E-02  0.203E-01    0.33       1.0  T
  10   -218.1574257 -0.240223E-03  0.194E-01    0.34       1.0  T
  11   -218.1576379 -0.212151E-03  0.186E-01    0.31       1.0  T
  12   -218.1582058 -0.567901E-03  0.173E-01    0.29       1.0  T
  13   -218.1584016 -0.195785E-03  0.168E-01    0.29       1.0  T
  14   -218.1586401 -0.238522E-03  0.161E-01    0.29       1.0  T
  15   -218.1591135 -0.473376E-03  0.149E-01    0.27       1.0  T
  16   -218.1592109 -0.973750E-04  0.146E-01    0.26       1.0  T
  17   -218.1611608 -0.195000E-02  0.718E-02    0.20       1.0  T
  18   -218.1606729  0.487915E-03  0.941E-02    0.22       1.0  T
  19   -218.1603759  0.297016E-03  0.104E-01    0.22       1.0  T
  20   -218.1611310 -0.755114E-03  0.716E-02    0.20       1.0  T
  21   -218.1610210  0.110011E-03  0.851E-02    0.21       1.0  T
  22   -218.1614296 -0.408587E-03  0.835E-02    0.15       1.0  T
  23   -218.1618244 -0.394747E-03  0.229E-02    0.18       1.0  T
  24   -218.1618456 -0.212090E-04  0.150E-02    0.16       1.0  T
  25   -218.1618624 -0.168707E-04  0.447E-03    0.17       2.0  T
  26   -218.1618628 -0.379777E-06  0.375E-03    0.17       2.4  T
  27   -218.1618640 -0.123116E-05  0.217E-03    0.17       4.2  T
  28   -218.1618639  0.141145E-06  0.227E-03    0.17       4.0  T
  29   -218.1618642 -0.295293E-06  0.814E-04    0.17      11.3  T
  30   -218.1618643 -0.532834E-07  0.164E-04    0.17      55.9  T
     SCC iter.                  ...        0 min,  0.939 sec
     gradient                   ...        0 min,  0.142 sec
 * total energy  :  -214.4697452 Eh     change       -0.1363765E-01 Eh
   gradient norm :     0.1024145 Eh/α   predicted    -0.2341330E-01 (  71.68%)
   displ. norm   :     0.7517106 α      lambda       -0.3002638E-01
   maximum displ.:     0.3134455 α      in ANC's #35, #12, #39, ...

........................................................................
.............................. CYCLE   15 ..............................
........................................................................
   1   -218.1431547 -0.218143E+03  0.535E-01    0.20       0.0  T
   2   -218.1183882  0.247664E-01  0.678E-01    0.38       1.0  T
   3   -217.2577882  0.860600E+00  0.321E+00    0.03       1.0  T
   4   -218.1344795 -0.876691E+00  0.299E-01    0.21       1.0  T
   5   -218.1448207 -0.103412E-01  0.179E-01    0.28       1.0  T
   6   -218.1441354  0.685325E-03  0.178E-01    0.36       1.0  T
   7   -218.1456081 -0.147274E-02  0.156E-01    0.37       1.0  T
   8   -218.1457501 -0.141985E-03  0.158E-01    0.39       1.0  T
   9   -218.1457945 -0.443794E-04  0.152E-01    0.38       1.0  T
  10   -218.1459932 -0.198751E-03  0.144E-01    0.38       1.0  T
  11   -218.1461276 -0.134391E-03  0.138E-01    0.37       1.0  T
  12   -218.1461459 -0.182627E-04  0.134E-01    0.36       1.0  T
  13   -218.1462035 -0.575991E-04  0.131E-01    0.36       1.0  T
  14   -218.1462807 -0.772139E-04  0.127E-01    0.35       1.0  T
  15   -218.1464223 -0.141616E-03  0.118E-01    0.34       1.0  T
  16   -218.1468099 -0.387611E-03  0.896E-02    0.30       1.0  T
  17   -218.1473728 -0.562900E-03  0.182E-02    0.23       1.0  T
  18   -218.1473962 -0.233794E-04  0.901E-03    0.21       1.0  T
  19   -218.1473709  0.253485E-04  0.205E-02    0.23       1.0  T
  20   -218.1473983 -0.273908E-04  0.617E-03    0.21       1.5  T
  21   -218.1473888  0.941692E-05  0.127E-02    0.21       1.0  T
  22   -218.1474002 -0.113701E-04  0.394E-03    0.22       2.3  T
  23   -218.1473994  0.836512E-06  0.508E-03    0.22       1.8  T
  24   -218.1474012 -0.179285E-05  0.921E-04    0.22      10.0  T
  25   -218.1474012 -0.642721E-07  0.460E-05    0.21     199.4  T
  26   -218.1474012 -0.213873E-09  0.166E-05    0.21     553.1  T
     SCC iter.                  ...        0 min,  0.815 sec
     gradient                   ...        0 min,  0.142 sec
 * total energy  :  -214.4980272 Eh     change       -0.2828193E-01 Eh
   gradient norm :     0.1130983 Eh/α   predicted    -0.2349668E-01 ( -16.92%)
   displ. norm   :     0.8365717 α      lambda       -0.6407263E-01
   maximum displ.:     0.3022423 α      in ANC's #39, #43, #12, ...

........................................................................
.............................. CYCLE   16 ..............................
........................................................................
   1   -218.1961865 -0.218196E+03  0.587E-01    0.23       0.0  T
   2   -218.1691898  0.269966E-01  0.710E-01    0.39       1.0  T
   3   -218.1900277 -0.208379E-01  0.377E-01    0.17       1.0  T
   4   -218.2005256 -0.104979E-01  0.211E-01    0.44       1.0  T
   5   -218.2022506 -0.172499E-02  0.136E-01    0.38       1.0  T
   6   -218.2032193 -0.968675E-03  0.647E-02    0.39       1.0  T
   7   -218.2035871 -0.367851E-03  0.197E-02    0.32       1.0  T
   8   -218.2036065 -0.193341E-04  0.118E-02    0.30       1.0  T
   9   -218.2036130 -0.657686E-05  0.807E-03    0.30       1.1  T
  10   -218.2036136 -0.539641E-06  0.564E-03    0.29       1.6  T
  11   -218.2036151 -0.151636E-05  0.337E-03    0.29       2.7  T
  12   -218.2036162 -0.113081E-05  0.194E-03    0.29       4.7  T
  13   -218.2036167 -0.439924E-06  0.655E-04    0.29      14.0  T
  14   -218.2036167 -0.106417E-07  0.500E-04    0.29      18.3  T
     SCC iter.                  ...        0 min,  0.438 sec
     gradient                   ...        0 min,  0.142 sec
 * total energy  :  -214.5439715 Eh     change       -0.4594430E-01 Eh
   gradient norm :     0.1143371 Eh/α   predicted    -0.5445700E-01 (  18.53%)
   displ. norm   :     0.8396313 α      lambda       -0.5004001E-01
   maximum displ.:     0.3719352 α      in ANC's #35, #12, #43, ...

........................................................................
.............................. CYCLE   17 ..............................
........................................................................
   1   -218.1749001 -0.218175E+03  0.511E-01    0.35       0.0  T
   2   -218.1704310  0.446901E-02  0.500E-01    0.44       1.0  T
   3   -218.1767344 -0.630338E-02  0.139E-01    0.40       1.0  T
   4   -218.1764224  0.312059E-03  0.137E-01    0.41       1.0  T
   5   -218.1780779 -0.165559E-02  0.283E-02    0.41       1.0  T
   6   -218.1780655  0.124842E-04  0.193E-02    0.40       1.0  T
   7   -218.1781119 -0.464619E-04  0.494E-03    0.41       1.9  T
   8   -218.1781126 -0.624327E-06  0.341E-03    0.41       2.7  T
   9   -218.1781130 -0.419679E-06  0.154E-03    0.41       5.9  T
  10   -218.1781131 -0.117401E-06  0.994E-04    0.41       9.2  T
  11   -218.1781132 -0.824867E-07  0.293E-04    0.41      31.2  T
     SCC iter.                  ...        0 min,  0.344 sec
     gradient                   ...        0 min,  0.142 sec
 * total energy  :  -214.5866301 Eh     change       -0.4265867E-01 Eh
   gradient norm :     0.1006064 Eh/α   predicted    -0.4265865E-01 (  -0.00%)
   displ. norm   :     0.7805556 α      lambda       -0.5057562E-01
   maximum displ.:     0.3475789 α      in ANC's #12, #35, #87, ...

........................................................................
.............................. CYCLE   18 ..............................
........................................................................
   1   -218.1773236 -0.218177E+03  0.406E-01    0.44       0.0  T
   2   -218.1738874  0.343614E-02  0.388E-01    0.54       1.0  T
   3   -218.1785272 -0.463981E-02  0.142E-01    0.50       1.0  T
   4   -218.1777403  0.786885E-03  0.149E-01    0.52       1.0  T
   5   -218.1796486 -0.190829E-02  0.224E-02    0.54       1.0  T
   6   -218.1796379  0.106803E-04  0.214E-02    0.52       1.0  T
[...]
  97: 11.97  98: 11.97  99:  9.91 100:  9.93 101:  9.93 102: 10.53 103: 17.82 104: 10.00
 105: 10.00 106: 13.94 107: 10.52 108: 10.51 109: 16.37 110: 11.95 111: 11.82 112: 11.82
 113: 11.76 114: 13.81 115: 14.07 116: 11.58 117: 11.70 118: 11.70 119: 11.79 120: 10.84
 121: 11.06 122: 11.06 123: 11.43 124: 11.12 125: 11.12 126: 10.81 127: 10.81 128: 11.19
 129: 11.17 130: 11.19 131: 11.19 132: 11.06 133: 11.06 134: 11.30 135: 11.40 136: 11.37
 137: 11.37 138: 11.43 139: 11.43 140: 11.33 141: 11.44 142: 11.42 143: 11.55 144: 11.70
 145: 11.55 146: 10.99 147: 10.99 148: 11.13 149: 11.15 150: 11.62 151: 11.28 152: 11.28
 153: 11.12 154: 11.20 155: 11.38 156: 11.32 157: 11.49 158: 11.39 159: 11.39 160: 11.10
 161: 11.09 162: 11.88 163: 11.75 164: 11.77 165: 11.69 166:  3.79 167:  3.79 168:  3.87
 169:  3.94 170:  4.00 171:  4.00 172:  4.04 173:  4.04 174:  4.27 175:  4.27 176:  4.33
 177:  4.33 178:  3.81 179:  3.81 180:  3.63 181:  3.63 182:  3.62 183:  3.80 184:  3.79
 185:  3.64 186:  3.33 187:  3.33 188:  3.32 189:  3.32 190:  3.39 191:  3.39 192:  3.64
 193:  3.65 194:  3.64 195:  3.66 196:  3.66 197:  3.67 198: 11.51 199: 11.53 200: 11.92
 201: 11.91 202: 12.34 203: 12.33 204: 12.10 205: 12.11 206: 12.19 207: 11.99 208: 11.52
 209: 11.33 210: 10.96 211: 10.96 212:  9.22 213:  7.81 214:  7.81 215: 10.11 216:  9.35
 217:  8.81 218:  8.80 219:  9.10 220:  9.10 221:  8.63 222:  1.64 223:  1.64 224:  1.82
 225:  1.83 226:  1.84 227:  2.12 228:  2.26 229:  2.00 230:  2.01 231:  2.11 232:  1.96
 233:  2.13 234:  8.89 235:  9.19 236:  5.85 237:  5.47 238:  5.47 239:  6.01 240:  7.26
 241:  6.52 242:  7.38 243:  7.47 244:  7.42 245:  7.00 246:  7.32 247:  8.62 248:  8.71
 249:  8.72 250:  8.30 251:  8.46 252:  8.39 253:  9.85 254: 12.43 255: 12.25 256:  9.39
 257:  9.39 258: 11.05 259: 10.52 260: 10.51 261: 11.12 262: 10.99 263: 10.38 264: 10.41
 265: 10.41 266: 12.40 267: 10.80 268: 11.78 269: 11.72 270: 11.71 271:  9.73 272:  9.72
 273: 12.01 274: 11.66 275: 11.60 276:  8.04 277:  8.53 278:  8.53 279:  8.57 280:  8.84
 281:  9.00 282: 11.72 283: 11.74 284: 11.52 285: 11.50 286: 11.50 287: 11.67 288: 11.60
 289: 11.62 290: 11.62 291: 11.52 292: 11.73 293: 11.67 294: 11.48 295: 11.48 296: 11.77
 297: 11.74 298: 11.82 299: 11.88 300: 11.84 301: 11.84 302: 11.71 303: 11.69 304: 11.72
 305: 11.78 306: 11.62 307: 11.62 308: 11.54 309: 11.55 310: 11.57 311: 11.57 312: 11.60
 313: 11.60 314: 11.65 315: 11.65 316: 11.67 317: 11.72 318: 11.71 319: 11.71 320: 12.01
 321: 12.01 322: 12.01 323: 12.01 324: 12.01 325: 12.01 326:  1.81 327:  1.81 328:  1.81
 329:  1.81 330:  1.81 331:  1.81 332:  1.83 333:  1.83 334:  1.81 335:  1.81 336:  1.81
 337:  1.81 338:  1.81 339:  1.81 340:  1.81 341:  1.81 342:  1.81 343:  1.81 344:  1.81
 345:  1.81 346:  1.98 347:  1.98 348:  1.98 349:  1.97 350:  1.97 351:  1.97 352:  1.97
 353:  1.97 354:  1.97 355:  1.97 356:  1.97 357:  1.97
 IR intensities (km·mol⁻¹)
   1: 11.82   2:  4.27   3: 26.43   4:  3.04   5: 42.14   6:  6.88   7: 15.38   8:212.75
   9:  7.13  10:  1.95  11: 10.30  12:  8.58  13: 12.75  14:  5.65  15: 27.45  16:  5.23
  17:  4.80  18: 28.72  19:  2.60  20: 24.65  21:  5.88  22: 15.86  23:  8.45  24:  4.46
  25: 13.81  26:  2.52  27:  5.53  28:109.23  29:  4.30  30:153.75  31:  1.07  32:  5.40
  33:109.68  34:******  35:******  36:134.31  37:  6.54  38:127.05  39:  7.74  40:  7.30
  41:  8.49  42:  2.76  43:  5.70  44:  1.67  45:  0.09  46:369.97  47: 15.13  48:  0.70
  49: 18.49  50: 39.78  51:125.23  52: 44.72  53: 55.21  54: 23.89  55:322.96  56: 92.63
  57: 43.80  58: 87.27  59:808.10  60:  1.62  61:  3.97  62:  1.77  63: 33.35  64:  7.34
  65:309.63  66:107.02  67: 37.89  68: 32.54  69:******  70: 67.99  71: 14.72  72:  0.24
  73:122.32  74: 24.76  75:  0.23  76:  1.62  77: 14.59  78:179.69  79: 31.42  80:  0.02
  81:  6.28  82:  0.02  83:  0.09  84:  7.05  85:******  86:  0.40  87: 28.55  88: 74.24
  89: 12.77  90:  9.97  91:  6.50  92:  0.17  93:  0.29  94: 72.94  95:  3.72  96:747.48
  97:  0.20  98:  7.72  99:  1.57 100:357.08 101:  2.05 102:  5.18 103:  0.34 104: 19.27
 105:  2.08 106:906.52 107:  1.23 108:****** 109:****** 110:  1.52 111:  0.07 112: 24.00
 113:  0.51 114:149.72 115:611.61 116:  3.90 117:  1.41 118:  5.92 119:  0.19 120:666.57
 121:****** 122:162.87 123:  1.63 124:140.25 125:742.58 126: 14.64 127:  4.83 128:  0.00
 129:  1.13 130:  0.15 131: 61.28 132:  7.39 133: 29.80 134:  8.69 135: 54.81 136:  7.83
 137:382.60 138:248.42 139: 14.67 140:  5.15 141:  5.13 142: 23.27 143:  1.04 144: 15.01
 145: 11.57 146: 17.34 147:  4.51 148:107.60 149:115.85 150:  0.14 151:  9.38 152:  1.67
 153:  0.08 154:  7.29 155: 47.06 156:151.64 157:830.18 158:  3.06 159:  4.24 160:528.83
 161:230.00 162:  9.39 163:  0.11 164: 17.87 165:  0.37 166: 22.73 167: 29.67 168: 40.72
 169:****** 170:****** 171:506.77 172: 11.58 173: 78.55 174:  0.07 175:  1.90 176:  8.54
 177:  0.79 178: 15.30 179: 88.40 180:****** 181:788.83 182: 30.08 183: 59.65 184: 84.87
 185:950.01 186:295.82 187:  1.78 188:  0.40 189:  0.01 190:  2.87 191:  4.27 192:868.78
 193: 18.42 194:  5.57 195: 65.30 196:****** 197:726.35 198: 98.76 199:515.19 200:660.41
 201: 23.96 202:228.82 203: 54.08 204: 28.61 205: 32.95 206: 63.55 207: 15.66 208:239.66
 209: 41.29 210:  0.40 211:  0.04 212:  3.45 213:341.91 214: 20.03 215:365.50 216:  0.07
 217: 74.17 218: 18.57 219: 59.47 220:****** 221: 20.55 222:  3.35 223:475.60 224:457.09
 225:****** 226:****** 227:  1.93 228: 26.95 229:  7.13 230:  4.96 231:****** 232: 37.07
 233:****** 234:****** 235:628.86 236:****** 237: 61.80 238:  0.39 239:506.34 240:  0.10
 241:****** 242:  1.69 243:  0.00 244:277.48 245:692.94 246:292.50 247:  0.72 248: 10.90
 249: 17.13 250:  1.06 251:541.13 252:****** 253:  0.09 254: 33.68 255: 58.27 256: 80.90
 257: 55.65 258: 19.28 259: 19.71 260: 18.22 261:365.53 262:245.68 263:  0.36 264:  4.47
 265: 85.50 266:  6.68 267:414.90 268: 11.74 269: 62.15 270:  8.24 271:  1.92 272:  7.66
 273:  1.93 274: 80.65 275:559.10 276:  0.88 277:  0.49 278:  2.02 279:567.50 280:  2.99
 281: 56.51 282:564.79 283: 47.44 284: 17.65 285: 38.73 286:  8.64 287: 20.46 288:130.40
 289:159.28 290: 52.77 291:  0.41 292:151.14 293:120.90 294: 32.69 295:  0.96 296: 11.94
 297:  1.87 298:  1.02 299: 24.89 300: 27.11 301: 31.43 302:  0.02 303: 22.67 304:  7.29
 305: 70.51 306: 30.17 307: 29.74 308:122.97 309: 10.49 310: 97.34 311:959.20 312:  2.61
 313:  1.36 314:497.35 315:  3.92 316:****** 317:  0.02 318:  1.00 319:  0.27 320:  0.31
 321:161.95 322:106.18 323:246.72 324:  0.23 325:173.00 326: 64.41 327: 23.50 328: 22.29
 329: 22.51 330: 16.55 331: 18.55 332:  1.11 333:672.75 334: 16.02 335: 22.17 336:  5.78
 337:  1.11 338:146.86 339: 25.89 340: 28.57 341:****** 342:313.23 343:132.53 344:116.85
 345:138.86 346: 83.01 347: 70.53 348:102.93 349:****** 350: 20.93 351:508.90 352:272.00
 353:151.55 354:174.03 355:****** 356:****** 357:143.33
 Raman intensities (amu)
   1:  0.00   2:  0.00   3:  0.00   4:  0.00   5:  0.00   6:  0.00   7:  0.00   8:  0.00
   9:  0.00  10:  0.00  11:  0.00  12:  0.00  13:  0.00  14:  0.00  15:  0.00  16:  0.00
  17:  0.00  18:  0.00  19:  0.00  20:  0.00  21:  0.00  22:  0.00  23:  0.00  24:  0.00
  25:  0.00  26:  0.00  27:  0.00  28:  0.00  29:  0.00  30:  0.00  31:  0.00  32:  0.00
  33:  0.00  34:  0.00  35:  0.00  36:  0.00  37:  0.00  38:  0.00  39:  0.00  40:  0.00
  41:  0.00  42:  0.00  43:  0.00  44:  0.00  45:  0.00  46:  0.00  47:  0.00  48:  0.00
  49:  0.00  50:  0.00  51:  0.00  52:  0.00  53:  0.00  54:  0.00  55:  0.00  56:  0.00
  57:  0.00  58:  0.00  59:  0.00  60:  0.00  61:  0.00  62:  0.00  63:  0.00  64:  0.00
  65:  0.00  66:  0.00  67:  0.00  68:  0.00  69:  0.00  70:  0.00  71:  0.00  72:  0.00
  73:  0.00  74:  0.00  75:  0.00  76:  0.00  77:  0.00  78:  0.00  79:  0.00  80:  0.00
  81:  0.00  82:  0.00  83:  0.00  84:  0.00  85:  0.00  86:  0.00  87:  0.00  88:  0.00
  89:  0.00  90:  0.00  91:  0.00  92:  0.00  93:  0.00  94:  0.00  95:  0.00  96:  0.00
  97:  0.00  98:  0.00  99:  0.00 100:  0.00 101:  0.00 102:  0.00 103:  0.00 104:  0.00
 105:  0.00 106:  0.00 107:  0.00 108:  0.00 109:  0.00 110:  0.00 111:  0.00 112:  0.00
 113:  0.00 114:  0.00 115:  0.00 116:  0.00 117:  0.00 118:  0.00 119:  0.00 120:  0.00
 121:  0.00 122:  0.00 123:  0.00 124:  0.00 125:  0.00 126:  0.00 127:  0.00 128:  0.00
 129:  0.00 130:  0.00 131:  0.00 132:  0.00 133:  0.00 134:  0.00 135:  0.00 136:  0.00
 137:  0.00 138:  0.00 139:  0.00 140:  0.00 141:  0.00 142:  0.00 143:  0.00 144:  0.00
 145:  0.00 146:  0.00 147:  0.00 148:  0.00 149:  0.00 150:  0.00 151:  0.00 152:  0.00
 153:  0.00 154:  0.00 155:  0.00 156:  0.00 157:  0.00 158:  0.00 159:  0.00 160:  0.00
 161:  0.00 162:  0.00 163:  0.00 164:  0.00 165:  0.00 166:  0.00 167:  0.00 168:  0.00
 169:  0.00 170:  0.00 171:  0.00 172:  0.00 173:  0.00 174:  0.00 175:  0.00 176:  0.00
 177:  0.00 178:  0.00 179:  0.00 180:  0.00 181:  0.00 182:  0.00 183:  0.00 184:  0.00
 185:  0.00 186:  0.00 187:  0.00 188:  0.00 189:  0.00 190:  0.00 191:  0.00 192:  0.00
 193:  0.00 194:  0.00 195:  0.00 196:  0.00 197:  0.00 198:  0.00 199:  0.00 200:  0.00
 201:  0.00 202:  0.00 203:  0.00 204:  0.00 205:  0.00 206:  0.00 207:  0.00 208:  0.00
 209:  0.00 210:  0.00 211:  0.00 212:  0.00 213:  0.00 214:  0.00 215:  0.00 216:  0.00
 217:  0.00 218:  0.00 219:  0.00 220:  0.00 221:  0.00 222:  0.00 223:  0.00 224:  0.00
 225:  0.00 226:  0.00 227:  0.00 228:  0.00 229:  0.00 230:  0.00 231:  0.00 232:  0.00
 233:  0.00 234:  0.00 235:  0.00 236:  0.00 237:  0.00 238:  0.00 239:  0.00 240:  0.00
 241:  0.00 242:  0.00 243:  0.00 244:  0.00 245:  0.00 246:  0.00 247:  0.00 248:  0.00
 249:  0.00 250:  0.00 251:  0.00 252:  0.00 253:  0.00 254:  0.00 255:  0.00 256:  0.00
 257:  0.00 258:  0.00 259:  0.00 260:  0.00 261:  0.00 262:  0.00 263:  0.00 264:  0.00
 265:  0.00 266:  0.00 267:  0.00 268:  0.00 269:  0.00 270:  0.00 271:  0.00 272:  0.00
 273:  0.00 274:  0.00 275:  0.00 276:  0.00 277:  0.00 278:  0.00 279:  0.00 280:  0.00
 281:  0.00 282:  0.00 283:  0.00 284:  0.00 285:  0.00 286:  0.00 287:  0.00 288:  0.00
 289:  0.00 290:  0.00 291:  0.00 292:  0.00 293:  0.00 294:  0.00 295:  0.00 296:  0.00
Refinement of some symmetry elements was terminated before convergence was reached.
Some symmetry elements may remain unidentified.
Molecule has no symmetry elements
It seems to be the C1 point group
 297:  0.00 298:  0.00 299:  0.00 300:  0.00 301:  0.00 302:  0.00 303:  0.00 304:  0.00
 305:  0.00 306:  0.00 307:  0.00 308:  0.00 309:  0.00 310:  0.00 311:  0.00 312:  0.00
 313:  0.00 314:  0.00 315:  0.00 316:  0.00 317:  0.00 318:  0.00 319:  0.00 320:  0.00
 321:  0.00 322:  0.00 323:  0.00 324:  0.00 325:  0.00 326:  0.00 327:  0.00 328:  0.00
 329:  0.00 330:  0.00 331:  0.00 332:  0.00 333:  0.00 334:  0.00 335:  0.00 336:  0.00
 337:  0.00 338:  0.00 339:  0.00 340:  0.00 341:  0.00 342:  0.00 343:  0.00 344:  0.00
 345:  0.00 346:  0.00 347:  0.00 348:  0.00 349:  0.00 350:  0.00 351:  0.00 352:  0.00
 353:  0.00 354:  0.00 355:  0.00 356:  0.00 357:  0.00
 output can be read by thermo (or use thermo option).
 writing <g98.out> molden fake output.
 recommended (thermochemical) frequency scaling factor: 1.0
           -------------------------------------------------
          |             Thermodynamic Functions             |
           -------------------------------------------------

c1  symmetry found (for desy threshold:  0.10E+00) used in thermo
 inverting freq            1   1.8840823520276537     

          ...................................................
          :                      SETUP                      :
          :.................................................:
          :  # frequencies                         350      :
          :  # imaginary freq.                       0      :
          :  linear?                             false      :
          :  only rotor calc.                    false      :
          :  symmetry                               c1      :
          :  rotational number                       1      :
          :  scaling factor                  1.0000000      :
          :  rotor cutoff                   50.0000000 cm⁻¹ :
          :  imag. cutoff                  -20.0000000 cm⁻¹ :
          :.................................................:

    mode    ω/cm⁻¹     T·S(HO)/kcal·mol⁻¹    T·S(FR)/kcal·mol⁻¹   T·S(vib)
   ------------------------------------------------------------------------
       1      1.88    -3.37738 (  0.00%)    -2.02779 (100.00%)    -2.02779
       2      1.18    -3.65562 (  0.00%)    -2.16690 (100.00%)    -2.16690
       3      2.24    -3.27411 (  0.00%)    -1.97615 (100.00%)    -1.97616
       4      6.73    -2.62327 (  0.03%)    -1.65073 ( 99.97%)    -1.65105
       5      7.07    -2.59381 (  0.04%)    -1.63600 ( 99.96%)    -1.63639
       6     10.83    -2.34118 (  0.22%)    -1.50967 ( 99.78%)    -1.51150
       7     17.93    -2.04252 (  1.63%)    -1.36028 ( 98.37%)    -1.37139
       8     19.11    -2.00482 (  2.09%)    -1.34142 ( 97.91%)    -1.35529
       9     25.94    -1.82402 (  6.76%)    -1.25093 ( 93.24%)    -1.28965
      10     28.18    -1.77497 (  9.17%)    -1.22637 ( 90.83%)    -1.27668
      11     29.82    -1.74159 ( 11.23%)    -1.20965 ( 88.77%)    -1.26940
      12     30.96    -1.71935 ( 12.82%)    -1.19852 ( 87.18%)    -1.26529
      13     31.06    -1.71754 ( 12.96%)    -1.19761 ( 87.04%)    -1.26498
      14     39.91    -1.56929 ( 28.88%)    -1.12331 ( 71.12%)    -1.25209
      15     48.96    -1.44867 ( 47.90%)    -1.06276 ( 52.10%)    -1.24763
      16     51.38    -1.42022 ( 52.73%)    -1.04847 ( 47.27%)    -1.24447
      17     69.62    -1.24151 ( 78.99%)    -0.95848 ( 21.01%)    -1.18204
      18     82.18    -1.14432 ( 87.95%)    -0.90934 ( 12.05%)    -1.11600
      19     85.20    -1.12326 ( 89.40%)    -0.89867 ( 10.60%)    -1.09944
      20     90.08    -1.09072 ( 91.33%)    -0.88216 (  8.67%)    -1.07264
      21     93.22    -1.07077 ( 92.36%)    -0.87201 (  7.64%)    -1.05557
      22     93.33    -1.07004 ( 92.39%)    -0.87165 (  7.61%)    -1.05494
      23     95.67    -1.05563 ( 93.06%)    -0.86432 (  6.94%)    -1.04235
      24     96.19    -1.05252 ( 93.20%)    -0.86273 (  6.80%)    -1.03960
      25    110.06    -0.97430 ( 95.91%)    -0.82281 (  4.09%)    -0.96811
      26    124.67    -0.90242 ( 97.48%)    -0.78590 (  2.52%)    -0.89948
      27    124.68    -0.90234 ( 97.48%)    -0.78586 (  2.52%)    -0.89940
      28    126.07    -0.89600 ( 97.59%)    -0.78259 (  2.41%)    -0.89326
      29    126.09    -0.89588 ( 97.59%)    -0.78253 (  2.41%)    -0.89314
      30    135.32    -0.85539 ( 98.17%)    -0.76160 (  1.83%)    -0.85367
      31    162.55    -0.75133 ( 99.11%)    -0.70730 (  0.89%)    -0.75094
      32    169.35    -0.72828 ( 99.25%)    -0.69515 (  0.75%)    -0.72803
      33    175.88    -0.70713 ( 99.35%)    -0.68395 (  0.65%)    -0.70698
      34    177.23    -0.70284 ( 99.37%)    -0.68167 (  0.63%)    -0.70271
      35    179.52    -0.69569 ( 99.40%)    -0.67787 (  0.60%)    -0.69559
      36    184.46    -0.68062 ( 99.46%)    -0.66983 (  0.54%)    -0.68056
      37    185.09    -0.67873 ( 99.47%)    -0.66883 (  0.53%)    -0.67868
      38    187.07    -0.67282 ( 99.49%)    -0.66567 (  0.51%)    -0.67278
      39    200.51    -0.63458 ( 99.61%)    -0.64511 (  0.39%)    -0.63462
      40    207.46    -0.61594 ( 99.66%)    -0.63502 (  0.34%)    -0.61600
      41    210.04    -0.60922 ( 99.68%)    -0.63137 (  0.32%)    -0.60929
      42    210.63    -0.60769 ( 99.68%)    -0.63053 (  0.32%)    -0.60776
      43    220.53    -0.58279 ( 99.74%)    -0.61692 (  0.26%)    -0.58288
      44    223.69    -0.57513 ( 99.75%)    -0.61270 (  0.25%)    -0.57522
      45    223.85    -0.57476 ( 99.75%)    -0.61250 (  0.25%)    -0.57485
      46    224.12    -0.57411 ( 99.75%)    -0.61215 (  0.25%)    -0.57421
      47    225.11    -0.57174 ( 99.76%)    -0.61084 (  0.24%)    -0.57183
      48    226.22    -0.56908 ( 99.76%)    -0.60937 (  0.24%)    -0.56918
      49    226.45    -0.56854 ( 99.76%)    -0.60907 (  0.24%)    -0.56864
      50    228.01    -0.56487 ( 99.77%)    -0.60705 (  0.23%)    -0.56497
      51    234.88    -0.54898 ( 99.80%)    -0.59824 (  0.20%)    -0.54908
      52    241.32    -0.53463 ( 99.82%)    -0.59024 (  0.18%)    -0.53473
      53    246.55    -0.52328 ( 99.83%)    -0.58388 (  0.17%)    -0.52339
      54    247.63    -0.52099 ( 99.83%)    -0.58259 (  0.17%)    -0.52109
      55    247.64    -0.52096 ( 99.83%)    -0.58257 (  0.17%)    -0.52106
      56    254.12    -0.50740 ( 99.85%)    -0.57492 (  0.15%)    -0.50750
      57    255.69    -0.50418 ( 99.85%)    -0.57310 (  0.15%)    -0.50428
      58    255.81    -0.50392 ( 99.85%)    -0.57296 (  0.15%)    -0.50402
      59    272.13    -0.47186 ( 99.89%)    -0.55464 (  0.11%)    -0.47196
      60    275.74    -0.46510 ( 99.89%)    -0.55073 (  0.11%)    -0.46519
      61    279.50    -0.45817 ( 99.90%)    -0.54672 (  0.10%)    -0.45826
      62    280.30    -0.45671 ( 99.90%)    -0.54587 (  0.10%)    -0.45680
      63    288.82    -0.44151 ( 99.91%)    -0.53700 (  0.09%)    -0.44160
   ------------------------------------------------------------------------

   temp. (K)  partition function   enthalpy   heat capacity  entropy
                                   cal/mol     cal/K/mol   cal/K/mol   J/K/mol
 298.15  VIB  0.658E+36            42203.907    272.819    266.799
         ROT  0.117E+10              888.752      2.981     44.471
         INT  0.768E+45            43092.659    275.800    311.270
         TR   0.419E+29             1481.254      4.968     47.184
         TOT                       44573.9132   280.7678   358.4534  1499.7692

       T/K    H(0)-H(T)+PV         H(T)/Eh          T*S/Eh         G(T)/Eh
   ------------------------------------------------------------------------
    298.15    0.710331E-01    0.882163E+00    0.170313E+00    0.711851E+00
   ------------------------------------------------------------------------

         :::::::::::::::::::::::::::::::::::::::::::::::::::::
         ::                  THERMODYNAMIC                  ::
         :::::::::::::::::::::::::::::::::::::::::::::::::::::
         :: total free energy        -214.190265195816 Eh   ::
         ::.................................................::
         :: total energy             -214.902115856199 Eh   ::
         :: zero point energy           0.811130402162 Eh   ::
         :: G(RRHO) w/o ZPVE           -0.099279741780 Eh   ::
         :: G(RRHO) contrib.            0.711850660382 Eh   ::
         :::::::::::::::::::::::::::::::::::::::::::::::::::::

optimized geometry written to: xtbopt.xyz


           -------------------------------------------------
          | TOTAL ENERGY             -214.902115856199 Eh   |
          | TOTAL ENTHALPY           -214.019952401974 Eh   |
          | TOTAL FREE ENERGY        -214.190265195816 Eh   |
          | GRADIENT NORM               0.000787343567 Eh/α |
          | HOMO-LUMO GAP               0.235880775205 eV   |
           -------------------------------------------------

------------------------------------------------------------------------
 * finished run on 2021/11/19 at 11:45:06.151     
------------------------------------------------------------------------
 total:
 * wall-time:     0 d,  0 h,  5 min, 50.376 sec
 *  cpu-time:     0 d,  0 h,  5 min, 50.374 sec
 * ratio c/w:     1.000 speedup
 SCF:
 * wall-time:     0 d,  0 h,  0 min,  4.393 sec
 *  cpu-time:     0 d,  0 h,  0 min,  4.393 sec
 * ratio c/w:     1.000 speedup
 ANC optimizer:
 * wall-time:     0 d,  0 h,  0 min, 51.898 sec
 *  cpu-time:     0 d,  0 h,  0 min, 51.891 sec
 * ratio c/w:     1.000 speedup
 analytical hessian:
 * wall-time:     0 d,  0 h,  4 min, 53.315 sec
 *  cpu-time:     0 d,  0 h,  4 min, 53.320 sec
 * ratio c/w:     1.000 speedup

