119
 energy: -213.708289492182 gnorm: 1.097105523132 xtb: 6.4.1 (bd6e46d)
Fe       10.46583300000000    0.03079300000000   -0.00863000000000
C        12.79482400000000   -3.11600000000000    1.31405900000000
C        13.71093200000000   -2.17179300000000    1.26377700000000
C        13.29975200000000   -1.11788900000000    0.34248500000000
C        13.91862300000000    0.00645700000000   -0.00392500000000
C        13.21458000000000    1.22640500000000   -0.36803000000000
C        13.54269100000000    2.18646000000000   -1.21550400000000
C        12.50791100000000    3.20274600000000   -1.23240200000000
C        11.57164300000000    2.82628400000000   -0.38551000000000
N        11.97363400000000    1.59327300000000    0.17830700000000
C        10.31056900000000    3.47128300000000   -0.00635800000000
C         9.21535200000000    2.83650100000000    0.34440200000000
C         8.14172600000000    3.15445600000000    1.31343000000000
C         7.30416300000000    2.15770300000000    1.23626400000000
C         7.74246100000000    1.15402000000000    0.25581200000000
N         8.84739900000000    1.59287300000000   -0.22848100000000
C         7.13162600000000   -0.09925100000000   -0.15773600000000
C         7.79578600000000   -1.20375800000000   -0.41216100000000
C         7.42193800000000   -2.26669900000000   -1.36968800000000
C         8.37068500000000   -3.16045500000000   -1.28066900000000
C         9.35640900000000   -2.72300500000000   -0.29779100000000
N         9.00336300000000   -1.57720000000000    0.19900600000000
C        10.58729700000000   -3.37907600000000    0.14793000000000
C        11.71033800000000   -2.73321400000000    0.41505100000000
N        12.03893800000000   -1.48577300000000   -0.18335300000000
H        12.85508600000000   -4.02578100000000    1.93160500000000
H        14.62725900000000   -2.21174200000000    1.84182500000000
H        14.47005600000000    2.20325600000000   -1.81664700000000
H        12.52481000000000    4.10743400000000   -1.84502300000000
H        10.26284600000000    4.56608600000000   -0.01013600000000
H         8.08890500000000    4.03318200000000    1.93842200000000
H         6.39253300000000    2.12203300000000    1.85358800000000
H         6.03337500000000   -0.09634100000000   -0.25700700000000
H         6.55308200000000   -2.31916400000000   -2.01863800000000
H         8.36783900000000   -4.07676400000000   -1.87942800000000
H        10.55181500000000   -4.47487700000000    0.25985500000000
Fe       45.36979800000000   -0.01658300000000   -0.01306300000000
C        43.04080700000001    2.83020900000000    1.87044200000000
C        42.12470000000000    1.91171900000000    1.64586800000000
C        42.53588000000000    1.04702200000000    0.54505400000000
C        41.91700900000000    0.00645700000000   -0.00392500000000
C        42.62105100000000   -1.12476800000000   -0.58802800000000
C        42.29294100000000   -1.91093900000000   -1.59889500000000
C        43.32772100000000   -2.90644900000000   -1.80403500000000
C        44.26398900000000   -2.69363200000000   -0.90200500000000
N        43.86199800000000   -1.58662000000000   -0.11923300000000
C        45.52506300000000   -3.39777300000000   -0.64909100000000
C        46.62028000000000   -2.83908100000000   -0.18665800000000
C        47.69390600000000   -3.33128600000000    0.70656400000000
C        48.53146900000000   -2.33751900000000    0.81564900000000
C        48.09317100000000   -1.16937000000000    0.03841400000000
N        46.98823300000001   -1.51076200000000   -0.51888600000000
C        48.70400600000000    0.13886500000000   -0.13545600000000
C        48.03984500000000    1.27139800000000   -0.18056200000000
C        48.41369400000000    2.49352400000000   -0.92427700000000
C        47.46494700000000    3.35525100000000   -0.67099900000000
C        46.47922300000000    2.74305700000000    0.21366500000000
N        46.83226900000000    1.52497800000000    0.48927500000000
C        45.24833500000000    3.30505100000000    0.77335900000000
C        44.12529400000000    2.62084600000000    0.91602700000000
N        43.79669400000001    1.50607100000000    0.09659200000000
H        42.98054500000000    3.60963300000000    2.64604600000000
H        41.20837300000001    1.84373900000000    2.22129400000000
H        41.36557600000000   -1.81592200000000   -2.19271900000000
H        43.31082200000000   -3.68178300000000   -2.57385500000000
H        45.57278600000000   -4.47287100000000   -0.85590500000000
H        47.74672700000000   -4.31070300000000    1.15769100000000
H        49.44309900000000   -2.41699100000000    1.42887400000000
H        49.80225600000000    0.15442100000000   -0.23354300000000
H        49.28255000000000    2.66546800000000   -1.55223000000000
H        47.46779300000001    4.36673300000000   -1.08937600000000
H        45.28381700000000    4.36106800000000    1.08662800000000
C        16.89063400000000    0.01758800000000    0.00011600000000
C        18.10616700000000   -0.00775500000000   -0.01036300000000
C        19.52768400000000   -0.02917900000000   -0.01453900000000
C        20.73624600000000   -0.03138900000000   -0.01443400000000
C        22.15732100000000   -0.01243000000000   -0.01506100000000
C        23.36846300000000    0.01758800000000    0.00011600000000
C        32.46581000000000    0.01758800000000    0.00011600000000
C        33.68134300000000   -0.00775500000000   -0.01036300000000
C        35.10286000000000   -0.02917900000000   -0.01453900000000
C        36.31142100000000   -0.03138900000000   -0.01443400000000
C        37.73249700000000   -0.01243000000000   -0.01506100000000
C        38.94363900000000    0.01758800000000    0.00011600000000
Fe       27.95705300000000    0.02920600000000    0.00494400000000
C        25.67724300000000   -3.23224200000000   -0.90472100000000
C        24.72103300000000   -2.33289100000000   -1.00674800000000
C        25.11340700000000   -1.17058700000000   -0.20423200000000
C        24.47829100000000   -0.01931400000000    0.00803400000000
C        25.16374800000000    1.25528600000000    0.23426400000000
C        24.82845800000000    2.33388600000000    0.93850400000000
C        25.85299900000000    3.35320200000000    0.84792200000000
C        26.80359600000000    2.85627800000000    0.07455800000000
N        26.42660200000000    1.53967300000000   -0.34158500000000
C        28.05073600000000    3.46797900000000   -0.34230800000000
C        29.15228800000000    2.80072200000000   -0.67407900000000
C        30.14583400000000    3.05270700000000   -1.70824900000000
C        31.03971700000000    2.09184700000000   -1.60676500000000
C        30.66001900000000    1.17996400000000   -0.50278800000000
N        29.56510400000000    1.62928200000000    0.00457900000000
C        31.31722600000000   -0.01931400000000    0.00803400000000
C        30.69381500000000   -1.08849600000000    0.46955100000000
C        31.07252700000000   -2.02061100000000    1.54502700000000
C        30.13185900000000   -2.93475700000000    1.63089300000000
C        29.12355700000000   -2.63897900000000    0.63346600000000
N        29.46133200000000   -1.58560100000000   -0.01582900000000
C        27.87116400000000   -3.34598600000000    0.30227200000000
C        26.75728700000000   -2.74928900000000   -0.04506900000000
N        26.37517500000000   -1.46653200000000    0.37261400000000
H        25.67758700000000   -4.22331600000000   -1.39595600000000
H        23.81249900000000   -2.45458600000000   -1.58789600000000
H        23.90360600000000    2.45223700000000    1.51543000000000
H        25.88029400000000    4.34236700000000    1.30457300000000
H        28.13667600000000    4.56535700000000   -0.40433100000000
H        30.17850600000000    3.85892300000000   -2.43507300000000
H        31.93277900000000    1.97887900000000   -2.24053900000000
H        31.98727800000000   -1.94620500000000    2.15519600000000
H        30.15090500000000   -3.74836600000000    2.33916000000000
H        27.90964900000000   -4.44594500000000    0.36130900000000
119
 energy: -214.035508386768 gnorm: 0.413227796930 xtb: 6.4.1 (bd6e46d)
Fe       10.47528776346273    0.02972413204794   -0.00815882639774
C        12.79497393832724   -3.12437748226131    1.30821834404586
C        13.72420093894432   -2.17104753232338    1.26198737931174
C        13.29589396121414   -1.12164358007649    0.34735646013747
C        13.89824906792879    0.02558031953459   -0.00475820516398
C        13.20300987332964    1.22097637129970   -0.36003720448811
C        13.55345578333838    2.21240978360545   -1.23339355129690
C        12.53632516911198    3.20518440414944   -1.24610923668545
C        11.56532500496470    2.80598345011172   -0.37787199570566
N        11.95283846197916    1.57677035905891    0.18221810409091
C        10.32833967958217    3.47156328831310   -0.00739994931721
C         9.20412933894897    2.82309263982166    0.34550425322187
C         8.14367380350357    3.16183707026809    1.30005242444362
C         7.28037878206377    2.15071867689299    1.24001018274306
C         7.73543049907063    1.15530617361785    0.27013625350343
N         8.87600210493368    1.57880798583413   -0.21626829995882
C         7.12007037522349   -0.07878629306612   -0.15120677318393
C         7.79918846528994   -1.20858802359904   -0.41729650572743
C         7.41433852212917   -2.26554046481614   -1.35894707409675
C         8.37765566541027   -3.18027532651271   -1.27935547205671
C         9.36488787275282   -2.73451358167256   -0.30482608996861
N         9.01063994315214   -1.55888573952857    0.18048191885480
C        10.57010439631117   -3.38591059595255    0.14059731936797
C        11.71728405666924   -2.71923691611167    0.41735438828376
N        12.03278772155434   -1.48320168428638   -0.16153121553637
H        12.84839521300811   -4.02115051378883    1.92501874693623
H        14.63109078080253   -2.20408281461372    1.83974546268125
H        14.46770086824091    2.21038039661375   -1.81797901596023
H        12.53048091008612    4.10465671922382   -1.84629037249367
H        10.27570377075122    4.56277646396146   -0.00509009240046
H         8.09442624914456    4.03199012513720    1.93370008038349
H         6.38900818556821    2.11465509680641    1.85266279790576
H         6.03479628846770   -0.08987055818475   -0.26096072191842
H         6.55472754702964   -2.31152702313611   -2.01256700688151
H         8.37651406262580   -4.08005100147850   -1.87667745496612
H        10.54817291233508   -4.47132035945133    0.25985033483237
Fe       45.36035216233056   -0.01561723400789   -0.01240342388898
C        43.04066846374768    2.83952449597332    1.86626026780464
C        42.11144116543310    1.91132471805253    1.64395504162850
C        42.53977902979935    1.04984510175523    0.55053178324162
C        41.93727972681590   -0.01206508512396   -0.00830033886703
C        42.63261186728647   -1.12088981831265   -0.57917502076801
C        42.28217833350426   -1.93311513593217   -1.62126711483095
C        43.29931304823169   -2.90630518854314   -1.81794791160557
C        44.27030447633133   -2.67510637215405   -0.89073182313248
N        43.88275788283644   -1.57113039563778   -0.11233741249834
C        45.50728883925052   -3.39785920589830   -0.65016700444516
C        46.63150180175983   -2.82610645687271   -0.18308340706980
C        47.69195530118026   -3.33605461377540    0.69204795621566
C        48.55525436191649   -2.33134765315111    0.82062399553020
C        48.10020978165043   -1.17329115609563    0.05224996888116
N        46.95963251475096   -1.49921111591244   -0.50428001224407
C        48.71556373584992    0.11754048313378   -0.13283469051724
C        48.03644175323297    1.27709919825168   -0.18471684401919
C        48.42129187195375    2.49038999383871   -0.91393871631974
C        47.45797451254425    3.37448460236771   -0.66602827677142
C        46.47074616691550    2.75567580412664    0.20888856134704
N        46.82499576304718    1.51041846440014    0.46767426028341
C        45.26553001921629    3.31313823037673    0.76742024931424
C        44.11835306998973    2.60669490653077    0.91570312447793
N        43.80287111969723    1.49949311311922    0.11758942658876
H        42.98723725128112    3.60630652955680    2.63871733126632
H        41.20454280153306    1.83660213648152    2.21782320937021
H        41.36793493579227   -1.82267020116588   -2.19536550506723
H        43.30515432788393   -3.67881950435105   -2.57458939095657
H        45.55993162577013   -4.47055812964251   -0.85034016913026
H        47.74120554124472   -4.30865642719934    1.15327180482943
H        49.44662526438894   -2.40957000787821    1.42933369068901
H        49.80083681856578    0.14879633061611   -0.23862487660503
H        49.28090440025788    2.65683683029049   -1.54768096638446
H        47.45911730725811    4.36945344948241   -1.08606283785838
H        45.28746073631672    4.35758079484464    1.08596359771354
C        16.88958469163023    0.01715318822561    0.00039538802119
C        18.11485607327463   -0.00819464106018   -0.01016702654861
C        19.50660385736626   -0.02844787108378   -0.01455233712260
C        20.72996814412301   -0.03038668955025   -0.01439059505414
C        22.07996706626318   -0.01154620342699   -0.01456465152044
C        23.27692735701052    0.03038369912459   -0.00307414248607
C        32.55006877681903    0.02750634174281    0.00089078794528
C        33.74981168277533   -0.00727756157763   -0.00897599321838
C        35.10621977789473   -0.02804861649755   -0.01572713309037
C        36.32986941086134   -0.03065091190356   -0.01485114065093
C        37.72239469766503   -0.01312818825754   -0.01466897857289
C        38.94632538285686    0.01690782234631    0.00047031634029
Fe       27.95048746148782    0.03074889474304    0.00020526401209
C        25.67926079149711   -3.25153487282215   -0.90005121318064
C        24.71834794447113   -2.33176421118007   -1.00072116817109
C        25.16416530015521   -1.19454983060078   -0.21012318330155
C        24.55651524177781   -0.00415958205966    0.00761526529310
C        25.20995219080243    1.26550322886459    0.23379835654809
C        24.82214539592075    2.35834736511648    0.95024901158472
C        25.83132737981915    3.35694199089125    0.85601185153827
C        26.81447304399826    2.84136413578089    0.06998111525170
N        26.45299204851630    1.53413770558809   -0.33477195253063
C        28.03759092949474    3.47090129841945   -0.34344179890872
C        29.16042416332070    2.79416875852648   -0.67538001834714
C        30.15060932712922    3.06136903972480   -1.69850733728859
C        31.05649826465866    2.08074186456816   -1.60689647691060
C        30.64343084672243    1.18519856884840   -0.52193264763618
N        29.53144246628423    1.62301673265293   -0.00559825900758
C        31.26639747572354   -0.00510506857718    0.00010795561372
C        30.65538324919896   -1.10853399074569    0.48334221443779
C        31.08093400646343   -2.01701656304951    1.53703117448064
C        30.12628180341918   -2.95159612310650    1.63154955713632
C        29.11276498716805   -2.65248407860907    0.64424018563418
N        29.44302683606264   -1.56337988664310   -0.00841567464001
C        27.88965952950755   -3.35622480541125    0.31128864839420
C        26.74614582214269   -2.74268694188907   -0.05135976819981
N        26.39176040581377   -1.46317161036494    0.35207990616832
H        25.68121507670291   -4.22103016220206   -1.39308681294581
H        23.81389245396046   -2.44507123347122   -1.58352748535114
H        23.90360189474089    2.45446663370656    1.51581839266414
H        25.87121038130353    4.33831509358660    1.30667773270502
H        28.12253636509827    4.56126250919423   -0.40950457944531
H        30.17286011397453    3.85793676893561   -2.42893227270705
H        31.93248347037384    1.97300273549299   -2.23725866009834
H        31.98185397237259   -1.94103593456117    2.14713269196598
H        30.14515397231856   -3.75415502773546    2.34012174657274
H        27.91452271223720   -4.44488421667573    0.35835983188552
119
 energy: -214.168852713333 gnorm: 0.186784298409 xtb: 6.4.1 (bd6e46d)
Fe       10.48904707416330    0.02877040829886   -0.00569642715880
C        12.79731633194424   -3.13053652259392    1.29523657964397
C        13.73981054244483   -2.17077963398612    1.25515748709174
C        13.28617552330351   -1.12072325294064    0.35966841152659
C        13.85762855247611    0.05342972451360   -0.00361586855021
C        13.18460378937858    1.21811154019847   -0.35819853864258
C        13.56205142349042    2.24181375949874   -1.24450050036312
C        12.56970173995837    3.20449210213278   -1.25011831498268
C        11.56116469485831    2.77913032293719   -0.37313771953447
N        11.92291878903421    1.55357352972903    0.16965253880943
C        10.35248858668009    3.46033520682583   -0.00651474232767
C         9.20278342963237    2.80018284210584    0.35147051348149
C         8.14395087687132    3.16473907385160    1.27513361430655
C         7.25379756807053    2.14872827874889    1.23423087728016
C         7.73132436190437    1.15367327414043    0.29199046838518
N         8.91790447509204    1.54986627322709   -0.17905778421703
C         7.11302914399505   -0.05696829969241   -0.14210656311984
C         7.80578130928119   -1.20536298337043   -0.42925077190463
C         7.40954686053851   -2.26751948507041   -1.33908281005338
C         8.37973347589732   -3.20263474158179   -1.26919383470847
C         9.37485164006821   -2.74261319881126   -0.31804374585015
N         9.02760751426923   -1.52746397602383    0.13736699659909
C        10.55387726261780   -3.38697236971283    0.13140300247995
C        11.71755903215964   -2.70099345456225    0.42483741258492
N        12.01829067745801   -1.47544227809727   -0.12231808866459
H        12.83691304877350   -4.01617001140557    1.91100934042763
H        14.64136094193091   -2.19007806172875    1.83327334022929
H        14.46702838682956    2.22239940789223   -1.81921292153299
H        12.53954874238200    4.10006244121591   -1.84463225968986
H        10.30112366430821    4.54937345261817   -0.00068616496282
H         8.10366668215447    4.02790879764764    1.91863318963287
H         6.37873373048028    2.10257843684301    1.84909791249447
H         6.03686202705182   -0.07894033624269   -0.26290415840835
H         6.55762299810148   -2.29959144877914   -1.99789713551323
H         8.39081033104642   -4.08993149275067   -1.86951848251594
H        10.54524533164406   -4.46481258317738    0.25512742807562
Fe       45.34660316210786   -0.01513154479551   -0.00980284993462
C        43.03833770610986    2.84799844424504    1.85465941596681
C        42.09583857276235    1.91235289432390    1.63719174900568
C        42.54950754210810    1.04671140013144    0.56244421870106
C        41.97774798257495   -0.03948828040646   -0.01240190310827
C        42.65095351688285   -1.11836884372475   -0.57684123657425
C        42.27355830579608   -1.95993709055163   -1.63761748209672
C        43.26593385180745   -2.90488253361126   -1.82174173853724
C        44.27444070124326   -2.64959322497506   -0.88107756991276
N        43.91260107271455   -1.54597630414532   -0.12037588358821
C        45.48312828801252   -3.38698547405772   -0.64719757887896
C        46.63284227087749   -2.80469823863912   -0.17295800453744
C        47.69167409239306   -3.33428064736658    0.66702886032485
C        48.58183487347004   -2.32831623229784    0.81531957125236
C        48.10432358402639   -1.17574199918479    0.07403112638119
N        46.91773083455384   -1.47767336838363   -0.46233731966182
C        48.72260814904067    0.09441221882367   -0.12793676017801
C        48.02985174149602    1.27614803476388   -0.19706716266152
C        48.42608271925415    2.48864576972661   -0.89405806953815
C        47.45590066600094    3.39457219491094   -0.65189332964019
C        46.46078732537807    2.76609176203387    0.19740172886618
N        46.80802759191499    1.48754129655964    0.41947083136560
C        45.28176347802786    3.31589863606243    0.75858097534706
C        44.11808862674872    2.58739651302514    0.91968785442706
N        43.81739399231095    1.48457757805677    0.15473073439711
H        42.99872002034137    3.60402656844517    2.62402892485273
H        41.19427081351198    1.82406324441443    2.20884047564109
H        41.36861279501711   -1.83425119716168   -2.19883486763163
H        43.29608893723673   -3.67460962231604   -2.57209761905968
H        45.53451142942129   -4.45819999455822   -0.84352574261507
H        47.73196285708704   -4.30184725629646    1.13923326099294
H        49.45689938874035   -2.39704069396258    1.42807652870603
H        49.79877476051280    0.13841756092203   -0.24255468419341
H        49.27800892073885    2.64238390681416   -1.53548291128046
H        47.44482087869503    4.37783183466310   -1.07719881072776
H        45.29039206341699    4.35207326416505    1.08010745108950
C        16.88806297635458    0.01652867273687    0.00050451115995
C        18.12026636229669   -0.00848611348256   -0.01001293983003
C        19.47814751819203   -0.02694054135881   -0.01450237589937
C        20.71019954813902   -0.02892632456343   -0.01465293296895
C        22.03065488898251   -0.01207705732166   -0.01230835379944
C        23.25182063493425    0.04609846733756   -0.00722208680285
C        32.58979532096037    0.03482324839529    0.00310060189215
C        33.80852781107593   -0.00937036279620   -0.00614846750302
C        35.12832014489953   -0.02637195800478   -0.01662572639737
C        36.35913905211380   -0.02898829356891   -0.01519107095738
C        37.71747709204695   -0.01431727239488   -0.01440699018453
C        38.94889292632168    0.01498576661936    0.00054652654957
Fe       27.94393468548589    0.03285589890605   -0.01257270654668
C        25.68144654278486   -3.27213512517225   -0.88780148488473
C        24.71797640428942   -2.33114014047838   -0.98810315320485
C        25.19393210529427   -1.20336329612117   -0.21794336783188
C        24.58374735720811    0.02191949520290    0.00442444979276
C        25.24880936776318    1.27280779693758    0.23398250781916
C        24.81668090071128    2.38626089369401    0.95726681827180
C        25.80526051161884    3.35852051600292    0.85695432794612
C        26.82637553452865    2.82502552155369    0.07040330971056
N        26.49004012298627    1.52251624897704   -0.29987384399936
C        28.01850002151415    3.47011985872211   -0.34719352722201
C        29.16156868876933    2.78279585221470   -0.68124068212029
C        30.15955939112711    3.06862692833501   -1.67884844078510
C        31.07386667493874    2.07023272213518   -1.60060468035153
C        30.63462744715626    1.18129014505795   -0.54673269645791
N        29.48391438100517    1.60106951070237   -0.03932220184882
C        31.25498339148487    0.01130015570638   -0.01110853158606
C        30.63238502265885   -1.11659744361824    0.49591968404091
C        31.08435182551688   -2.01660977775511    1.52268624464117
C        30.12340342396658   -2.97178878975998    1.62363369646218
C        29.09814625335305   -2.66208185998707    0.66095381053333
N        29.41527463081365   -1.52364805972102    0.02493722498168
C        27.90772844760407   -3.36474423426974    0.32239295259866
C        26.74453355671157   -2.73962302416270   -0.06283418350497
N        26.41671293681020   -1.45430483056197    0.30312320899597
H        25.68767855968125   -4.22361630001656   -1.38537024288848
H        23.81720902118170   -2.42866826296263   -1.57193735017158
H        23.90214652748415    2.45916809310218    1.51480054336818
H        25.85459410885497    4.33273645461450    1.30765541046257
H        28.09390468367165    4.55400894483711   -0.41594608510544
H        30.16474140744760    3.85772280957187   -2.41276342608580
H        31.93571300011818    1.96205759970607   -2.23023162311049
H        31.97280780399453   -1.93419003715191    2.13093861220712
H        30.13535631432871   -3.76698769650964    2.33769735069731
H        27.92098059819490   -4.44570511687927    0.35737691660851
119
 energy: -214.241572793141 gnorm: 0.086365490632 xtb: 6.4.1 (bd6e46d)
Fe       10.50153185574346    0.03001164381061    0.00243847640998
C        12.79987693415368   -3.13179461762643    1.28225297479955
C        13.74976374119236   -2.16876196062592    1.24875464160232
C        13.26996658875668   -1.11507773175929    0.37998639292234
C        13.80887633838556    0.07310292310995   -0.00041151385188
C        13.16516100274707    1.21214473818599   -0.36390830890801
C        13.57051617089255    2.26534781634942   -1.24846367659703
C        12.59748889353212    3.20821009380209   -1.24526181777123
C        11.55570187292587    2.75541463307938   -0.37163795256759
N        11.88876202894884    1.52755872104005    0.13629111064238
C        10.37483866120907    3.44131777279294   -0.00328976644737
C         9.21537175587379    2.76884831220283    0.36935511245449
C         8.14576617492155    3.16230482541936    1.25127566569223
C         7.23246952038474    2.15233154641286    1.21881939710746
C         7.73293290583152    1.14474362867094    0.31723788857911
N         8.96441207959595    1.51063359394496   -0.12252153141199
C         7.11439505850616   -0.04110382164385   -0.13378522814695
C         7.81989326603672   -1.19436817399178   -0.45152264938544
C         7.40779811904827   -2.27010874660982   -1.32087333032593
C         8.37521948375515   -3.22102168073777   -1.25270580109533
C         9.38546095389803   -2.74158966137833   -0.33719945930021
N         9.05465054289051   -1.48699655185687    0.07684624949174
C        10.54293983559259   -3.38163364190903    0.12398511221082
C        11.71145376559987   -2.68098160048885    0.43952819188942
N        11.99456851663633   -1.45767951237440   -0.07569229888644
H        12.82636629254999   -4.01707585502333    1.89033492207516
H        14.65654739483674   -2.17456960509945    1.81797511040733
H        14.47551053147448    2.23380827859790   -1.81722639819291
H        12.54734454993764    4.10320597093361   -1.83636631608232
H        10.32954243889942    4.52780230518621   -0.00292611058312
H         8.11157646359289    4.02647692414947    1.89258955177254
H         6.36090689289686    2.09293151374671    1.83546547017525
H         6.04049174991930   -0.06982076230028   -0.25515023791591
H         6.55550322917546   -2.28949068837972   -1.97613719700878
H         8.40259603321835   -4.10732249015151   -1.85224022008679
H        10.54650444139033   -4.45720078842495    0.24196237786454
Fe       45.33413201907128   -0.01783159840986   -0.00202563831851
C        43.03576903416492    2.85167698813421    1.84212708492205
C        42.08584358340800    1.91161631510449    1.63050500251270
C        42.56559301910283    1.03740260698198    0.58134574332712
C        42.02611243328797   -0.05938466852169   -0.01294003150751
C        42.67024523220667   -1.11141000616597   -0.58135860207262
C        42.26502831407792   -1.98233953552903   -1.64586070085944
C        43.23812175175880   -2.90944696681292   -1.81763224259196
C        44.27982896429462   -2.62656712108801   -0.87516351717166
N        43.94660729914193   -1.51416041393601   -0.14836433143987
C        45.46073460504051   -3.36888058792851   -0.64044837917317
C        46.62022956897205   -2.77722397456083   -0.14953828497758
C        47.68984840881931   -3.32745995073598    0.64404555479424
C        48.60315217877977   -2.32898896070430    0.79951871412961
C        48.10271404104714   -1.17165181392381    0.10050158244177
N        46.87120326385803   -1.44960078972489   -0.39947565699866
C        48.72124426449160    0.07728259092295   -0.12270795163455
C        48.01574393729818    1.26947872685852   -0.22100615463957
C        48.42783020727243    2.48780528141493   -0.87570724487251
C        47.46042085183994    3.40958474868617   -0.63229648552727
C        46.45017713721372    2.76865300949671    0.17836159976891
N        46.78097909839072    1.45901978877994    0.35247526954022
C        45.29269188917061    3.31203681776842    0.75027058228285
C        44.12417701624983    2.56503039030805    0.93041176262712
N        43.84104535868457    1.45842555593963    0.19733665151123
H        43.00927169316513    3.60878415023486    2.60387230780013
H        41.17905151334298    1.81172289916398    2.19090084219690
H        41.36012376587271   -1.84586147208464   -2.19907099265009
H        43.28828457601129   -3.67923320787561   -2.56453295664877
H        45.50607505854008   -4.43656885912736   -0.84170646406882
H        47.72404373870497   -4.29559727081334    1.11393233429346
H        49.47471954748706   -2.38502438906998    1.41647721620742
H        49.79514835847934    0.12801934647780   -0.23662883441252
H        49.28012851094257    2.62841013158973   -1.51599601149349
H        47.43303397758721    4.39171019638322   -1.05702576815366
H        45.28913751782886    4.34704667623672    1.06572776196517
C        16.87182712914481    0.01641209508753    0.00013057257182
C        18.11649454067571   -0.00824849906639   -0.01071705423939
C        19.44702072622238   -0.02605453598469   -0.01354052066277
C        20.68649423042193   -0.02763480660854   -0.01574955462812
C        22.00040894816155   -0.01101282290392   -0.01095192657978
C        23.22765917744427    0.05910682310700   -0.00639323972255
C        32.62193354071426    0.03677633497717    0.00063011968563
C        33.84736089411920   -0.01335599018392   -0.00447994011795
C        35.15837257587681   -0.02545807401461   -0.01432192815261
C        36.39616259002310   -0.02742998070529   -0.01548240187218
C        37.72596843309822   -0.01583254777441   -0.01494436249398
C        38.96927077586936    0.01237546315724   -0.00011667170379
Fe       27.94324100919694    0.03384151374596   -0.03432391723702
C        25.68425301506109   -3.28738121358772   -0.87448709956945