      -----------------------------------------------------------      
     |                   =====================                   |     
     |                           x T B                           |     
     |                   =====================                   |     
     |                         S. Grimme                         |     
     |          Mulliken Center for Theoretical Chemistry        |     
     |                    University of Bonn                     |     
      -----------------------------------------------------------      

   * xtb version 6.4.1 (bd6e46d) compiled by 'conda@4901f00b25ba' on 2021-06-10

   xtb is free software: you can redistribute it and/or modify it under
   the terms of the GNU Lesser General Public License as published by
   the Free Software Foundation, either version 3 of the License, or
   (at your option) any later version.
   
   xtb is distributed in the hope that it will be useful,
   but WITHOUT ANY WARRANTY; without even the implied warranty of
   MERCHANTABILITY or FITNESS FOR A PARTICULAR PURPOSE.  See the
   GNU Lesser General Public License for more details.
   
   Cite this work as:
   * C. Bannwarth, E. Caldeweyher, S. Ehlert, A. Hansen, P. Pracht,
     J. Seibert, S. Spicher, S. Grimme, WIREs Comput. Mol. Sci., 2020, 11,
     e01493. DOI: 10.1002/wcms.1493
   
   for GFN2-xTB:
   * C. Bannwarth, S. Ehlert and S. Grimme., J. Chem. Theory Comput., 2019,
     15, 1652-1671. DOI: 10.1021/acs.jctc.8b01176
   for GFN1-xTB:
   * S. Grimme, C. Bannwarth, P. Shushkov, J. Chem. Theory Comput., 2017,
     13, 1989-2009. DOI: 10.1021/acs.jctc.7b00118
   for GFN0-xTB:
   * P. Pracht, E. Caldeweyher, S. Ehlert, S. Grimme, ChemRxiv, 2019, preprint.
     DOI: 10.26434/chemrxiv.8326202.v1
   for GFN-FF:
   * S. Spicher and S. Grimme, Angew. Chem. Int. Ed., 2020, 59, 15665-15673.
     DOI: 10.1002/anie.202004239
   
   for DFT-D4:
   * E. Caldeweyher, C. Bannwarth and S. Grimme, J. Chem. Phys., 2017,
     147, 034112. DOI: 10.1063/1.4993215
   * E. Caldeweyher, S. Ehlert, A. Hansen, H. Neugebauer, S. Spicher,
     C. Bannwarth and S. Grimme, J. Chem. Phys., 2019, 150, 154122.
     DOI: 10.1063/1.5090222
   * E. Caldeweyher, J.-M. Mewes, S. Ehlert and S. Grimme, Phys. Chem. Chem. Phys.
     2020, 22, 8499-8512. DOI: 10.1039/D0CP00502A
   
   for sTDA-xTB:
   * S. Grimme and C. Bannwarth, J. Chem. Phys., 2016, 145, 054103.
     DOI: 10.1063/1.4959605
   
   in the mass-spec context:
   * V. Asgeirsson, C. Bauer and S. Grimme, Chem. Sci., 2017, 8, 4879.
     DOI: 10.1039/c7sc00601b
   * J. Koopman and S. Grimme, ACS Omega 2019, 4, 12, 15120-15133.
     DOI: 10.1021/acsomega.9b02011
   
   for metadynamics refer to:
   * S. Grimme, J. Chem. Theory Comput., 2019, 155, 2847-2862
     DOI: 10.1021/acs.jctc.9b00143
   
   for SPH calculations refer to:
   * S. Spicher and S. Grimme, J. Chem. Theory Comput., 2021, 17, 1701-1714
     DOI: 10.1021/acs.jctc.0c01306
   
   with help from (in alphabetical order)
   P. Atkinson, C. Bannwarth, F. Bohle, G. Brandenburg, E. Caldeweyher
   M. Checinski, S. Dohm, S. Ehlert, S. Ehrlich, I. Gerasimov, J. Koopman
   C. Lavigne, S. Lehtola, F. März, M. Müller, F. Musil, H. Neugebauer
   J. Pisarek, C. Plett, P. Pracht, J. Seibert, P. Shushkov, S. Spicher
   M. Stahn, M. Steiner, T. Strunk, J. Stückrath, T. Rose, and J. Unsleber
   
 * started run on 2021/11/20 at 16:00:05.271     

           -------------------------------------------------
          |                Calculation Setup                |
           -------------------------------------------------

          program call               : /home/jeff/miniconda3/bin/xtb /home/jeff/chem/final-year-proejct/Ni+2_4_6_outenergy/input_structure.xyz --gfn 2 --parallel 1 --etemp 300 --chrg 0 --uhf 0 -I det_control.in
          coordinate file            : /home/jeff/chem/final-year-proejct/Ni+2_4_6_outenergy/input_structure.xyz
          omp threads                :                     1
          number of atoms            :                   232
          number of electrons        :                   802
          charge                     :                     0
          spin                       :                   0.0
          first test random number   :      0.69542348033514

   ID    Z sym.   atoms
    1   28 Ni     1, 37, 93, 128, 163, 198
    2    6 C      2-9, 11-15, 17-21, 23, 24, 38-45, 47-51, 53-57, 59, 60,
                  73-92, 94-101, 103-107, 109-113, 115, 116, 129-136,
                  138-142, 144-148, 150, 151, 164-171, 173-177, 179-183, 185,
                  186, 199-206, 208-212, 214-218, 220, 221
    3    7 N      10, 16, 22, 25, 46, 52, 58, 61, 102, 108, 114, 117, 137,
                  143, 149, 152, 172, 178, 184, 187, 207, 213, 219, 222
    4    1 H      26-36, 62-72, 118-127, 153-162, 188-197, 223-232

           -------------------------------------------------
          |                 G F N 2 - x T B                 |
           -------------------------------------------------

        Reference                      10.1021/acs.jctc.8b01176
      * Hamiltonian:
        H0-scaling (s, p, d)           1.850000    2.230000    2.230000
        zeta-weighting                 0.500000
      * Dispersion:
        s8                             2.700000
        a1                             0.520000
        a2                             5.000000
        s9                             5.000000
      * Repulsion:
        kExp                           1.500000    1.000000
        rExp                           1.000000
      * Coulomb:
        alpha                          2.000000
        third order                    shell-resolved
        anisotropic                    true
        a3                             3.000000
        a5                             4.000000
        cn-shift                       1.200000
        cn-exp                         4.000000
        max-rad                        5.000000


          ...................................................
          :                      SETUP                      :
          :.................................................:
          :  # basis functions                 778          :
          :  # atomic orbitals                 772          :
          :  # shells                          408          :
          :  # electrons                       802          :
          :  max. iterations                   250          :
          :  Hamiltonian                  GFN2-xTB          :
          :  restarted?                      false          :
          :  GBSA solvation                  false          :
          :  PC potential                    false          :
          :  electronic temp.          300.0000000     K    :
          :  accuracy                    1.0000000          :
          :  -> integral cutoff          0.2500000E+02      :
          :  -> integral neglect         0.1000000E-07      :
          :  -> SCF convergence          0.1000000E-05 Eh   :
          :  -> wf. convergence          0.1000000E-03 e    :
          :  Broyden damping             0.4000000          :
          ...................................................

 iter      E             dE          RMSdq      gap      omega  full diag
   1   -437.6199337 -0.437620E+03  0.790E+00    0.65       0.0  T
   2   -438.1530156 -0.533082E+00  0.428E+00    0.93       1.0  T
   3   -438.0899720  0.630436E-01  0.120E+00    0.81       1.0  T
   4   -438.1119932 -0.220212E-01  0.624E-01    0.97       1.0  T
   5   -438.1757391 -0.637459E-01  0.299E-01    0.93       1.0  T
   6   -438.1857851 -0.100460E-01  0.194E-01    0.94       1.0  T
   7   -438.1835337  0.225135E-02  0.137E-01    0.95       1.0  T
   8   -438.1888648 -0.533111E-02  0.293E-02    0.94       1.0  T
   9   -438.1889963 -0.131503E-03  0.153E-02    0.94       1.0  T
  10   -438.1890281 -0.317246E-04  0.858E-03    0.94       1.0  T
  11   -438.1890483 -0.202547E-04  0.312E-03    0.94       2.1  T
  12   -438.1890493 -0.957974E-06  0.226E-03    0.94       2.9  T
  13   -438.1890503 -0.971934E-06  0.114E-03    0.94       5.7  T
  14   -438.1890504 -0.109951E-06  0.660E-04    0.94      10.0  T
  15   -438.1890504 -0.560157E-07  0.410E-04    0.94      16.0  T

   *** convergence criteria satisfied after 15 iterations ***

         #    Occupation            Energy/Eh            Energy/eV
      -------------------------------------------------------------
         1        2.0000           -0.6774608             -18.4346
       ...           ...                  ...                  ...
       395        2.0000           -0.3629935              -9.8776
       396        2.0000           -0.3629902              -9.8775
       397        2.0000           -0.3615299              -9.8377
       398        2.0000           -0.3613578              -9.8330
       399        2.0000           -0.3613472              -9.8328
       400        2.0000           -0.3564797              -9.7003
       401        2.0000           -0.3529746              -9.6049 (HOMO)
       402                         -0.3184259              -8.6648 (LUMO)
       403                         -0.3141727              -8.5491
       404                         -0.3087167              -8.4006
       405                         -0.3028518              -8.2410
       406                         -0.3011942              -8.1959
       ...                                ...                  ...
       772                          1.6356237              44.5076
      -------------------------------------------------------------
                  HL-Gap            0.0345487 Eh            0.9401 eV
             Fermi-level           -0.3356937 Eh           -9.1347 eV

 SCC (total)                   0 d,  0 h,  0 min,  3.286 sec
 SCC setup                      ...        0 min,  0.009 sec (  0.283%)
 Dispersion                     ...        0 min,  0.021 sec (  0.635%)
 classical contributions        ...        0 min,  0.002 sec (  0.056%)
 integral evaluation            ...        0 min,  0.156 sec (  4.757%)
 iterations                     ...        0 min,  2.634 sec ( 80.171%)
 molecular gradient             ...        0 min,  0.441 sec ( 13.422%)
 printout                       ...        0 min,  0.022 sec (  0.675%)

         :::::::::::::::::::::::::::::::::::::::::::::::::::::
         ::                     SUMMARY                     ::
         :::::::::::::::::::::::::::::::::::::::::::::::::::::
         :: total energy            -430.521480239512 Eh    ::
         :: gradient norm              0.000695256619 Eh/a0 ::
         :: HOMO-LUMO gap              0.940117961492 eV    ::
         ::.................................................::
         :: SCC energy              -438.189050423562 Eh    ::
         :: -> isotropic ES            0.124208611075 Eh    ::
         :: -> anisotropic ES          0.030526814745 Eh    ::
         :: -> anisotropic XC          0.187807246652 Eh    ::
         :: -> dispersion             -0.384512789827 Eh    ::
         :: repulsion energy           7.674336112492 Eh    ::
         :: add. restraining           0.000000000000 Eh    ::
         :: total charge               0.000000000357 e     ::
         :::::::::::::::::::::::::::::::::::::::::::::::::::::

           -------------------------------------------------
          |                Property Printout                |
           -------------------------------------------------

    * Orbital Energies and Occupations

         #    Occupation            Energy/Eh            Energy/eV
      -------------------------------------------------------------
         1        2.0000           -0.6774608             -18.4346
       ...           ...                  ...                  ...
       389        2.0000           -0.3672660              -9.9938
       390        2.0000           -0.3672635              -9.9937
       391        2.0000           -0.3672522              -9.9934
       392        2.0000           -0.3670738              -9.9886
       393        2.0000           -0.3632669              -9.8850
       394        2.0000           -0.3632657              -9.8850
       395        2.0000           -0.3629935              -9.8776
       396        2.0000           -0.3629902              -9.8775
       397        2.0000           -0.3615299              -9.8377
       398        2.0000           -0.3613578              -9.8330
       399        2.0000           -0.3613472              -9.8328
       400        2.0000           -0.3564797              -9.7003
       401        2.0000           -0.3529746              -9.6049 (HOMO)
       402                         -0.3184259              -8.6648 (LUMO)
       403                         -0.3141727              -8.5491
       404                         -0.3087167              -8.4006
       405                         -0.3028518              -8.2410
       406                         -0.3011942              -8.1959
       407                         -0.3011920              -8.1959
       408                         -0.3010790              -8.1928
       409                         -0.3010775              -8.1927
       410                         -0.3009280              -8.1887
       411                         -0.3009130              -8.1883
       412                         -0.3008250              -8.1859
       ...                                ...                  ...
       772                          1.6356237              44.5076
      -------------------------------------------------------------
                  HL-Gap            0.0345487 Eh            0.9401 eV
             Fermi-level           -0.3356937 Eh           -9.1347 eV

     #   Z          covCN         q      C6AA      α(0)
     1  28 Ni       3.021    -0.292   189.384    28.395
     2   6 C        3.024    -0.052    29.268     8.874
     3   6 C        3.021    -0.050    29.228     8.868
     4   6 C        3.186     0.074    25.915     8.307
     5   6 C        2.956     0.026    27.433     8.591
     6   6 C        3.186     0.074    25.915     8.306
     7   6 C        3.021    -0.050    29.227     8.868
     8   6 C        3.024    -0.052    29.267     8.874
     9   6 C        3.172     0.073    26.004     8.330
    10   7 N        2.624    -0.048    22.177     6.994
    11   6 C        2.904    -0.041    29.028     8.834
    12   6 C        3.168     0.074    25.997     8.331
    13   6 C        3.020    -0.051    29.247     8.871
    14   6 C        3.021    -0.051    29.248     8.871
    15   6 C        3.168     0.075    25.992     8.330
    16   7 N        2.625    -0.047    22.157     6.991
    17   6 C        2.904    -0.043    29.070     8.841
    18   6 C        3.168     0.075    25.992     8.330
    19   6 C        3.021    -0.051    29.248     8.871
    20   6 C        3.020    -0.051    29.247     8.871
    21   6 C        3.168     0.074    25.997     8.331
    22   7 N        2.625    -0.047    22.157     6.991
    23   6 C        2.904    -0.041    29.028     8.834
    24   6 C        3.172     0.073    26.005     8.330
    25   7 N        2.625    -0.048    22.176     6.994
    26   1 H        0.926     0.035     2.511     2.478
    27   1 H        0.926     0.037     2.487     2.466
    28   1 H        0.926     0.037     2.487     2.466
    29   1 H        0.926     0.035     2.512     2.478
    30   1 H        0.926     0.049     2.330     2.387
    31   1 H        0.926     0.036     2.504     2.475
    32   1 H        0.926     0.036     2.506     2.475
    33   1 H        0.926     0.049     2.338     2.391
    34   1 H        0.926     0.036     2.506     2.475
    35   1 H        0.926     0.036     2.504     2.475
    36   1 H        0.926     0.049     2.330     2.387
    37  28 Ni       3.021    -0.292   189.384    28.395
    38   6 C        3.024    -0.052    29.268     8.874
    39   6 C        3.021    -0.051    29.229     8.868
    40   6 C        3.186     0.074    25.916     8.307
    41   6 C        2.956     0.026    27.433     8.591
    42   6 C        3.186     0.074    25.915     8.307
    43   6 C        3.021    -0.050    29.227     8.868
    44   6 C        3.024    -0.052    29.268     8.874
    45   6 C        3.172     0.073    26.004     8.330
    46   7 N        2.625    -0.048    22.177     6.994
    47   6 C        2.904    -0.041    29.029     8.834
    48   6 C        3.168     0.074    25.997     8.331
    49   6 C        3.020    -0.051    29.247     8.871
    50   6 C        3.021    -0.051    29.248     8.871
    51   6 C        3.168     0.075    25.992     8.330
    52   7 N        2.625    -0.047    22.157     6.991
    53   6 C        2.904    -0.043    29.070     8.841
    54   6 C        3.168     0.075    25.992     8.330
    55   6 C        3.021    -0.051    29.248     8.871
    56   6 C        3.020    -0.051    29.247     8.871
    57   6 C        3.168     0.074    25.997     8.331
    58   7 N        2.625    -0.047    22.157     6.991
    59   6 C        2.904    -0.041    29.028     8.834
    60   6 C        3.172     0.073    26.005     8.330
    61   7 N        2.625    -0.048    22.176     6.994
    62   1 H        0.926     0.035     2.511     2.478
    63   1 H        0.926     0.037     2.486     2.466
    64   1 H        0.926     0.037     2.486     2.466
    65   1 H        0.926     0.035     2.512     2.478
    66   1 H        0.926     0.049     2.330     2.387
    67   1 H        0.926     0.036     2.504     2.475
    68   1 H        0.926     0.036     2.506     2.475
    69   1 H        0.926     0.049     2.338     2.391
    70   1 H        0.926     0.036     2.506     2.475
    71   1 H        0.926     0.036     2.505     2.475
    72   1 H        0.926     0.049     2.330     2.387
    73   6 C        1.992    -0.021    31.600     9.078
    74   6 C        1.963    -0.009    31.312     9.037
    75   6 C        1.963    -0.008    31.293     9.034
    76   6 C        1.992    -0.022    31.622     9.081
    77   6 C        1.993    -0.021    31.605     9.079
    78   6 C        1.964    -0.009    31.303     9.035
    79   6 C        1.964    -0.009    31.298     9.034
    80   6 C        1.993    -0.021    31.611     9.080
    81   6 C        1.993    -0.021    31.607     9.079
    82   6 C        1.964    -0.009    31.300     9.035
    83   6 C        1.964    -0.009    31.300     9.035
    84   6 C        1.993    -0.021    31.607     9.079
    85   6 C        1.993    -0.021    31.611     9.080
    86   6 C        1.964    -0.009    31.298     9.034
    87   6 C        1.964    -0.009    31.303     9.035
    88   6 C        1.993    -0.021    31.606     9.079
    89   6 C        1.992    -0.022    31.621     9.081
    90   6 C        1.963    -0.008    31.292     9.034
    91   6 C        1.963    -0.009    31.311     9.036
    92   6 C        1.992    -0.021    31.599     9.078
    93  28 Ni       3.015    -0.286   189.257    28.386
    94   6 C        3.024    -0.052    29.264     8.873
    95   6 C        3.022    -0.050    29.225     8.868
    96   6 C        3.187     0.074    25.901     8.303
    97   6 C        2.956     0.026    27.425     8.590
    98   6 C        3.187     0.074    25.900     8.303
    99   6 C        3.022    -0.050    29.224     8.868
   100   6 C        3.024    -0.052    29.264     8.873
   101   6 C        3.174     0.073    25.998     8.328
   102   7 N        2.623    -0.049    22.209     6.999
   103   6 C        2.904    -0.039    28.979     8.827
   104   6 C        3.174     0.073    25.998     8.328
   105   6 C        3.024    -0.052    29.262     8.873
   106   6 C        3.022    -0.050    29.227     8.868
   107   6 C        3.188     0.074    25.895     8.302
   108   7 N        2.623    -0.050    22.212     7.000
   109   6 C        2.956     0.025    27.433     8.591
   110   6 C        3.188     0.074    25.895     8.302
   111   6 C        3.022    -0.050    29.228     8.868
   112   6 C        3.024    -0.052    29.262     8.873
   113   6 C        3.174     0.073    25.998     8.328
   114   7 N        2.623    -0.050    22.212     6.999
   115   6 C        2.904    -0.039    28.979     8.827
   116   6 C        3.174     0.073    25.999     8.328
   117   7 N        2.623    -0.049    22.208     6.999
   118   1 H        0.926     0.035     2.510     2.477
   119   1 H        0.926     0.037     2.485     2.465
   120   1 H        0.926     0.037     2.485     2.465
   121   1 H        0.926     0.035     2.510     2.478
   122   1 H        0.926     0.050     2.322     2.383
   123   1 H        0.926     0.035     2.510     2.478
   124   1 H        0.926     0.037     2.487     2.466
   125   1 H        0.926     0.037     2.487     2.466
   126   1 H        0.926     0.035     2.510     2.478
   127   1 H        0.926     0.050     2.322     2.383
   128  28 Ni       3.015    -0.286   189.252    28.385
   129   6 C        3.024    -0.052    29.262     8.873
   130   6 C        3.022    -0.050    29.226     8.868
   131   6 C        3.188     0.074    25.895     8.302
   132   6 C        2.956     0.026    27.428     8.590
   133   6 C        3.188     0.074    25.895     8.302
   134   6 C        3.022    -0.050    29.226     8.868
   135   6 C        3.024    -0.052    29.262     8.873
   136   6 C        3.174     0.073    25.997     8.328
   137   7 N        2.623    -0.049    22.209     6.999
   138   6 C        2.904    -0.039    28.977     8.826
   139   6 C        3.174     0.073    25.997     8.327
   140   6 C        3.024    -0.052    29.262     8.873
   141   6 C        3.022    -0.050    29.227     8.868
   142   6 C        3.188     0.074    25.893     8.302
   143   7 N        2.623    -0.050    22.211     6.999
   144   6 C        2.956     0.026    27.430     8.590
   145   6 C        3.188     0.074    25.893     8.301
   146   6 C        3.022    -0.050    29.227     8.868
   147   6 C        3.024    -0.052    29.262     8.873
   148   6 C        3.174     0.073    25.997     8.327
   149   7 N        2.623    -0.050    22.211     6.999
   150   6 C        2.904    -0.039    28.977     8.826
   151   6 C        3.174     0.073    25.997     8.328
   152   7 N        2.623    -0.049    22.209     6.999
   153   1 H        0.926     0.036     2.509     2.477
   154   1 H        0.926     0.037     2.486     2.465
   155   1 H        0.926     0.037     2.486     2.465
   156   1 H        0.926     0.036     2.509     2.477
   157   1 H        0.926     0.050     2.321     2.382
   158   1 H        0.926     0.036     2.509     2.477
   159   1 H        0.926     0.037     2.486     2.466
   160   1 H        0.926     0.037     2.486     2.466
   161   1 H        0.926     0.036     2.509     2.477
   162   1 H        0.926     0.050     2.321     2.382
   163  28 Ni       3.015    -0.286   189.252    28.385
   164   6 C        3.024    -0.052    29.262     8.873
   165   6 C        3.022    -0.050    29.227     8.868
   166   6 C        3.188     0.074    25.893     8.302
   167   6 C        2.956     0.026    27.430     8.590
   168   6 C        3.188     0.074    25.893     8.301
   169   6 C        3.022    -0.050    29.226     8.868
   170   6 C        3.024    -0.052    29.262     8.873
   171   6 C        3.174     0.073    25.996     8.327
   172   7 N        2.623    -0.050    22.212     6.999
   173   6 C        2.904    -0.039    28.977     8.826
   174   6 C        3.174     0.073    25.997     8.328
   175   6 C        3.024    -0.052    29.262     8.873
   176   6 C        3.022    -0.050    29.226     8.868
   177   6 C        3.188     0.074    25.896     8.302
   178   7 N        2.623    -0.049    22.208     6.999
   179   6 C        2.956     0.026    27.428     8.590
   180   6 C        3.188     0.074    25.895     8.302
   181   6 C        3.022    -0.050    29.226     8.868
   182   6 C        3.024    -0.052    29.262     8.873
   183   6 C        3.174     0.073    25.997     8.328
   184   7 N        2.623    -0.049    22.209     6.999
   185   6 C        2.904    -0.039    28.977     8.826
   186   6 C        3.174     0.073    25.998     8.328
   187   7 N        2.623    -0.049    22.210     6.999
   188   1 H        0.926     0.036     2.509     2.477
   189   1 H        0.926     0.037     2.486     2.466
   190   1 H        0.926     0.037     2.486     2.466
   191   1 H        0.926     0.035     2.510     2.477
   192   1 H        0.926     0.050     2.321     2.382
   193   1 H        0.926     0.036     2.509     2.477
   194   1 H        0.926     0.037     2.486     2.465
   195   1 H        0.926     0.037     2.486     2.465
   196   1 H        0.926     0.036     2.509     2.477
   197   1 H        0.926     0.050     2.321     2.382
   198  28 Ni       3.015    -0.286   189.257    28.386
   199   6 C        3.024    -0.052    29.262     8.873
   200   6 C        3.022    -0.050    29.227     8.868
   201   6 C        3.188     0.074    25.895     8.302
   202   6 C        2.956     0.025    27.433     8.591
   203   6 C        3.188     0.074    25.896     8.302
   204   6 C        3.022    -0.050    29.227     8.868
   205   6 C        3.024    -0.052    29.262     8.873
   206   6 C        3.174     0.073    25.999     8.328
   207   7 N        2.623    -0.050    22.212     7.000
   208   6 C        2.904    -0.039    28.979     8.827
   209   6 C        3.173     0.073    25.999     8.328
   210   6 C        3.024    -0.052    29.264     8.873
   211   6 C        3.022    -0.050    29.225     8.868
   212   6 C        3.187     0.074    25.901     8.303
   213   7 N        2.623    -0.049    22.209     6.999
   214   6 C        2.956     0.026    27.425     8.590
   215   6 C        3.187     0.074    25.902     8.303
   216   6 C        3.022    -0.050    29.225     8.868
   217   6 C        3.024    -0.052    29.264     8.873
   218   6 C        3.174     0.073    25.998     8.328
   219   7 N        2.623    -0.049    22.209     6.999
   220   6 C        2.904    -0.039    28.980     8.827
   221   6 C        3.174     0.073    25.998     8.328
   222   7 N        2.623    -0.050    22.211     6.999
   223   1 H        0.926     0.035     2.510     2.478
   224   1 H        0.926     0.037     2.487     2.466
   225   1 H        0.926     0.037     2.487     2.466
   226   1 H        0.926     0.035     2.510     2.478
   227   1 H        0.926     0.050     2.322     2.383
   228   1 H        0.926     0.035     2.510     2.477
   229   1 H        0.926     0.037     2.485     2.465
   230   1 H        0.926     0.037     2.485     2.465
   231   1 H        0.926     0.035     2.510     2.477
   232   1 H        0.926     0.050     2.322     2.383

 Mol. C6AA /au·bohr⁶  :    1070534.043093
 Mol. C8AA /au·bohr⁸  :   31465328.721710
 Mol. α(0) /au        :       1706.055981


Wiberg/Mayer (AO) data.
largest (>0.10) Wiberg bond orders for each atom

 ---------------------------------------------------------------------------
     #   Z sym  total        # sym  WBO       # sym  WBO       # sym  WBO
 ---------------------------------------------------------------------------
     1  28 Ni   3.475 --    25 N    0.753    10 N    0.753    16 N    0.751
                            22 N    0.751
     2   6 C    3.953 --     3 C    1.646    24 C    1.170    26 H    0.972
     3   6 C    3.957 --     2 C    1.646     4 C    1.178    27 H    0.970
     4   6 C    3.917 --    25 N    1.262     5 C    1.253     3 C    1.178
     5   6 C    3.945 --     6 C    1.253     4 C    1.253    73 C    1.180
     6   6 C    3.917 --    10 N    1.262     5 C    1.253     7 C    1.178
     7   6 C    3.957 --     8 C    1.646     6 C    1.178    28 H    0.970
     8   6 C    3.953 --     7 C    1.646     9 C    1.170    29 H    0.972
     9   6 C    3.930 --    11 C    1.356    10 N    1.227     8 C    1.170
    10   7 N    3.577 --     6 C    1.262     9 C    1.227     1 Ni   0.753
    11   6 C    3.935 --     9 C    1.356    12 C    1.353    30 H    0.964
    12   6 C    3.935 --    11 C    1.353    16 N    1.240    13 C    1.161
    13   6 C    3.957 --    14 C    1.661    12 C    1.161    31 H    0.972
    14   6 C    3.955 --    13 C    1.661    15 C    1.161    32 H    0.972
    15   6 C    3.937 --    17 C    1.353    16 N    1.242    14 C    1.161
    16   7 N    3.571 --    15 C    1.242    12 C    1.240     1 Ni   0.751
    17   6 C    3.931 --    15 C    1.353    18 C    1.353    33 H    0.964
    18   6 C    3.937 --    17 C    1.353    22 N    1.242    19 C    1.161
    19   6 C    3.955 --    20 C    1.661    18 C    1.161    34 H    0.972
    20   6 C    3.957 --    19 C    1.661    21 C    1.161    35 H    0.972
    21   6 C    3.935 --    23 C    1.353    22 N    1.240    20 C    1.161
    22   7 N    3.571 --    18 C    1.242    21 C    1.240     1 Ni   0.751
    23   6 C    3.935 --    24 C    1.356    21 C    1.353    36 H    0.964
    24   6 C    3.930 --    23 C    1.356    25 N    1.227     2 C    1.170
    25   7 N    3.577 --     4 C    1.262    24 C    1.227     1 Ni   0.753
    26   1 H    0.998 --     2 C    0.972
    27   1 H    0.998 --     3 C    0.970
    28   1 H    0.998 --     7 C    0.970
    29   1 H    0.998 --     8 C    0.972
    30   1 H    0.996 --    11 C    0.964
    31   1 H    0.998 --    13 C    0.972
    32   1 H    0.998 --    14 C    0.972
    33   1 H    0.997 --    17 C    0.964
    34   1 H    0.998 --    19 C    0.972
    35   1 H    0.998 --    20 C    0.972
    36   1 H    0.996 --    23 C    0.964
    37  28 Ni   3.475 --    61 N    0.753    46 N    0.753    52 N    0.751
                            58 N    0.751
    38   6 C    3.953 --    39 C    1.646    60 C    1.170    62 H    0.972
    39   6 C    3.957 --    38 C    1.646    40 C    1.178    63 H    0.970
    40   6 C    3.917 --    61 N    1.262    41 C    1.253    39 C    1.178
    41   6 C    3.945 --    42 C    1.253    40 C    1.253    92 C    1.179
    42   6 C    3.917 --    46 N    1.262    41 C    1.253    43 C    1.178
    43   6 C    3.957 --    44 C    1.646    42 C    1.178    64 H    0.970
    44   6 C    3.953 --    43 C    1.646    45 C    1.169    65 H    0.972
    45   6 C    3.930 --    47 C    1.356    46 N    1.227    44 C    1.169
    46   7 N    3.577 --    42 C    1.262    45 C    1.227    37 Ni   0.753
    47   6 C    3.935 --    45 C    1.356    48 C    1.353    66 H    0.964
    48   6 C    3.935 --    47 C    1.353    52 N    1.240    49 C    1.161
    49   6 C    3.957 --    50 C    1.661    48 C    1.161    67 H    0.972
    50   6 C    3.955 --    49 C    1.661    51 C    1.161    68 H    0.972
    51   6 C    3.937 --    53 C    1.353    52 N    1.242    50 C    1.161
    52   7 N    3.571 --    51 C    1.242    48 C    1.240    37 Ni   0.751
    53   6 C    3.931 --    51 C    1.353    54 C    1.353    69 H    0.964
    54   6 C    3.937 --    53 C    1.353    58 N    1.242    55 C    1.161
    55   6 C    3.955 --    56 C    1.661    54 C    1.161    70 H    0.972
    56   6 C    3.957 --    55 C    1.661    57 C    1.161    71 H    0.972
    57   6 C    3.935 --    59 C    1.353    58 N    1.240    56 C    1.161
    58   7 N    3.571 --    54 C    1.242    57 C    1.240    37 Ni   0.751
    59   6 C    3.935 --    60 C    1.356    57 C    1.353    72 H    0.964
    60   6 C    3.930 --    59 C    1.356    61 N    1.227    38 C    1.170
    61   7 N    3.577 --    40 C    1.262    60 C    1.227    37 Ni   0.753
    62   1 H    0.998 --    38 C    0.972
    63   1 H    0.998 --    39 C    0.970
    64   1 H    0.998 --    43 C    0.970
    65   1 H    0.998 --    44 C    0.972
    66   1 H    0.996 --    47 C    0.964
    67   1 H    0.998 --    49 C    0.972
    68   1 H    0.998 --    50 C    0.972
    69   1 H    0.997 --    53 C    0.964
    70   1 H    0.998 --    55 C    0.972
    71   1 H    0.998 --    56 C    0.972
    72   1 H    0.996 --    59 C    0.964
    73   6 C    3.919 --    74 C    2.476     5 C    1.180    76 C    0.204
    74   6 C    3.931 --    73 C    2.476    75 C    1.302
    75   6 C    3.928 --    76 C    2.474    74 C    1.302
    76   6 C    3.921 --    75 C    2.474    97 C    1.182    73 C    0.204
    77   6 C    3.919 --    78 C    2.471   109 C    1.183    80 C    0.203
    78   6 C    3.928 --    77 C    2.471    79 C    1.304
    79   6 C    3.927 --    80 C    2.471    78 C    1.304
    80   6 C    3.919 --    79 C    2.471   132 C    1.183    77 C    0.203
    81   6 C    3.919 --    82 C    2.471   144 C    1.184    84 C    0.204
    82   6 C    3.928 --    81 C    2.471    83 C    1.304
    83   6 C    3.928 --    84 C    2.471    82 C    1.304
    84   6 C    3.919 --    83 C    2.471   167 C    1.184    81 C    0.204
    85   6 C    3.919 --    86 C    2.471   179 C    1.183    88 C    0.203
    86   6 C    3.928 --    85 C    2.471    87 C    1.304
    87   6 C    3.928 --    88 C    2.472    86 C    1.304
    88   6 C    3.919 --    87 C    2.472   202 C    1.183    85 C    0.203
    89   6 C    3.920 --    90 C    2.475   214 C    1.181    92 C    0.204
    90   6 C    3.928 --    89 C    2.475    91 C    1.301
    91   6 C    3.931 --    92 C    2.477    90 C    1.301
    92   6 C    3.919 --    91 C    2.477    41 C    1.179    89 C    0.204
    93  28 Ni   3.459 --   102 N    0.749   117 N    0.749   108 N    0.749
                           114 N    0.749
    94   6 C    3.953 --    95 C    1.644   116 C    1.171   118 H    0.972
    95   6 C    3.955 --    94 C    1.644    96 C    1.179   119 H    0.970
    96   6 C    3.918 --   117 N    1.264    97 C    1.250    95 C    1.179
    97   6 C    3.934 --    98 C    1.251    96 C    1.250    76 C    1.182
    98   6 C    3.918 --   102 N    1.264    97 C    1.251    99 C    1.179
    99   6 C    3.955 --   100 C    1.644    98 C    1.179   120 H    0.970
   100   6 C    3.953 --    99 C    1.644   101 C    1.171   121 H    0.972
   101   6 C    3.928 --   103 C    1.354   102 N    1.226   100 C    1.171
   102   7 N    3.568 --    98 C    1.264   101 C    1.226    93 Ni   0.749
   103   6 C    3.930 --   104 C    1.355   101 C    1.354   122 H    0.963
   104   6 C    3.929 --   103 C    1.355   108 N    1.225   105 C    1.171
   105   6 C    3.953 --   106 C    1.644   104 C    1.171   123 H    0.972
   106   6 C    3.955 --   105 C    1.644   107 C    1.179   124 H    0.970
   107   6 C    3.917 --   108 N    1.265   109 C    1.250   106 C    1.179
   108   7 N    3.568 --   107 C    1.265   104 C    1.225    93 Ni   0.749
   109   6 C    3.934 --   107 C    1.250   110 C    1.250    77 C    1.183
   110   6 C    3.917 --   114 N    1.265   109 C    1.250   111 C    1.179
   111   6 C    3.955 --   112 C    1.644   110 C    1.179   125 H    0.970
   112   6 C    3.953 --   111 C    1.644   113 C    1.171   126 H    0.972
   113   6 C    3.929 --   115 C    1.355   114 N    1.225   112 C    1.171
   114   7 N    3.568 --   110 C    1.265   113 C    1.225    93 Ni   0.749
   115   6 C    3.930 --   113 C    1.355   116 C    1.354   127 H    0.963
   116   6 C    3.928 --   115 C    1.354   117 N    1.226    94 C    1.171
   117   7 N    3.568 --    96 C    1.264   116 C    1.226    93 Ni   0.749
   118   1 H    0.998 --    94 C    0.972
   119   1 H    0.998 --    95 C    0.970
   120   1 H    0.998 --    99 C    0.970
   121   1 H    0.998 --   100 C    0.972
   122   1 H    0.996 --   103 C    0.963
   123   1 H    0.998 --   105 C    0.972
   124   1 H    0.998 --   106 C    0.970
   125   1 H    0.998 --   111 C    0.970
   126   1 H    0.998 --   112 C    0.972
   127   1 H    0.996 --   115 C    0.963
   128  28 Ni   3.458 --   137 N    0.749   152 N    0.749   149 N    0.749
                           143 N    0.749
   129   6 C    3.953 --   130 C    1.644   151 C    1.171   153 H    0.972
   130   6 C    3.955 --   129 C    1.644   131 C    1.179   154 H    0.970
   131   6 C    3.917 --   152 N    1.265   132 C    1.250   130 C    1.179
   132   6 C    3.934 --   131 C    1.250   133 C    1.250    80 C    1.183
   133   6 C    3.917 --   137 N    1.265   132 C    1.250   134 C    1.179
   134   6 C    3.955 --   135 C    1.644   133 C    1.179   155 H    0.970
   135   6 C    3.953 --   134 C    1.644   136 C    1.171   156 H    0.972
   136   6 C    3.928 --   138 C    1.355   137 N    1.225   135 C    1.171
   137   7 N    3.568 --   133 C    1.265   136 C    1.225   128 Ni   0.749
   138   6 C    3.929 --   139 C    1.355   136 C    1.355   157 H    0.963
   139   6 C    3.928 --   138 C    1.355   143 N    1.225   140 C    1.171
   140   6 C    3.953 --   141 C    1.644   139 C    1.171   158 H    0.972
   141   6 C    3.955 --   140 C    1.644   142 C    1.179   159 H    0.970
   142   6 C    3.917 --   143 N    1.265   144 C    1.249   141 C    1.179
   143   7 N    3.568 --   142 C    1.265   139 C    1.225   128 Ni   0.749
   144   6 C    3.934 --   145 C    1.250   142 C    1.249    81 C    1.184
   145   6 C    3.917 --   149 N    1.265   144 C    1.250   146 C    1.179
   146   6 C    3.955 --   147 C    1.644   145 C    1.179   160 H    0.970
   147   6 C    3.953 --   146 C    1.644   148 C    1.171   161 H    0.972
   148   6 C    3.928 --   150 C    1.355   149 N    1.225   147 C    1.171
   149   7 N    3.568 --   145 C    1.265   148 C    1.225   128 Ni   0.749
   150   6 C    3.929 --   148 C    1.355   151 C    1.355   162 H    0.963
   151   6 C    3.928 --   150 C    1.355   152 N    1.225   129 C    1.171
   152   7 N    3.568 --   131 C    1.265   151 C    1.225   128 Ni   0.749
   153   1 H    0.998 --   129 C    0.972
   154   1 H    0.998 --   130 C    0.970
   155   1 H    0.998 --   134 C    0.970
   156   1 H    0.998 --   135 C    0.972
   157   1 H    0.996 --   138 C    0.963
   158   1 H    0.998 --   140 C    0.972
   159   1 H    0.998 --   141 C    0.970
   160   1 H    0.998 --   146 C    0.970
   161   1 H    0.998 --   147 C    0.972
   162   1 H    0.996 --   150 C    0.963
   163  28 Ni   3.458 --   178 N    0.749   184 N    0.749   187 N    0.749
                           172 N    0.749
   164   6 C    3.953 --   165 C    1.644   186 C    1.171   188 H    0.972
   165   6 C    3.955 --   164 C    1.644   166 C    1.179   189 H    0.970
   166   6 C    3.917 --   187 N    1.265   167 C    1.249   165 C    1.179
   167   6 C    3.934 --   168 C    1.250   166 C    1.249    84 C    1.184
   168   6 C    3.917 --   172 N    1.265   167 C    1.250   169 C    1.179
   169   6 C    3.955 --   170 C    1.644   168 C    1.179   190 H    0.970
   170   6 C    3.953 --   169 C    1.644   171 C    1.171   191 H    0.972
   171   6 C    3.928 --   173 C    1.355   172 N    1.225   170 C    1.171
   172   7 N    3.568 --   168 C    1.265   171 C    1.225   163 Ni   0.749
   173   6 C    3.929 --   171 C    1.355   174 C    1.354   192 H    0.963
   174   6 C    3.928 --   173 C    1.354   178 N    1.225   175 C    1.171
   175   6 C    3.953 --   176 C    1.644   174 C    1.171   193 H    0.972
   176   6 C    3.955 --   175 C    1.644   177 C    1.179   194 H    0.970
   177   6 C    3.917 --   178 N    1.265   179 C    1.250   176 C    1.179
   178   7 N    3.568 --   177 C    1.265   174 C    1.225   163 Ni   0.749
   179   6 C    3.934 --   177 C    1.250   180 C    1.250    85 C    1.183
   180   6 C    3.917 --   184 N    1.265   179 C    1.250   181 C    1.179
   181   6 C    3.955 --   182 C    1.644   180 C    1.179   195 H    0.970
   182   6 C    3.953 --   181 C    1.644   183 C    1.171   196 H    0.972
   183   6 C    3.928 --   185 C    1.355   184 N    1.225   182 C    1.171
   184   7 N    3.568 --   180 C    1.265   183 C    1.225   163 Ni   0.749
   185   6 C    3.929 --   186 C    1.355   183 C    1.355   197 H    0.963
   186   6 C    3.928 --   185 C    1.355   187 N    1.225   164 C    1.171
   187   7 N    3.568 --   166 C    1.265   186 C    1.225   163 Ni   0.749
   188   1 H    0.998 --   164 C    0.972
   189   1 H    0.998 --   165 C    0.970
   190   1 H    0.998 --   169 C    0.970
   191   1 H    0.998 --   170 C    0.972
   192   1 H    0.996 --   173 C    0.963
   193   1 H    0.998 --   175 C    0.972
   194   1 H    0.998 --   176 C    0.970
   195   1 H    0.998 --   181 C    0.970
   196   1 H    0.998 --   182 C    0.972
   197   1 H    0.996 --   185 C    0.963
   198  28 Ni   3.459 --   213 N    0.749   219 N    0.749   222 N    0.749
                           207 N    0.749
   199   6 C    3.953 --   200 C    1.644   221 C    1.171   223 H    0.972
   200   6 C    3.955 --   199 C    1.644   201 C    1.179   224 H    0.970
   201   6 C    3.917 --   222 N    1.265   202 C    1.250   200 C    1.179
   202   6 C    3.934 --   203 C    1.250   201 C    1.250    88 C    1.183
   203   6 C    3.917 --   207 N    1.265   202 C    1.250   204 C    1.179
   204   6 C    3.955 --   205 C    1.644   203 C    1.179   225 H    0.970
   205   6 C    3.953 --   204 C    1.644   206 C    1.171   226 H    0.972
   206   6 C    3.929 --   208 C    1.355   207 N    1.225   205 C    1.171
   207   7 N    3.568 --   203 C    1.265   206 C    1.225   198 Ni   0.749
   208   6 C    3.930 --   206 C    1.355   209 C    1.354   227 H    0.963
   209   6 C    3.928 --   208 C    1.354   213 N    1.226   210 C    1.171
   210   6 C    3.954 --   211 C    1.644   209 C    1.171   228 H    0.972
   211   6 C    3.955 --   210 C    1.644   212 C    1.179   229 H    0.970
   212   6 C    3.918 --   213 N    1.264   214 C    1.251   211 C    1.179
   213   7 N    3.568 --   212 C    1.264   209 C    1.226   198 Ni   0.749
   214   6 C    3.934 --   215 C    1.251   212 C    1.251    89 C    1.181
   215   6 C    3.918 --   219 N    1.264   214 C    1.251   216 C    1.179
   216   6 C    3.955 --   217 C    1.644   215 C    1.179   230 H    0.970
   217   6 C    3.954 --   216 C    1.644   218 C    1.171   231 H    0.972
   218   6 C    3.928 --   220 C    1.354   219 N    1.226   217 C    1.171
   219   7 N    3.568 --   215 C    1.264   218 C    1.226   198 Ni   0.749
   220   6 C    3.930 --   221 C    1.355   218 C    1.354   232 H    0.963
   221   6 C    3.929 --   220 C    1.355   222 N    1.225   199 C    1.171
   222   7 N    3.568 --   201 C    1.265   221 C    1.225   198 Ni   0.749
   223   1 H    0.998 --   199 C    0.972
   224   1 H    0.998 --   200 C    0.970
   225   1 H    0.998 --   204 C    0.970
   226   1 H    0.998 --   205 C    0.972
   227   1 H    0.996 --   208 C    0.963
   228   1 H    0.998 --   210 C    0.972
   229   1 H    0.998 --   211 C    0.970
   230   1 H    0.998 --   216 C    0.970
   231   1 H    0.998 --   217 C    0.972
   232   1 H    0.996 --   220 C    0.963
 ---------------------------------------------------------------------------

Topologies differ in total number of bonds
Writing topology from bond orders to xtbtopo.mol

molecular dipole:
                 x           y           z       tot (Debye)
 q only:        0.001      -0.001      -0.000
   full:        0.001      -0.001      -0.001       0.005
molecular quadrupole (traceless):
                xx          xy          yy          xz          yz          zz
 q only:       99.136       0.281       5.499      -0.077      -5.408    -104.635
  q+dip:      176.908       0.484      22.596      -0.236     -10.839    -199.504
   full:      125.258       0.445       3.644      -0.236      -6.523    -128.902


           -------------------------------------------------
          | TOTAL ENERGY             -430.521480239512 Eh   |
          | GRADIENT NORM               0.000695256619 Eh/α |
          | HOMO-LUMO GAP               0.940117961492 eV   |
           -------------------------------------------------

------------------------------------------------------------------------
 * finished run on 2021/11/20 at 16:00:08.695     
------------------------------------------------------------------------
 total:
 * wall-time:     0 d,  0 h,  0 min,  3.425 sec
 *  cpu-time:     0 d,  0 h,  0 min,  3.425 sec
 * ratio c/w:     1.000 speedup
 SCF:
 * wall-time:     0 d,  0 h,  0 min,  3.289 sec
 *  cpu-time:     0 d,  0 h,  0 min,  3.289 sec
 * ratio c/w:     1.000 speedup

