      -----------------------------------------------------------      
     |                   =====================                   |     
     |                           x T B                           |     
     |                   =====================                   |     
     |                         S. Grimme                         |     
     |          Mulliken Center for Theoretical Chemistry        |     
     |                    University of Bonn                     |     
      -----------------------------------------------------------      

   * xtb version 6.4.1 (bd6e46d) compiled by 'conda@4901f00b25ba' on 2021-06-10

   xtb is free software: you can redistribute it and/or modify it under
   the terms of the GNU Lesser General Public License as published by
   the Free Software Foundation, either version 3 of the License, or
   (at your option) any later version.
   
   xtb is distributed in the hope that it will be useful,
   but WITHOUT ANY WARRANTY; without even the implied warranty of
   MERCHANTABILITY or FITNESS FOR A PARTICULAR PURPOSE.  See the
   GNU Lesser General Public License for more details.
   
   Cite this work as:
   * C. Bannwarth, E. Caldeweyher, S. Ehlert, A. Hansen, P. Pracht,
     J. Seibert, S. Spicher, S. Grimme, WIREs Comput. Mol. Sci., 2020, 11,
     e01493. DOI: 10.1002/wcms.1493
   
   for GFN2-xTB:
   * C. Bannwarth, S. Ehlert and S. Grimme., J. Chem. Theory Comput., 2019,
     15, 1652-1671. DOI: 10.1021/acs.jctc.8b01176
   for GFN1-xTB:
   * S. Grimme, C. Bannwarth, P. Shushkov, J. Chem. Theory Comput., 2017,
     13, 1989-2009. DOI: 10.1021/acs.jctc.7b00118
   for GFN0-xTB:
   * P. Pracht, E. Caldeweyher, S. Ehlert, S. Grimme, ChemRxiv, 2019, preprint.
     DOI: 10.26434/chemrxiv.8326202.v1
   for GFN-FF:
   * S. Spicher and S. Grimme, Angew. Chem. Int. Ed., 2020, 59, 15665-15673.
     DOI: 10.1002/anie.202004239
   
   for DFT-D4:
   * E. Caldeweyher, C. Bannwarth and S. Grimme, J. Chem. Phys., 2017,
     147, 034112. DOI: 10.1063/1.4993215
   * E. Caldeweyher, S. Ehlert, A. Hansen, H. Neugebauer, S. Spicher,
     C. Bannwarth and S. Grimme, J. Chem. Phys., 2019, 150, 154122.
     DOI: 10.1063/1.5090222
   * E. Caldeweyher, J.-M. Mewes, S. Ehlert and S. Grimme, Phys. Chem. Chem. Phys.
     2020, 22, 8499-8512. DOI: 10.1039/D0CP00502A
   
   for sTDA-xTB:
   * S. Grimme and C. Bannwarth, J. Chem. Phys., 2016, 145, 054103.
     DOI: 10.1063/1.4959605
   
   in the mass-spec context:
   * V. Asgeirsson, C. Bauer and S. Grimme, Chem. Sci., 2017, 8, 4879.
     DOI: 10.1039/c7sc00601b
   * J. Koopman and S. Grimme, ACS Omega 2019, 4, 12, 15120-15133.
     DOI: 10.1021/acsomega.9b02011
   
   for metadynamics refer to:
   * S. Grimme, J. Chem. Theory Comput., 2019, 155, 2847-2862
     DOI: 10.1021/acs.jctc.9b00143
   
   for SPH calculations refer to:
   * S. Spicher and S. Grimme, J. Chem. Theory Comput., 2021, 17, 1701-1714
     DOI: 10.1021/acs.jctc.0c01306
   
   with help from (in alphabetical order)
   P. Atkinson, C. Bannwarth, F. Bohle, G. Brandenburg, E. Caldeweyher
   M. Checinski, S. Dohm, S. Ehlert, S. Ehrlich, I. Gerasimov, J. Koopman
   C. Lavigne, S. Lehtola, F. März, M. Müller, F. Musil, H. Neugebauer
   J. Pisarek, C. Plett, P. Pracht, J. Seibert, P. Shushkov, S. Spicher
   M. Stahn, M. Steiner, T. Strunk, J. Stückrath, T. Rose, and J. Unsleber
   
 * started run on 2021/11/21 at 19:10:52.287     

           -------------------------------------------------
          |                Calculation Setup                |
           -------------------------------------------------

          program call               : /home/jeff/miniconda3/bin/xtb /home/jeff/chem/final-year-proejct/free_base/_4_5_outenergy/input_structure.xyz --gfn 2 --parallel 1 --etemp 300 --chrg 0 --uhf 0 -I det_control.in
          coordinate file            : /home/jeff/chem/final-year-proejct/free_base/_4_5_outenergy/input_structure.xyz
          omp threads                :                     1
          number of atoms            :                   198
          number of electrons        :                   626
          charge                     :                     0
          spin                       :                   0.0
          first test random number   :      0.21660210896614

   ID    Z sym.   atoms
    1    6 C      1-8, 10-14, 16-20, 22, 23, 38-45, 47-51, 53-57, 59, 60,
                  75-98, 100-104, 106-110, 112, 113, 127-134, 136-140,
                  142-146, 148, 149, 163-170, 172-176, 178-182, 184, 185
    2    7 N      9, 15, 21, 24, 46, 52, 58, 61, 99, 105, 111, 114, 135, 141,
                  147, 150, 171, 177, 183, 186
    3    1 H      25-37, 62-74, 115-126, 151-162, 187-198

           -------------------------------------------------
          |                 G F N 2 - x T B                 |
           -------------------------------------------------

        Reference                      10.1021/acs.jctc.8b01176
      * Hamiltonian:
        H0-scaling (s, p, d)           1.850000    2.230000    2.230000
        zeta-weighting                 0.500000
      * Dispersion:
        s8                             2.700000
        a1                             0.520000
        a2                             5.000000
        s9                             5.000000
      * Repulsion:
        kExp                           1.500000    1.000000
        rExp                           1.000000
      * Coulomb:
        alpha                          2.000000
        third order                    shell-resolved
        anisotropic                    true
        a3                             3.000000
        a5                             4.000000
        cn-shift                       1.200000
        cn-exp                         4.000000
        max-rad                        5.000000


          ...................................................
          :                      SETUP                      :
          :.................................................:
          :  # basis functions                 606          :
          :  # atomic orbitals                 606          :
          :  # shells                          334          :
          :  # electrons                       626          :
          :  max. iterations                   250          :
          :  Hamiltonian                  GFN2-xTB          :
          :  restarted?                      false          :
          :  GBSA solvation                  false          :
          :  PC potential                    false          :
          :  electronic temp.          300.0000000     K    :
          :  accuracy                    1.0000000          :
          :  -> integral cutoff          0.2500000E+02      :
          :  -> integral neglect         0.1000000E-07      :
          :  -> SCF convergence          0.1000000E-05 Eh   :
          :  -> wf. convergence          0.1000000E-03 e    :
          :  Broyden damping             0.4000000          :
          ...................................................

 iter      E             dE          RMSdq      gap      omega  full diag
   1   -343.8678403 -0.343868E+03  0.559E+00    0.53       0.0  T
   2   -344.3667745 -0.498934E+00  0.360E+00    0.79       1.0  T
   3   -344.2325773  0.134197E+00  0.154E+00    0.62       1.0  T
   4   -344.3585121 -0.125935E+00  0.632E-01    0.78       1.0  T
   5   -344.4600079 -0.101496E+00  0.215E-01    0.77       1.0  T
   6   -344.4722166 -0.122087E-01  0.839E-02    0.77       1.0  T
   7   -344.4728869 -0.670291E-03  0.543E-02    0.77       1.0  T
   8   -344.4734411 -0.554222E-03  0.216E-02    0.77       1.0  T
   9   -344.4734980 -0.568462E-04  0.114E-02    0.77       1.0  T
  10   -344.4735052 -0.717859E-05  0.633E-03    0.77       1.1  T
  11   -344.4735153 -0.101522E-04  0.159E-03    0.77       4.5  T
  12   -344.4735159 -0.582924E-06  0.771E-04    0.77       9.2  T
  13   -344.4735160 -0.128524E-06  0.383E-04    0.77      18.5  T

   *** convergence criteria satisfied after 13 iterations ***

         #    Occupation            Energy/Eh            Energy/eV
      -------------------------------------------------------------
         1        2.0000           -0.6851861             -18.6449
       ...           ...                  ...                  ...
       307        2.0000           -0.3690444             -10.0422
       308        2.0000           -0.3689899             -10.0407
       309        2.0000           -0.3662997              -9.9675
       310        2.0000           -0.3620387              -9.8516
       311        2.0000           -0.3560208              -9.6878
       312        2.0000           -0.3496568              -9.5146
       313        2.0000           -0.3446680              -9.3789 (HOMO)
       314        0.0000           -0.3164454              -8.6109 (LUMO)
       315                         -0.3106673              -8.4537
       316                         -0.3038856              -8.2691
       317                         -0.2990864              -8.1386
       318                         -0.2989287              -8.1343
       ...                                ...                  ...
       606                          1.6334912              44.4496
      -------------------------------------------------------------
                  HL-Gap            0.0282226 Eh            0.7680 eV
             Fermi-level           -0.3305553 Eh           -8.9949 eV

 SCC (total)                   0 d,  0 h,  0 min,  1.674 sec
 SCC setup                      ...        0 min,  0.006 sec (  0.378%)
 Dispersion                     ...        0 min,  0.014 sec (  0.822%)
 classical contributions        ...        0 min,  0.001 sec (  0.090%)
 integral evaluation            ...        0 min,  0.104 sec (  6.187%)
 iterations                     ...        0 min,  1.225 sec ( 73.195%)
 molecular gradient             ...        0 min,  0.311 sec ( 18.601%)
 printout                       ...        0 min,  0.012 sec (  0.727%)

         :::::::::::::::::::::::::::::::::::::::::::::::::::::
         ::                     SUMMARY                     ::
         :::::::::::::::::::::::::::::::::::::::::::::::::::::
         :: total energy            -338.020055992536 Eh    ::
         :: gradient norm              0.000669287327 Eh/a0 ::
         :: HOMO-LUMO gap              0.767977042567 eV    ::
         ::.................................................::
         :: SCC energy              -344.473516033055 Eh    ::
         :: -> isotropic ES            0.170088108282 Eh    ::
         :: -> anisotropic ES         -0.016929018518 Eh    ::
         :: -> anisotropic XC          0.235333274968 Eh    ::
         :: -> dispersion             -0.280255885090 Eh    ::
         :: repulsion energy           6.458276323734 Eh    ::
         :: add. restraining           0.000000000000 Eh    ::
         :: total charge               0.000000000165 e     ::
         :::::::::::::::::::::::::::::::::::::::::::::::::::::

           -------------------------------------------------
          |                Property Printout                |
           -------------------------------------------------

    * Orbital Energies and Occupations

         #    Occupation            Energy/Eh            Energy/eV
      -------------------------------------------------------------
         1        2.0000           -0.6851861             -18.6449
       ...           ...                  ...                  ...
       301        2.0000           -0.3724257             -10.1342
       302        2.0000           -0.3714955             -10.1089
       303        2.0000           -0.3714863             -10.1087
       304        2.0000           -0.3703444             -10.0776
       305        2.0000           -0.3701850             -10.0732
       306        2.0000           -0.3701577             -10.0725
       307        2.0000           -0.3690444             -10.0422
       308        2.0000           -0.3689899             -10.0407
       309        2.0000           -0.3662997              -9.9675
       310        2.0000           -0.3620387              -9.8516
       311        2.0000           -0.3560208              -9.6878
       312        2.0000           -0.3496568              -9.5146
       313        2.0000           -0.3446680              -9.3789 (HOMO)
       314        0.0000           -0.3164454              -8.6109 (LUMO)
       315                         -0.3106673              -8.4537
       316                         -0.3038856              -8.2691
       317                         -0.2990864              -8.1386
       318                         -0.2989287              -8.1343
       319                         -0.2986975              -8.1280
       320                         -0.2981884              -8.1141
       321                         -0.2978093              -8.1038
       322                         -0.2962380              -8.0610
       323                         -0.2924001              -7.9566
       324                         -0.2721454              -7.4055
       ...                                ...                  ...
       606                          1.6334912              44.4496
      -------------------------------------------------------------
                  HL-Gap            0.0282226 Eh            0.7680 eV
             Fermi-level           -0.3305553 Eh           -8.9949 eV

     #   Z          covCN         q      C6AA      α(0)
     1   6 C        3.016    -0.055    29.338     8.885
     2   6 C        3.009    -0.053    29.300     8.879
     3   6 C        3.196     0.087    25.565     8.243
     4   6 C        2.952     0.012    27.751     8.640
     5   6 C        3.097     0.064    26.450     8.429
     6   6 C        3.026    -0.050    29.208     8.865
     7   6 C        3.034    -0.052    29.251     8.871
     8   6 C        3.073     0.064    26.487     8.438
     9   7 N        2.785    -0.081    22.814     7.094
    10   6 C        2.899    -0.055    29.364     8.885
    11   6 C        3.171     0.087    25.717     8.284
    12   6 C        3.012    -0.054    29.315     8.881
    13   6 C        3.010    -0.054    29.317     8.882
    14   6 C        3.174     0.086    25.706     8.281
    15   7 N        1.870    -0.321    29.172     8.006
    16   6 C        2.899    -0.057    29.407     8.891
    17   6 C        3.074     0.065    26.469     8.435
    18   6 C        3.026    -0.051    29.239     8.870
    19   6 C        3.031    -0.051    29.231     8.868
    20   6 C        3.069     0.066    26.462     8.435
    21   7 N        2.787    -0.081    22.811     7.094
    22   6 C        2.899    -0.055    29.364     8.885
    23   6 C        3.175     0.086    25.722     8.283
    24   7 N        1.870    -0.325    29.274     8.020
    25   1 H        0.926     0.019     2.755     2.595
    26   1 H        0.926     0.021     2.723     2.580
    27   1 H        0.926     0.043     2.406     2.425
    28   1 H        0.926     0.041     2.429     2.437
    29   1 H        0.860     0.214     1.037     1.595
    30   1 H        0.925     0.047     2.357     2.401
    31   1 H        0.926     0.020     2.740     2.589
    32   1 H        0.926     0.020     2.740     2.589
    33   1 H        0.926     0.046     2.368     2.406
    34   1 H        0.926     0.042     2.423     2.434
    35   1 H        0.926     0.042     2.423     2.434
    36   1 H        0.860     0.214     1.036     1.594
    37   1 H        0.925     0.047     2.357     2.401
    38   6 C        3.016    -0.055    29.338     8.885
    39   6 C        3.009    -0.053    29.300     8.879
    40   6 C        3.196     0.087    25.565     8.243
    41   6 C        2.952     0.012    27.751     8.640
    42   6 C        3.097     0.064    26.449     8.428
    43   6 C        3.027    -0.050    29.208     8.865
    44   6 C        3.034    -0.052    29.251     8.871
    45   6 C        3.073     0.064    26.487     8.438
    46   7 N        2.785    -0.081    22.813     7.094
    47   6 C        2.899    -0.055    29.363     8.885
    48   6 C        3.171     0.087    25.717     8.284
    49   6 C        3.012    -0.054    29.315     8.881
    50   6 C        3.010    -0.054    29.317     8.882
    51   6 C        3.174     0.087    25.706     8.281
    52   7 N        1.870    -0.321    29.172     8.006
    53   6 C        2.899    -0.057    29.407     8.891
    54   6 C        3.074     0.065    26.469     8.435
    55   6 C        3.026    -0.051    29.239     8.870
    56   6 C        3.031    -0.051    29.231     8.868
    57   6 C        3.069     0.066    26.462     8.435
    58   7 N        2.787    -0.081    22.810     7.093
    59   6 C        2.899    -0.055    29.363     8.885
    60   6 C        3.175     0.085    25.722     8.283
    61   7 N        1.870    -0.325    29.274     8.020
    62   1 H        0.926     0.019     2.755     2.595
    63   1 H        0.926     0.021     2.723     2.580
    64   1 H        0.926     0.043     2.406     2.425
    65   1 H        0.926     0.041     2.429     2.437
    66   1 H        0.860     0.214     1.037     1.595
    67   1 H        0.925     0.047     2.357     2.401
    68   1 H        0.926     0.020     2.740     2.589
    69   1 H        0.926     0.020     2.740     2.589
    70   1 H        0.926     0.046     2.367     2.406
    71   1 H        0.926     0.042     2.423     2.434
    72   1 H        0.926     0.042     2.423     2.434
    73   1 H        0.860     0.214     1.036     1.594
    74   1 H        0.925     0.047     2.357     2.401
    75   6 C        1.996    -0.022    31.619     9.081
    76   6 C        1.963    -0.011    31.371     9.045
    77   6 C        1.963    -0.010    31.348     9.042
    78   6 C        1.994    -0.023    31.643     9.084
    79   6 C        1.994    -0.022    31.625     9.082
    80   6 C        1.964    -0.011    31.354     9.043
    81   6 C        1.964    -0.011    31.349     9.042
    82   6 C        1.994    -0.022    31.629     9.082
    83   6 C        1.994    -0.022    31.629     9.082
    84   6 C        1.964    -0.011    31.350     9.042
    85   6 C        1.964    -0.011    31.354     9.043
    86   6 C        1.994    -0.022    31.625     9.082
    87   6 C        1.994    -0.023    31.643     9.084
    88   6 C        1.964    -0.011    31.348     9.042
    89   6 C        1.963    -0.011    31.372     9.045
    90   6 C        1.996    -0.022    31.620     9.081
    91   6 C        3.017    -0.055    29.332     8.884
    92   6 C        3.009    -0.053    29.297     8.879
    93   6 C        3.196     0.087    25.567     8.243
    94   6 C        2.952     0.012    27.740     8.639
    95   6 C        3.100     0.064    26.456     8.429
    96   6 C        3.025    -0.050    29.215     8.866
    97   6 C        3.036    -0.052    29.250     8.871
    98   6 C        3.073     0.064    26.493     8.439
    99   7 N        2.786    -0.081    22.816     7.094
   100   6 C        2.899    -0.053    29.308     8.876
   101   6 C        3.174     0.085    25.737     8.286
   102   6 C        3.017    -0.055    29.332     8.884
   103   6 C        3.009    -0.053    29.299     8.879
   104   6 C        3.196     0.087    25.564     8.242
   105   7 N        1.870    -0.324    29.254     8.017
   106   6 C        2.952     0.012    27.749     8.640
   107   6 C        3.100     0.064    26.454     8.429
   108   6 C        3.025    -0.050    29.218     8.866
   109   6 C        3.036    -0.052    29.248     8.871
   110   6 C        3.073     0.064    26.495     8.440
   111   7 N        2.786    -0.081    22.818     7.095
   112   6 C        2.899    -0.053    29.306     8.876
   113   6 C        3.174     0.085    25.736     8.286
   114   7 N        1.870    -0.324    29.252     8.017
   115   1 H        0.926     0.019     2.752     2.594
   116   1 H        0.926     0.021     2.721     2.580
   117   1 H        0.926     0.043     2.409     2.427
   118   1 H        0.926     0.041     2.431     2.438
   119   1 H        0.860     0.214     1.036     1.594
   120   1 H        0.925     0.048     2.348     2.396
   121   1 H        0.926     0.019     2.752     2.594
   122   1 H        0.926     0.021     2.723     2.580
   123   1 H        0.926     0.043     2.410     2.428
   124   1 H        0.926     0.041     2.431     2.438
   125   1 H        0.860     0.214     1.036     1.594
   126   1 H        0.925     0.048     2.347     2.396
   127   6 C        3.018    -0.055    29.331     8.884
   128   6 C        3.009    -0.053    29.299     8.879
   129   6 C        3.197     0.087    25.565     8.242
   130   6 C        2.952     0.012    27.745     8.639
   131   6 C        3.100     0.064    26.455     8.429
   132   6 C        3.025    -0.050    29.217     8.866
   133   6 C        3.037    -0.052    29.249     8.871
   134   6 C        3.073     0.064    26.493     8.439
   135   7 N        2.786    -0.081    22.819     7.095
   136   6 C        2.899    -0.053    29.304     8.876
   137   6 C        3.173     0.085    25.738     8.286
   138   6 C        3.018    -0.055    29.331     8.884
   139   6 C        3.009    -0.053    29.298     8.879
   140   6 C        3.196     0.087    25.566     8.243
   141   7 N        1.870    -0.324    29.249     8.017
   142   6 C        2.952     0.012    27.745     8.639
   143   6 C        3.100     0.064    26.455     8.429
   144   6 C        3.025    -0.050    29.218     8.866
   145   6 C        3.037    -0.052    29.249     8.871
   146   6 C        3.073     0.064    26.493     8.439
   147   7 N        2.786    -0.081    22.819     7.095
   148   6 C        2.899    -0.053    29.304     8.876
   149   6 C        3.173     0.085    25.737     8.286
   150   7 N        1.870    -0.324    29.248     8.017
   151   1 H        0.926     0.019     2.752     2.594
   152   1 H        0.926     0.021     2.722     2.580
   153   1 H        0.926     0.043     2.410     2.427
   154   1 H        0.926     0.041     2.431     2.438
   155   1 H        0.860     0.214     1.035     1.594
   156   1 H        0.925     0.048     2.346     2.395
   157   1 H        0.926     0.019     2.752     2.594
   158   1 H        0.926     0.021     2.723     2.580
   159   1 H        0.926     0.043     2.409     2.427
   160   1 H        0.926     0.041     2.431     2.438
   161   1 H        0.860     0.215     1.035     1.594
   162   1 H        0.925     0.048     2.346     2.395
   163   6 C        3.017    -0.055    29.331     8.884
   164   6 C        3.009    -0.053    29.299     8.879
   165   6 C        3.196     0.087    25.565     8.243
   166   6 C        2.952     0.012    27.749     8.640
   167   6 C        3.100     0.064    26.453     8.429
   168   6 C        3.025    -0.050    29.218     8.866
   169   6 C        3.036    -0.052    29.249     8.871
   170   6 C        3.073     0.064    26.495     8.440
   171   7 N        2.786    -0.081    22.817     7.094
   172   6 C        2.899    -0.053    29.306     8.876
   173   6 C        3.174     0.085    25.736     8.286
   174   6 C        3.017    -0.055    29.332     8.884
   175   6 C        3.009    -0.053    29.297     8.879
   176   6 C        3.196     0.087    25.566     8.243
   177   7 N        1.870    -0.324    29.252     8.017
   178   6 C        2.952     0.012    27.740     8.639
   179   6 C        3.100     0.064    26.456     8.429
   180   6 C        3.025    -0.050    29.215     8.866
   181   6 C        3.036    -0.052    29.250     8.871
   182   6 C        3.073     0.064    26.493     8.439
   183   7 N        2.786    -0.081    22.816     7.094
   184   6 C        2.899    -0.053    29.308     8.876
   185   6 C        3.174     0.085    25.737     8.286
   186   7 N        1.870    -0.324    29.254     8.017
   187   1 H        0.926     0.019     2.752     2.594
   188   1 H        0.926     0.021     2.723     2.581
   189   1 H        0.926     0.043     2.410     2.427
   190   1 H        0.926     0.041     2.431     2.438
   191   1 H        0.860     0.214     1.036     1.594
   192   1 H        0.925     0.048     2.347     2.396
   193   1 H        0.926     0.019     2.752     2.594
   194   1 H        0.926     0.021     2.722     2.580
   195   1 H        0.926     0.043     2.409     2.427
   196   1 H        0.926     0.041     2.431     2.438
   197   1 H        0.860     0.214     1.036     1.594
   198   1 H        0.925     0.048     2.348     2.396

 Mol. C6AA /au·bohr⁶  :     658871.280597
 Mol. C8AA /au·bohr⁸  :   16974010.145500
 Mol. α(0) /au        :       1305.972404


Wiberg/Mayer (AO) data.
largest (>0.10) Wiberg bond orders for each atom

 ---------------------------------------------------------------------------
     #   Z sym  total        # sym  WBO       # sym  WBO       # sym  WBO
 ---------------------------------------------------------------------------
     1   6 C    3.960 --     2 C    1.717    23 C    1.115    25 H    0.973
     2   6 C    3.961 --     1 C    1.717     3 C    1.121    26 H    0.972
     3   6 C    3.916 --    24 N    1.362     4 C    1.243     2 C    1.121
     4   6 C    3.939 --     5 C    1.248     3 C    1.243    75 C    1.192
     5   6 C    3.902 --     4 C    1.248     6 C    1.237     9 N    1.226
     6   6 C    3.955 --     7 C    1.592     5 C    1.237    27 H    0.972
     7   6 C    3.948 --     6 C    1.592     8 C    1.224    28 H    0.973
     8   6 C    3.918 --    10 C    1.344     7 C    1.224     9 N    1.202
     9   7 N    3.590 --     5 C    1.226     8 C    1.202    29 H    0.900
    10   6 C    3.920 --    11 C    1.357     8 C    1.344    30 H    0.964
    11   6 C    3.939 --    10 C    1.357    15 N    1.324    12 C    1.107
    12   6 C    3.963 --    13 C    1.731    11 C    1.107    31 H    0.973
    13   6 C    3.962 --    12 C    1.731    14 C    1.109    32 H    0.973
    14   6 C    3.938 --    16 C    1.354    15 N    1.325    13 C    1.109
    15   7 N    3.001 --    14 C    1.325    11 C    1.324
    16   6 C    3.922 --    14 C    1.354    17 C    1.346    33 H    0.965
    17   6 C    3.921 --    16 C    1.346    18 C    1.216    21 N    1.210
    18   6 C    3.949 --    19 C    1.608    17 C    1.216    34 H    0.973
    19   6 C    3.953 --    18 C    1.608    20 C    1.215    35 H    0.973
    20   6 C    3.916 --    22 C    1.342    19 C    1.215    21 N    1.211
    21   7 N    3.586 --    20 C    1.211    17 C    1.210    36 H    0.900
    22   6 C    3.937 --    23 C    1.367    20 C    1.342    37 H    0.964
    23   6 C    3.924 --    22 C    1.367    24 N    1.298     1 C    1.115
    24   7 N    3.009 --     3 C    1.362    23 C    1.298
    25   1 H    0.999 --     1 C    0.973
    26   1 H    0.999 --     2 C    0.972
    27   1 H    0.998 --     6 C    0.972
    28   1 H    0.998 --     7 C    0.973
    29   1 H    0.954 --     9 N    0.900
    30   1 H    0.997 --    10 C    0.964
    31   1 H    0.999 --    12 C    0.973
    32   1 H    0.999 --    13 C    0.973
    33   1 H    0.997 --    16 C    0.965
    34   1 H    0.998 --    18 C    0.973
    35   1 H    0.998 --    19 C    0.973
    36   1 H    0.954 --    21 N    0.900
    37   1 H    0.997 --    22 C    0.964
    38   6 C    3.960 --    39 C    1.717    60 C    1.115    62 H    0.973
    39   6 C    3.961 --    38 C    1.717    40 C    1.121    63 H    0.972
    40   6 C    3.916 --    61 N    1.363    41 C    1.243    39 C    1.121
    41   6 C    3.939 --    42 C    1.248    40 C    1.243    90 C    1.192
    42   6 C    3.902 --    41 C    1.248    43 C    1.237    46 N    1.226
    43   6 C    3.955 --    44 C    1.592    42 C    1.237    64 H    0.972
    44   6 C    3.948 --    43 C    1.592    45 C    1.224    65 H    0.973
    45   6 C    3.918 --    47 C    1.344    44 C    1.224    46 N    1.202
    46   7 N    3.590 --    42 C    1.226    45 C    1.202    66 H    0.900
    47   6 C    3.920 --    48 C    1.357    45 C    1.344    67 H    0.964
    48   6 C    3.939 --    47 C    1.357    52 N    1.324    49 C    1.107
    49   6 C    3.963 --    50 C    1.731    48 C    1.107    68 H    0.973
    50   6 C    3.962 --    49 C    1.731    51 C    1.109    69 H    0.973
    51   6 C    3.938 --    53 C    1.354    52 N    1.325    50 C    1.109
    52   7 N    3.000 --    51 C    1.325    48 C    1.324
    53   6 C    3.922 --    51 C    1.354    54 C    1.346    70 H    0.965
    54   6 C    3.921 --    53 C    1.346    55 C    1.216    58 N    1.210
    55   6 C    3.949 --    56 C    1.608    54 C    1.216    71 H    0.973
    56   6 C    3.953 --    55 C    1.608    57 C    1.216    72 H    0.973
    57   6 C    3.916 --    59 C    1.341    56 C    1.216    58 N    1.211
    58   7 N    3.586 --    57 C    1.211    54 C    1.210    73 H    0.900
    59   6 C    3.937 --    60 C    1.367    57 C    1.341    74 H    0.964
    60   6 C    3.924 --    59 C    1.367    61 N    1.298    38 C    1.115
    61   7 N    3.009 --    40 C    1.363    60 C    1.298
    62   1 H    0.999 --    38 C    0.973
    63   1 H    0.999 --    39 C    0.972
    64   1 H    0.998 --    43 C    0.972
    65   1 H    0.998 --    44 C    0.973
    66   1 H    0.954 --    46 N    0.900
    67   1 H    0.997 --    47 C    0.964
    68   1 H    0.999 --    49 C    0.973
    69   1 H    0.999 --    50 C    0.973
    70   1 H    0.997 --    53 C    0.965
    71   1 H    0.998 --    55 C    0.973
    72   1 H    0.998 --    56 C    0.973
    73   1 H    0.954 --    58 N    0.900
    74   1 H    0.997 --    59 C    0.964
    75   6 C    3.916 --    76 C    2.461     4 C    1.192    78 C    0.202
    76   6 C    3.925 --    75 C    2.461    77 C    1.311
    77   6 C    3.921 --    78 C    2.459    76 C    1.311
    78   6 C    3.918 --    77 C    2.459    94 C    1.196    75 C    0.202
    79   6 C    3.916 --    80 C    2.454   106 C    1.198    82 C    0.201
    80   6 C    3.921 --    79 C    2.454    81 C    1.315
    81   6 C    3.920 --    82 C    2.454    80 C    1.315
    82   6 C    3.916 --    81 C    2.454   130 C    1.199    79 C    0.201
    83   6 C    3.916 --    84 C    2.454   142 C    1.199    86 C    0.201
    84   6 C    3.920 --    83 C    2.454    85 C    1.315
    85   6 C    3.921 --    86 C    2.454    84 C    1.315
    86   6 C    3.916 --    85 C    2.454   166 C    1.198    83 C    0.201
    87   6 C    3.918 --    88 C    2.458   178 C    1.196    90 C    0.202
    88   6 C    3.921 --    87 C    2.458    89 C    1.311
    89   6 C    3.925 --    90 C    2.460    88 C    1.311
    90   6 C    3.916 --    89 C    2.460    41 C    1.192    87 C    0.202
    91   6 C    3.961 --    92 C    1.716   113 C    1.115   115 H    0.973
    92   6 C    3.960 --    91 C    1.716    93 C    1.123   116 H    0.972
    93   6 C    3.917 --   114 N    1.363    94 C    1.241    92 C    1.123
    94   6 C    3.925 --    95 C    1.243    93 C    1.241    78 C    1.196
    95   6 C    3.903 --    94 C    1.243    96 C    1.242    99 N    1.226
    96   6 C    3.952 --    97 C    1.587    95 C    1.242   117 H    0.972
    97   6 C    3.949 --    96 C    1.587    98 C    1.228   118 H    0.973
    98   6 C    3.914 --   100 C    1.335    97 C    1.228    99 N    1.203
    99   7 N    3.586 --    95 C    1.226    98 C    1.203   119 H    0.898
   100   6 C    3.923 --   101 C    1.373    98 C    1.335   120 H    0.963
   101   6 C    3.926 --   100 C    1.373   105 N    1.294   102 C    1.115
   102   6 C    3.961 --   103 C    1.716   101 C    1.115   121 H    0.973
   103   6 C    3.960 --   102 C    1.716   104 C    1.123   122 H    0.972
   104   6 C    3.917 --   105 N    1.364   106 C    1.240   103 C    1.123
   105   7 N    2.999 --   104 C    1.364   101 C    1.294
   106   6 C    3.925 --   107 C    1.243   104 C    1.240    79 C    1.198
   107   6 C    3.903 --   106 C    1.243   108 C    1.242   111 N    1.227
   108   6 C    3.952 --   109 C    1.587   107 C    1.242   123 H    0.972
   109   6 C    3.948 --   108 C    1.587   110 C    1.228   124 H    0.973
   110   6 C    3.914 --   112 C    1.336   109 C    1.228   111 N    1.203
   111   7 N    3.585 --   107 C    1.227   110 C    1.203   125 H    0.898
   112   6 C    3.922 --   113 C    1.371   110 C    1.336   126 H    0.963
   113   6 C    3.927 --   112 C    1.371   114 N    1.295    91 C    1.115
   114   7 N    2.999 --    93 C    1.363   113 C    1.295
   115   1 H    0.999 --    91 C    0.973
   116   1 H    0.999 --    92 C    0.972
   117   1 H    0.998 --    96 C    0.972
   118   1 H    0.998 --    97 C    0.973
   119   1 H    0.954 --    99 N    0.898
   120   1 H    0.997 --   100 C    0.963
   121   1 H    0.999 --   102 C    0.973
   122   1 H    0.999 --   103 C    0.972
   123   1 H    0.998 --   108 C    0.972
   124   1 H    0.998 --   109 C    0.973
   125   1 H    0.954 --   111 N    0.898
   126   1 H    0.997 --   112 C    0.963
   127   6 C    3.960 --   128 C    1.715   149 C    1.115   151 H    0.973
   128   6 C    3.960 --   127 C    1.715   129 C    1.124   152 H    0.972
   129   6 C    3.917 --   150 N    1.364   130 C    1.240   128 C    1.124
   130   6 C    3.924 --   131 C    1.242   129 C    1.240    82 C    1.199
   131   6 C    3.903 --   130 C    1.242   132 C    1.242   135 N    1.227
   132   6 C    3.952 --   133 C    1.586   131 C    1.242   153 H    0.972
   133   6 C    3.948 --   132 C    1.586   134 C    1.228   154 H    0.973
   134   6 C    3.914 --   136 C    1.335   133 C    1.228   135 N    1.203
   135   7 N    3.585 --   131 C    1.227   134 C    1.203   155 H    0.897
   136   6 C    3.922 --   137 C    1.372   134 C    1.335   156 H    0.963
   137   6 C    3.926 --   136 C    1.372   141 N    1.294   138 C    1.115
   138   6 C    3.960 --   139 C    1.715   137 C    1.115   157 H    0.973
   139   6 C    3.960 --   138 C    1.715   140 C    1.124   158 H    0.972
   140   6 C    3.917 --   141 N    1.364   142 C    1.240   139 C    1.124
   141   7 N    2.999 --   140 C    1.364   137 C    1.294
   142   6 C    3.924 --   143 C    1.242   140 C    1.240    83 C    1.199
   143   6 C    3.903 --   142 C    1.242   144 C    1.242   147 N    1.227
   144   6 C    3.952 --   145 C    1.587   143 C    1.242   159 H    0.972
   145   6 C    3.948 --   144 C    1.587   146 C    1.228   160 H    0.973
   146   6 C    3.914 --   148 C    1.335   145 C    1.228   147 N    1.203
   147   7 N    3.585 --   143 C    1.227   146 C    1.203   161 H    0.897
   148   6 C    3.922 --   149 C    1.372   146 C    1.335   162 H    0.963
   149   6 C    3.926 --   148 C    1.372   150 N    1.294   127 C    1.115
   150   7 N    2.999 --   129 C    1.364   149 C    1.294
   151   1 H    0.999 --   127 C    0.973
   152   1 H    0.999 --   128 C    0.972
   153   1 H    0.998 --   132 C    0.972
   154   1 H    0.998 --   133 C    0.973
   155   1 H    0.954 --   135 N    0.897
   156   1 H    0.997 --   136 C    0.963
   157   1 H    0.999 --   138 C    0.973
   158   1 H    0.999 --   139 C    0.972
   159   1 H    0.998 --   144 C    0.972
   160   1 H    0.998 --   145 C    0.973
   161   1 H    0.954 --   147 N    0.897
   162   1 H    0.997 --   148 C    0.963
   163   6 C    3.961 --   164 C    1.716   185 C    1.115   187 H    0.973
   164   6 C    3.960 --   163 C    1.716   165 C    1.123   188 H    0.972
   165   6 C    3.917 --   186 N    1.364   166 C    1.240   164 C    1.123
   166   6 C    3.925 --   167 C    1.242   165 C    1.240    86 C    1.198
   167   6 C    3.903 --   166 C    1.242   168 C    1.242   171 N    1.227
   168   6 C    3.952 --   169 C    1.587   167 C    1.242   189 H    0.972
   169   6 C    3.948 --   168 C    1.587   170 C    1.228   190 H    0.973
   170   6 C    3.914 --   172 C    1.336   169 C    1.228   171 N    1.203
   171   7 N    3.585 --   167 C    1.227   170 C    1.203   191 H    0.898
   172   6 C    3.922 --   173 C    1.371   170 C    1.336   192 H    0.963
   173   6 C    3.926 --   172 C    1.371   177 N    1.295   174 C    1.115
   174   6 C    3.961 --   175 C    1.715   173 C    1.115   193 H    0.973
   175   6 C    3.960 --   174 C    1.715   176 C    1.123   194 H    0.972
   176   6 C    3.917 --   177 N    1.363   178 C    1.241   175 C    1.123
   177   7 N    2.999 --   176 C    1.363   173 C    1.295
   178   6 C    3.925 --   179 C    1.243   176 C    1.241    87 C    1.196
   179   6 C    3.903 --   178 C    1.243   180 C    1.242   183 N    1.227
   180   6 C    3.952 --   181 C    1.587   179 C    1.242   195 H    0.972
   181   6 C    3.949 --   180 C    1.587   182 C    1.229   196 H    0.973
   182   6 C    3.914 --   184 C    1.335   181 C    1.229   183 N    1.203
   183   7 N    3.586 --   179 C    1.227   182 C    1.203   197 H    0.898
   184   6 C    3.922 --   185 C    1.373   182 C    1.335   198 H    0.963
   185   6 C    3.926 --   184 C    1.373   186 N    1.294   163 C    1.115
   186   7 N    2.999 --   165 C    1.364   185 C    1.294
   187   1 H    0.999 --   163 C    0.973
   188   1 H    0.999 --   164 C    0.972
   189   1 H    0.998 --   168 C    0.972
   190   1 H    0.998 --   169 C    0.973
   191   1 H    0.954 --   171 N    0.898
   192   1 H    0.997 --   172 C    0.963
   193   1 H    0.999 --   174 C    0.973
   194   1 H    0.999 --   175 C    0.972
   195   1 H    0.998 --   180 C    0.972
   196   1 H    0.998 --   181 C    0.973
   197   1 H    0.954 --   183 N    0.898
   198   1 H    0.997 --   184 C    0.963
 ---------------------------------------------------------------------------

Topologies differ in total number of bonds
Writing topology from bond orders to xtbtopo.mol

molecular dipole:
                 x           y           z       tot (Debye)
 q only:        0.001      -0.001      -0.020
   full:        0.001      -0.002      -0.037       0.093
molecular quadrupole (traceless):
                xx          xy          yy          xz          yz          zz
 q only:       69.429     -54.408     -13.650      -0.121      -2.645     -55.779
  q+dip:      133.530     -28.506       6.004      -5.694     -10.796    -139.535
   full:       96.555     -27.329      -5.909      -5.443      -6.189     -90.646


           -------------------------------------------------
          | TOTAL ENERGY             -338.020055992536 Eh   |
          | GRADIENT NORM               0.000669287327 Eh/α |
          | HOMO-LUMO GAP               0.767977042567 eV   |
           -------------------------------------------------

------------------------------------------------------------------------
 * finished run on 2021/11/21 at 19:10:54.060     
------------------------------------------------------------------------
 total:
 * wall-time:     0 d,  0 h,  0 min,  1.773 sec
 *  cpu-time:     0 d,  0 h,  0 min,  1.773 sec
 * ratio c/w:     1.000 speedup
 SCF:
 * wall-time:     0 d,  0 h,  0 min,  1.676 sec
 *  cpu-time:     0 d,  0 h,  0 min,  1.676 sec
 * ratio c/w:     1.000 speedup

