      -----------------------------------------------------------      
     |                   =====================                   |     
     |                           x T B                           |     
     |                   =====================                   |     
     |                         S. Grimme                         |     
     |          Mulliken Center for Theoretical Chemistry        |     
     |                    University of Bonn                     |     
      -----------------------------------------------------------      

   * xtb version 6.4.1 (bd6e46d) compiled by 'conda@4901f00b25ba' on 2021-06-10

   xtb is free software: you can redistribute it and/or modify it under
   the terms of the GNU Lesser General Public License as published by
   the Free Software Foundation, either version 3 of the License, or
   (at your option) any later version.
   
   xtb is distributed in the hope that it will be useful,
   but WITHOUT ANY WARRANTY; without even the implied warranty of
   MERCHANTABILITY or FITNESS FOR A PARTICULAR PURPOSE.  See the
   GNU Lesser General Public License for more details.
   
   Cite this work as:
   * C. Bannwarth, E. Caldeweyher, S. Ehlert, A. Hansen, P. Pracht,
     J. Seibert, S. Spicher, S. Grimme, WIREs Comput. Mol. Sci., 2020, 11,
     e01493. DOI: 10.1002/wcms.1493
   
   for GFN2-xTB:
   * C. Bannwarth, S. Ehlert and S. Grimme., J. Chem. Theory Comput., 2019,
     15, 1652-1671. DOI: 10.1021/acs.jctc.8b01176
   for GFN1-xTB:
   * S. Grimme, C. Bannwarth, P. Shushkov, J. Chem. Theory Comput., 2017,
     13, 1989-2009. DOI: 10.1021/acs.jctc.7b00118
   for GFN0-xTB:
   * P. Pracht, E. Caldeweyher, S. Ehlert, S. Grimme, ChemRxiv, 2019, preprint.
     DOI: 10.26434/chemrxiv.8326202.v1
   for GFN-FF:
   * S. Spicher and S. Grimme, Angew. Chem. Int. Ed., 2020, 59, 15665-15673.
     DOI: 10.1002/anie.202004239
   
   for DFT-D4:
   * E. Caldeweyher, C. Bannwarth and S. Grimme, J. Chem. Phys., 2017,
     147, 034112. DOI: 10.1063/1.4993215
   * E. Caldeweyher, S. Ehlert, A. Hansen, H. Neugebauer, S. Spicher,
     C. Bannwarth and S. Grimme, J. Chem. Phys., 2019, 150, 154122.
     DOI: 10.1063/1.5090222
   * E. Caldeweyher, J.-M. Mewes, S. Ehlert and S. Grimme, Phys. Chem. Chem. Phys.
     2020, 22, 8499-8512. DOI: 10.1039/D0CP00502A
   
   for sTDA-xTB:
   * S. Grimme and C. Bannwarth, J. Chem. Phys., 2016, 145, 054103.
     DOI: 10.1063/1.4959605
   
   in the mass-spec context:
   * V. Asgeirsson, C. Bauer and S. Grimme, Chem. Sci., 2017, 8, 4879.
     DOI: 10.1039/c7sc00601b
   * J. Koopman and S. Grimme, ACS Omega 2019, 4, 12, 15120-15133.
     DOI: 10.1021/acsomega.9b02011
   
   for metadynamics refer to:
   * S. Grimme, J. Chem. Theory Comput., 2019, 155, 2847-2862
     DOI: 10.1021/acs.jctc.9b00143
   
   for SPH calculations refer to:
   * S. Spicher and S. Grimme, J. Chem. Theory Comput., 2021, 17, 1701-1714
     DOI: 10.1021/acs.jctc.0c01306
   
   with help from (in alphabetical order)
   P. Atkinson, C. Bannwarth, F. Bohle, G. Brandenburg, E. Caldeweyher
   M. Checinski, S. Dohm, S. Ehlert, S. Ehrlich, I. Gerasimov, J. Koopman
   C. Lavigne, S. Lehtola, F. März, M. Müller, F. Musil, H. Neugebauer
   J. Pisarek, C. Plett, P. Pracht, J. Seibert, P. Shushkov, S. Spicher
   M. Stahn, M. Steiner, T. Strunk, J. Stückrath, T. Rose, and J. Unsleber
   
 * started run on 2021/11/21 at 05:27:35.453     

           -------------------------------------------------
          |                Calculation Setup                |
           -------------------------------------------------

          program call               : /home/jeff/miniconda3/bin/xtb input_structure_1.xyz --gfn 2 --ohess normal --parallel 1 --etemp 300 --chrg 0 --uhf 0 -I det_control.in
          hostname                   : jelfscompute1
          coordinate file            : input_structure_1.xyz
          omp threads                :                     1
          number of atoms            :                   304
          number of electrons        :                   954
          charge                     :                     0
          spin                       :                   0.0
          first test random number   :      0.85549033364696

   ID    Z sym.   atoms
    1    6 C      1-8, 10-14, 16-20, 22, 23, 38-45, 47-51, 53-57, 59, 60,
                  75-96, 98-102, 104-108, 110, 111, 125-132, 134-138,
                  140-144, 146, 147, 161-168, 170-174, 176-180, 182, 183,
                  197-204, 206-210, 212-216, 218, 219, 233-240, 242-246,
                  248-252, 254, 255, 269-276, 278-282, 284-288, 290, 291
    2    7 N      9, 15, 21, 24, 46, 52, 58, 61, 97, 103, 109, 112, 133, 139,
                  145, 148, 169, 175, 181, 184, 205, 211, 217, 220, 241, 247,
                  253, 256, 277, 283, 289, 292
    3    1 H      25-37, 62-74, 113-124, 149-160, 185-196, 221-232, 257-268,
                  293-304

molecular fragmentation (1/2 indicates fragments):
111111111111111111111111111111111111122222222222222222222222222222222222
222222222222222222222222222222222222222222222222222222222222222222222222
222222222222222222222222222222222222222222222222222222222222222222222222
222222222222222222222222222222222222222222222222222222222222222222222222
2222222222222222
# atoms in fragment 1/2:    37   267
 fragment masses (1/2) :      309.34     2327.52
CMA distance (Bohr)    :  79.038
constraining FC (au)   :  0.0500

           -------------------------------------------------
          |                 G F N 2 - x T B                 |
           -------------------------------------------------

        Reference                      10.1021/acs.jctc.8b01176
      * Hamiltonian:
        H0-scaling (s, p, d)           1.850000    2.230000    2.230000
        zeta-weighting                 0.500000
      * Dispersion:
        s8                             2.700000
        a1                             0.520000
        a2                             5.000000
        s9                             5.000000
      * Repulsion:
        kExp                           1.500000    1.000000
        rExp                           1.000000
      * Coulomb:
        alpha                          2.000000
        third order                    shell-resolved
        anisotropic                    true
        a3                             3.000000
        a5                             4.000000
        cn-shift                       1.200000
        cn-exp                         4.000000
        max-rad                        5.000000


          ...................................................
          :                      SETUP                      :
          :.................................................:
          :  # basis functions                 922          :
          :  # atomic orbitals                 922          :
          :  # shells                          510          :
          :  # electrons                       954          :
          :  max. iterations                   250          :
          :  Hamiltonian                  GFN2-xTB          :
          :  restarted?                      false          :
          :  GBSA solvation                  false          :
          :  PC potential                    false          :
          :  electronic temp.          300.0000000     K    :
          :  accuracy                    1.0000000          :
          :  -> integral cutoff          0.2500000E+02      :
          :  -> integral neglect         0.1000000E-07      :
          :  -> SCF convergence          0.1000000E-05 Eh   :
          :  -> wf. convergence          0.1000000E-03 e    :
          :  Broyden damping             0.4000000          :
          ...................................................

 iter      E             dE          RMSdq      gap      omega  full diag
   1   -523.2458187 -0.523246E+03  0.467E+00    0.02       0.0  T
   2   -523.7677023 -0.521884E+00  0.309E+00    0.36       1.0  T
   3   -505.8908626  0.178768E+02  0.328E+00    0.11       1.0  T
   4   -295.6725422  0.210218E+03  0.807E+00    0.16       1.0  T
   5   -480.0050989 -0.184333E+03  0.433E+00    0.07       1.0  T
   6   -520.4388543 -0.404338E+02  0.224E+00    0.08       1.0  T
   7   -523.0193321 -0.258048E+01  0.153E+00    0.02       1.0  T
   8   -523.6247860 -0.605454E+00  0.105E+00    0.26       1.0  T
   9   -524.0738012 -0.449015E+00  0.813E-01    0.10       1.0  T
  10   -524.0919406 -0.181395E-01  0.638E-01    0.16       1.0  T
  11   -524.2207757 -0.128835E+00  0.511E-01    0.05       1.0  T
  12   -524.1957879  0.249878E-01  0.482E-01    0.10       1.0  T
  13   -524.2192280 -0.234401E-01  0.425E-01    0.04       1.0  T
  14   -524.2140901  0.513790E-02  0.357E-01    0.10       1.0  T
  15   -524.2765866 -0.624965E-01  0.215E-01    0.03       1.0  T
  16   -524.2847859 -0.819927E-02  0.153E-01    0.02       1.0  T
  17   -524.2830999  0.168595E-02  0.134E-01    0.03       1.0  T
  18   -524.2904390 -0.733906E-02  0.887E-02    0.02       1.0  T
  19   -524.2928596 -0.242061E-02  0.595E-02    0.01       1.0  T
  20   -524.2901248  0.273479E-02  0.796E-02    0.02       1.0  T
  21   -524.2916029 -0.147812E-02  0.628E-02    0.02       1.0  T
  22   -524.2937200 -0.211712E-02  0.243E-02    0.01       1.0  T
  23   -524.2939577 -0.237707E-03  0.132E-02    0.01       1.0  T
  24   -524.2940732 -0.115506E-03  0.819E-03    0.01       1.0  T
  25   -524.2940855 -0.122393E-04  0.447E-03    0.01       1.3  T
  26   -524.2940469  0.385681E-04  0.760E-03    0.01       1.0  T
  27   -524.2940485 -0.162062E-05  0.662E-03    0.01       1.0  T
  28   -524.2940901 -0.415171E-04  0.262E-03    0.01       2.2  T
  29   -524.2940853  0.478414E-05  0.388E-03    0.01       1.5  T
  30   -524.2940874 -0.209489E-05  0.321E-03    0.01       1.8  T
  31   -524.2940905 -0.317693E-05  0.205E-03    0.01       2.8  T
  32   -524.2940918 -0.130468E-05  0.123E-03    0.01       4.6  T
  33   -524.2940920 -0.169788E-06  0.936E-04    0.01       6.1  T
  34   -524.2940925 -0.457761E-06  0.337E-04    0.01      17.0  T

   *** convergence criteria satisfied after 34 iterations ***

         #    Occupation            Energy/Eh            Energy/eV
      -------------------------------------------------------------
         1        2.0000           -0.6923130             -18.8388
       ...           ...                  ...                  ...
       471        2.0000           -0.3555794              -9.6758
       472        2.0000           -0.3514839              -9.5644
       473        2.0000           -0.3468897              -9.4394
       474        2.0000           -0.3465988              -9.4314
       475        2.0000           -0.3441228              -9.3641
       476        2.0000           -0.3378618              -9.1937
       477        1.1132           -0.3208808              -8.7316 (HOMO)
       478        0.8867           -0.3204487              -8.7199 (LUMO)
       479        0.0001           -0.3106100              -8.4521
       480        0.0000           -0.3103266              -8.4444
       481        0.0000           -0.3070585              -8.3555
       482                         -0.3016064              -8.2071
       ...                                ...                  ...
       922                          2.5954357              70.6254
      -------------------------------------------------------------
                  HL-Gap            0.0004321 Eh            0.0118 eV
             Fermi-level           -0.3206648 Eh           -8.7257 eV

 SCC (total)                   0 d,  0 h,  0 min, 10.245 sec
 SCC setup                      ...        0 min,  0.014 sec (  0.140%)
 Dispersion                     ...        0 min,  0.032 sec (  0.310%)
 classical contributions        ...        0 min,  0.003 sec (  0.028%)
 integral evaluation            ...        0 min,  0.224 sec (  2.188%)
 iterations                     ...        0 min,  9.256 sec ( 90.346%)
 molecular gradient             ...        0 min,  0.679 sec (  6.626%)
 printout                       ...        0 min,  0.037 sec (  0.361%)

         :::::::::::::::::::::::::::::::::::::::::::::::::::::
         ::                     SUMMARY                     ::
         :::::::::::::::::::::::::::::::::::::::::::::::::::::
         :: total energy            -513.095331188153 Eh    ::
         :: gradient norm              2.482916878156 Eh/a0 ::
         :: HOMO-LUMO gap              0.011758425124 eV    ::
         ::.................................................::
         :: SCC energy              -524.294092475877 Eh    ::
         :: -> isotropic ES            0.304892728143 Eh    ::
         :: -> anisotropic ES         -0.021295003661 Eh    ::
         :: -> anisotropic XC          0.351363217941 Eh    ::
         :: -> dispersion             -0.456936922234 Eh    ::
         :: repulsion energy          11.203415278490 Eh    ::
         :: add. restraining           0.000000000000 Eh    ::
         :: total charge              -0.000000000001 e     ::
         :::::::::::::::::::::::::::::::::::::::::::::::::::::

      ----------------------------------------------------------- 
     |                   =====================                   |
     |                        A N C O P T                        |
     |                   =====================                   |
     |               Approximate Normal Coordinate               |
     |                Rational Function Optimizer                |
      ----------------------------------------------------------- 

          ...................................................
          :                      SETUP                      :
          :.................................................:
          :   optimization level            normal          :
          :   max. optcycles                   912          :
          :   ANC micro-cycles                  20          :
          :   degrees of freedom               906          :
          :.................................................:
          :   RF solver                   davidson          :
          :   write xtbopt.log                true          :
          :   linear?                        false          :
          :   energy convergence         0.5000000E-05 Eh   :
          :   grad. convergence          0.1000000E-02 Eh/α :
          :   maximium RF displ.         1.0000000          :
          :   Hlow (freq-cutoff)         0.1000000E-01      :
          :   Hmax (freq-cutoff)         5.0000000          :
          :   S6 in model hess.         20.0000000          :
          ...................................................

generating ANC from model Hessian ...
Using Lindh-Hessian (1995)
 Shifting diagonal of input Hessian by    1.0048052141075951E-002
 Lowest  eigenvalues of input Hessian
    0.010000    0.010010    0.010022    0.010030    0.010033    0.010044
    0.010044    0.010046    0.010047    0.000000    0.000000    0.000000
    0.000000    0.000000    0.000000    0.010048    0.010051    0.010053
 Highest eigenvalues
    3.490118    3.830654    3.830655    3.830655    3.830657    3.830657


........................................................................
.............................. CYCLE    1 ..............................
........................................................................
   1   -524.2940925 -0.524294E+03  0.618E-05    0.01       0.0  T
   2   -524.2940913  0.127289E-05  0.115E-03    0.01       5.0  T
   3   -524.2940925 -0.120996E-05  0.267E-04    0.01      21.5  T
   4   -524.2940925 -0.745479E-08  0.249E-04    0.01      23.0  T
   5   -524.2940925 -0.332468E-07  0.164E-04    0.01      34.9  T
     SCC iter.                  ...        0 min,  1.382 sec
     gradient                   ...        0 min,  0.682 sec
 * total energy  :  -513.0953312 Eh     change       -0.4329627E-07 Eh
   gradient norm :     2.4829168 Eh/α   predicted     0.0000000E+00 (-100.00%)
   displ. norm   :     0.6336343 α      lambda       -0.1447010E+01
   maximum displ.:     0.2515645 α      in ANC's #904, #905, #906, ...

........................................................................
.............................. CYCLE    2 ..............................
........................................................................
   1   -524.4954246 -0.524495E+03  0.382E-01    0.09       0.0  T
   2   -524.4590776  0.363469E-01  0.313E-01    0.11       1.0  T
   3   -524.3153231  0.143755E+00  0.461E-01    0.32       1.0  T
   4   -524.4557006 -0.140378E+00  0.266E-01    0.12       1.0  T
   5   -524.4387654  0.169352E-01  0.267E-01    0.16       1.0  T
   6   -524.5045510 -0.657856E-01  0.743E-02    0.08       1.0  T
   7   -524.4951622  0.938878E-02  0.104E-01    0.09       1.0  T
   8   -524.5069448 -0.117826E-01  0.189E-02    0.08       1.0  T
   9   -524.5044693  0.247546E-02  0.495E-02    0.08       1.0  T
  10   -524.5069402 -0.247086E-02  0.154E-02    0.08       1.0  T
  11   -524.5068345  0.105663E-03  0.164E-02    0.08       1.0  T
  12   -524.5071256 -0.291067E-03  0.348E-03    0.08       1.6  T
  13   -524.5071246  0.994943E-06  0.312E-03    0.08       1.8  T
  14   -524.5071345 -0.988539E-05  0.821E-04    0.08       7.0  T
  15   -524.5071347 -0.218646E-06  0.476E-04    0.08      12.0  T
  16   -524.5071347 -0.433255E-07  0.290E-04    0.08      19.8  T
     SCC iter.                  ...        0 min,  4.362 sec
     gradient                   ...        0 min,  0.679 sec
 * total energy  :  -514.0438698 Eh     change       -0.9485386E+00 Eh
   gradient norm :     0.8744106 Eh/α   predicted    -0.1013994E+01 (   6.90%)
   displ. norm   :     0.6978565 α      lambda       -0.5293042E+00
   maximum displ.:     0.1801295 α      in ANC's #564, #514, #634, ...

........................................................................
.............................. CYCLE    3 ..............................
........................................................................
   1   -524.5542914 -0.524554E+03  0.307E-01    0.10       0.0  T
   2   -524.5469391  0.735225E-02  0.240E-01    0.11       1.0  T
   3   -524.4677673  0.791718E-01  0.319E-01    0.21       1.0  T
   4   -524.4347631  0.330043E-01  0.357E-01    0.31       1.0  T
   5   -524.5539707 -0.119208E+00  0.101E-01    0.11       1.0  T
   6   -524.5570444 -0.307376E-02  0.698E-02    0.11       1.0  T
   7   -524.5600591 -0.301468E-02  0.224E-02    0.10       1.0  T
   8   -524.5598919  0.167191E-03  0.234E-02    0.10       1.0  T
   9   -524.5601075 -0.215615E-03  0.157E-02    0.10       1.0  T
  10   -524.5601915 -0.840124E-04  0.985E-03    0.10       1.0  T
  11   -524.5602650 -0.734811E-04  0.319E-03    0.10       1.8  T
  12   -524.5602729 -0.786177E-05  0.143E-03    0.10       4.0  T
  13   -524.5602741 -0.127320E-05  0.457E-04    0.10      12.6  T
  14   -524.5602741  0.298754E-07  0.337E-04    0.10      17.0  T
  15   -524.5602742 -0.762856E-07  0.141E-04    0.10      40.7  T
     SCC iter.                  ...        0 min,  4.097 sec
     gradient                   ...        0 min,  0.679 sec
 * total energy  :  -514.4645329 Eh     change       -0.4206631E+00 Eh
   gradient norm :     0.5250757 Eh/α   predicted    -0.3935390E+00 (  -6.45%)
   displ. norm   :     0.7494689 α      lambda       -0.3330996E+00
   maximum displ.:     0.1927237 α      in ANC's #564, #188, #514, ...

........................................................................
.............................. CYCLE    4 ..............................
........................................................................
   1   -524.6891224 -0.524689E+03  0.279E-01    0.15       0.0  T
   2   -524.6853566  0.376582E-02  0.221E-01    0.14       1.0  T
   3   -524.6806192  0.473740E-02  0.172E-01    0.15       1.0  T
   4   -524.6265236  0.540956E-01  0.260E-01    0.22       1.0  T
   5   -524.6865302 -0.600066E-01  0.930E-02    0.15       1.0  T
   6   -524.6891977 -0.266759E-02  0.758E-02    0.15       1.0  T
   7   -524.6941833 -0.498552E-02  0.125E-02    0.15       1.0  T
   8   -524.6942176 -0.343153E-04  0.853E-03    0.14       1.0  T
   9   -524.6942248 -0.720374E-05  0.693E-03    0.14       1.0  T
  10   -524.6942349 -0.101033E-04  0.388E-03    0.14       1.5  T
  11   -524.6942388 -0.390069E-05  0.133E-03    0.14       4.3  T
  12   -524.6942395 -0.712449E-06  0.457E-04    0.14      12.6  T
  13   -524.6942395 -0.307434E-07  0.316E-04    0.14      18.1  T
     SCC iter.                  ...        0 min,  3.556 sec
     gradient                   ...        0 min,  0.769 sec
 * total energy  :  -514.7345203 Eh     change       -0.2699873E+00 Eh
   gradient norm :     0.2966034 Eh/α   predicted    -0.2601016E+00 (  -3.66%)
   displ. norm   :     0.8280253 α      lambda       -0.2245349E+00
   maximum displ.:     0.2071222 α      in ANC's #188, #230, #86, ...

........................................................................
.............................. CYCLE    5 ..............................
........................................................................
   1   -524.7514970 -0.524751E+03  0.235E-01    0.18       0.0  T
   2   -524.7482672  0.322975E-02  0.201E-01    0.18       1.0  T
   3   -524.7497638 -0.149655E-02  0.127E-01    0.18       1.0  T
   4   -524.7453272  0.443662E-02  0.110E-01    0.18       1.0  T
   5   -524.7528697 -0.754258E-02  0.504E-02    0.18       1.0  T
   6   -524.7538316 -0.961842E-03  0.352E-02    0.18       1.0  T
   7   -524.7548017 -0.970109E-03  0.828E-03    0.18       1.0  T
   8   -524.7548313 -0.295957E-04  0.543E-03    0.18       1.1  T
   9   -524.7548420 -0.107081E-04  0.305E-03    0.18       1.9  T
  10   -524.7548440 -0.202785E-05  0.164E-03    0.18       3.5  T
  11   -524.7548449 -0.830202E-06  0.575E-04    0.18      10.0  T
  12   -524.7548450 -0.114632E-06  0.318E-04    0.18      18.0  T
     SCC iter.                  ...        0 min,  3.333 sec
     gradient                   ...        0 min,  0.686 sec
 * total energy  :  -514.9271109 Eh     change       -0.1925906E+00 Eh
   gradient norm :     0.2138165 Eh/α   predicted    -0.1892409E+00 (  -1.74%)
   displ. norm   :     0.8484338 α      lambda       -0.1632033E+00
   maximum displ.:     0.2336626 α      in ANC's #188, #86, #230, ...

........................................................................
.............................. CYCLE    6 ..............................
........................................................................
   1   -524.7927464 -0.524793E+03  0.207E-01    0.21       0.0  T
   2   -524.7902459  0.250049E-02  0.182E-01    0.21       1.0  T
   3   -524.7926205 -0.237456E-02  0.105E-01    0.21       1.0  T
   4   -524.7928856 -0.265126E-03  0.648E-02    0.21       1.0  T
   5   -524.7948200 -0.193438E-02  0.303E-02    0.21       1.0  T
   6   -524.7952681 -0.448129E-03  0.874E-03    0.21       1.0  T
   7   -524.7952911 -0.229256E-04  0.628E-03    0.21       1.0  T
   8   -524.7953083 -0.172625E-04  0.300E-03    0.21       1.9  T
   9   -524.7953080  0.319744E-06  0.222E-03    0.21       2.6  T
  10   -524.7953109 -0.292417E-05  0.969E-04    0.21       5.9  T
  11   -524.7953115 -0.605600E-06  0.314E-04    0.21      18.3  T
  12   -524.7953116 -0.374077E-07  0.148E-04    0.21      38.8  T
     SCC iter.                  ...        0 min,  3.408 sec
     gradient                   ...        0 min,  0.686 sec
 * total energy  :  -515.0610467 Eh     change       -0.1339358E+00 Eh
   gradient norm :     0.1475737 Eh/α   predicted    -0.1403437E+00 (   4.78%)
   displ. norm   :     0.8308569 α      lambda       -0.1035823E+00
   maximum displ.:     0.2628686 α      in ANC's #188, #230, #232, ...

........................................................................
.............................. CYCLE    7 ..............................
........................................................................
   1   -524.8231321 -0.524823E+03  0.172E-01    0.24       0.0  T
   2   -524.8225706  0.561496E-03  0.123E-01    0.23       1.0  T
   3   -524.8177605  0.481006E-02  0.111E-01    0.24       1.0  T
   4   -524.8227819 -0.502140E-02  0.436E-02    0.23       1.0  T
   5   -524.8237942 -0.101236E-02  0.170E-02    0.23       1.0  T
   6   -524.8239767 -0.182409E-03  0.410E-03    0.23       1.4  T
   7   -524.8239808 -0.418943E-05  0.295E-03    0.23       1.9  T
   8   -524.8239837 -0.281919E-05  0.174E-03    0.23       3.3  T
   9   -524.8239846 -0.904581E-06  0.847E-04    0.23       6.8  T
  10   -524.8239848 -0.262700E-06  0.348E-04    0.23      16.5  T
     SCC iter.                  ...        0 min,  2.843 sec
     gradient                   ...        0 min,  0.686 sec
 * total energy  :  -515.1499963 Eh     change       -0.8894953E-01 Eh
   gradient norm :     0.1179146 Eh/α   predicted    -0.8754392E-01 (  -1.58%)
   displ. norm   :     0.8534911 α      lambda       -0.8139896E-01
   maximum displ.:     0.2418380 α      in ANC's #188, #230, #102, ...

........................................................................
.............................. CYCLE    8 ..............................
........................................................................
   1   -524.8535879 -0.524854E+03  0.160E-01    0.27       0.0  T
   2   -524.8533940  0.193886E-03  0.104E-01    0.27       1.0  T
   3   -524.8454518  0.794226E-02  0.112E-01    0.27       1.0  T
   4   -524.8532748 -0.782307E-02  0.391E-02    0.27       1.0  T
   5   -524.8540702 -0.795401E-03  0.909E-03    0.27       1.0  T
   6   -524.8541031 -0.328557E-04  0.394E-03    0.27       1.5  T
   7   -524.8541090 -0.589553E-05  0.218E-03    0.27       2.6  T
   8   -524.8541105 -0.147592E-05  0.131E-03    0.27       4.4  T
   9   -524.8541112 -0.759550E-06  0.529E-04    0.27      10.8  T
  10   -524.8541113 -0.992544E-07  0.201E-04    0.27      28.5  T
     SCC iter.                  ...        0 min,  2.849 sec
     gradient                   ...        0 min,  0.685 sec
 * total energy  :  -515.2210354 Eh     change       -0.7103918E-01 Eh
   gradient norm :     0.0887160 Eh/α   predicted    -0.7034712E-01 (  -0.97%)
   displ. norm   :     0.8889520 α      lambda       -0.6487338E-01
   maximum displ.:     0.2903966 α      in ANC's #86, #102, #66, ...

........................................................................
.............................. CYCLE    9 ..............................
........................................................................
   1   -524.8798162 -0.524880E+03  0.134E-01    0.30       0.0  T
   2   -524.8796414  0.174846E-03  0.881E-02    0.30       1.0  T
   3   -524.8754735  0.416787E-02  0.897E-02    0.30       1.0  T
   4   -524.8797361 -0.426254E-02  0.271E-02    0.30       1.0  T
   5   -524.8801276 -0.391527E-03  0.780E-03    0.30       1.0  T
   6   -524.8801544 -0.268294E-04  0.238E-03    0.30       2.4  T
   7   -524.8801553 -0.922122E-06  0.139E-03    0.30       4.1  T
   8   -524.8801554 -0.388463E-07  0.104E-03    0.30       5.5  T
   9   -524.8801560 -0.601319E-06  0.394E-04    0.30      14.6  T
  10   -524.8801561 -0.838089E-07  0.135E-04    0.30      42.6  T
     SCC iter.                  ...        0 min,  2.851 sec
     gradient                   ...        0 min,  0.684 sec
 * total energy  :  -515.2790425 Eh     change       -0.5800706E-01 Eh
   gradient norm :     0.0667917 Eh/α   predicted    -0.5806936E-01 (   0.11%)
   displ. norm   :     0.8984146 α      lambda       -0.5373468E-01
   maximum displ.:     0.2628103 α      in ANC's #102, #86, #66, ...

........................................................................
.............................. CYCLE   10 ..............................
........................................................................
   1   -524.8916395 -0.524892E+03  0.124E-01    0.33       0.0  T
   2   -524.8915292  0.110325E-03  0.782E-02    0.32       1.0  T
   3   -524.8879054  0.362375E-02  0.809E-02    0.33       1.0  T
   4   -524.8916500 -0.374457E-02  0.206E-02    0.33       1.0  T
   5   -524.8918627 -0.212737E-03  0.478E-03    0.33       1.2  T
   6   -524.8918703 -0.755864E-05  0.215E-03    0.33       2.7  T
   7   -524.8918713 -0.103076E-05  0.113E-03    0.33       5.1  T
   8   -524.8918714 -0.417255E-07  0.917E-04    0.33       6.3  T
   9   -524.8918718 -0.389921E-06  0.214E-04    0.33      26.7  T
     SCC iter.                  ...        0 min,  2.568 sec
     gradient                   ...        0 min,  0.685 sec
 * total energy  :  -515.3276629 Eh     change       -0.4862043E-01 Eh
   gradient norm :     0.0563091 Eh/α   predicted    -0.4855330E-01 (  -0.14%)
   displ. norm   :     0.9180622 α      lambda       -0.4622275E-01
   maximum displ.:     0.2941348 α      in ANC's #86, #66, #102, ...

........................................................................
.............................. CYCLE   11 ..............................
........................................................................
   1   -524.9288513 -0.524929E+03  0.116E-01    0.35       0.0  T
   2   -524.9287951  0.561754E-04  0.719E-02    0.35       1.0  T
   3   -524.9263949  0.240022E-02  0.682E-02    0.35       1.0  T
   4   -524.9288382 -0.244330E-02  0.177E-02    0.35       1.0  T
   5   -524.9290154 -0.177213E-03  0.399E-03    0.35       1.4  T
   6   -524.9290208 -0.535582E-05  0.182E-03    0.35       3.1  T
   7   -524.9290213 -0.551108E-06  0.100E-03    0.35       5.7  T
   8   -524.9290215 -0.210830E-06  0.457E-04    0.35      12.6  T
   9   -524.9290216 -0.729540E-07  0.188E-04    0.35      30.5  T
     SCC iter.                  ...        0 min,  2.563 sec
     gradient                   ...        0 min,  0.683 sec
 * total energy  :  -515.3700717 Eh     change       -0.4240879E-01 Eh
   gradient norm :     0.0512243 Eh/α   predicted    -0.4259055E-01 (   0.43%)
   displ. norm   :     0.9263060 α      lambda       -0.4083236E-01
   maximum displ.:     0.3234987 α      in ANC's #66, #86, #59, ...

........................................................................
.............................. CYCLE   12 ..............................
........................................................................
   1   -524.9521724 -0.524952E+03  0.112E-01    0.37       0.0  T
   2   -524.9520962  0.761190E-04  0.709E-02    0.37       1.0  T
   3   -524.9501659  0.193036E-02  0.663E-02    0.37       1.0  T
   4   -524.9522212 -0.205527E-02  0.155E-02    0.37       1.0  T
   5   -524.9523473 -0.126102E-03  0.435E-03    0.37       1.3  T
   6   -524.9523553 -0.806534E-05  0.181E-03    0.37       3.2  T
   7   -524.9523560 -0.636638E-06  0.974E-04    0.37       5.9  T
   8   -524.9523562 -0.205991E-06  0.522E-04    0.37      11.0  T
     SCC iter.                  ...        0 min,  2.281 sec
     gradient                   ...        0 min,  0.684 sec
 * total energy  :  -515.4071295 Eh     change       -0.3705774E-01 Eh
   gradient norm :     0.0497070 Eh/α   predicted    -0.3793418E-01 (   2.37%)
   displ. norm   :     0.9327590 α      lambda       -0.3729141E-01
   maximum displ.:     0.3465362 α      in ANC's #66, #59, #102, ...

........................................................................
.............................. CYCLE   13 ..............................
........................................................................
   1   -524.9757050 -0.524976E+03  0.114E-01    0.39       0.0  T
   2   -524.9755789  0.126199E-03  0.748E-02    0.38       1.0  T
   3   -524.9739890  0.158987E-02  0.670E-02    0.39       1.0  T
   4   -524.9758274 -0.183837E-02  0.158E-02    0.39       1.0  T
   5   -524.9759533 -0.125969E-03  0.478E-03    0.39       1.2  T
   6   -524.9759638 -0.105161E-04  0.193E-03    0.39       3.0  T
   7   -524.9759646 -0.792147E-06  0.105E-03    0.39       5.5  T
   8   -524.9759649 -0.229876E-06  0.571E-04    0.39      10.1  T
   9   -524.9759650 -0.139922E-06  0.196E-04    0.39      29.3  T
     SCC iter.                  ...        0 min,  2.574 sec
     gradient                   ...        0 min,  0.686 sec
 * total energy  :  -515.4398999 Eh     change       -0.3277041E-01 Eh
   gradient norm :     0.0488500 Eh/α   predicted    -0.3486823E-01 (   6.40%)
   displ. norm   :     0.9197462 α      lambda       -0.3238113E-01
   maximum displ.:     0.3655944 α      in ANC's #66, #59, #86, ...

........................................................................
.............................. CYCLE   14 ..............................
........................................................................
   1   -525.0092082 -0.525009E+03  0.107E-01    0.41       0.0  T
   2   -525.0091703  0.379218E-04  0.659E-02    0.40       1.0  T
   3   -525.0076658  0.150452E-02  0.584E-02    0.41       1.0  T
   4   -525.0092462 -0.158047E-02  0.129E-02    0.40       1.0  T
   5   -525.0093378 -0.915747E-04  0.360E-03    0.40       1.6  T
   6   -525.0093435 -0.570718E-05  0.161E-03    0.40       3.6  T
   7   -525.0093441 -0.606434E-06  0.856E-04    0.40       6.7  T
   8   -525.0093443 -0.179698E-06  0.419E-04    0.40      13.7  T
     SCC iter.                  ...        0 min,  2.291 sec
     gradient                   ...        0 min,  0.683 sec
 * total energy  :  -515.4697811 Eh     change       -0.2988124E-01 Eh
   gradient norm :     0.0368456 Eh/α   predicted    -0.2988672E-01 (   0.02%)
   displ. norm   :     0.9342156 α      lambda       -0.2857904E-01
   maximum displ.:     0.4053247 α      in ANC's #66, #59, #63, ...

........................................................................
.............................. CYCLE   15 ..............................
........................................................................
   1   -525.0293820 -0.525029E+03  0.104E-01    0.42       0.0  T
   2   -525.0293826 -0.629522E-06  0.605E-02    0.42       1.0  T
   3   -525.0283310  0.105160E-02  0.433E-02    0.42       1.0  T
   4   -525.0293906 -0.105960E-02  0.111E-02    0.42       1.0  T
   5   -525.0294611 -0.704913E-04  0.269E-03    0.42       2.1  T
   6   -525.0294640 -0.287630E-05  0.137E-03    0.42       4.2  T
   7   -525.0294645 -0.490574E-06  0.621E-04    0.42       9.2  T
   8   -525.0294645 -0.278442E-07  0.401E-04    0.42      14.3  T
     SCC iter.                  ...        0 min,  2.284 sec
     gradient                   ...        0 min,  0.684 sec
 * total energy  :  -515.4968327 Eh     change       -0.2705159E-01 Eh
   gradient norm :     0.0337205 Eh/α   predicted    -0.2676084E-01 (  -1.07%)
   displ. norm   :     0.9398900 α      lambda       -0.2623913E-01
   maximum displ.:     0.4272825 α      in ANC's #66, #59, #63, ...

........................................................................
.............................. CYCLE   16 ..............................
........................................................................
   1   -525.0565055 -0.525057E+03  0.104E-01    0.44       0.0  T
   2   -525.0565091 -0.351261E-05  0.610E-02    0.43       1.0  T
   3   -525.0554890  0.102007E-02  0.424E-02    0.44       1.0  T
   4   -525.0565185 -0.102948E-02  0.108E-02    0.44       1.0  T
   5   -525.0565847 -0.662657E-04  0.276E-03    0.43       2.1  T
   6   -525.0565880 -0.328197E-05  0.133E-03    0.44       4.3  T
   7   -525.0565885 -0.476176E-06  0.623E-04    0.44       9.2  T
   8   -525.0565885 -0.266612E-07  0.406E-04    0.44      14.1  T
     SCC iter.                  ...        0 min,  2.292 sec
     gradient                   ...        0 min,  0.684 sec
 * total energy  :  -515.5217585 Eh     change       -0.2492577E-01 Eh
   gradient norm :     0.0305913 Eh/α   predicted    -0.2470933E-01 (  -0.87%)
   displ. norm   :     0.9435256 α      lambda       -0.2408741E-01
   maximum displ.:     0.4443207 α      in ANC's #66, #59, #63, ...

........................................................................
.............................. CYCLE   17 ..............................
........................................................................
   1   -525.0789214 -0.525079E+03  0.108E-01    0.45       0.0  T
   2   -525.0789323 -0.108427E-04  0.629E-02    0.45       1.0  T
   3   -525.0781079  0.824331E-03  0.387E-02    0.45       1.0  T
   4   -525.0789399 -0.831950E-03  0.974E-03    0.45       1.0  T
   5   -525.0789921 -0.522382E-04  0.274E-03    0.45       2.1  T
   6   -525.0789957 -0.352505E-05  0.130E-03    0.45       4.4  T
   7   -525.0789961 -0.484812E-06  0.589E-04    0.45       9.7  T
   8   -525.0789962 -0.167432E-07  0.376E-04    0.45      15.2  T
     SCC iter.                  ...        0 min,  2.293 sec
     gradient                   ...        0 min,  0.685 sec
 * total energy  :  -515.5446392 Eh     change       -0.2288074E-01 Eh
   gradient norm :     0.0291827 Eh/α   predicted    -0.2276550E-01 (  -0.50%)
   displ. norm   :     0.9439059 α      lambda       -0.2207402E-01
   maximum displ.:     0.4577053 α      in ANC's #66, #59, #67, ...

........................................................................
.............................. CYCLE   18 ..............................
........................................................................
   1   -525.0979930 -0.525098E+03  0.113E-01    0.47       0.0  T
   2   -525.0980027 -0.971249E-05  0.658E-02    0.46       1.0  T
   3   -525.0971774  0.825359E-03  0.384E-02    0.47       1.0  T
   4   -525.0980104 -0.833003E-03  0.921E-03    0.47       1.0  T
   5   -525.0980584 -0.479850E-04  0.269E-03    0.47       2.1  T
   6   -525.0980617 -0.336854E-05  0.125E-03    0.47       4.6  T
   7   -525.0980621 -0.413982E-06  0.580E-04    0.47       9.9  T
   8   -525.0980622 -0.198394E-07  0.357E-04    0.47      16.1  T
     SCC iter.                  ...        0 min,  2.283 sec
     gradient                   ...        0 min,  0.693 sec
 * total energy  :  -515.5655004 Eh     change       -0.2086122E-01 Eh
   gradient norm :     0.0282921 Eh/α   predicted    -0.2087054E-01 (   0.04%)
   displ. norm   :     0.9444347 α      lambda       -0.2031180E-01
   maximum displ.:     0.4569682 α      in ANC's #66, #59, #63, ...

........................................................................
.............................. CYCLE   19 ..............................
........................................................................
   1   -525.1200668 -0.525120E+03  0.116E-01    0.48       0.0  T
   2   -525.1200825 -0.157592E-04  0.675E-02    0.48       1.0  T
   3   -525.1195039  0.578609E-03  0.325E-02    0.48       1.0  T
   4   -525.1200828 -0.578855E-03  0.828E-03    0.48       1.0  T
   5   -525.1201212 -0.384233E-04  0.245E-03    0.48       2.3  T
   6   -525.1201239 -0.264881E-05  0.126E-03    0.48       4.5  T
   7   -525.1201243 -0.451515E-06  0.548E-04    0.48      10.5  T
   8   -525.1201243 -0.245012E-07  0.306E-04    0.48      18.8  T
     SCC iter.                  ...        0 min,  2.285 sec
     gradient                   ...        0 min,  0.685 sec
 * total energy  :  -515.5843886 Eh     change       -0.1888820E-01 Eh
   gradient norm :     0.0307007 Eh/α   predicted    -0.1921454E-01 (   1.73%)
   displ. norm   :     0.9397506 α      lambda       -0.1860769E-01
   maximum displ.:     0.4619128 α      in ANC's #66, #59, #67, ...

........................................................................
.............................. CYCLE   20 ..............................
........................................................................
   1   -525.1286755 -0.525129E+03  0.123E-01    0.50       0.0  T
   2   -525.1286847 -0.923035E-05  0.717E-02    0.50       1.0  T
   3   -525.1280427  0.642065E-03  0.340E-02    0.50       1.0  T
   4   -525.1286923 -0.649656E-03  0.745E-03    0.50       1.0  T
   5   -525.1287237 -0.314068E-04  0.229E-03    0.50       2.5  T
   6   -525.1287258 -0.203413E-05  0.124E-03    0.50       4.6  T
   7   -525.1287261 -0.370480E-06  0.574E-04    0.50      10.0  T
   8   -525.1287262 -0.624718E-07  0.307E-04    0.50      18.7  T
     SCC iter.                  ...        0 min,  2.294 sec
     gradient                   ...        0 min,  0.682 sec
 * total energy  :  -515.6015298 Eh     change       -0.1714119E-01 Eh
   gradient norm :     0.0275677 Eh/α   predicted    -0.1752032E-01 (   2.21%)
   displ. norm   :     0.9291102 α      lambda       -0.1651149E-01
   maximum displ.:     0.4553009 α      in ANC's #66, #59, #67, ...
 * RMSD in coord.:     0.8073786 α      energy gain  -0.2506199E+01 Eh

generating ANC from model Hessian ...
Using Lindh-Hessian (1995)
 Shifting diagonal of input Hessian by    1.0024269922309578E-002
 Lowest  eigenvalues of input Hessian
    0.010000    0.010004    0.010008    0.010016    0.010020    0.010023
    0.010024    0.000000    0.000000    0.000000    0.000000    0.000000
    0.000000    0.010025    0.010026    0.010028    0.010032    0.010036
 Highest eigenvalues
    2.665288    2.697273    2.699922    2.700141    2.704735    2.707475


........................................................................
.............................. CYCLE   21 ..............................
........................................................................
   1   -525.1457960 -0.525146E+03  0.116E-01    0.52       0.0  T
   2   -525.1458082 -0.121613E-04  0.679E-02    0.51       1.0  T
   3   -525.1453642  0.444044E-03  0.281E-02    0.52       1.0  T
   4   -525.1458049 -0.440712E-03  0.719E-03    0.51       1.0  T
   5   -525.1458360 -0.310886E-04  0.190E-03    0.51       3.0  T
   6   -525.1458370 -0.102621E-05  0.116E-03    0.51       5.0  T
   7   -525.1458374 -0.357752E-06  0.468E-04    0.51      12.2  T
   8   -525.1458374 -0.384756E-07  0.236E-04    0.51      24.3  T
     SCC iter.                  ...        0 min,  2.287 sec
     gradient                   ...        0 min,  0.684 sec
 * total energy  :  -515.6168299 Eh     change       -0.1530003E-01 Eh
   gradient norm :     0.0257790 Eh/α   predicted     0.0000000E+00 (-100.00%)
   displ. norm   :     0.6386252 α      lambda       -0.1099831E-01
   maximum displ.:     0.3269044 α      in ANC's #68, #65, #64, ...

........................................................................
.............................. CYCLE   22 ..............................
........................................................................
   1   -525.1526067 -0.525153E+03  0.122E-01    0.53       0.0  T
   2   -525.1526181 -0.113823E-04  0.719E-02    0.53       1.0  T
   3   -525.1525263  0.917920E-04  0.129E-02    0.53       1.0  T
   4   -525.1526097 -0.834009E-04  0.502E-03    0.53       1.1  T
   5   -525.1526253 -0.155810E-04  0.139E-03    0.53       4.1  T
   6   -525.1526254 -0.771890E-07  0.925E-04    0.53       6.2  T
   7   -525.1526256 -0.202315E-06  0.461E-04    0.53      12.4  T
     SCC iter.                  ...        0 min,  2.000 sec
     gradient                   ...        0 min,  0.705 sec
 * total energy  :  -515.6267507 Eh     change       -0.9920864E-02 Eh
   gradient norm :     0.0225003 Eh/α   predicted    -0.7741965E-02 ( -21.96%)
   displ. norm   :     0.8948135 α      lambda       -0.1290614E-01
   maximum displ.:     0.4822098 α      in ANC's #68, #65, #64, ...

........................................................................
.............................. CYCLE   23 ..............................
........................................................................
   1   -525.1604593 -0.525160E+03  0.124E-01    0.55       0.0  T
   2   -525.1604769 -0.176284E-04  0.721E-02    0.55       1.0  T
   3   -525.1603512  0.125702E-03  0.160E-02    0.55       1.0  T
   4   -525.1604681 -0.116942E-03  0.589E-03    0.55       1.0  T
   5   -525.1604896 -0.214380E-04  0.147E-03    0.55       3.9  T
   6   -525.1604896 -0.331776E-07  0.972E-04    0.55       5.9  T
   7   -525.1604899 -0.259036E-06  0.457E-04    0.55      12.5  T
     SCC iter.                  ...        0 min,  1.996 sec
     gradient                   ...        0 min,  0.683 sec
 * total energy  :  -515.6387076 Eh     change       -0.1195692E-01 Eh
   gradient norm :     0.0170126 Eh/α   predicted    -0.1161999E-01 (  -2.82%)
   displ. norm   :     0.9114303 α      lambda       -0.1153848E-01
   maximum displ.:     0.4987361 α      in ANC's #68, #65, #64, ...

........................................................................
.............................. CYCLE   24 ..............................
........................................................................
   1   -525.1684693 -0.525168E+03  0.113E-01    0.57       0.0  T
   2   -525.1684882 -0.188596E-04  0.655E-02    0.56       1.0  T
   3   -525.1683980  0.901790E-04  0.145E-02    0.57       1.0  T
   4   -525.1684846 -0.865489E-04  0.505E-03    0.57       1.1  T
   5   -525.1685000 -0.154364E-04  0.144E-03    0.57       4.0  T
   6   -525.1685001 -0.121681E-06  0.959E-04    0.57       6.0  T
   7   -525.1685004 -0.312163E-06  0.358E-04    0.57      16.0  T
     SCC iter.                  ...        0 min,  2.002 sec
     gradient                   ...        0 min,  0.684 sec
 * total energy  :  -515.6493604 Eh     change       -0.1065271E-01 Eh
   gradient norm :     0.0154624 Eh/α   predicted    -0.1056178E-01 (  -0.85%)
   displ. norm   :     0.9069107 α      lambda       -0.9905842E-02
   maximum displ.:     0.4959725 α      in ANC's #68, #65, #64, ...

........................................................................
.............................. CYCLE   25 ..............................
........................................................................
   1   -525.1714849 -0.525171E+03  0.112E-01    0.58       0.0  T
   2   -525.1715017 -0.168105E-04  0.649E-02    0.58       1.0  T
   3   -525.1714432  0.585008E-04  0.123E-02    0.58       1.0  T
   4   -525.1715037 -0.605170E-04  0.386E-03    0.58       1.5  T
   5   -525.1715108 -0.705207E-05  0.146E-03    0.58       3.9  T
   6   -525.1715109 -0.150907E-06  0.101E-03    0.58       5.7  T
   7   -525.1715113 -0.410851E-06  0.354E-04    0.58      16.2  T
   8   -525.1715114 -0.565824E-07  0.105E-04    0.58      54.5  T
     SCC iter.                  ...        0 min,  2.286 sec
     gradient                   ...        0 min,  0.683 sec
 * total energy  :  -515.6584004 Eh     change       -0.9040018E-02 Eh
   gradient norm :     0.0134557 Eh/α   predicted    -0.9026649E-02 (  -0.15%)
   displ. norm   :     0.8921276 α      lambda       -0.8309898E-02
   maximum displ.:     0.4833381 α      in ANC's #68, #65, #64, ...

........................................................................
.............................. CYCLE   26 ..............................
........................................................................
   1   -525.1827715 -0.525183E+03  0.106E-01    0.59       0.0  T
   2   -525.1827841 -0.126578E-04  0.615E-02    0.59       1.0  T
   3   -525.1827135  0.706449E-04  0.126E-02    0.59       1.0  T
   4   -525.1827868 -0.732894E-04  0.359E-03    0.59       1.6  T
   5   -525.1827927 -0.593962E-05  0.147E-03    0.59       3.9  T
   6   -525.1827929 -0.122972E-06  0.105E-03    0.59       5.5  T
   7   -525.1827934 -0.522902E-06  0.288E-04    0.59      19.9  T
   8   -525.1827934 -0.316697E-07  0.108E-04    0.59      53.2  T
     SCC iter.                  ...        0 min,  2.276 sec
     gradient                   ...        0 min,  0.680 sec
 * total energy  :  -515.6658190 Eh     change       -0.7418584E-02 Eh
   gradient norm :     0.0176150 Eh/α   predicted    -0.7461924E-02 (   0.58%)
   displ. norm   :     0.8764129 α      lambda       -0.6864053E-02
   maximum displ.:     0.4629706 α      in ANC's #68, #65, #64, ...

........................................................................
.............................. CYCLE   27 ..............................
........................................................................
   1   -525.1831927 -0.525183E+03  0.108E-01    0.59       0.0  T
   2   -525.1832051 -0.124150E-04  0.633E-02    0.59       1.0  T
   3   -525.1831753  0.297650E-04  0.863E-03    0.59       1.0  T
   4   -525.1832073 -0.320253E-04  0.303E-03    0.59       1.9  T
   5   -525.1832108 -0.345803E-05  0.146E-03    0.59       3.9  T
   6   -525.1832111 -0.277559E-06  0.892E-04    0.59       6.4  T
   7   -525.1832114 -0.359379E-06  0.342E-04    0.59      16.7  T
     SCC iter.                  ...        0 min,  2.002 sec
     gradient                   ...        0 min,  0.684 sec
 * total energy  :  -515.6717163 Eh     change       -0.5897361E-02 Eh
   gradient norm :     0.0189658 Eh/α   predicted    -0.6068165E-02 (   2.90%)
   displ. norm   :     0.8479636 α      lambda       -0.5460043E-02
   maximum displ.:     0.4364416 α      in ANC's #68, #65, #64, ...

........................................................................
.............................. CYCLE   28 ..............................
........................................................................
   1   -525.1925725 -0.525193E+03  0.992E-02    0.59       0.0  T
   2   -525.1925821 -0.959740E-05  0.580E-02    0.59       1.0  T
   3   -525.1925281  0.539376E-04  0.103E-02    0.59       1.0  T
   4   -525.1925849 -0.567591E-04  0.292E-03    0.59       2.0  T
   5   -525.1925882 -0.331927E-05  0.138E-03    0.59       4.1  T
   6   -525.1925884 -0.180944E-06  0.897E-04    0.59       6.4  T
   7   -525.1925888 -0.374089E-06  0.297E-04    0.59      19.3  T
     SCC iter.                  ...        0 min,  2.009 sec
     gradient                   ...        0 min,  0.682 sec
 * total energy  :  -515.6762985 Eh     change       -0.4582210E-02 Eh
   gradient norm :     0.0131790 Eh/α   predicted    -0.4693021E-02 (   2.42%)
   displ. norm   :     0.8142987 α      lambda       -0.3964977E-02
   maximum displ.:     0.3995012 α      in ANC's #68, #64, #65, ...

........................................................................
.............................. CYCLE   29 ..............................
........................................................................
   1   -525.1954460 -0.525195E+03  0.932E-02    0.59       0.0  T
   2   -525.1954542 -0.821693E-05  0.544E-02    0.59       1.0  T
   3   -525.1954406  0.135677E-04  0.628E-03    0.59       1.0  T
   4   -525.1954568 -0.161668E-04  0.222E-03    0.59       2.6  T
   5   -525.1954580 -0.119182E-05  0.126E-03    0.59       4.6  T
   6   -525.1954583 -0.322590E-06  0.595E-04    0.59       9.6  T
   7   -525.1954585 -0.157987E-06  0.247E-04    0.59      23.3  T
     SCC iter.                  ...        0 min,  2.007 sec
     gradient                   ...        0 min,  0.684 sec
 * total energy  :  -515.6796433 Eh     change       -0.3344718E-02 Eh
   gradient norm :     0.0083464 Eh/α   predicted    -0.3297053E-02 (  -1.43%)
   displ. norm   :     0.7754638 α      lambda       -0.2809985E-02
   maximum displ.:     0.3521663 α      in ANC's #68, #20, #64, ...

........................................................................
.............................. CYCLE   30 ..............................
........................................................................
   1   -525.2013937 -0.525201E+03  0.836E-02    0.59       0.0  T
   2   -525.2014004 -0.670618E-05  0.488E-02    0.59       1.0  T
   3   -525.2013768  0.235727E-04  0.733E-03    0.59       1.0  T
   4   -525.2014029 -0.260763E-04  0.211E-03    0.59       2.7  T
   5   -525.2014041 -0.119805E-05  0.116E-03    0.59       4.9  T
   6   -525.2014043 -0.176530E-06  0.662E-04    0.59       8.7  T
   7   -525.2014045 -0.230081E-06  0.210E-04    0.59      27.4  T
     SCC iter.                  ...        0 min,  2.005 sec
     gradient                   ...        0 min,  0.682 sec
 * total energy  :  -515.6819466 Eh     change       -0.2303350E-02 Eh
   gradient norm :     0.0097933 Eh/α   predicted    -0.2249876E-02 (  -2.32%)
   displ. norm   :     0.7381691 α      lambda       -0.2060069E-02
   maximum displ.:     0.3054922 α      in ANC's #20, #68, #64, ...

........................................................................
.............................. CYCLE   31 ..............................
........................................................................
   1   -525.2074686 -0.525207E+03  0.801E-02    0.59       0.0  T
   2   -525.2074758 -0.715281E-05  0.469E-02    0.59       1.0  T
   3   -525.2074464  0.293689E-04  0.776E-03    0.59       1.0  T
   4   -525.2074757 -0.292793E-04  0.280E-03    0.59       2.1  T
   5   -525.2074794 -0.366966E-05  0.118E-03    0.59       4.9  T
   6   -525.2074795 -0.132901E-06  0.785E-04    0.59       7.3  T
   7   -525.2074798 -0.300545E-06  0.235E-04    0.59      24.4  T
     SCC iter.                  ...        0 min,  1.935 sec
     gradient                   ...        0 min,  0.808 sec
 * total energy  :  -515.6833882 Eh     change       -0.1441604E-02 Eh
   gradient norm :     0.0207797 Eh/α   predicted    -0.1591296E-02 (  10.38%)
   displ. norm   :     0.6448002 α      lambda       -0.1561859E-02
   maximum displ.:     0.3140544 α      in ANC's #20, #68, #19, ...

........................................................................
.............................. CYCLE   32 ..............................
........................................................................
   1   -525.2131639 -0.525213E+03  0.659E-02    0.59       0.0  T
   2   -525.2131685 -0.457537E-05  0.386E-02    0.59       1.0  T
   3   -525.2131064  0.620423E-04  0.101E-02    0.59       1.0  T
   4   -525.2131692 -0.627680E-04  0.260E-03    0.59       2.2  T
   5   -525.2131726 -0.336235E-05  0.107E-03    0.59       5.4  T
   6   -525.2131728 -0.183237E-06  0.683E-04    0.59       8.4  T
   7   -525.2131729 -0.178103E-06  0.225E-04    0.59      25.5  T
     SCC iter.                  ...        0 min,  2.003 sec
     gradient                   ...        0 min,  0.681 sec
 * total energy  :  -515.6844426 Eh     change       -0.1054432E-02 Eh
   gradient norm :     0.0114356 Eh/α   predicted    -0.1105619E-02 (   4.85%)
   displ. norm   :     0.5238231 α      lambda       -0.8342882E-03
   maximum displ.:     0.3011828 α      in ANC's #20, #19, #68, ...

........................................................................
.............................. CYCLE   33 ..............................
........................................................................
   1   -525.2146339 -0.525215E+03  0.429E-02    0.59       0.0  T
   2   -525.2146361 -0.220664E-05  0.251E-02    0.59       1.0  T
   3   -525.2146178  0.183767E-04  0.647E-03    0.59       1.0  T
   4   -525.2146373 -0.195900E-04  0.133E-03    0.59       4.3  T
   5   -525.2146378 -0.471701E-06  0.716E-04    0.59       8.0  T
   6   -525.2146379 -0.102804E-06  0.445E-04    0.59      12.9  T
     SCC iter.                  ...        0 min,  1.715 sec
     gradient                   ...        0 min,  0.681 sec
 * total energy  :  -515.6851185 Eh     change       -0.6758190E-03 Eh
   gradient norm :     0.0094272 Eh/α   predicted    -0.5316376E-03 ( -21.33%)
   displ. norm   :     0.5253736 α      lambda       -0.8646930E-03
   maximum displ.:     0.3341598 α      in ANC's #20, #19, #21, ...

........................................................................
.............................. CYCLE   34 ..............................
........................................................................
   1   -525.2218833 -0.525222E+03  0.370E-02    0.59       0.0  T
   2   -525.2218847 -0.145041E-05  0.217E-02    0.59       1.0  T
   3   -525.2218614  0.232915E-04  0.671E-03    0.59       1.0  T
   4   -525.2218855 -0.240052E-04  0.145E-03    0.59       4.0  T
   5   -525.2218863 -0.853507E-06  0.684E-04    0.59       8.4  T
   6   -525.2218865 -0.169214E-06  0.365E-04    0.59      15.7  T
     SCC iter.                  ...        0 min,  1.716 sec
     gradient                   ...        0 min,  0.682 sec
 * total energy  :  -515.6858577 Eh     change       -0.7392223E-03 Eh
   gradient norm :     0.0069481 Eh/α   predicted    -0.5516844E-03 ( -25.37%)
   displ. norm   :     0.5784539 α      lambda       -0.9948153E-03
   maximum displ.:     0.3803920 α      in ANC's #20, #19, #21, ...

........................................................................
.............................. CYCLE   35 ..............................
........................................................................
   1   -525.2268110 -0.525227E+03  0.354E-02    0.59       0.0  T
   2   -525.2268122 -0.123069E-05  0.209E-02    0.59       1.0  T
   3   -525.2267910  0.211925E-04  0.659E-03    0.59       1.0  T
   4   -525.2268129 -0.218972E-04  0.140E-03    0.59       4.1  T
   5   -525.2268137 -0.778455E-06  0.599E-04    0.59       9.6  T
   6   -525.2268138 -0.124541E-06  0.330E-04    0.59      17.4  T
     SCC iter.                  ...        0 min,  1.718 sec
     gradient                   ...        0 min,  0.679 sec
 * total energy  :  -515.6867694 Eh     change       -0.9117242E-03 Eh
   gradient norm :     0.0079129 Eh/α   predicted    -0.6638453E-03 ( -27.19%)
   displ. norm   :     0.6881755 α      lambda       -0.1207502E-02
   maximum displ.:     0.4461265 α      in ANC's #20, #19, #21, ...

........................................................................
.............................. CYCLE   36 ..............................
........................................................................
   1   -525.2194662 -0.525219E+03  0.396E-02    0.59       0.0  T
   2   -525.2194678 -0.161547E-05  0.233E-02    0.59       1.0  T
   3   -525.2194404  0.273937E-04  0.731E-03    0.59       1.0  T
   4   -525.2194682 -0.277812E-04  0.176E-03    0.59       3.3  T
   5   -525.2194697 -0.147967E-05  0.686E-04    0.59       8.4  T
   6   -525.2194699 -0.160193E-06  0.376E-04    0.59      15.3  T
   7   -525.2194699 -0.343217E-07  0.183E-04    0.59      31.3  T
     SCC iter.                  ...        0 min,  2.003 sec
     gradient                   ...        0 min,  0.682 sec
 * total energy  :  -515.6878707 Eh     change       -0.1101314E-02 Eh
   gradient norm :     0.0074775 Eh/α   predicted    -0.8896797E-03 ( -19.22%)
   displ. norm   :     0.7507587 α      lambda       -0.1237793E-02
   maximum displ.:     0.4859940 α      in ANC's #20, #19, #21, ...

........................................................................
.............................. CYCLE   37 ..............................
........................................................................
   1   -525.2165663 -0.525217E+03  0.450E-02    0.59       0.0  T
   2   -525.2165677 -0.147498E-05  0.264E-02    0.59       1.0  T
   3   -525.2165491  0.186624E-04  0.631E-03    0.59       1.0  T
   4   -525.2165683 -0.191732E-04  0.150E-03    0.59       3.8  T
   5   -525.2165692 -0.987733E-06  0.643E-04    0.59       8.9  T
   6   -525.2165693 -0.503051E-07  0.412E-04    0.59      13.9  T
     SCC iter.                  ...        0 min,  1.720 sec
     gradient                   ...        0 min,  0.677 sec
 * total energy  :  -515.6889991 Eh     change       -0.1128336E-02 Eh
   gradient norm :     0.0064058 Eh/α   predicted    -0.9677316E-03 ( -14.23%)
   displ. norm   :     0.7540569 α      lambda       -0.1151740E-02
   maximum displ.:     0.4931644 α      in ANC's #20, #19, #21, ...

........................................................................
.............................. CYCLE   38 ..............................
........................................................................
   1   -525.2122654 -0.525212E+03  0.394E-02    0.59       0.0  T
   2   -525.2122666 -0.115455E-05  0.231E-02    0.59       1.0  T
   3   -525.2122495  0.170634E-04  0.587E-03    0.60       1.0  T
   4   -525.2122670 -0.175040E-04  0.137E-03    0.59       4.2  T
   5   -525.2122679 -0.854183E-06  0.579E-04    0.59       9.9  T
   6   -525.2122679 -0.376223E-07  0.371E-04    0.59      15.5  T
     SCC iter.                  ...        0 min,  1.714 sec
     gradient                   ...        0 min,  0.678 sec
 * total energy  :  -515.6900587 Eh     change       -0.1059694E-02 Eh
   gradient norm :     0.0068738 Eh/α   predicted    -0.9033121E-03 ( -14.76%)
   displ. norm   :     0.7517049 α      lambda       -0.1112491E-02
   maximum displ.:     0.4977263 α      in ANC's #20, #19, #21, ...

........................................................................
.............................. CYCLE   39 ..............................
........................................................................
   1   -525.2103892 -0.525210E+03  0.340E-02    0.60       0.0  T
   2   -525.2103901 -0.979095E-06  0.200E-02    0.60       1.0  T
   3   -525.2103710  0.191193E-04  0.615E-03    0.60       1.0  T
   4   -525.2103907 -0.197207E-04  0.131E-03    0.60       4.4  T
   5   -525.2103915 -0.765961E-06  0.550E-04    0.60      10.4  T
   6   -525.2103916 -0.435276E-07  0.341E-04    0.60      16.8  T
     SCC iter.                  ...        0 min,  1.715 sec
     gradient                   ...        0 min,  0.679 sec
 * total energy  :  -515.6910840 Eh     change       -0.1025248E-02 Eh
   gradient norm :     0.0070474 Eh/α   predicted    -0.8705582E-03 ( -15.09%)
   displ. norm   :     0.7524601 α      lambda       -0.1085746E-02
   maximum displ.:     0.5021129 α      in ANC's #20, #19, #21, ...

........................................................................
.............................. CYCLE   40 ..............................
........................................................................
   1   -525.2123154 -0.525212E+03  0.287E-02    0.60       0.0  T
   2   -525.2123163 -0.945990E-06  0.168E-02    0.60       1.0  T
   3   -525.2122988  0.175733E-04  0.598E-03    0.60       1.0  T
   4   -525.2123169 -0.181594E-04  0.129E-03    0.60       4.5  T
   5   -525.2123177 -0.752996E-06  0.501E-04    0.60      11.4  T
   6   -525.2123177 -0.458231E-07  0.300E-04    0.60      19.1  T
     SCC iter.                  ...        0 min,  1.721 sec
     gradient                   ...        0 min,  0.679 sec
 * total energy  :  -515.6920990 Eh     change       -0.1015024E-02 Eh
   gradient norm :     0.0052786 Eh/α   predicted    -0.8502512E-03 ( -16.23%)
   displ. norm   :     0.7658300 α      lambda       -0.1068508E-02
   maximum displ.:     0.5128493 α      in ANC's #20, #19, #21, ...

........................................................................
.............................. CYCLE   41 ..............................
........................................................................
   1   -525.2142193 -0.525214E+03  0.251E-02    0.60       0.0  T
   2   -525.2142199 -0.666402E-06  0.147E-02    0.60       1.0  T
   3   -525.2142068  0.131163E-04  0.522E-03    0.60       1.1  T
   4   -525.2142205 -0.136736E-04  0.106E-03    0.60       5.4  T
   5   -525.2142210 -0.465644E-06  0.429E-04    0.60      13.4  T
   6   -525.2142210 -0.146808E-07  0.275E-04    0.60      20.9  T
     SCC iter.                  ...        0 min,  1.717 sec
     gradient                   ...        0 min,  0.676 sec
 * total energy  :  -515.6931144 Eh     change       -0.1015386E-02 Eh
   gradient norm :     0.0050450 Eh/α   predicted    -0.8475967E-03 ( -16.52%)
   displ. norm   :     0.7823077 α      lambda       -0.1086055E-02
   maximum displ.:     0.5249118 α      in ANC's #20, #19, #21, ...

........................................................................
.............................. CYCLE   42 ..............................
........................................................................
   1   -525.2175540 -0.525218E+03  0.245E-02    0.60       0.0  T
   2   -525.2175545 -0.561649E-06  0.144E-02    0.60       1.0  T
   3   -525.2175413  0.131946E-04  0.509E-03    0.60       1.1  T
   4   -525.2175552 -0.138409E-04  0.940E-04    0.60       6.1  T
   5   -525.2175555 -0.328618E-06  0.445E-04    0.60      12.9  T
   6   -525.2175555 -0.290738E-07  0.259E-04    0.60      22.1  T
     SCC iter.                  ...        0 min,  1.717 sec
     gradient                   ...        0 min,  0.677 sec
 * total energy  :  -515.6941539 Eh     change       -0.1039470E-02 Eh
   gradient norm :     0.0056561 Eh/α   predicted    -0.8753698E-03 ( -15.79%)
   displ. norm   :     0.8020906 α      lambda       -0.1125940E-02
   maximum displ.:     0.5395622 α      in ANC's #20, #19, #21, ...
 * RMSD in coord.:     0.7447983 α      energy gain  -0.9262404E-01 Eh

generating ANC from model Hessian ...
Using Lindh-Hessian (1995)
 Shifting diagonal of input Hessian by    1.0039376372450431E-002
 Lowest  eigenvalues of input Hessian
    0.010000    0.010001    0.010016    0.010024    0.010030    0.010036
    0.010038    0.010038    0.000000    0.000000    0.000000    0.000000
    0.000000    0.000000    0.010040    0.010041    0.010042    0.010045
 Highest eigenvalues
    2.672597    2.675888    2.676107    2.676680    2.677589    2.678442


........................................................................
.............................. CYCLE   43 ..............................
........................................................................
   1   -525.2197688 -0.525220E+03  0.258E-02    0.60       0.0  T
   2   -525.2197694 -0.564794E-06  0.152E-02    0.60       1.0  T
   3   -525.2197518  0.176060E-04  0.588E-03    0.60       1.0  T
   4   -525.2197703 -0.184964E-04  0.983E-04    0.60       5.8  T
   5   -525.2197706 -0.316226E-06  0.546E-04    0.60      10.5  T
   6   -525.2197707 -0.939532E-07  0.291E-04    0.60      19.7  T
     SCC iter.                  ...        0 min,  1.723 sec
     gradient                   ...        0 min,  0.675 sec
 * total energy  :  -515.6952358 Eh     change       -0.1081899E-02 Eh
   gradient norm :     0.0056759 Eh/α   predicted     0.0000000E+00 (-100.00%)
   displ. norm   :     0.1486554 α      lambda       -0.3004271E-03
   maximum displ.:     0.1214920 α      in ANC's #19, #47, #2, ...

........................................................................
.............................. CYCLE   44 ..............................
........................................................................
   1   -525.2180305 -0.525218E+03  0.129E-02    0.60       0.0  T
   2   -525.2180309 -0.386948E-06  0.759E-03    0.60       1.0  T
   3   -525.2180258  0.506042E-05  0.333E-03    0.60       1.7  T
   4   -525.2180311 -0.526003E-05  0.704E-04    0.60       8.1  T
   5   -525.2180313 -0.208841E-06  0.304E-04    0.60      18.8  T
   6   -525.2180313 -0.420849E-07  0.148E-04    0.60      38.8  T
     SCC iter.                  ...        0 min,  1.729 sec
     gradient                   ...        0 min,  0.677 sec
 * total energy  :  -515.6955172 Eh     change       -0.2813833E-03 Eh
   gradient norm :     0.0037946 Eh/α   predicted    -0.1548599E-03 ( -44.96%)
   displ. norm   :     0.3532222 α      lambda       -0.6160848E-03
   maximum displ.:     0.2575424 α      in ANC's #19, #47, #2, ...

........................................................................
.............................. CYCLE   45 ..............................
........................................................................
   1   -525.2169121 -0.525217E+03  0.290E-02    0.60       0.0  T
   2   -525.2169139 -0.179319E-05  0.171E-02    0.60       1.0  T
   3   -525.2168841  0.298754E-04  0.813E-03    0.60       1.0  T
   4   -525.2169156 -0.315674E-04  0.152E-03    0.60       3.8  T
   5   -525.2169165 -0.898965E-06  0.655E-04    0.60       8.8  T
   6   -525.2169167 -0.180765E-06  0.328E-04    0.60      17.5  T
     SCC iter.                  ...        0 min,  1.717 sec
     gradient                   ...        0 min,  0.676 sec
 * total energy  :  -515.6960606 Eh     change       -0.5433978E-03 Eh
   gradient norm :     0.0034820 Eh/α   predicted    -0.3464849E-03 ( -36.24%)
   displ. norm   :     0.4934833 α      lambda       -0.6950389E-03
   maximum displ.:     0.3542464 α      in ANC's #19, #2, #47, ...

........................................................................
.............................. CYCLE   46 ..............................
........................................................................
   1   -525.2170026 -0.525217E+03  0.364E-02    0.60       0.0  T
   2   -525.2170043 -0.175584E-05  0.215E-02    0.60       1.0  T
   3   -525.2169540  0.503237E-04  0.102E-02    0.60       1.0  T
   4   -525.2170070 -0.530023E-04  0.174E-03    0.60       3.3  T
   5   -525.2170082 -0.121739E-05  0.783E-04    0.60       7.3  T
   6   -525.2170085 -0.262147E-06  0.395E-04    0.60      14.5  T
   7   -525.2170085 -0.444697E-07  0.194E-04    0.60      29.6  T
     SCC iter.                  ...        0 min,  2.001 sec
     gradient                   ...        0 min,  0.679 sec
 * total energy  :  -515.6966773 Eh     change       -0.6167081E-03 Eh
   gradient norm :     0.0058448 Eh/α   predicted    -0.4321507E-03 ( -29.93%)
   displ. norm   :     0.5185747 α      lambda       -0.6462377E-03
   maximum displ.:     0.3721063 α      in ANC's #19, #2, #47, ...

........................................................................
.............................. CYCLE   47 ..............................
........................................................................
   1   -525.2186031 -0.525219E+03  0.343E-02    0.60       0.0  T
   2   -525.2186039 -0.798727E-06  0.202E-02    0.60       1.0  T
   3   -525.2185643  0.395958E-04  0.897E-03    0.60       1.0  T
   4   -525.2186063 -0.419074E-04  0.127E-03    0.60       4.5  T
   5   -525.2186068 -0.545241E-06  0.618E-04    0.60       9.3  T
   6   -525.2186069 -0.116171E-06  0.339E-04    0.60      16.9  T
     SCC iter.                  ...        0 min,  1.719 sec
     gradient                   ...        0 min,  0.676 sec
 * total energy  :  -515.6972755 Eh     change       -0.5982002E-03 Eh
   gradient norm :     0.0067667 Eh/α   predicted    -0.4100126E-03 ( -31.46%)
   displ. norm   :     0.5217204 α      lambda       -0.6550815E-03
   maximum displ.:     0.3736220 α      in ANC's #19, #2, #20, ...

........................................................................
.............................. CYCLE   48 ..............................
........................................................................
   1   -525.2212937 -0.525221E+03  0.314E-02    0.60       0.0  T
   2   -525.2212941 -0.353557E-06  0.185E-02    0.60       1.0  T
   3   -525.2212670  0.270936E-04  0.713E-03    0.60       1.0  T
   4   -525.2212955 -0.284454E-04  0.103E-03    0.60       5.6  T
   5   -525.2212958 -0.391003E-06  0.534E-04    0.60      10.7  T
   6   -525.2212959 -0.713177E-07  0.291E-04    0.60      19.7  T
     SCC iter.                  ...        0 min,  1.712 sec
     gradient                   ...        0 min,  0.674 sec
 * total energy  :  -515.6978987 Eh     change       -0.6232503E-03 Eh
   gradient norm :     0.0060376 Eh/α   predicted    -0.4166958E-03 ( -33.14%)
   displ. norm   :     0.5580118 α      lambda       -0.7306336E-03
   maximum displ.:     0.3994330 α      in ANC's #19, #2, #20, ...

........................................................................
.............................. CYCLE   49 ..............................
........................................................................
   1   -525.2241538 -0.525224E+03  0.311E-02    0.60       0.0  T
   2   -525.2241544 -0.605168E-06  0.183E-02    0.60       1.0  T
   3   -525.2241376  0.168745E-04  0.564E-03    0.60       1.0  T
   4   -525.2241552 -0.176389E-04  0.103E-03    0.60       5.6  T
   5   -525.2241556 -0.406035E-06  0.516E-04    0.60      11.1  T
   6   -525.2241557 -0.436471E-07  0.289E-04    0.60      19.9  T
     SCC iter.                  ...        0 min,  1.717 sec
     gradient                   ...        0 min,  0.674 sec
 * total energy  :  -515.6985944 Eh     change       -0.6957116E-03 Eh
   gradient norm :     0.0043960 Eh/α   predicted    -0.4790689E-03 ( -31.14%)
   displ. norm   :     0.6071068 α      lambda       -0.7927723E-03
   maximum displ.:     0.4356877 α      in ANC's #19, #2, #20, ...

........................................................................
.............................. CYCLE   50 ..............................
........................................................................
   1   -525.2260585 -0.525226E+03  0.319E-02    0.60       0.0  T
   2   -525.2260594 -0.962671E-06  0.187E-02    0.60       1.0  T
   3   -525.2260452  0.142209E-04  0.514E-03    0.60       1.1  T
   4   -525.2260598 -0.146163E-04  0.125E-03    0.60       4.6  T
   5   -525.2260605 -0.708544E-06  0.519E-04    0.60      11.0  T
   6   -525.2260606 -0.285371E-07  0.301E-04    0.60      19.1  T
     SCC iter.                  ...        0 min,  1.717 sec
     gradient                   ...        0 min,  0.672 sec
 * total energy  :  -515.6993442 Eh     change       -0.7497476E-03 Eh
   gradient norm :     0.0033005 Eh/α   predicted    -0.5424862E-03 ( -27.64%)
   displ. norm   :     0.6319318 α      lambda       -0.7875994E-03
   maximum displ.:     0.4543452 α      in ANC's #19, #2, #20, ...

........................................................................
.............................. CYCLE   51 ..............................
........................................................................
   1   -525.2266603 -0.525227E+03  0.314E-02    0.60       0.0  T
   2   -525.2266613 -0.101202E-05  0.184E-02    0.60       1.0  T
   3   -525.2266464  0.149565E-04  0.511E-03    0.60       1.1  T
   4   -525.2266617 -0.153514E-04  0.129E-03    0.60       4.4  T
   5   -525.2266625 -0.749108E-06  0.506E-04    0.60      11.3  T
   6   -525.2266625 -0.187413E-07  0.302E-04    0.60      19.0  T
     SCC iter.                  ...        0 min,  1.718 sec
     gradient                   ...        0 min,  0.672 sec
 * total energy  :  -515.7000893 Eh     change       -0.7450929E-03 Eh
   gradient norm :     0.0038114 Eh/α   predicted    -0.5510641E-03 ( -26.04%)
   displ. norm   :     0.6277427 α      lambda       -0.7448783E-03
   maximum displ.:     0.4503882 α      in ANC's #19, #2, #20, ...

........................................................................
.............................. CYCLE   52 ..............................
........................................................................
   1   -525.2264276 -0.525226E+03  0.298E-02    0.60       0.0  T
   2   -525.2264285 -0.815560E-06  0.174E-02    0.60       1.0  T
   3   -525.2264131  0.153950E-04  0.506E-03    0.60       1.1  T
   4   -525.2264291 -0.159989E-04  0.112E-03    0.60       5.1  T
   5   -525.2264296 -0.503575E-06  0.477E-04    0.60      12.0  T
   6   -525.2264296 -0.908142E-08  0.298E-04    0.60      19.2  T
     SCC iter.                  ...        0 min,  1.716 sec
     gradient                   ...        0 min,  0.672 sec
 * total energy  :  -515.7008006 Eh     change       -0.7113083E-03 Eh
   gradient norm :     0.0046960 Eh/α   predicted    -0.5192153E-03 ( -27.01%)
   displ. norm   :     0.6176970 α      lambda       -0.7194220E-03
   maximum displ.:     0.4403939 α      in ANC's #19, #2, #20, ...

........................................................................
.............................. CYCLE   53 ..............................
........................................................................
   1   -525.2258753 -0.525226E+03  0.283E-02    0.60       0.0  T
   2   -525.2258759 -0.607904E-06  0.166E-02    0.60       1.0  T
   3   -525.2258595  0.164119E-04  0.514E-03    0.60       1.1  T
   4   -525.2258767 -0.171901E-04  0.951E-04    0.60       6.0  T
   5   -525.2258770 -0.303988E-06  0.455E-04    0.60      12.6  T
   6   -525.2258770 -0.664875E-08  0.293E-04    0.60      19.6  T
     SCC iter.                  ...        0 min,  1.717 sec
     gradient                   ...        0 min,  0.674 sec
 * total energy  :  -515.7014956 Eh     change       -0.6950232E-03 Eh
   gradient norm :     0.0051179 Eh/α   predicted    -0.4969592E-03 ( -28.50%)
   displ. norm   :     0.6256768 α      lambda       -0.7360578E-03
   maximum displ.:     0.4427193 α      in ANC's #19, #2, #20, ...

........................................................................
.............................. CYCLE   54 ..............................
........................................................................
   1   -525.2252693 -0.525225E+03  0.282E-02    0.60       0.0  T
   2   -525.2252699 -0.554087E-06  0.166E-02    0.60       1.0  T
   3   -525.2252531  0.167644E-04  0.519E-03    0.60       1.1  T
   4   -525.2252707 -0.175663E-04  0.908E-04    0.60       6.3  T
   5   -525.2252710 -0.268031E-06  0.454E-04    0.60      12.6  T
   6   -525.2252710 -0.116344E-07  0.286E-04    0.60      20.1  T
     SCC iter.                  ...        0 min,  1.721 sec
     gradient                   ...        0 min,  0.672 sec
 * total energy  :  -515.7022113 Eh     change       -0.7156692E-03 Eh
   gradient norm :     0.0050072 Eh/α   predicted    -0.5121022E-03 ( -28.44%)
   displ. norm   :     0.6541945 α      lambda       -0.7831681E-03
   maximum displ.:     0.4607702 α      in ANC's #19, #2, #20, ...

........................................................................
.............................. CYCLE   55 ..............................
........................................................................
   1   -525.2246964 -0.525225E+03  0.295E-02    0.60       0.0  T
   2   -525.2246971 -0.644437E-06  0.173E-02    0.60       1.0  T
   3   -525.2246803  0.167776E-04  0.527E-03    0.60       1.1  T
   4   -525.2246978 -0.175024E-04  0.994E-04    0.60       5.8  T
   5   -525.2246982 -0.370666E-06  0.477E-04    0.60      12.0  T
   6   -525.2246982 -0.241308E-07  0.292E-04    0.60      19.6  T
     SCC iter.                  ...        0 min,  1.714 sec
     gradient                   ...        0 min,  0.672 sec
 * total energy  :  -515.7029713 Eh     change       -0.7600265E-03 Eh
   gradient norm :     0.0045030 Eh/α   predicted    -0.5591743E-03 ( -26.43%)
   displ. norm   :     0.6880640 α      lambda       -0.8271214E-03
   maximum displ.:     0.4852049 α      in ANC's #19, #2, #20, ...

........................................................................
.............................. CYCLE   56 ..............................
........................................................................
   1   -525.2242732 -0.525224E+03  0.310E-02    0.61       0.0  T
   2   -525.2242740 -0.795692E-06  0.182E-02    0.61       1.0  T
   3   -525.2242571  0.169586E-04  0.544E-03    0.61       1.1  T
   4   -525.2242746 -0.175420E-04  0.115E-03    0.61       5.0  T
   5   -525.2242752 -0.569420E-06  0.514E-04    0.61      11.2  T
   6   -525.2242752 -0.461680E-07  0.309E-04    0.61      18.6  T
     SCC iter.                  ...        0 min,  1.719 sec
     gradient                   ...        0 min,  0.671 sec
 * total energy  :  -515.7037702 Eh     change       -0.7988582E-03 Eh
   gradient norm :     0.0038159 Eh/α   predicted    -0.6093574E-03 ( -23.72%)
   displ. norm   :     0.7098981 α      lambda       -0.8369647E-03
   maximum displ.:     0.5037387 α      in ANC's #19, #2, #20, ...

........................................................................
.............................. CYCLE   57 ..............................
[...]
 529:  0.00 530:  0.00 531:  0.00 532:  0.00 533:  0.00 534:  0.00 535:  0.00 536:  0.00
 537:  0.00 538:  0.00 539:  0.00 540:  0.00 541:  0.00 542:  0.00 543:  0.00 544:  0.00
 545:  0.00 546:  0.00 547:  0.00 548:  0.00 549:  0.00 550:  0.00 551:  0.00 552:  0.00
 553:  0.00 554:  0.00 555:  0.00 556:  0.00 557:  0.00 558:  0.00 559:  0.00 560:  0.00
 561:  0.00 562:  0.00 563:  0.00 564:  0.00 565:  0.00 566:  0.00 567:  0.00 568:  0.00
 569:  0.00 570:  0.00 571:  0.00 572:  0.00 573:  0.00 574:  0.00 575:  0.00 576:  0.00
 577:  0.00 578:  0.00 579:  0.00 580:  0.00 581:  0.00 582:  0.00 583:  0.00 584:  0.00
 585:  0.00 586:  0.00 587:  0.00 588:  0.00 589:  0.00 590:  0.00 591:  0.00 592:  0.00
 593:  0.00 594:  0.00 595:  0.00 596:  0.00 597:  0.00 598:  0.00 599:  0.00 600:  0.00
 601:  0.00 602:  0.00 603:  0.00 604:  0.00 605:  0.00 606:  0.00 607:  0.00 608:  0.00
 609:  0.00 610:  0.00 611:  0.00 612:  0.00 613:  0.00 614:  0.00 615:  0.00 616:  0.00
 617:  0.00 618:  0.00 619:  0.00 620:  0.00 621:  0.00 622:  0.00 623:  0.00 624:  0.00
 625:  0.00 626:  0.00 627:  0.00 628:  0.00 629:  0.00 630:  0.00 631:  0.00 632:  0.00
 633:  0.00 634:  0.00 635:  0.00 636:  0.00 637:  0.00 638:  0.00 639:  0.00 640:  0.00
 641:  0.00 642:  0.00 643:  0.00 644:  0.00 645:  0.00 646:  0.00 647:  0.00 648:  0.00
 649:  0.00 650:  0.00 651:  0.00 652:  0.00 653:  0.00 654:  0.00 655:  0.00 656:  0.00
 657:  0.00 658:  0.00 659:  0.00 660:  0.00 661:  0.00 662:  0.00 663:  0.00 664:  0.00
 665:  0.00 666:  0.00 667:  0.00 668:  0.00 669:  0.00 670:  0.00 671:  0.00 672:  0.00
 673:  0.00 674:  0.00 675:  0.00 676:  0.00 677:  0.00 678:  0.00 679:  0.00 680:  0.00
 681:  0.00 682:  0.00 683:  0.00 684:  0.00 685:  0.00 686:  0.00 687:  0.00 688:  0.00
 689:  0.00 690:  0.00 691:  0.00 692:  0.00 693:  0.00 694:  0.00 695:  0.00 696:  0.00
 697:  0.00 698:  0.00 699:  0.00 700:  0.00 701:  0.00 702:  0.00 703:  0.00 704:  0.00
 705:  0.00 706:  0.00 707:  0.00 708:  0.00 709:  0.00 710:  0.00 711:  0.00 712:  0.00
 713:  0.00 714:  0.00 715:  0.00 716:  0.00 717:  0.00 718:  0.00 719:  0.00 720:  0.00
 721:  0.00 722:  0.00 723:  0.00 724:  0.00 725:  0.00 726:  0.00 727:  0.00 728:  0.00
 729:  0.00 730:  0.00 731:  0.00 732:  0.00 733:  0.00 734:  0.00 735:  0.00 736:  0.00
 737:  0.00 738:  0.00 739:  0.00 740:  0.00 741:  0.00 742:  0.00 743:  0.00 744:  0.00
 745:  0.00 746:  0.00 747:  0.00 748:  0.00 749:  0.00 750:  0.00 751:  0.00 752:  0.00
 753:  0.00 754:  0.00 755:  0.00 756:  0.00 757:  0.00 758:  0.00 759:  0.00 760:  0.00
 761:  0.00 762:  0.00 763:  0.00 764:  0.00 765:  0.00 766:  0.00 767:  0.00 768:  0.00
 769:  0.00 770:  0.00 771:  0.00 772:  0.00 773:  0.00 774:  0.00 775:  0.00 776:  0.00
 777:  0.00 778:  0.00 779:  0.00 780:  0.00 781:  0.00 782:  0.00 783:  0.00 784:  0.00
 785:  0.00 786:  0.00 787:  0.00 788:  0.00 789:  0.00 790:  0.00 791:  0.00 792:  0.00
 793:  0.00 794:  0.00 795:  0.00 796:  0.00 797:  0.00 798:  0.00 799:  0.00 800:  0.00
 801:  0.00 802:  0.00 803:  0.00 804:  0.00 805:  0.00 806:  0.00 807:  0.00 808:  0.00
 809:  0.00 810:  0.00 811:  0.00 812:  0.00 813:  0.00 814:  0.00 815:  0.00 816:  0.00
 817:  0.00 818:  0.00 819:  0.00 820:  0.00 821:  0.00 822:  0.00 823:  0.00 824:  0.00
 825:  0.00 826:  0.00 827:  0.00 828:  0.00 829:  0.00 830:  0.00 831:  0.00 832:  0.00
 833:  0.00 834:  0.00 835:  0.00 836:  0.00 837:  0.00 838:  0.00 839:  0.00 840:  0.00
 841:  0.00 842:  0.00 843:  0.00 844:  0.00 845:  0.00 846:  0.00 847:  0.00 848:  0.00
 849:  0.00 850:  0.00 851:  0.00 852:  0.00 853:  0.00 854:  0.00 855:  0.00 856:  0.00
 857:  0.00 858:  0.00 859:  0.00 860:  0.00 861:  0.00 862:  0.00 863:  0.00 864:  0.00
 865:  0.00 866:  0.00 867:  0.00 868:  0.00 869:  0.00 870:  0.00 871:  0.00 872:  0.00
 873:  0.00 874:  0.00 875:  0.00 876:  0.00 877:  0.00 878:  0.00 879:  0.00 880:  0.00
 881:  0.00 882:  0.00 883:  0.00 884:  0.00 885:  0.00 886:  0.00 887:  0.00 888:  0.00
 889:  0.00 890:  0.00 891:  0.00 892:  0.00 893:  0.00 894:  0.00 895:  0.00 896:  0.00
 897:  0.00 898:  0.00 899:  0.00 900:  0.00 901:  0.00 902:  0.00 903:  0.00 904:  0.00
 905:  0.00 906:  0.00 907:  0.00 908:  0.00 909:  0.00 910:  0.00 911:  0.00 912:  0.00
 output can be read by thermo (or use thermo option).
 writing <g98.out> molden fake output.
 recommended (thermochemical) frequency scaling factor: 1.0
           -------------------------------------------------
          |             Thermodynamic Functions             |
           -------------------------------------------------
 symmetry recognition skipped because # atoms >         200
 inverting freq            1   4.6727938818511925     
 inverting freq            2   4.0951300483240418     
 inverting freq            3   2.1676603305135447     
 inverting freq            4   1.6522205932351071     

          ...................................................
          :                      SETUP                      :
          :.................................................:
          :  # frequencies                         905      :
          :  # imaginary freq.                       0      :
          :  linear?                             false      :
          :  only rotor calc.                    false      :
          :  symmetry                               C1      :
          :  rotational number                       1      :
          :  scaling factor                  1.0000000      :
          :  rotor cutoff                   50.0000000 cm⁻¹ :
          :  imag. cutoff                  -20.0000000 cm⁻¹ :
          :.................................................:

    mode    ω/cm⁻¹     T·S(HO)/kcal·mol⁻¹    T·S(FR)/kcal·mol⁻¹   T·S(vib)
   ------------------------------------------------------------------------
       1      4.67    -2.83922 (  0.01%)    -1.75872 ( 99.99%)    -1.75880
       2      4.10    -2.91741 (  0.00%)    -1.79781 (100.00%)    -1.79786
       3      2.17    -3.29431 (  0.00%)    -1.98627 (100.00%)    -1.98627
       4      1.65    -3.45518 (  0.00%)    -2.06670 (100.00%)    -2.06671
       5      2.81    -3.14124 (  0.00%)    -1.90973 (100.00%)    -1.90975
       6      4.68    -2.83819 (  0.01%)    -1.75820 ( 99.99%)    -1.75829
       7      6.08    -2.68324 (  0.02%)    -1.68072 ( 99.98%)    -1.68094
       8      6.61    -2.63358 (  0.03%)    -1.65589 ( 99.97%)    -1.65619
       9      8.04    -2.51787 (  0.07%)    -1.59803 ( 99.93%)    -1.59865
      10      8.75    -2.46748 (  0.09%)    -1.57283 ( 99.91%)    -1.57367
      11      9.87    -2.39615 (  0.15%)    -1.53717 ( 99.85%)    -1.53847
      12     10.08    -2.38380 (  0.16%)    -1.53099 ( 99.84%)    -1.53240
      13     10.70    -2.34835 (  0.21%)    -1.51326 ( 99.79%)    -1.51501
      14     11.21    -2.32066 (  0.25%)    -1.49941 ( 99.75%)    -1.50148
      15     13.11    -2.22791 (  0.47%)    -1.45302 ( 99.53%)    -1.45667
      16     13.57    -2.20767 (  0.54%)    -1.44290 ( 99.46%)    -1.44702
      17     14.21    -2.18042 (  0.65%)    -1.42927 ( 99.35%)    -1.43414
      18     15.22    -2.13953 (  0.85%)    -1.40881 ( 99.15%)    -1.41504
      19     15.58    -2.12595 (  0.93%)    -1.40202 ( 99.07%)    -1.40878
      20     17.30    -2.06392 (  1.41%)    -1.37099 ( 98.59%)    -1.38078
      21     18.55    -2.02259 (  1.86%)    -1.35031 ( 98.14%)    -1.36281
      22     19.98    -1.97862 (  2.49%)    -1.32831 ( 97.51%)    -1.34448
      23     23.47    -1.88337 (  4.63%)    -1.28064 ( 95.37%)    -1.30853
      24     24.18    -1.86567 (  5.18%)    -1.27178 ( 94.82%)    -1.30258
      25     28.21    -1.77450 (  9.20%)    -1.22614 ( 90.80%)    -1.27657
      26     33.75    -1.66848 ( 17.18%)    -1.17303 ( 82.82%)    -1.25816
      27     34.74    -1.65136 ( 18.89%)    -1.16445 ( 81.11%)    -1.25645
      28     37.60    -1.60453 ( 24.23%)    -1.14098 ( 75.77%)    -1.25331
      29     39.47    -1.57587 ( 27.97%)    -1.12661 ( 72.03%)    -1.25227
      30     40.86    -1.55542 ( 30.84%)    -1.11635 ( 69.16%)    -1.25178
      31     41.53    -1.54586 ( 32.24%)    -1.11155 ( 67.76%)    -1.25158
      32     42.42    -1.53335 ( 34.12%)    -1.10528 ( 65.88%)    -1.25134
      33     43.53    -1.51810 ( 36.48%)    -1.09762 ( 63.52%)    -1.25101
      34     43.86    -1.51363 ( 37.19%)    -1.09538 ( 62.81%)    -1.25091
      35     45.03    -1.49805 ( 39.68%)    -1.08756 ( 60.32%)    -1.25045
      36     46.13    -1.48387 ( 42.00%)    -1.08044 ( 58.00%)    -1.24990
      37     48.52    -1.45399 ( 47.00%)    -1.06544 ( 53.00%)    -1.24807
      38     49.18    -1.44606 ( 48.35%)    -1.06145 ( 51.65%)    -1.24739
      39     49.97    -1.43663 ( 49.94%)    -1.05671 ( 50.06%)    -1.24646
      40     51.44    -1.41962 ( 52.83%)    -1.04817 ( 47.17%)    -1.24439
      41     51.83    -1.41516 ( 53.58%)    -1.04593 ( 46.42%)    -1.24376
      42     52.49    -1.40767 ( 54.84%)    -1.04216 ( 45.16%)    -1.24261
      43     54.21    -1.38861 ( 58.02%)    -1.03258 ( 41.98%)    -1.23915
      44     57.17    -1.35731 ( 63.09%)    -1.01684 ( 36.91%)    -1.23166
      45     57.91    -1.34979 ( 64.28%)    -1.01305 ( 35.72%)    -1.22949
      46     60.98    -1.31936 ( 68.87%)    -0.99773 ( 31.13%)    -1.21925
      47     63.49    -1.29567 ( 72.22%)    -0.98580 ( 27.78%)    -1.20958
      48     65.06    -1.28128 ( 74.14%)    -0.97855 ( 25.86%)    -1.20300
      49     65.17    -1.28028 ( 74.27%)    -0.97804 ( 25.73%)    -1.20251
      50     67.74    -1.25758 ( 77.11%)    -0.96659 ( 22.89%)    -1.19098
      51     71.63    -1.22481 ( 80.81%)    -0.95005 ( 19.19%)    -1.17210
      52     71.71    -1.22416 ( 80.88%)    -0.94973 ( 19.12%)    -1.17170
      53     75.47    -1.19420 ( 83.85%)    -0.93458 ( 16.15%)    -1.15226
      54     75.71    -1.19232 ( 84.02%)    -0.93364 ( 15.98%)    -1.15098
      55     79.11    -1.16662 ( 86.24%)    -0.92063 ( 13.76%)    -1.13277
      56     81.98    -1.14578 ( 87.84%)    -0.91008 ( 12.16%)    -1.11713
      57     84.77    -1.12621 ( 89.20%)    -0.90017 ( 10.80%)    -1.10180
      58     86.09    -1.11717 ( 89.78%)    -0.89558 ( 10.22%)    -1.09453
      59     93.56    -1.06865 ( 92.46%)    -0.87094 (  7.54%)    -1.05374
      60     94.86    -1.06059 ( 92.83%)    -0.86684 (  7.17%)    -1.04671
      61     96.09    -1.05312 ( 93.17%)    -0.86304 (  6.83%)    -1.04013
      62     98.21    -1.04040 ( 93.70%)    -0.85656 (  6.30%)    -1.02883
      63    101.36    -1.02207 ( 94.41%)    -0.84722 (  5.59%)    -1.01229
      64    103.75    -1.00850 ( 94.88%)    -0.84029 (  5.12%)    -0.99990
      65    105.96    -0.99632 ( 95.28%)    -0.83407 (  4.72%)    -0.98865
      66    108.31    -0.98359 ( 95.66%)    -0.82757 (  4.34%)    -0.97682
      67    108.65    -0.98176 ( 95.71%)    -0.82663 (  4.29%)    -0.97510
      68    113.69    -0.95555 ( 96.39%)    -0.81321 (  3.61%)    -0.95042
      69    114.19    -0.95303 ( 96.45%)    -0.81191 (  3.55%)    -0.94803
      70    114.56    -0.95114 ( 96.50%)    -0.81094 (  3.50%)    -0.94623
      71    114.88    -0.94950 ( 96.54%)    -0.81010 (  3.46%)    -0.94468
      72    114.92    -0.94932 ( 96.54%)    -0.81001 (  3.46%)    -0.94450
      73    115.24    -0.94773 ( 96.58%)    -0.80919 (  3.42%)    -0.94299
      74    115.69    -0.94547 ( 96.63%)    -0.80804 (  3.37%)    -0.94084
      75    120.18    -0.92351 ( 97.09%)    -0.79675 (  2.91%)    -0.91982
      76    120.23    -0.92329 ( 97.10%)    -0.79664 (  2.90%)    -0.91961
      77    120.61    -0.92145 ( 97.13%)    -0.79570 (  2.87%)    -0.91784
      78    120.66    -0.92122 ( 97.14%)    -0.79558 (  2.86%)    -0.91762
      79    121.04    -0.91941 ( 97.17%)    -0.79464 (  2.83%)    -0.91588
      80    121.32    -0.91808 ( 97.20%)    -0.79396 (  2.80%)    -0.91460
      81    121.42    -0.91761 ( 97.20%)    -0.79372 (  2.80%)    -0.91415
      82    121.63    -0.91661 ( 97.22%)    -0.79321 (  2.78%)    -0.91319
      83    142.07    -0.82761 ( 98.49%)    -0.74719 (  1.51%)    -0.82639
      84    142.14    -0.82733 ( 98.49%)    -0.74704 (  1.51%)    -0.82612
      85    143.42    -0.82224 ( 98.54%)    -0.74439 (  1.46%)    -0.82110
      86    143.59    -0.82154 ( 98.55%)    -0.74403 (  1.45%)    -0.82041
      87    143.70    -0.82111 ( 98.56%)    -0.74381 (  1.44%)    -0.81999
      88    143.77    -0.82083 ( 98.56%)    -0.74366 (  1.44%)    -0.81972
      89    143.96    -0.82009 ( 98.57%)    -0.74328 (  1.43%)    -0.81899
      90    144.28    -0.81883 ( 98.58%)    -0.74262 (  1.42%)    -0.81774
      91    163.10    -0.74942 ( 99.12%)    -0.70630 (  0.88%)    -0.74904
      92    166.61    -0.73744 ( 99.20%)    -0.69998 (  0.80%)    -0.73713
      93    168.50    -0.73112 ( 99.23%)    -0.69665 (  0.77%)    -0.73086
      94    169.28    -0.72852 ( 99.24%)    -0.69528 (  0.76%)    -0.72827
      95    172.17    -0.71903 ( 99.29%)    -0.69026 (  0.71%)    -0.71883
      96    176.30    -0.70579 ( 99.36%)    -0.68324 (  0.64%)    -0.70564
      97    177.91    -0.70073 ( 99.38%)    -0.68055 (  0.62%)    -0.70060
      98    180.58    -0.69243 ( 99.42%)    -0.67613 (  0.58%)    -0.69233
      99    182.92    -0.68527 ( 99.44%)    -0.67232 (  0.56%)    -0.68520
     100    183.91    -0.68226 ( 99.46%)    -0.67071 (  0.54%)    -0.68219
     101    184.24    -0.68127 ( 99.46%)    -0.67018 (  0.54%)    -0.68121
     102    188.45    -0.66876 ( 99.51%)    -0.66350 (  0.49%)    -0.66874
     103    188.73    -0.66793 ( 99.51%)    -0.66305 (  0.49%)    -0.66791
     104    189.43    -0.66589 ( 99.52%)    -0.66196 (  0.48%)    -0.66587
     105    189.48    -0.66574 ( 99.52%)    -0.66188 (  0.48%)    -0.66573
     106    189.88    -0.66457 ( 99.52%)    -0.66125 (  0.48%)    -0.66455
     107    191.14    -0.66091 ( 99.53%)    -0.65929 (  0.47%)    -0.66091
     108    196.06    -0.64690 ( 99.58%)    -0.65176 (  0.42%)    -0.64692
     109    200.86    -0.63363 ( 99.62%)    -0.64460 (  0.38%)    -0.63367
     110    200.98    -0.63329 ( 99.62%)    -0.64442 (  0.38%)    -0.63333
     111    201.19    -0.63273 ( 99.62%)    -0.64412 (  0.38%)    -0.63278
     112    201.85    -0.63095 ( 99.62%)    -0.64315 (  0.38%)    -0.63099
     113    201.99    -0.63055 ( 99.63%)    -0.64294 (  0.37%)    -0.63060
     114    202.86    -0.62819 ( 99.63%)    -0.64166 (  0.37%)    -0.62824
     115    202.99    -0.62784 ( 99.63%)    -0.64147 (  0.37%)    -0.62789
     116    203.27    -0.62710 ( 99.64%)    -0.64107 (  0.36%)    -0.62716
     117    203.53    -0.62640 ( 99.64%)    -0.64069 (  0.36%)    -0.62645
     118    206.35    -0.61888 ( 99.66%)    -0.63661 (  0.34%)    -0.61894
     119    214.11    -0.59878 ( 99.70%)    -0.62567 (  0.30%)    -0.59886
     120    214.73    -0.59722 ( 99.71%)    -0.62482 (  0.29%)    -0.59730
     121    223.39    -0.57587 ( 99.75%)    -0.61311 (  0.25%)    -0.57596
     122    225.46    -0.57091 ( 99.76%)    -0.61038 (  0.24%)    -0.57100
     123    233.34    -0.55249 ( 99.79%)    -0.60019 (  0.21%)    -0.55259
     124    243.65    -0.52953 ( 99.82%)    -0.58739 (  0.18%)    -0.52963
     125    253.57    -0.50852 ( 99.85%)    -0.57556 (  0.15%)    -0.50862
     126    257.03    -0.50144 ( 99.86%)    -0.57155 (  0.14%)    -0.50154
     127    259.71    -0.49603 ( 99.86%)    -0.56847 (  0.14%)    -0.49613
     128    262.92    -0.48965 ( 99.87%)    -0.56484 (  0.13%)    -0.48975
     129    264.22    -0.48709 ( 99.87%)    -0.56338 (  0.13%)    -0.48718
     130    265.28    -0.48502 ( 99.87%)    -0.56219 (  0.13%)    -0.48512
     131    265.47    -0.48464 ( 99.87%)    -0.56198 (  0.13%)    -0.48474
     132    265.97    -0.48368 ( 99.88%)    -0.56142 (  0.12%)    -0.48377
     133    266.29    -0.48304 ( 99.88%)    -0.56106 (  0.12%)    -0.48314
     134    266.96    -0.48174 ( 99.88%)    -0.56032 (  0.12%)    -0.48184
     135    267.36    -0.48097 ( 99.88%)    -0.55988 (  0.12%)    -0.48107
     136    267.74    -0.48025 ( 99.88%)    -0.55946 (  0.12%)    -0.48035
     137    268.20    -0.47936 ( 99.88%)    -0.55895 (  0.12%)    -0.47946
     138    268.57    -0.47865 ( 99.88%)    -0.55854 (  0.12%)    -0.47874
     139    269.39    -0.47708 ( 99.88%)    -0.55764 (  0.12%)    -0.47717
     140    271.22    -0.47359 ( 99.88%)    -0.55563 (  0.12%)    -0.47368
     141    272.77    -0.47065 ( 99.89%)    -0.55394 (  0.11%)    -0.47075
     142    273.61    -0.46908 ( 99.89%)    -0.55304 (  0.11%)    -0.46917
     143    274.19    -0.46798 ( 99.89%)    -0.55240 (  0.11%)    -0.46808
     144    278.22    -0.46051 ( 99.90%)    -0.54808 (  0.10%)    -0.46061
     145    281.40    -0.45473 ( 99.90%)    -0.54472 (  0.10%)    -0.45482
     146    284.24    -0.44962 ( 99.90%)    -0.54174 (  0.10%)    -0.44971
     147    286.38    -0.44581 ( 99.91%)    -0.53952 (  0.09%)    -0.44590
     148    291.25    -0.43729 ( 99.91%)    -0.53452 (  0.09%)    -0.43738
     149    295.30    -0.43035 ( 99.92%)    -0.53044 (  0.08%)    -0.43044
     150    297.98    -0.42583 ( 99.92%)    -0.52776 (  0.08%)    -0.42591
     151    299.50    -0.42329 ( 99.92%)    -0.52625 (  0.08%)    -0.42337
   ------------------------------------------------------------------------

   temp. (K)  partition function   enthalpy   heat capacity  entropy
                                   cal/mol     cal/K/mol   cal/K/mol   J/K/mol
 298.15  VIB  0.548E+88           101501.445    658.907    649.903
         ROT  0.157E+11              888.752      2.981     49.631
         INT  0.859E+98           102390.198    661.888    699.534
         TR   0.131E+30             1481.254      4.968     49.449
         TOT                      103871.4515   666.8557   748.9829  3133.7446

       T/K    H(0)-H(T)+PV         H(T)/Eh          T*S/Eh         G(T)/Eh
   ------------------------------------------------------------------------
    298.15    0.165530E+00    0.237422E+01    0.355866E+00    0.201835E+01
   ------------------------------------------------------------------------

         :::::::::::::::::::::::::::::::::::::::::::::::::::::
         ::                  THERMODYNAMIC                  ::
         :::::::::::::::::::::::::::::::::::::::::::::::::::::
         :: total free energy        -513.718449903747 Eh   ::
         ::.................................................::
         :: total energy             -515.736802028079 Eh   ::
         :: zero point energy           2.208688389602 Eh   ::
         :: G(RRHO) w/o ZPVE           -0.190336265271 Eh   ::
         :: G(RRHO) contrib.            2.018352124332 Eh   ::
         :::::::::::::::::::::::::::::::::::::::::::::::::::::

optimized geometry written to: xtbopt.xyz


           -------------------------------------------------
          | TOTAL ENERGY             -515.736802028079 Eh   |
          | TOTAL ENTHALPY           -513.362583944096 Eh   |
          | TOTAL FREE ENERGY        -513.718449903747 Eh   |
          | GRADIENT NORM               0.000474911227 Eh/α |
          | HOMO-LUMO GAP               0.712002179716 eV   |
           -------------------------------------------------

------------------------------------------------------------------------
 * finished run on 2021/11/21 at 06:34:35.726     
------------------------------------------------------------------------
 total:
 * wall-time:     0 d,  1 h,  7 min,  0.273 sec
 *  cpu-time:     0 d,  1 h,  7 min,  0.315 sec
 * ratio c/w:     1.000 speedup
 SCF:
 * wall-time:     0 d,  0 h,  0 min, 10.250 sec
 *  cpu-time:     0 d,  0 h,  0 min, 10.250 sec
 * ratio c/w:     1.000 speedup
 ANC optimizer:
 * wall-time:     0 d,  0 h,  8 min, 42.444 sec
 *  cpu-time:     0 d,  0 h,  8 min, 42.448 sec
 * ratio c/w:     1.000 speedup
 analytical hessian:
 * wall-time:     0 d,  0 h, 58 min,  7.055 sec
 *  cpu-time:     0 d,  0 h, 58 min,  7.093 sec
 * ratio c/w:     1.000 speedup

