304
 energy: -513.095331231449 gnorm: 2.482916807355 xtb: 6.4.1 (bd6e46d)
C        68.57118900000000    3.51330500000000    0.79008600000000
C        69.46116700000000    2.57304600000000    0.59189100000000
C        68.79966500000000    1.31297100000000    0.29108400000000
C        69.15810399999999    0.00730900000000    0.00240200000000
C        68.33292500000002   -1.12376300000000   -0.08281400000000
C        68.78849099999999   -2.33248700000000    0.49849300000000
C        67.81579600000002   -3.26503300000000    0.29833800000000
C        66.78470299999999   -2.59733200000000   -0.40464900000000
N        67.12142799999999   -1.31647300000000   -0.62156400000000
C        65.62674199999999   -3.32344800000000   -0.73636700000000
C        64.30864099999999   -2.88075200000000   -0.62283200000000
C        62.99629500000001   -3.48288600000000   -0.71981100000000
C        62.07466700000001   -2.53623800000000   -0.51372600000000
C        62.77155300000000   -1.29040800000000   -0.27699500000000
N        64.09262600000000   -1.57016000000000   -0.35668100000000
C        62.37231100000001    0.01158900000000   -0.00899200000000
C        63.20492300000000    1.14826500000000    0.06691700000000
C        62.77078000000000    2.35025500000000   -0.54322400000000
C        63.76629300000000    3.26664300000000   -0.35126800000000
C        64.78044400000000    2.59340000000000    0.37266300000000
N        64.41524699999999    1.32557800000000    0.61148700000000
C        65.95008500000000    3.30035600000000    0.69416300000000
C        67.26533800000000    2.89683200000000    0.62414700000000
N        67.45496100000000    1.58572800000000    0.32774500000000
H        68.73845400000000    4.54184900000000    1.02867600000000
H        70.53142600000000    2.69638300000000    0.64090900000000
H        69.74901200000001   -2.51819000000000    1.01707000000000
H        67.85267800000000   -4.32164300000000    0.62366500000000
H        66.51814299999999   -0.54906200000000   -1.16908300000000
H        65.71513299999999   -4.35887500000000   -1.11471300000000
H        62.79761900000000   -4.54358700000000   -0.92855600000000
H        61.00525700000000   -2.72817300000000   -0.53295900000000
H        61.29736800000001    0.10085900000000    0.12875300000000
H        61.81712500000000    2.54181200000000   -1.07202100000000
H        63.75187100000000    4.31687200000000   -0.69770900000000
H        65.00857100000000    0.56813500000000    1.18348400000000
H        65.88157699999999    4.35776100000000    1.05087900000000
C       136.79843900000000   -3.49031700000000    0.82645600000000
C       135.90846199999999   -2.55216700000000    0.61850600000000
C       136.56996300000000   -1.29528400000000    0.30462800000000
C       136.21152499999999    0.00730900000000    0.00240200000000
C       137.03670300000002    1.13743500000000   -0.09455700000000
C       136.58113800000001    2.35213200000000    0.47416600000000
C       137.55383200000000    3.28254900000000    0.26433600000000
C       138.58492600000000    2.60758300000000   -0.43167900000000
N       138.24820099999999    1.32453900000000   -0.63527900000000
C       139.74288700000000    3.33021400000000   -0.77091900000000
C       141.06098800000001    2.88872100000000   -0.65279300000000
C       142.37333400000000    3.48981600000000   -0.75602100000000
C       143.29496200000000    2.54535900000000   -0.54011500000000
C       142.59807599999999    1.30205500000000   -0.29045800000000
N       141.27700200000001    1.58096400000000   -0.37304500000000
C       142.99731800000001    0.00291100000000   -0.00894700000000
C       142.16470600000000   -1.13291500000000    0.07876300000000
C       142.59884900000000   -2.34117700000000   -0.51886100000000
C       141.60333600000001   -3.25552200000000   -0.31739800000000
C       140.58918499999999   -2.57479700000000    0.39950200000000
N       140.95438200000001   -1.30456300000000    0.62514600000000
C       139.41954300000000   -3.27837600000000    0.72832700000000
C       138.10428999999999   -2.87560000000000    0.65412400000000
N       137.91466800000001   -1.56764600000000    0.34412100000000
H       136.63117500000001   -4.51632800000000    1.07571500000000
H       134.83820299999999   -2.67498900000000    0.66880300000000
H       135.62061700000001    2.54321000000000    0.99078600000000
H       137.51695000000001    4.34248000000000    0.57867200000000
H       138.85148599999999    0.55148400000000   -1.17479800000000
H       139.65449600000002    4.36165600000000   -1.15999900000000
H       142.57200900000001    4.54829100000000   -0.97577000000000
H       144.36437100000001    2.73708300000000   -0.56134100000000
H       144.07226100000003   -0.08492300000000    0.12971800000000
H       143.55250300000003   -2.53821600000000   -1.04564000000000
H       141.61775700000001   -4.30929300000000   -0.65291300000000
H       140.36105699999999   -0.54122000000000    1.18924500000000
H       139.48805100000001   -4.33201900000000    1.09600500000000
C        71.38554800000000    0.00730900000000    0.00240200000000
C        72.60175300000002    0.00730900000000    0.00240200000000
C        81.61593600000000    0.00730900000000    0.00240200000000
C        82.83214099999999    0.00730900000000    0.00240200000000
C        91.84632400000000    0.00730900000000    0.00240200000000
C        93.06252900000000    0.00730900000000    0.00240200000000
C       102.07671200000000    0.00730900000000    0.00240200000000
C       103.29291700000000    0.00730900000000    0.00240200000000
C       112.30709899999999    0.00730900000000    0.00240200000000
C       113.52330499999999    0.00730900000000    0.00240200000000
C       122.53748700000000    0.00730900000000    0.00240200000000
C       123.75369300000001    0.00730900000000    0.00240200000000
C       132.76787500000000    0.00730900000000    0.00240200000000
C       133.98408100000000    0.00730900000000    0.00240200000000
C        74.31690100000000   -3.59225100000000    0.00091200000000
C        73.44235100000000   -2.59734600000000   -0.00939000000000
C        74.11381500000000   -1.31856300000000    0.00380000000000
C        73.71678400000000   -0.00297800000000   -0.00097900000000
C        74.52797600000001    1.14134600000000   -0.15510500000000
C        74.04895100000000    2.19386200000000   -0.96717000000000
C        75.03603600000001    3.13661500000000   -0.95863900000000
C        76.08330700000000    2.63482000000000   -0.14583600000000
N        75.74445400000000    1.42845200000000    0.32691000000000
C        77.24368400000000    3.41280300000000    0.00851400000000
C        78.56467400000000    2.95493000000000   -0.02088000000000
C        79.87724300000001    3.58306300000000   -0.08200700000000
C        80.79135599999999    2.62799900000000   -0.08459100000000
C        80.11780899999999    1.34112500000000   -0.02540100000000
N        78.80575100000000    1.62972400000000    0.00938800000000
C        80.52009300000000   -0.00297800000000   -0.00097900000000
C        79.68793800000000   -1.11676700000000    0.18130200000000
C        80.12789700000000   -2.14842400000000    1.04461300000000
C        79.12971500000000   -3.07176400000000    1.04923400000000
C        78.10679900000001   -2.59182700000000    0.19580500000000
N        78.47397599999999   -1.41058000000000   -0.31470300000000
C        76.94989000000000   -3.36723400000000    0.03873600000000
C        75.62911400000002   -2.94775600000000    0.02205100000000
N        75.45272400000002   -1.60955200000000    0.02295200000000
H        74.14838200000000   -4.65441800000000   -0.00449000000000
H        72.35452300000000   -2.78338200000000   -0.02641600000000
H        73.08487300000000    2.26923300000000   -1.50148700000000
H        74.99788900000000    4.10773000000000   -1.49108200000000
H        76.35213200000000    0.79135300000000    1.01553900000000
H        77.18858500000000    4.49906500000000    0.15262900000000
H        80.09567000000000    4.65105500000000   -0.12033800000000
H        81.86767100000000    2.77404200000000   -0.12421800000000
H        81.08190600000000   -2.21283600000000    1.60216100000000
H        79.15513300000002   -4.01708200000000    1.62455400000000
H        77.88690000000000   -0.79112300000000   -1.03835300000000
H        77.01060800000002   -4.47897400000000   -0.07539300000000
C        84.54728900000001   -3.59225100000000    0.00091200000000
C        83.67273900000001   -2.59734600000000   -0.00939000000000
C        84.34420300000001   -1.31856300000000    0.00380000000000
C        83.94717200000001   -0.00297800000000   -0.00097900000000
C        84.75836400000000    1.14134600000000   -0.15510500000000
C        84.27933800000000    2.19386200000000   -0.96717000000000
C        85.26642400000000    3.13661500000000   -0.95863900000000
C        86.31369500000000    2.63482000000000   -0.14583600000000
N        85.97484200000000    1.42845200000000    0.32691000000000
C        87.47407200000002    3.41280300000000    0.00851400000000
C        88.79506100000000    2.95493000000000   -0.02088000000000
C        90.10763100000000    3.58306300000000   -0.08200700000000
C        91.02174400000000    2.62799900000000   -0.08459100000000
C        90.34819700000001    1.34112500000000   -0.02540100000000
N        89.03613900000001    1.62972400000000    0.00938800000000
C        90.75048000000000   -0.00297800000000   -0.00097900000000
C        89.91832600000001   -1.11676700000000    0.18130200000000
C        90.35828500000001   -2.14842400000000    1.04461300000000
C        89.36010200000000   -3.07176400000000    1.04923400000000
C        88.33718700000000   -2.59182700000000    0.19580500000000
N        88.70436400000001   -1.41058000000000   -0.31470300000000
C        87.18027700000000   -3.36723400000000    0.03873600000000
C        85.85950200000001   -2.94775600000000    0.02205100000000
N        85.68311100000001   -1.60955200000000    0.02295200000000
H        84.37877000000000   -4.65441800000000   -0.00449000000000
H        82.58491100000001   -2.78338200000000   -0.02641600000000
H        83.31526100000001    2.26923300000000   -1.50148700000000
H        85.22827700000002    4.10773000000000   -1.49108200000000
H        86.58252000000000    0.79135300000000    1.01553900000000
H        87.41897299999999    4.49906500000000    0.15262900000000
H        90.32605800000002    4.65105500000000   -0.12033800000000
H        92.09805799999999    2.77404200000000   -0.12421800000000
H        91.31229399999999   -2.21283600000000    1.60216100000000
H        89.38552100000000   -4.01708200000000    1.62455400000000
H        88.11728800000000   -0.79112300000000   -1.03835300000000
H        87.24099600000000   -4.47897400000000   -0.07539300000000
C        94.77767700000000   -3.59225100000000    0.00091200000000
C        93.90312700000000   -2.59734600000000   -0.00939000000000
C        94.57459100000000   -1.31856300000000    0.00380000000000
C        94.17756000000000   -0.00297800000000   -0.00097900000000
C        94.98875200000001    1.14134600000000   -0.15510500000000
C        94.50972600000000    2.19386200000000   -0.96717000000000
C        95.49681200000001    3.13661500000000   -0.95863900000000
C        96.54408300000000    2.63482000000000   -0.14583600000000
N        96.20523000000000    1.42845200000000    0.32691000000000
C        97.70446000000000    3.41280300000000    0.00851400000000
C        99.02544899999999    2.95493000000000   -0.02088000000000
C       100.33801900000000    3.58306300000000   -0.08200700000000
C       101.25213100000001    2.62799900000000   -0.08459100000000
C       100.57858500000000    1.34112500000000   -0.02540100000000
N        99.26652700000000    1.62972400000000    0.00938800000000
C       100.98086800000002   -0.00297800000000   -0.00097900000000
C       100.14871400000000   -1.11676700000000    0.18130200000000
C       100.58867300000000   -2.14842400000000    1.04461300000000
C        99.59049000000002   -3.07176400000000    1.04923400000000
C        98.56757500000001   -2.59182700000000    0.19580500000000
N        98.93475200000000   -1.41058000000000   -0.31470300000000
C        97.41066500000001   -3.36723400000000    0.03873600000000
C        96.08989000000000   -2.94775600000000    0.02205100000000
N        95.91349900000000   -1.60955200000000    0.02295200000000
H        94.60915799999999   -4.65441800000000   -0.00449000000000
H        92.81529900000000   -2.78338200000000   -0.02641600000000
H        93.54564900000001    2.26923300000000   -1.50148700000000
H        95.45866500000000    4.10773000000000   -1.49108200000000
H        96.81290800000001    0.79135300000000    1.01553900000000
H        97.64936100000000    4.49906500000000    0.15262900000000
H       100.55644599999999    4.65105500000000   -0.12033800000000
H       102.32844600000000    2.77404200000000   -0.12421800000000
H       101.54268200000000   -2.21283600000000    1.60216100000000
H        99.61590900000000   -4.01708200000000    1.62455400000000
H        98.34767600000002   -0.79112300000000   -1.03835300000000
H        97.47138400000000   -4.47897400000000   -0.07539300000000
C       105.00806500000000   -3.59225100000000    0.00091200000000
C       104.13351500000002   -2.59734600000000   -0.00939000000000
C       104.80497900000000   -1.31856300000000    0.00380000000000
C       104.40794800000000   -0.00297800000000   -0.00097900000000
C       105.21914000000000    1.14134600000000   -0.15510500000000
C       104.74011400000001    2.19386200000000   -0.96717000000000
C       105.72719900000001    3.13661500000000   -0.95863900000000
C       106.77447100000002    2.63482000000000   -0.14583600000000
N       106.43561800000002    1.42845200000000    0.32691000000000
C       107.93484800000000    3.41280300000000    0.00851400000000
C       109.25583700000000    2.95493000000000   -0.02088000000000
C       110.56840700000001    3.58306300000000   -0.08200700000000
C       111.48251900000000    2.62799900000000   -0.08459100000000
C       110.80897299999999    1.34112500000000   -0.02540100000000
N       109.49691400000000    1.62972400000000    0.00938800000000
C       111.21125600000001   -0.00297800000000   -0.00097900000000
C       110.37910200000000   -1.11676700000000    0.18130200000000
C       110.81905999999999   -2.14842400000000    1.04461300000000
C       109.82087799999999   -3.07176400000000    1.04923400000000
C       108.79796300000000   -2.59182700000000    0.19580500000000
N       109.16514000000001   -1.41058000000000   -0.31470300000000
C       107.64105300000000   -3.36723400000000    0.03873600000000
C       106.32027800000000   -2.94775600000000    0.02205100000000
N       106.14388700000002   -1.60955200000000    0.02295200000000
H       104.83954600000001   -4.65441800000000   -0.00449000000000
H       103.04568700000000   -2.78338200000000   -0.02641600000000
H       103.77603700000000    2.26923300000000   -1.50148700000000
H       105.68905300000000    4.10773000000000   -1.49108200000000
H       107.04329600000000    0.79135300000000    1.01553900000000
H       107.87974800000002    4.49906500000000    0.15262900000000
H       110.78683400000001    4.65105500000000   -0.12033800000000
H       112.55883400000000    2.77404200000000   -0.12421800000000
H       111.77307000000000   -2.21283600000000    1.60216100000000
H       109.84629700000001   -4.01708200000000    1.62455400000000
H       108.57806400000000   -0.79112300000000   -1.03835300000000
H       107.70177100000001   -4.47897400000000   -0.07539300000000
C       115.23845300000002   -3.59225100000000    0.00091200000000
C       114.36390299999999   -2.59734600000000   -0.00939000000000
C       115.03536699999999   -1.31856300000000    0.00380000000000
C       114.63833600000000   -0.00297800000000   -0.00097900000000
C       115.44952800000000    1.14134600000000   -0.15510500000000
C       114.97050200000001    2.19386200000000   -0.96717000000000
C       115.95758700000000    3.13661500000000   -0.95863900000000
C       117.00485900000000    2.63482000000000   -0.14583600000000
N       116.66600600000000    1.42845200000000    0.32691000000000
C       118.16523599999999    3.41280300000000    0.00851400000000
C       119.48622500000002    2.95493000000000   -0.02088000000000
C       120.79879500000000    3.58306300000000   -0.08200700000000
C       121.71290700000000    2.62799900000000   -0.08459100000000
C       121.03936100000000    1.34112500000000   -0.02540100000000
N       119.72730199999999    1.62972400000000    0.00938800000000
C       121.44164400000001   -0.00297800000000   -0.00097900000000
C       120.60948999999999   -1.11676700000000    0.18130200000000
C       121.04944800000001   -2.14842400000000    1.04461300000000
C       120.05126600000000   -3.07176400000000    1.04923400000000
C       119.02835000000000   -2.59182700000000    0.19580500000000
N       119.39552800000000   -1.41058000000000   -0.31470300000000
C       117.87144100000002   -3.36723400000000    0.03873600000000
C       116.55066600000001   -2.94775600000000    0.02205100000000
N       116.37427500000000   -1.60955200000000    0.02295200000000
H       115.06993300000002   -4.65441800000000   -0.00449000000000
H       113.27607500000002   -2.78338200000000   -0.02641600000000
H       114.00642400000000    2.26923300000000   -1.50148700000000
H       115.91944100000001    4.10773000000000   -1.49108200000000
H       117.27368400000002    0.79135300000000    1.01553900000000
H       118.11013600000000    4.49906500000000    0.15262900000000
H       121.01722200000000    4.65105500000000   -0.12033800000000
H       122.78922200000000    2.77404200000000   -0.12421800000000
H       122.00345800000001   -2.21283600000000    1.60216100000000
H       120.07668500000000   -4.01708200000000    1.62455400000000
H       118.80845100000001   -0.79112300000000   -1.03835300000000
H       117.93215900000000   -4.47897400000000   -0.07539300000000
C       125.46884100000000   -3.59225100000000    0.00091200000000
C       124.59429100000001   -2.59734600000000   -0.00939000000000
C       125.26575400000000   -1.31856300000000    0.00380000000000
C       124.86872300000000   -0.00297800000000   -0.00097900000000
C       125.67991600000002    1.14134600000000   -0.15510500000000
C       125.20089000000000    2.19386200000000   -0.96717000000000
C       126.18797499999999    3.13661500000000   -0.95863900000000
C       127.23524700000000    2.63482000000000   -0.14583600000000
N       126.89639400000002    1.42845200000000    0.32691000000000
C       128.39562400000000    3.41280300000000    0.00851400000000
C       129.71661300000000    2.95493000000000   -0.02088000000000
C       131.02918299999999    3.58306300000000   -0.08200700000000
C       131.94329500000001    2.62799900000000   -0.08459100000000
C       131.26974899999999    1.34112500000000   -0.02540100000000
N       129.95769000000001    1.62972400000000    0.00938800000000
C       131.67203200000000   -0.00297800000000   -0.00097900000000
C       130.83987800000000   -1.11676700000000    0.18130200000000
C       131.27983599999999   -2.14842400000000    1.04461300000000
C       130.28165400000000   -3.07176400000000    1.04923400000000
C       129.25873799999999   -2.59182700000000    0.19580500000000
N       129.62591599999999   -1.41058000000000   -0.31470300000000
C       128.10182900000001   -3.36723400000000    0.03873600000000
C       126.78105400000001   -2.94775600000000    0.02205100000000
N       126.60466300000000   -1.60955200000000    0.02295200000000
H       125.30032100000000   -4.65441800000000   -0.00449000000000
H       123.50646300000000   -2.78338200000000   -0.02641600000000
H       124.23681200000001    2.26923300000000   -1.50148700000000
H       126.14982900000000    4.10773000000000   -1.49108200000000
H       127.50407199999999    0.79135300000000    1.01553900000000
H       128.34052399999999    4.49906500000000    0.15262900000000
H       131.24761000000001    4.65105500000000   -0.12033800000000
H       133.01961000000000    2.77404200000000   -0.12421800000000
H       132.23384600000000   -2.21283600000000    1.60216100000000
H       130.30707300000000   -4.01708200000000    1.62455400000000
H       129.03883900000000   -0.79112300000000   -1.03835300000000
H       128.16254699999999   -4.47897400000000   -0.07539300000000
304
 energy: -514.043869799383 gnorm: 0.874410631420 xtb: 6.4.1 (bd6e46d)
C        68.56587051809508    3.51666199553007    0.79131908443552
C        69.46951753460031    2.56851656123554    0.59024323711584
C        68.79605321700762    1.31361870575220    0.28852197515728
C        69.17411419503134    0.01259964549800    0.00524340003025
C        68.34642674668262   -1.11949698441205   -0.08054049380093
C        68.79323894551790   -2.33511231035641    0.49920197206991
C        67.81799063096837   -3.26755607463223    0.29641468084781
C        66.78052410714955   -2.60361728950715   -0.40667159714765
N        67.11779301935175   -1.31028504002401   -0.62356871718401
C        65.61918038908102   -3.32634367319358   -0.73949081466077
C        64.30774214984913   -2.87275908371391   -0.62488988773002
C        62.99666807039642   -3.48909380428555   -0.72202452427851
C        62.07090870225834   -2.53785596632331   -0.51333642075043
C        62.77843130916732   -1.29269671472977   -0.27401861696967
N        64.09866005922656   -1.56480341675286   -0.35527583478819
C        62.36997181397091    0.00512975514032   -0.00792490968227
C        63.19742635804621    1.14472419297618    0.06566202004816
C        62.76728085508816    2.35214246886079   -0.54221676753019
C        63.76418349274052    3.26914661747533   -0.34973445068422
C        64.78451536333540    2.60070995828488    0.37386362415548
N        64.42086853505678    1.31994576426692    0.61190918682242
C        65.95514600358530    3.30754768499097    0.69884552516376
C        67.26516882736477    2.88719911779141    0.62510483981170
N        67.45496529354286    1.58002535485056    0.32654347621370
H        68.73771710288315    4.54361329248948    1.02916463793384
H        70.53330829761391    2.69514611122883    0.64060659912101
H        69.74500616491092   -2.51563114517850    1.01497938276673
H        67.85092065499099   -4.31636822506795    0.62167389260603
H        66.52586999990439   -0.55971566641739   -1.15973876449076
H        65.71643457699638   -4.35733222893898   -1.10967611383973
H        62.79874828889479   -4.54136819221492   -0.92818336677578
H        61.00587691634730   -2.72598851471662   -0.53241749887437
H        61.29744521223172    0.10373198278440    0.12547669168984
H        61.82158404028106    2.53919537193413   -1.06954124933371
H        63.75355305752302    4.31163647987271   -0.69569337668705
H        65.00071544170854    0.57846024247514    1.17361885219400
H        65.87887134803809    4.35590221019833    1.04617543068383
C       136.80375033696265   -3.49366678389513    0.82773987166950
C       135.90014298046179   -2.54764524658611    0.61687150986333
C       136.57353820581270   -1.29597980770356    0.30211032974953
C       136.19552409926914    0.00194310454484    0.00559721948803
C       137.02321925842753    1.13321819601243   -0.09224267958272
C       136.57638403432634    2.35474356726687    0.47483088319612
C       137.55165965115913    3.28505653261415    0.26237814071441
C       138.58909091569902    2.61385700882426   -0.43375630412112
N       138.25183887485517    1.31832570479907   -0.63720508754630
C       139.75046490458706    3.33308086683664   -0.77408232223837
C       141.06188051484961    2.88072202609689   -0.65476902951685
C       142.37296092068161    3.49600290859069   -0.75830517767908
C       143.29871838819463    2.54698229801978   -0.53974935837290
C       142.59119191133973    1.30437861051752   -0.28751395665238
N       141.27097294586522    1.57561297174228   -0.37158593179392
C       142.99965818110624    0.00937594014898   -0.00795062423284
C       142.17220151271303   -1.12938690057646    0.07746497365348
C       142.60234730637163   -2.34305462167674   -0.51784068884110
C       141.60544386053729   -3.25801162176664   -0.31584274961008
C       140.58511163875252   -2.58209189462266    0.40077214247580
N       140.94876044311030   -1.29892577328014    0.62550514171718
C       139.41447406416725   -3.28552271176245    0.73307200343119
C       138.10444977411197   -2.86596489540796    0.65495314117777
N       137.91463143796062   -1.56193695365046    0.34291340007238
H       136.63191354257629   -4.51809339637517    1.07622117908391
H       134.83638052449027   -2.67378483393613    0.66838159898349
H       135.62462561021533    2.54063566584173    0.98872013492813
H       137.51870707777803    4.33718385757942    0.57673143415381
H       138.84375702775867    0.56223231019913   -1.16556967813557
H       139.65319622168926    4.36016264423663   -1.15496226592104
H       142.57087955991742    4.54607602388552   -0.97537967557244
H       144.36375009205003    2.73490405070448   -0.56078252203810
H       144.07218375537403   -0.08783011726931    0.12646609958035
H       143.54804310197218   -2.53557394260855   -1.04319367427186
H       141.61607451090075   -4.30403682497881   -0.65095805484180
H       140.36891354881624   -0.55164557987535    1.17948154180257
H       139.49075755487925   -4.33021041732285    1.09127574878900
C        71.33412309999183    0.01012099376923    0.00205173312339
C        72.52679093859450    0.01228612606833    0.00176643061921
C        81.65740331079677    0.00581507888423    0.00253107256129
C        82.79965626441529    0.01062676612997    0.00288266782392
C        91.88729733145054    0.00581939315556    0.00243077094352
C        93.03045241919295    0.01062725362817    0.00291250797116
C       102.11762964416761    0.00581825311925    0.00241507046499
C       103.26089578072369    0.01062563090785    0.00291405073983
C       112.34806754619851    0.00581866763647    0.00241670230632
C       113.49122767907743    0.01062633868360    0.00290003812669
C       122.57882738435131    0.00583194555687    0.00245303892477
C       123.72111539605436    0.01064661196660    0.00280706930784
C       132.84868338822275    0.00439646519423    0.00371790231681
C       134.03903809076741    0.00432864521775    0.00118945324628
C        74.32292192111557   -3.59445701775645    0.00036313939101
C        73.43385278801308   -2.59734359458930   -0.00903569349156
C        74.13660607907551   -1.33254472853128    0.00590498310245
C        73.77056805967337   -0.00704243948941   -0.00052812674618
C        74.53405533203482    1.14277998004648   -0.15722724297726
C        74.04774487628107    2.19427086069836   -0.96636546225887
C        75.03609161719065    3.14163621196029   -0.95781590367107
C        76.08637180049803    2.64315333667992   -0.14645640882139
N        75.75202617141126    1.42552598252224    0.32943737921621
C        77.25439017338519    3.41612364175061    0.01090590134626
C        78.56409365898155    2.95408385842397   -0.01816348397516
C        79.87415210948473    3.59107923239452   -0.08097707017591
C        80.79645650500406    2.62521571716941   -0.08482231192741
C        80.09082890505601    1.35661808307396   -0.02726557010917
N        78.79632155019259    1.62346671671430    0.00840011247355
C        80.44955925350328    0.00350299412888   -0.00254373128535
C        79.67597791203309   -1.12202871627172    0.18424793463769
C        80.12919261209508   -2.14704063993508    1.04393657142524
C        79.12942131335741   -3.07784537198142    1.04884881178884
C        78.10403619310239   -2.60097772463761    0.19710746331517
N        78.46623992823361   -1.40810512948539   -0.31751028005035
C        76.94226553096560   -3.37603101768395    0.03569218418546
C        75.63111603319777   -2.94388267157270    0.01940031427708
N        75.45595330838211   -1.60657877295666    0.02363720913695
H        74.14897598580173   -4.65420853450046   -0.00452139711909
H        72.35628456847152   -2.78003367992237   -0.02636504263291
H        73.08948325573616    2.26671447845527   -1.49837497764969
H        74.99969344484867    4.10334083543620   -1.48816069044371
H        76.34450382619244    0.79967642932128    1.00437980362472
H        77.18649311535970    4.49778717540114    0.14870875198334
H        80.09380687352837    4.65048682330225   -0.12028540729953
H        81.86656661246121    2.77259671157566   -0.12369690308302
H        81.07690624830256   -2.21014121878231    1.59904130829180
H        79.15307887440773   -4.01343076578637    1.62141772929962
H        77.89446842601029   -0.79933299692957   -1.02670261868989
H        77.01352222703913   -4.47590084336147   -0.07156938874524
C        84.55373458025655   -3.59518473436097    0.00029823669941
C        83.66488422200085   -2.59730829454988   -0.00926955848703
C        84.37290114435191   -1.33691659175650    0.00544378594002
C        84.00991827468081   -0.00635247176717   -0.00013336811853
C        84.76805051078502    1.14575358705837   -0.15801632378567
C        84.27917935928352    2.19304744166316   -0.96673038335317
C        85.26730401549793    3.14218451266998   -0.95741331512202
C        86.31655443795292    2.64371655396839   -0.14660591225647
N        85.98230343781293    1.42614460614896    0.32936946465870
C        87.48528961086066    3.41612238795553    0.01077564408879
C        88.79424564783882    2.95452055507741   -0.01835587147551
C        90.10449912275205    3.59113504590739   -0.08089020001806
C        91.02676170405518    2.62524829654412   -0.08483850500400
C        90.32098200320371    1.35693307736926   -0.02706590554901
N        89.02706126846057    1.62317218829795    0.00843179129027
C        90.68034704598573    0.00343860489684   -0.00267383290781
C        89.90621542522815   -1.12241739408672    0.18433881277061