      -----------------------------------------------------------      
     |                   =====================                   |     
     |                           x T B                           |     
     |                   =====================                   |     
     |                         S. Grimme                         |     
     |          Mulliken Center for Theoretical Chemistry        |     
     |                    University of Bonn                     |     
      -----------------------------------------------------------      

   * xtb version 6.4.1 (bd6e46d) compiled by 'conda@4901f00b25ba' on 2021-06-10

   xtb is free software: you can redistribute it and/or modify it under
   the terms of the GNU Lesser General Public License as published by
   the Free Software Foundation, either version 3 of the License, or
   (at your option) any later version.
   
   xtb is distributed in the hope that it will be useful,
   but WITHOUT ANY WARRANTY; without even the implied warranty of
   MERCHANTABILITY or FITNESS FOR A PARTICULAR PURPOSE.  See the
   GNU Lesser General Public License for more details.
   
   Cite this work as:
   * C. Bannwarth, E. Caldeweyher, S. Ehlert, A. Hansen, P. Pracht,
     J. Seibert, S. Spicher, S. Grimme, WIREs Comput. Mol. Sci., 2020, 11,
     e01493. DOI: 10.1002/wcms.1493
   
   for GFN2-xTB:
   * C. Bannwarth, S. Ehlert and S. Grimme., J. Chem. Theory Comput., 2019,
     15, 1652-1671. DOI: 10.1021/acs.jctc.8b01176
   for GFN1-xTB:
   * S. Grimme, C. Bannwarth, P. Shushkov, J. Chem. Theory Comput., 2017,
     13, 1989-2009. DOI: 10.1021/acs.jctc.7b00118
   for GFN0-xTB:
   * P. Pracht, E. Caldeweyher, S. Ehlert, S. Grimme, ChemRxiv, 2019, preprint.
     DOI: 10.26434/chemrxiv.8326202.v1
   for GFN-FF:
   * S. Spicher and S. Grimme, Angew. Chem. Int. Ed., 2020, 59, 15665-15673.
     DOI: 10.1002/anie.202004239
   
   for DFT-D4:
   * E. Caldeweyher, C. Bannwarth and S. Grimme, J. Chem. Phys., 2017,
     147, 034112. DOI: 10.1063/1.4993215
   * E. Caldeweyher, S. Ehlert, A. Hansen, H. Neugebauer, S. Spicher,
     C. Bannwarth and S. Grimme, J. Chem. Phys., 2019, 150, 154122.
     DOI: 10.1063/1.5090222
   * E. Caldeweyher, J.-M. Mewes, S. Ehlert and S. Grimme, Phys. Chem. Chem. Phys.
     2020, 22, 8499-8512. DOI: 10.1039/D0CP00502A
   
   for sTDA-xTB:
   * S. Grimme and C. Bannwarth, J. Chem. Phys., 2016, 145, 054103.
     DOI: 10.1063/1.4959605
   
   in the mass-spec context:
   * V. Asgeirsson, C. Bauer and S. Grimme, Chem. Sci., 2017, 8, 4879.
     DOI: 10.1039/c7sc00601b
   * J. Koopman and S. Grimme, ACS Omega 2019, 4, 12, 15120-15133.
     DOI: 10.1021/acsomega.9b02011
   
   for metadynamics refer to:
   * S. Grimme, J. Chem. Theory Comput., 2019, 155, 2847-2862
     DOI: 10.1021/acs.jctc.9b00143
   
   for SPH calculations refer to:
   * S. Spicher and S. Grimme, J. Chem. Theory Comput., 2021, 17, 1701-1714
     DOI: 10.1021/acs.jctc.0c01306
   
   with help from (in alphabetical order)
   P. Atkinson, C. Bannwarth, F. Bohle, G. Brandenburg, E. Caldeweyher
   M. Checinski, S. Dohm, S. Ehlert, S. Ehrlich, I. Gerasimov, J. Koopman
   C. Lavigne, S. Lehtola, F. März, M. Müller, F. Musil, H. Neugebauer
   J. Pisarek, C. Plett, P. Pracht, J. Seibert, P. Shushkov, S. Spicher
   M. Stahn, M. Steiner, T. Strunk, J. Stückrath, T. Rose, and J. Unsleber
   
 * started run on 2021/11/21 at 19:09:49.382     

           -------------------------------------------------
          |                Calculation Setup                |
           -------------------------------------------------

          program call               : /home/jeff/miniconda3/bin/xtb /home/jeff/chem/final-year-proejct/Cu+2_4_4_outenergy/input_structure.xyz --gfn 2 --parallel 1 --etemp 300 --chrg 0 --uhf 0 -I det_control.in
          coordinate file            : /home/jeff/chem/final-year-proejct/Cu+2_4_4_outenergy/input_structure.xyz
          omp threads                :                     1
          number of atoms            :                   154
          number of electrons        :                   534
          charge                     :                     0
          spin                       :                   0.0
          first test random number   :      0.91541422443717

   ID    Z sym.   atoms
    1   29 Cu     1, 37, 85, 120
    2    6 C      2-9, 11-15, 17-21, 23, 24, 38-45, 47-51, 53-57, 59, 60,
                  73-84, 86-93, 95-99, 101-105, 107, 108, 121-128, 130-134,
                  136-140, 142, 143
    3    7 N      10, 16, 22, 25, 46, 52, 58, 61, 94, 100, 106, 109, 129,
                  135, 141, 144
    4    1 H      26-36, 62-72, 110-119, 145-154

           -------------------------------------------------
          |                 G F N 2 - x T B                 |
           -------------------------------------------------

        Reference                      10.1021/acs.jctc.8b01176
      * Hamiltonian:
        H0-scaling (s, p, d)           1.850000    2.230000    2.230000
        zeta-weighting                 0.500000
      * Dispersion:
        s8                             2.700000
        a1                             0.520000
        a2                             5.000000
        s9                             5.000000
      * Repulsion:
        kExp                           1.500000    1.000000
        rExp                           1.000000
      * Coulomb:
        alpha                          2.000000
        third order                    shell-resolved
        anisotropic                    true
        a3                             3.000000
        a5                             4.000000
        cn-shift                       1.200000
        cn-exp                         4.000000
        max-rad                        5.000000


          ...................................................
          :                      SETUP                      :
          :.................................................:
          :  # basis functions                 514          :
          :  # atomic orbitals                 510          :
          :  # shells                          270          :
          :  # electrons                       534          :
          :  max. iterations                   250          :
          :  Hamiltonian                  GFN2-xTB          :
          :  restarted?                      false          :
          :  GBSA solvation                  false          :
          :  PC potential                    false          :
          :  electronic temp.          300.0000000     K    :
          :  accuracy                    1.0000000          :
          :  -> integral cutoff          0.2500000E+02      :
          :  -> integral neglect         0.1000000E-07      :
          :  -> SCF convergence          0.1000000E-05 Eh   :
          :  -> wf. convergence          0.1000000E-03 e    :
          :  Broyden damping             0.4000000          :
          ...................................................

 iter      E             dE          RMSdq      gap      omega  full diag
   1   -285.6585537 -0.285659E+03  0.576E+00    0.02       0.0  T
   2   -285.1226010  0.535953E+00  0.368E+00    0.66       1.0  T
   3   -156.8645068  0.128258E+03  0.133E+01    0.07       1.0  T
   4   -284.4575792 -0.127593E+03  0.232E+00    0.01       1.0  T
   5   -285.1447011 -0.687122E+00  0.146E+00    0.08       1.0  T
   6   -284.4451106  0.699590E+00  0.138E+00    0.09       1.0  T
   7   -285.1186137 -0.673503E+00  0.105E+00    0.34       1.0  T
   8   -285.3179786 -0.199365E+00  0.907E-01    0.08       1.0  T
   9   -285.4389069 -0.120928E+00  0.684E-01    0.08       1.0  T
  10   -285.3271599  0.111747E+00  0.867E-01    0.11       1.0  T
  11   -285.4750305 -0.147871E+00  0.664E-01    0.06       1.0  T
  12   -285.5774725 -0.102442E+00  0.509E-01    0.06       1.0  T
  13   -285.3849540  0.192519E+00  0.749E-01    0.11       1.0  T
  14   -285.4115694 -0.266154E-01  0.701E-01    0.10       1.0  T
  15   -285.6848909 -0.273322E+00  0.343E-01    0.04       1.0  T
  16   -285.5664872  0.118404E+00  0.549E-01    0.03       1.0  T
  17   -285.5985907 -0.321035E-01  0.502E-01    0.00       1.0  T
  18   -285.7042280 -0.105637E+00  0.319E-01    0.00       1.0  T
  19   -285.7668014 -0.625734E-01  0.621E-02    0.00       1.0  T
  20   -285.7506635  0.161379E-01  0.173E-01    0.01       1.0  T
  21   -285.7565359 -0.587244E-02  0.137E-01    0.00       1.0  T
  22   -285.7504721  0.606379E-02  0.170E-01    0.01       1.0  T
  23   -285.7610126 -0.105405E-01  0.112E-01    0.00       1.0  T
  24   -285.7658394 -0.482683E-02  0.701E-02    0.00       1.0  T
  25   -285.7686802 -0.284080E-02  0.260E-02    0.00       1.0  T
  26   -285.7685774  0.102853E-03  0.270E-02    0.00       1.0  T
  27   -285.7686796 -0.102208E-03  0.235E-02    0.00       1.0  T
  28   -285.7687754 -0.957968E-04  0.200E-02    0.00       1.0  T
  29   -285.7690533 -0.277965E-03  0.420E-03    0.00       1.9  T
  30   -285.7690608 -0.743518E-05  0.301E-03    0.00       2.7  T
  31   -285.7690593  0.144377E-05  0.312E-03    0.00       2.6  T
  32   -285.7690635 -0.412986E-05  0.172E-03    0.00       4.7  T
  33   -285.7690637 -0.221355E-06  0.153E-03    0.00       5.3  T
  34   -285.7690652 -0.156221E-05  0.448E-04    0.00      18.0  T
  35   -285.7690652  0.827073E-07  0.578E-04    0.00      13.9  T
  36   -285.7690653 -0.179297E-06  0.199E-04    0.00      40.4  T

   *** convergence criteria satisfied after 36 iterations ***

         #    Occupation            Energy/Eh            Energy/eV
      -------------------------------------------------------------
         1        2.0000           -0.6794652             -18.4892
       ...           ...                  ...                  ...
       261        2.0000           -0.3693856             -10.0515
       262        2.0000           -0.3693805             -10.0514
       263        2.0000           -0.3650800              -9.9343
       264        2.0000           -0.3570525              -9.7159
       265        2.0000           -0.3498732              -9.5205
       266        1.0118           -0.3220559              -8.7636
       267        1.0115           -0.3220551              -8.7636 (HOMO)
       268        0.9873           -0.3220093              -8.7623 (LUMO)
       269        0.9867           -0.3220081              -8.7623
       270        0.0027           -0.3157427              -8.5918
       271        0.0000           -0.3085540              -8.3962
       272                         -0.3003056              -8.1717
       ...                                ...                  ...
       510                          1.6334734              44.4491
      -------------------------------------------------------------
                  HL-Gap            0.0000458 Eh            0.0012 eV
             Fermi-level           -0.3220334 Eh           -8.7630 eV

 SCC (total)                   0 d,  0 h,  0 min,  2.575 sec
 SCC setup                      ...        0 min,  0.004 sec (  0.173%)
 Dispersion                     ...        0 min,  0.009 sec (  0.363%)
 classical contributions        ...        0 min,  0.001 sec (  0.045%)
 integral evaluation            ...        0 min,  0.081 sec (  3.165%)
 iterations                     ...        0 min,  2.233 sec ( 86.715%)
 molecular gradient             ...        0 min,  0.238 sec (  9.255%)
 printout                       ...        0 min,  0.007 sec (  0.284%)

         :::::::::::::::::::::::::::::::::::::::::::::::::::::
         ::                     SUMMARY                     ::
         :::::::::::::::::::::::::::::::::::::::::::::::::::::
         :: total energy            -280.759800797818 Eh    ::
         :: gradient norm              0.000724509143 Eh/a0 ::
         :: HOMO-LUMO gap              0.001246654857 eV    ::
         ::.................................................::
         :: SCC energy              -285.769065340706 Eh    ::
         :: -> isotropic ES            0.111292632625 Eh    ::
         :: -> anisotropic ES          0.036822188706 Eh    ::
         :: -> anisotropic XC          0.124319027081 Eh    ::
         :: -> dispersion             -0.248574071409 Eh    ::
         :: repulsion energy           5.013222894349 Eh    ::
         :: add. restraining           0.000000000000 Eh    ::
         :: total charge              -0.000000000299 e     ::
         :::::::::::::::::::::::::::::::::::::::::::::::::::::

           -------------------------------------------------
          |                Property Printout                |
           -------------------------------------------------

    * Orbital Energies and Occupations

         #    Occupation            Energy/Eh            Energy/eV
      -------------------------------------------------------------
         1        2.0000           -0.6794652             -18.4892
       ...           ...                  ...                  ...
       255        2.0000           -0.3713141             -10.1040
       256        2.0000           -0.3711581             -10.0997
       257        2.0000           -0.3710720             -10.0974
       258        2.0000           -0.3710648             -10.0972
       259        2.0000           -0.3705113             -10.0821
       260        2.0000           -0.3705040             -10.0819
       261        2.0000           -0.3693856             -10.0515
       262        2.0000           -0.3693805             -10.0514
       263        2.0000           -0.3650800              -9.9343
       264        2.0000           -0.3570525              -9.7159
       265        2.0000           -0.3498732              -9.5205
       266        1.0118           -0.3220559              -8.7636
       267        1.0115           -0.3220551              -8.7636 (HOMO)
       268        0.9873           -0.3220093              -8.7623 (LUMO)
       269        0.9867           -0.3220081              -8.7623
       270        0.0027           -0.3157427              -8.5918
       271        0.0000           -0.3085540              -8.3962
       272                         -0.3003056              -8.1717
       273                         -0.3000556              -8.1649
       274                         -0.3000528              -8.1649
       275                         -0.2997227              -8.1559
       276                         -0.2997170              -8.1557
       277                         -0.2937896              -7.9944
       278                         -0.2724264              -7.4131
       ...                                ...                  ...
       510                          1.6334734              44.4491
      -------------------------------------------------------------
                  HL-Gap            0.0000458 Eh            0.0012 eV
             Fermi-level           -0.3220334 Eh           -8.7630 eV

     #   Z          covCN         q      C6AA      α(0)
     1  29 Cu       2.957     0.198   146.182    27.531
     2   6 C        3.023    -0.051    29.231     8.869
     3   6 C        3.020    -0.049    29.190     8.862
     4   6 C        3.165     0.079    25.918     8.320
     5   6 C        2.953     0.017    27.626     8.621
     6   6 C        3.165     0.079    25.920     8.320
     7   6 C        3.020    -0.049    29.189     8.862
     8   6 C        3.022    -0.051    29.232     8.869
     9   6 C        3.148     0.077    26.023     8.345
    10   7 N        2.620    -0.172    24.722     7.385
    11   6 C        2.901    -0.050    29.229     8.865
    12   6 C        3.144     0.078    26.010     8.345
    13   6 C        3.019    -0.050    29.208     8.865
    14   6 C        3.020    -0.050    29.213     8.866
    15   6 C        3.144     0.079    25.995     8.342
    16   7 N        2.623    -0.170    24.685     7.379
    17   6 C        2.901    -0.051    29.275     8.871
    18   6 C        3.144     0.079    25.995     8.342
    19   6 C        3.020    -0.050    29.213     8.866
    20   6 C        3.019    -0.050    29.208     8.865
    21   6 C        3.144     0.078    26.010     8.344
    22   7 N        2.623    -0.170    24.685     7.379
    23   6 C        2.901    -0.050    29.229     8.865
    24   6 C        3.148     0.077    26.022     8.345
    25   7 N        2.620    -0.172    24.722     7.385
    26   1 H        0.926     0.034     2.524     2.484
    27   1 H        0.926     0.036     2.500     2.473
    28   1 H        0.926     0.036     2.500     2.472
    29   1 H        0.926     0.034     2.524     2.484
    30   1 H        0.926     0.050     2.321     2.382
    31   1 H        0.926     0.035     2.515     2.480
    32   1 H        0.926     0.035     2.516     2.481
    33   1 H        0.926     0.049     2.330     2.387
    34   1 H        0.926     0.035     2.516     2.481
    35   1 H        0.926     0.035     2.515     2.480
    36   1 H        0.926     0.050     2.321     2.382
    37  29 Cu       2.956     0.198   146.183    27.531
    38   6 C        3.023    -0.051    29.231     8.869
    39   6 C        3.020    -0.049    29.191     8.862
    40   6 C        3.165     0.079    25.919     8.320
    41   6 C        2.953     0.017    27.626     8.621
    42   6 C        3.165     0.079    25.920     8.321
    43   6 C        3.020    -0.049    29.189     8.862
    44   6 C        3.022    -0.051    29.231     8.869
    45   6 C        3.148     0.077    26.022     8.345
    46   7 N        2.620    -0.172    24.723     7.385
    47   6 C        2.901    -0.050    29.230     8.865
    48   6 C        3.144     0.078    26.010     8.344
    49   6 C        3.019    -0.050    29.208     8.865
    50   6 C        3.020    -0.050    29.212     8.866
    51   6 C        3.144     0.079    25.995     8.342
    52   7 N        2.623    -0.170    24.685     7.379
    53   6 C        2.901    -0.051    29.275     8.871
    54   6 C        3.144     0.079    25.995     8.342
    55   6 C        3.020    -0.050    29.213     8.866
    56   6 C        3.019    -0.050    29.208     8.865
    57   6 C        3.144     0.078    26.010     8.344
    58   7 N        2.623    -0.170    24.685     7.379
    59   6 C        2.901    -0.050    29.230     8.865
    60   6 C        3.148     0.077    26.022     8.345
    61   7 N        2.620    -0.172    24.723     7.385
    62   1 H        0.926     0.034     2.524     2.484
    63   1 H        0.926     0.036     2.499     2.472
    64   1 H        0.926     0.036     2.499     2.472
    65   1 H        0.926     0.034     2.524     2.484
    66   1 H        0.926     0.050     2.321     2.382
    67   1 H        0.926     0.035     2.515     2.480
    68   1 H        0.926     0.035     2.516     2.481
    69   1 H        0.926     0.049     2.330     2.387
    70   1 H        0.926     0.035     2.516     2.481
    71   1 H        0.926     0.035     2.515     2.480
    72   1 H        0.926     0.050     2.321     2.382
    73   6 C        1.995    -0.021    31.588     9.077
    74   6 C        1.963    -0.009    31.311     9.036
    75   6 C        1.963    -0.009    31.315     9.037
    76   6 C        1.995    -0.020    31.579     9.075
    77   6 C        1.995    -0.020    31.581     9.076
    78   6 C        1.963    -0.009    31.311     9.036
    79   6 C        1.963    -0.009    31.312     9.036
    80   6 C        1.995    -0.020    31.581     9.076
    81   6 C        1.995    -0.020    31.578     9.075
    82   6 C        1.963    -0.009    31.314     9.037
    83   6 C        1.963    -0.009    31.310     9.036
    84   6 C        1.995    -0.020    31.586     9.076
    85  29 Cu       2.947     0.200   146.152    27.528
    86   6 C        3.023    -0.051    29.232     8.869
    87   6 C        3.020    -0.049    29.199     8.864
    88   6 C        3.166     0.079    25.906     8.317
    89   6 C        2.953     0.017    27.629     8.621
    90   6 C        3.166     0.079    25.907     8.318
    91   6 C        3.020    -0.049    29.198     8.864
    92   6 C        3.023    -0.051    29.232     8.869
    93   6 C        3.149     0.077    26.030     8.345
    94   7 N        2.619    -0.173    24.756     7.389
    95   6 C        2.901    -0.047    29.173     8.856
    96   6 C        3.149     0.077    26.030     8.345
    97   6 C        3.023    -0.051    29.232     8.869
    98   6 C        3.021    -0.049    29.198     8.864
    99   6 C        3.166     0.079    25.905     8.317
   100   7 N        2.619    -0.173    24.754     7.389
   101   6 C        2.953     0.017    27.627     8.621
   102   6 C        3.166     0.079    25.906     8.317
   103   6 C        3.020    -0.049    29.198     8.864
   104   6 C        3.023    -0.051    29.232     8.869
   105   6 C        3.149     0.077    26.030     8.345
   106   7 N        2.619    -0.173    24.754     7.389
   107   6 C        2.901    -0.047    29.173     8.856
   108   6 C        3.149     0.077    26.030     8.345
   109   7 N        2.619    -0.173    24.755     7.389
   110   1 H        0.926     0.034     2.532     2.488
   111   1 H        0.926     0.035     2.511     2.478
   112   1 H        0.926     0.035     2.510     2.478
   113   1 H        0.926     0.034     2.532     2.488
   114   1 H        0.926     0.050     2.319     2.381
   115   1 H        0.926     0.034     2.531     2.488
   116   1 H        0.926     0.036     2.509     2.477
   117   1 H        0.926     0.036     2.509     2.477
   118   1 H        0.926     0.034     2.531     2.488
   119   1 H        0.926     0.050     2.319     2.381
   120  29 Cu       2.947     0.200   146.152    27.528
   121   6 C        3.023    -0.051    29.232     8.869
   122   6 C        3.020    -0.049    29.198     8.864
   123   6 C        3.166     0.079    25.905     8.317
   124   6 C        2.953     0.017    27.627     8.621
   125   6 C        3.166     0.079    25.906     8.317
   126   6 C        3.020    -0.049    29.198     8.864
   127   6 C        3.023    -0.051    29.232     8.869
   128   6 C        3.149     0.077    26.030     8.345
   129   7 N        2.619    -0.173    24.754     7.389
   130   6 C        2.901    -0.047    29.174     8.856
   131   6 C        3.149     0.077    26.030     8.345
   132   6 C        3.023    -0.051    29.231     8.869
   133   6 C        3.020    -0.049    29.199     8.864
   134   6 C        3.166     0.079    25.908     8.318
   135   7 N        2.619    -0.173    24.756     7.389
   136   6 C        2.953     0.017    27.629     8.621
   137   6 C        3.166     0.079    25.907     8.318
   138   6 C        3.020    -0.049    29.198     8.864
   139   6 C        3.023    -0.051    29.231     8.869
   140   6 C        3.149     0.077    26.029     8.345
   141   7 N        2.619    -0.173    24.756     7.390
   142   6 C        2.901    -0.047    29.174     8.856
   143   6 C        3.149     0.077    26.030     8.345
   144   7 N        2.619    -0.173    24.754     7.389
   145   1 H        0.926     0.034     2.531     2.488
   146   1 H        0.926     0.036     2.509     2.477
   147   1 H        0.926     0.036     2.509     2.477
   148   1 H        0.926     0.034     2.531     2.488
   149   1 H        0.926     0.050     2.319     2.381
   150   1 H        0.926     0.034     2.531     2.488
   151   1 H        0.926     0.035     2.510     2.477
   152   1 H        0.926     0.035     2.509     2.477
   153   1 H        0.926     0.034     2.531     2.488
   154   1 H        0.926     0.050     2.319     2.381

 Mol. C6AA /au·bohr⁶  :     463114.705680
 Mol. C8AA /au·bohr⁸  :   13337516.251825
 Mol. α(0) /au        :       1130.945936


Wiberg/Mayer (AO) data.
largest (>0.10) Wiberg bond orders for each atom

 ---------------------------------------------------------------------------
     #   Z sym  total        # sym  WBO       # sym  WBO       # sym  WBO
 ---------------------------------------------------------------------------
     1  29 Cu   2.329 --    22 N    0.534    16 N    0.534    10 N    0.533
                            25 N    0.533
     2   6 C    3.946 --     3 C    1.650    24 C    1.167    26 H    0.972
     3   6 C    3.949 --     2 C    1.650     4 C    1.175    27 H    0.971
     4   6 C    3.909 --    25 N    1.289     5 C    1.249     3 C    1.175
     5   6 C    3.941 --     6 C    1.250     4 C    1.249    73 C    1.186
     6   6 C    3.909 --    10 N    1.288     5 C    1.250     7 C    1.175
     7   6 C    3.949 --     8 C    1.650     6 C    1.175    28 H    0.971
     8   6 C    3.946 --     7 C    1.650     9 C    1.167    29 H    0.972
     9   6 C    3.921 --    11 C    1.355    10 N    1.249     8 C    1.167
    10   7 N    3.382 --     6 C    1.288     9 C    1.249     1 Cu   0.533
    11   6 C    3.931 --     9 C    1.355    12 C    1.352    30 H    0.964
    12   6 C    3.927 --    11 C    1.352    16 N    1.263    13 C    1.158
    13   6 C    3.950 --    14 C    1.666    12 C    1.158    31 H    0.972
    14   6 C    3.947 --    13 C    1.666    15 C    1.158    32 H    0.972
    15   6 C    3.929 --    17 C    1.351    16 N    1.265    14 C    1.158
    16   7 N    3.377 --    15 C    1.265    12 C    1.263     1 Cu   0.534
    17   6 C    3.926 --    18 C    1.351    15 C    1.351    33 H    0.964
    18   6 C    3.929 --    17 C    1.351    22 N    1.265    19 C    1.158
    19   6 C    3.947 --    20 C    1.666    18 C    1.158    34 H    0.972
    20   6 C    3.950 --    19 C    1.666    21 C    1.158    35 H    0.972
    21   6 C    3.927 --    23 C    1.352    22 N    1.263    20 C    1.158
    22   7 N    3.377 --    18 C    1.265    21 C    1.263     1 Cu   0.534
    23   6 C    3.931 --    24 C    1.355    21 C    1.352    36 H    0.964
    24   6 C    3.921 --    23 C    1.355    25 N    1.249     2 C    1.167
    25   7 N    3.382 --     4 C    1.289    24 C    1.249     1 Cu   0.533
    26   1 H    0.998 --     2 C    0.972
    27   1 H    0.998 --     3 C    0.971
    28   1 H    0.998 --     7 C    0.971
    29   1 H    0.998 --     8 C    0.972
    30   1 H    0.996 --    11 C    0.964
    31   1 H    0.998 --    13 C    0.972
    32   1 H    0.998 --    14 C    0.972
    33   1 H    0.997 --    17 C    0.964
    34   1 H    0.998 --    19 C    0.972
    35   1 H    0.998 --    20 C    0.972
    36   1 H    0.996 --    23 C    0.964
    37  29 Cu   2.329 --    58 N    0.534    52 N    0.534    46 N    0.533
                            61 N    0.533
    38   6 C    3.946 --    39 C    1.650    60 C    1.167    62 H    0.972
    39   6 C    3.949 --    38 C    1.650    40 C    1.175    63 H    0.971
    40   6 C    3.909 --    61 N    1.288    41 C    1.250    39 C    1.175
    41   6 C    3.942 --    42 C    1.250    40 C    1.250    84 C    1.184
    42   6 C    3.909 --    46 N    1.288    41 C    1.250    43 C    1.175
    43   6 C    3.949 --    44 C    1.650    42 C    1.175    64 H    0.971
    44   6 C    3.946 --    43 C    1.650    45 C    1.167    65 H    0.972
    45   6 C    3.921 --    47 C    1.355    46 N    1.249    44 C    1.167
    46   7 N    3.382 --    42 C    1.288    45 C    1.249    37 Cu   0.533
    47   6 C    3.932 --    45 C    1.355    48 C    1.352    66 H    0.964
    48   6 C    3.927 --    47 C    1.352    52 N    1.263    49 C    1.158
    49   6 C    3.950 --    50 C    1.666    48 C    1.158    67 H    0.972
    50   6 C    3.947 --    49 C    1.666    51 C    1.158    68 H    0.972
    51   6 C    3.929 --    53 C    1.351    52 N    1.265    50 C    1.158
    52   7 N    3.377 --    51 C    1.265    48 C    1.263    37 Cu   0.534
    53   6 C    3.926 --    54 C    1.351    51 C    1.351    69 H    0.964
    54   6 C    3.929 --    53 C    1.351    58 N    1.265    55 C    1.158
    55   6 C    3.947 --    56 C    1.666    54 C    1.158    70 H    0.972
    56   6 C    3.950 --    55 C    1.666    57 C    1.158    71 H    0.972
    57   6 C    3.927 --    59 C    1.352    58 N    1.263    56 C    1.158
    58   7 N    3.377 --    54 C    1.265    57 C    1.263    37 Cu   0.534
    59   6 C    3.932 --    60 C    1.355    57 C    1.352    72 H    0.964
    60   6 C    3.921 --    59 C    1.355    61 N    1.249    38 C    1.167
    61   7 N    3.382 --    40 C    1.288    60 C    1.249    37 Cu   0.533
    62   1 H    0.998 --    38 C    0.972
    63   1 H    0.998 --    39 C    0.971
    64   1 H    0.998 --    43 C    0.971
    65   1 H    0.998 --    44 C    0.972
    66   1 H    0.996 --    47 C    0.964
    67   1 H    0.998 --    49 C    0.972
    68   1 H    0.998 --    50 C    0.972
    69   1 H    0.997 --    53 C    0.964
    70   1 H    0.998 --    55 C    0.972
    71   1 H    0.998 --    56 C    0.972
    72   1 H    0.996 --    59 C    0.964
    73   6 C    3.918 --    74 C    2.469     5 C    1.186    76 C    0.203
    74   6 C    3.927 --    73 C    2.469    75 C    1.306
    75   6 C    3.924 --    76 C    2.467    74 C    1.306
    76   6 C    3.919 --    75 C    2.467    89 C    1.188    73 C    0.203
    77   6 C    3.918 --    78 C    2.464   101 C    1.190    80 C    0.202
    78   6 C    3.924 --    77 C    2.464    79 C    1.309
    79   6 C    3.924 --    80 C    2.464    78 C    1.309
    80   6 C    3.918 --    79 C    2.464   124 C    1.190    77 C    0.202
    81   6 C    3.918 --    82 C    2.468   136 C    1.187    84 C    0.203
    82   6 C    3.924 --    81 C    2.468    83 C    1.305
    83   6 C    3.927 --    84 C    2.470    82 C    1.305
    84   6 C    3.917 --    83 C    2.470    41 C    1.184    81 C    0.203
    85  29 Cu   2.301 --   100 N    0.528   106 N    0.528   109 N    0.528
                            94 N    0.528
    86   6 C    3.947 --    87 C    1.649   108 C    1.168   110 H    0.972
    87   6 C    3.948 --    86 C    1.649    88 C    1.175   111 H    0.971
    88   6 C    3.910 --   109 N    1.292    89 C    1.247    87 C    1.175
    89   6 C    3.929 --    90 C    1.247    88 C    1.247    76 C    1.188
    90   6 C    3.910 --    94 N    1.291    89 C    1.247    91 C    1.175
    91   6 C    3.948 --    92 C    1.649    90 C    1.175   112 H    0.971
    92   6 C    3.947 --    91 C    1.649    93 C    1.168   113 H    0.972
    93   6 C    3.920 --    95 C    1.354    94 N    1.248    92 C    1.168
    94   7 N    3.372 --    90 C    1.291    93 C    1.248    85 Cu   0.528
    95   6 C    3.925 --    93 C    1.354    96 C    1.354   114 H    0.964
    96   6 C    3.920 --    95 C    1.354   100 N    1.248    97 C    1.168
    97   6 C    3.947 --    98 C    1.649    96 C    1.168   115 H    0.972
    98   6 C    3.948 --    97 C    1.649    99 C    1.176   116 H    0.971
    99   6 C    3.909 --   100 N    1.292   101 C    1.246    98 C    1.176
   100   7 N    3.372 --    99 C    1.292    96 C    1.248    85 Cu   0.528
   101   6 C    3.929 --    99 C    1.246   102 C    1.246    77 C    1.190
   102   6 C    3.909 --   106 N    1.292   101 C    1.246   103 C    1.176
   103   6 C    3.948 --   104 C    1.649   102 C    1.176   117 H    0.971
   104   6 C    3.947 --   103 C    1.649   105 C    1.168   118 H    0.972
   105   6 C    3.920 --   107 C    1.354   106 N    1.248   104 C    1.168
   106   7 N    3.372 --   102 C    1.292   105 C    1.248    85 Cu   0.528
   107   6 C    3.926 --   108 C    1.354   105 C    1.354   119 H    0.964
   108   6 C    3.920 --   107 C    1.354   109 N    1.248    86 C    1.168
   109   7 N    3.372 --    88 C    1.292   108 C    1.248    85 Cu   0.528
   110   1 H    0.998 --    86 C    0.972
   111   1 H    0.998 --    87 C    0.971
   112   1 H    0.998 --    91 C    0.971
   113   1 H    0.998 --    92 C    0.972
   114   1 H    0.996 --    95 C    0.964
   115   1 H    0.998 --    97 C    0.972
   116   1 H    0.998 --    98 C    0.971
   117   1 H    0.998 --   103 C    0.971
   118   1 H    0.998 --   104 C    0.972
   119   1 H    0.996 --   107 C    0.964
   120  29 Cu   2.301 --   144 N    0.528   129 N    0.528   141 N    0.528
                           135 N    0.528
   121   6 C    3.947 --   122 C    1.649   143 C    1.168   145 H    0.972
   122   6 C    3.948 --   121 C    1.649   123 C    1.176   146 H    0.971
   123   6 C    3.909 --   144 N    1.292   124 C    1.246   122 C    1.176
   124   6 C    3.929 --   123 C    1.246   125 C    1.246    80 C    1.190
   125   6 C    3.909 --   129 N    1.292   124 C    1.246   126 C    1.176
   126   6 C    3.948 --   127 C    1.649   125 C    1.176   147 H    0.971
   127   6 C    3.947 --   126 C    1.649   128 C    1.168   148 H    0.972
   128   6 C    3.920 --   130 C    1.354   129 N    1.248   127 C    1.168
   129   7 N    3.372 --   125 C    1.292   128 C    1.248   120 Cu   0.528
   130   6 C    3.926 --   128 C    1.354   131 C    1.354   149 H    0.964
   131   6 C    3.920 --   130 C    1.354   135 N    1.248   132 C    1.168
   132   6 C    3.947 --   133 C    1.649   131 C    1.168   150 H    0.972
   133   6 C    3.948 --   132 C    1.649   134 C    1.175   151 H    0.971
   134   6 C    3.910 --   135 N    1.291   136 C    1.247   133 C    1.175
   135   7 N    3.372 --   134 C    1.291   131 C    1.248   120 Cu   0.528
   136   6 C    3.929 --   137 C    1.247   134 C    1.247    81 C    1.187
   137   6 C    3.910 --   141 N    1.291   136 C    1.247   138 C    1.175
   138   6 C    3.948 --   139 C    1.649   137 C    1.175   152 H    0.971
   139   6 C    3.947 --   138 C    1.649   140 C    1.168   153 H    0.972
   140   6 C    3.920 --   142 C    1.354   141 N    1.248   139 C    1.168
   141   7 N    3.372 --   137 C    1.291   140 C    1.248   120 Cu   0.528
   142   6 C    3.926 --   140 C    1.354   143 C    1.354   154 H    0.964
   143   6 C    3.920 --   142 C    1.354   144 N    1.248   121 C    1.168
   144   7 N    3.372 --   123 C    1.292   143 C    1.248   120 Cu   0.528
   145   1 H    0.998 --   121 C    0.972
   146   1 H    0.998 --   122 C    0.971
   147   1 H    0.998 --   126 C    0.971
   148   1 H    0.998 --   127 C    0.972
   149   1 H    0.996 --   130 C    0.964
   150   1 H    0.998 --   132 C    0.972
   151   1 H    0.998 --   133 C    0.971
   152   1 H    0.998 --   138 C    0.971
   153   1 H    0.998 --   139 C    0.972
   154   1 H    0.996 --   142 C    0.964
 ---------------------------------------------------------------------------

Topologies differ in total number of bonds
Writing topology from bond orders to xtbtopo.mol

molecular dipole:
                 x           y           z       tot (Debye)
 q only:        0.005      -0.001      -0.001
   full:        0.005      -0.002      -0.001       0.015
molecular quadrupole (traceless):
                xx          xy          yy          xz          yz          zz
 q only:       67.708       0.205      -8.025      -0.051      -0.588     -59.683
  q+dip:      117.121       0.289       4.640      -0.151      -1.589    -121.760
   full:       85.879       0.281      -6.554      -0.133      -0.913     -79.326


           -------------------------------------------------
          | TOTAL ENERGY             -280.759800797818 Eh   |
          | GRADIENT NORM               0.000724509143 Eh/α |
          | HOMO-LUMO GAP               0.001246654857 eV   |
           -------------------------------------------------

------------------------------------------------------------------------
 * finished run on 2021/11/21 at 19:09:52.034     
------------------------------------------------------------------------
 total:
 * wall-time:     0 d,  0 h,  0 min,  2.652 sec
 *  cpu-time:     0 d,  0 h,  0 min,  2.652 sec
 * ratio c/w:     1.000 speedup
 SCF:
 * wall-time:     0 d,  0 h,  0 min,  2.576 sec
 *  cpu-time:     0 d,  0 h,  0 min,  2.576 sec
 * ratio c/w:     1.000 speedup

