      -----------------------------------------------------------      
     |                   =====================                   |     
     |                           x T B                           |     
     |                   =====================                   |     
     |                         S. Grimme                         |     
     |          Mulliken Center for Theoretical Chemistry        |     
     |                    University of Bonn                     |     
      -----------------------------------------------------------      

   * xtb version 6.4.1 (bd6e46d) compiled by 'conda@4901f00b25ba' on 2021-06-10

   xtb is free software: you can redistribute it and/or modify it under
   the terms of the GNU Lesser General Public License as published by
   the Free Software Foundation, either version 3 of the License, or
   (at your option) any later version.
   
   xtb is distributed in the hope that it will be useful,
   but WITHOUT ANY WARRANTY; without even the implied warranty of
   MERCHANTABILITY or FITNESS FOR A PARTICULAR PURPOSE.  See the
   GNU Lesser General Public License for more details.
   
   Cite this work as:
   * C. Bannwarth, E. Caldeweyher, S. Ehlert, A. Hansen, P. Pracht,
     J. Seibert, S. Spicher, S. Grimme, WIREs Comput. Mol. Sci., 2020, 11,
     e01493. DOI: 10.1002/wcms.1493
   
   for GFN2-xTB:
   * C. Bannwarth, S. Ehlert and S. Grimme., J. Chem. Theory Comput., 2019,
     15, 1652-1671. DOI: 10.1021/acs.jctc.8b01176
   for GFN1-xTB:
   * S. Grimme, C. Bannwarth, P. Shushkov, J. Chem. Theory Comput., 2017,
     13, 1989-2009. DOI: 10.1021/acs.jctc.7b00118
   for GFN0-xTB:
   * P. Pracht, E. Caldeweyher, S. Ehlert, S. Grimme, ChemRxiv, 2019, preprint.
     DOI: 10.26434/chemrxiv.8326202.v1
   for GFN-FF:
   * S. Spicher and S. Grimme, Angew. Chem. Int. Ed., 2020, 59, 15665-15673.
     DOI: 10.1002/anie.202004239
   
   for DFT-D4:
   * E. Caldeweyher, C. Bannwarth and S. Grimme, J. Chem. Phys., 2017,
     147, 034112. DOI: 10.1063/1.4993215
   * E. Caldeweyher, S. Ehlert, A. Hansen, H. Neugebauer, S. Spicher,
     C. Bannwarth and S. Grimme, J. Chem. Phys., 2019, 150, 154122.
     DOI: 10.1063/1.5090222
   * E. Caldeweyher, J.-M. Mewes, S. Ehlert and S. Grimme, Phys. Chem. Chem. Phys.
     2020, 22, 8499-8512. DOI: 10.1039/D0CP00502A
   
   for sTDA-xTB:
   * S. Grimme and C. Bannwarth, J. Chem. Phys., 2016, 145, 054103.
     DOI: 10.1063/1.4959605
   
   in the mass-spec context:
   * V. Asgeirsson, C. Bauer and S. Grimme, Chem. Sci., 2017, 8, 4879.
     DOI: 10.1039/c7sc00601b
   * J. Koopman and S. Grimme, ACS Omega 2019, 4, 12, 15120-15133.
     DOI: 10.1021/acsomega.9b02011
   
   for metadynamics refer to:
   * S. Grimme, J. Chem. Theory Comput., 2019, 155, 2847-2862
     DOI: 10.1021/acs.jctc.9b00143
   
   for SPH calculations refer to:
   * S. Spicher and S. Grimme, J. Chem. Theory Comput., 2021, 17, 1701-1714
     DOI: 10.1021/acs.jctc.0c01306
   
   with help from (in alphabetical order)
   P. Atkinson, C. Bannwarth, F. Bohle, G. Brandenburg, E. Caldeweyher
   M. Checinski, S. Dohm, S. Ehlert, S. Ehrlich, I. Gerasimov, J. Koopman
   C. Lavigne, S. Lehtola, F. März, M. Müller, F. Musil, H. Neugebauer
   J. Pisarek, C. Plett, P. Pracht, J. Seibert, P. Shushkov, S. Spicher
   M. Stahn, M. Steiner, T. Strunk, J. Stückrath, T. Rose, and J. Unsleber
   
 * started run on 2021/11/20 at 01:21:59.946     

           -------------------------------------------------
          |                Calculation Setup                |
           -------------------------------------------------

          program call               : /home/jeff/miniconda3/bin/xtb input_structure_1.xyz --gfn 2 --ohess normal --parallel 1 --etemp 300 --chrg 0 --uhf 0 -I det_control.in
          hostname                   : jelfscompute1
          coordinate file            : input_structure_1.xyz
          omp threads                :                     1
          number of atoms            :                   232
          number of electrons        :                   802
          charge                     :                     0
          spin                       :                   0.0
          first test random number   :      0.28601475375457

   ID    Z sym.   atoms
    1   28 Ni     1, 37, 93, 128, 163, 198
    2    6 C      2-9, 11-15, 17-21, 23, 24, 38-45, 47-51, 53-57, 59, 60,
                  73-92, 94-101, 103-107, 109-113, 115, 116, 129-136,
                  138-142, 144-148, 150, 151, 164-171, 173-177, 179-183, 185,
                  186, 199-206, 208-212, 214-218, 220, 221
    3    7 N      10, 16, 22, 25, 46, 52, 58, 61, 102, 108, 114, 117, 137,
                  143, 149, 152, 172, 178, 184, 187, 207, 213, 219, 222
    4    1 H      26-36, 62-72, 118-127, 153-162, 188-197, 223-232

molecular fragmentation (1/2 indicates fragments):
111111111111111111111111111111111111222222222222222222222222222222222222
222222222222222222222222222222222222222222222222222222222222222222222222
222222222222222222222222222222222222222222222222222222222222222222222222
2222222222222222
# atoms in fragment 1/2:    36   196
 fragment masses (1/2) :      366.02     2066.29
CMA distance (Bohr)    :  77.814
constraining FC (au)   :  0.0500

           -------------------------------------------------
          |                 G F N 2 - x T B                 |
           -------------------------------------------------

        Reference                      10.1021/acs.jctc.8b01176
      * Hamiltonian:
        H0-scaling (s, p, d)           1.850000    2.230000    2.230000
        zeta-weighting                 0.500000
      * Dispersion:
        s8                             2.700000
        a1                             0.520000
        a2                             5.000000
        s9                             5.000000
      * Repulsion:
        kExp                           1.500000    1.000000
        rExp                           1.000000
      * Coulomb:
        alpha                          2.000000
        third order                    shell-resolved
        anisotropic                    true
        a3                             3.000000
        a5                             4.000000
        cn-shift                       1.200000
        cn-exp                         4.000000
        max-rad                        5.000000


          ...................................................
          :                      SETUP                      :
          :.................................................:
          :  # basis functions                 778          :
          :  # atomic orbitals                 772          :
          :  # shells                          408          :
          :  # electrons                       802          :
          :  max. iterations                   250          :
          :  Hamiltonian                  GFN2-xTB          :
          :  restarted?                      false          :
          :  GBSA solvation                  false          :
          :  PC potential                    false          :
          :  electronic temp.          300.0000000     K    :
          :  accuracy                    1.0000000          :
          :  -> integral cutoff          0.2500000E+02      :
          :  -> integral neglect         0.1000000E-07      :
          :  -> SCF convergence          0.1000000E-05 Eh   :
          :  -> wf. convergence          0.1000000E-03 e    :
          :  Broyden damping             0.4000000          :
          ...................................................

 iter      E             dE          RMSdq      gap      omega  full diag
   1   -435.2560272 -0.435256E+03  0.901E+00    0.74       0.0  T
   2   -426.2440061  0.901202E+01  0.668E+00    0.04       1.0  T
   3   -210.6403316  0.215604E+03  0.123E+01    0.09       1.0  T
   4     22.6477831  0.233288E+03  0.171E+01    0.01       1.0  T
   5   -311.6193659 -0.334267E+03  0.907E+00    0.12       1.0  T
   6   -290.0697095  0.215497E+02  0.869E+00    0.15       1.0  T
   7   -268.0195696  0.220501E+02  0.102E+01    0.11       1.0  T
   8   -405.3956772 -0.137376E+03  0.727E+00    0.09       1.0  T
   9   -430.1488534 -0.247532E+02  0.442E+00    0.14       1.0  T
  10   -427.2844178  0.286444E+01  0.358E+00    0.03       1.0  T
  11   -415.4795029  0.118049E+02  0.574E+00    0.03       1.0  T
  12   -422.4748296 -0.699533E+01  0.479E+00    0.04       1.0  T
  13   -422.7248914 -0.250062E+00  0.481E+00    0.04       1.0  T
  14   -424.9040426 -0.217915E+01  0.476E+00    0.06       1.0  T
  15   -426.4773185 -0.157328E+01  0.471E+00    0.05       1.0  T
  16   -421.9634220  0.451390E+01  0.521E+00    0.06       1.0  T
  17   -419.8604589  0.210296E+01  0.539E+00    0.04       1.0  T
  18   -424.1221207 -0.426166E+01  0.491E+00    0.01       1.0  T
  19   -424.1164390  0.568169E-02  0.491E+00    0.01       1.0  T
  20   -424.2092515 -0.928125E-01  0.490E+00    0.01       1.0  T
  21   -419.5384052  0.467085E+01  0.555E+00    0.07       1.0  T
  22   -412.8137582  0.672465E+01  0.574E+00    0.06       1.0  T
  23   -428.2619309 -0.154482E+02  0.373E+00    0.05       1.0  T
  24   -433.8258463 -0.556392E+01  0.268E+00    0.05       1.0  T
  25   -432.4046766  0.142117E+01  0.347E+00    0.02       1.0  T
  26   -432.6564804 -0.251804E+00  0.332E+00    0.06       1.0  T
  27   -430.6962570  0.196022E+01  0.414E+00    0.01       1.0  T
  28   -435.0885817 -0.439232E+01  0.235E+00    0.05       1.0  T
  29   -433.1994924  0.188909E+01  0.337E+00    0.01       1.0  T
  30   -433.4187855 -0.219293E+00  0.324E+00    0.01       1.0  T
  31   -433.1354812  0.283304E+00  0.338E+00    0.02       1.0  T
  32   -432.9016016  0.233880E+00  0.350E+00    0.01       1.0  T
  33   -431.9344829  0.967119E+00  0.378E+00    0.01       1.0  T
  34   -431.5965195  0.337963E+00  0.402E+00    0.07       1.0  T
  35   -434.1385424 -0.254202E+01  0.278E+00    0.00       1.0  T
  36   -435.3447132 -0.120617E+01  0.200E+00    0.03       1.0  T
  37   -435.5768601 -0.232147E+00  0.183E+00    0.08       1.0  T
  38   -435.5650421  0.118180E-01  0.170E+00    0.05       1.0  T
  39   -435.5626788  0.236331E-02  0.165E+00    0.05       1.0  T
  40   -435.2487874  0.313891E+00  0.192E+00    0.05       1.0  T
  41   -435.1713286  0.774587E-01  0.196E+00    0.04       1.0  T
  42   -435.1915016 -0.201729E-01  0.194E+00    0.05       1.0  T
  43   -435.2759123 -0.844107E-01  0.177E+00    0.04       1.0  T
  44   -435.2206140  0.552983E-01  0.176E+00    0.04       1.0  T
  45   -434.3511608  0.869453E+00  0.254E+00    0.03       1.0  T
  46   -434.2033307  0.147830E+00  0.299E+00    0.00       1.0  T
  47   -435.1349511 -0.931620E+00  0.195E+00    0.01       1.0  T
  48   -434.2684227  0.866528E+00  0.265E+00    0.02       1.0  T
  49   -434.6890853 -0.420663E+00  0.233E+00    0.01       1.0  T
  50   -433.4036748  0.128541E+01  0.316E+00    0.01       1.0  T
  51   -433.5271198 -0.123445E+00  0.313E+00    0.02       1.0  T
  52   -434.6311430 -0.110402E+01  0.228E+00    0.03       1.0  T
  53   -435.7756154 -0.114447E+01  0.142E+00    0.03       1.0  T
  54   -435.7540925  0.215230E-01  0.142E+00    0.04       1.0  T
  55   -435.6529181  0.101174E+00  0.148E+00    0.05       1.0  T
  56   -434.8113444  0.841574E+00  0.215E+00    0.03       1.0  T
  57   -434.5939508  0.217394E+00  0.227E+00    0.04       1.0  T
  58   -434.5935184  0.432401E-03  0.227E+00    0.04       1.0  T
  59   -434.7127931 -0.119275E+00  0.213E+00    0.04       1.0  T
  60   -434.4690626  0.243730E+00  0.245E+00    0.03       1.0  T
  61   -435.0566013 -0.587539E+00  0.218E+00    0.01       1.0  T
  62   -435.2595243 -0.202923E+00  0.224E+00    0.01       1.0  T
  63   -435.1401654  0.119359E+00  0.235E+00    0.01       1.0  T
  64   -435.2379263 -0.977609E-01  0.233E+00    0.02       1.0  T
  65   -435.3397849 -0.101859E+00  0.216E+00    0.00       1.0  T
  66   -435.2797027  0.600822E-01  0.223E+00    0.00       1.0  T
  67   -435.0215835  0.258119E+00  0.243E+00    0.01       1.0  T
  68   -435.0757343 -0.541508E-01  0.237E+00    0.03       1.0  T
  69   -435.2295332 -0.153799E+00  0.226E+00    0.02       1.0  T
  70   -435.1788874  0.506459E-01  0.230E+00    0.02       1.0  T
  71   -435.1340481  0.448393E-01  0.233E+00    0.03       1.0  T
  72   -435.3402716 -0.206223E+00  0.217E+00    0.02       1.0  T
  73   -435.8805550 -0.540283E+00  0.167E+00    0.00       1.0  T
  74   -435.5125822  0.367973E+00  0.198E+00    0.01       1.0  T
  75   -435.4431612  0.694210E-01  0.204E+00    0.05       1.0  T
  76   -435.4410062  0.215503E-02  0.204E+00    0.05       1.0  T
  77   -435.6014037 -0.160398E+00  0.191E+00    0.06       1.0  T
  78   -435.2839641  0.317440E+00  0.218E+00    0.02       1.0  T
  79   -435.2472974  0.366667E-01  0.220E+00    0.02       1.0  T
  80   -435.3267668 -0.794695E-01  0.213E+00    0.02       1.0  T
  81   -435.2519573  0.748096E-01  0.219E+00    0.02       1.0  T
  82   -435.3156394 -0.636821E-01  0.214E+00    0.01       1.0  T
  83   -435.1646620  0.150977E+00  0.225E+00    0.00       1.0  T
  84   -435.1644878  0.174178E-03  0.225E+00    0.00       1.0  T
  85   -435.3605486 -0.196061E+00  0.212E+00    0.00       1.0  T
  86   -435.2692742  0.912744E-01  0.220E+00    0.01       1.0  T
  87   -435.2814451 -0.121710E-01  0.219E+00    0.00       1.0  T
  88   -435.2272834  0.541618E-01  0.223E+00    0.00       1.0  T
  89   -435.2198524  0.743096E-02  0.224E+00    0.00       1.0  T
  90   -435.0423305  0.177522E+00  0.235E+00    0.01       1.0  T
  91   -434.7729369  0.269394E+00  0.256E+00    0.01       1.0  T
  92   -434.9835778 -0.210641E+00  0.243E+00    0.00       1.0  T
  93   -434.8381751  0.145403E+00  0.257E+00    0.01       1.0  T
  94   -434.8864829 -0.483079E-01  0.256E+00    0.01       1.0  T
  95   -434.8005583  0.859247E-01  0.262E+00    0.01       1.0  T
  96   -434.7280004  0.725579E-01  0.267E+00    0.01       1.0  T
  97   -434.7728663 -0.448659E-01  0.265E+00    0.01       1.0  T
  98   -434.1387664  0.634100E+00  0.312E+00    0.01       1.0  T
  99   -433.9911766  0.147590E+00  0.320E+00    0.00       1.0  T
 100   -434.1604110 -0.169234E+00  0.308E+00    0.01       1.0  T
 101   -434.0722765  0.881345E-01  0.313E+00    0.00       1.0  T
 102   -434.0180083  0.542681E-01  0.315E+00    0.00       1.0  T
 103   -434.0453301 -0.273217E-01  0.314E+00    0.01       1.0  T
 104   -434.2742431 -0.228913E+00  0.303E+00    0.00       1.0  T
 105   -434.3747305 -0.100487E+00  0.302E+00    0.00       1.0  T
 106   -434.2315554  0.143175E+00  0.308E+00    0.00       1.0  T
 107   -434.3262211 -0.946657E-01  0.298E+00    0.00       1.0  T
 108   -434.4783049 -0.152084E+00  0.290E+00    0.00       1.0  T
 109   -434.4159325  0.623724E-01  0.293E+00    0.01       1.0  T
 110   -434.6351683 -0.219236E+00  0.279E+00    0.01       1.0  T
 111   -435.0871639 -0.451996E+00  0.253E+00    0.01       1.0  T
 112   -435.4632378 -0.376074E+00  0.213E+00    0.01       1.0  T
 113   -435.5096999 -0.464621E-01  0.221E+00    0.02       1.0  T
 114   -435.7226634 -0.212964E+00  0.204E+00    0.01       1.0  T
 115   -435.7981711 -0.755076E-01  0.191E+00    0.00       1.0  T
 116   -435.8031585 -0.498745E-02  0.192E+00    0.00       1.0  T
 117   -435.9735918 -0.170433E+00  0.173E+00    0.01       1.0  T
 118   -436.0193843 -0.457926E-01  0.172E+00    0.00       1.0  T
 119   -436.0191209  0.263432E-03  0.169E+00    0.01       1.0  T
 120   -436.2243269 -0.205206E+00  0.146E+00    0.01       1.0  T
 121   -436.1062237  0.118103E+00  0.144E+00    0.01       1.0  T
 122   -436.2403142 -0.134091E+00  0.131E+00    0.02       1.0  T
 123   -436.2286972  0.116170E-01  0.129E+00    0.01       1.0  T
 124   -436.4219902 -0.193293E+00  0.121E+00    0.06       1.0  T
 125   -436.4432041 -0.212139E-01  0.120E+00    0.08       1.0  T
 126   -436.4609505 -0.177464E-01  0.118E+00    0.09       1.0  T
 127   -436.4618024 -0.851830E-03  0.117E+00    0.09       1.0  T
 128   -436.4746928 -0.128904E-01  0.113E+00    0.11       1.0  T
 129   -436.4847889 -0.100961E-01  0.108E+00    0.13       1.0  T
 130   -436.4910583 -0.626944E-02  0.104E+00    0.13       1.0  T
 131   -436.5085554 -0.174971E-01  0.962E-01    0.15       1.0  T
 132   -436.5330842 -0.245288E-01  0.819E-01    0.13       1.0  T
 133   -436.5472354 -0.141512E-01  0.721E-01    0.12       1.0  T
 134   -436.5586685 -0.114331E-01  0.639E-01    0.11       1.0  T
 135   -436.5674316 -0.876311E-02  0.549E-01    0.09       1.0  T
 136   -436.5715862 -0.415462E-02  0.520E-01    0.09       1.0  T
 137   -436.5812518 -0.966560E-02  0.462E-01    0.10       1.0  T
 138   -436.5890490 -0.779717E-02  0.428E-01    0.10       1.0  T
 139   -436.5968952 -0.784618E-02  0.387E-01    0.11       1.0  T
 140   -436.6005699 -0.367472E-02  0.359E-01    0.10       1.0  T
 141   -436.6019204 -0.135054E-02  0.351E-01    0.11       1.0  T
 142   -436.6045551 -0.263469E-02  0.316E-01    0.10       1.0  T
 143   -436.6077025 -0.314737E-02  0.295E-01    0.10       1.0  T
 144   -436.6070200  0.682514E-03  0.288E-01    0.09       1.0  T
 145   -436.6081618 -0.114180E-02  0.281E-01    0.09       1.0  T
 146   -436.6082407 -0.789601E-04  0.280E-01    0.09       1.0  T
 147   -436.6095674 -0.132670E-02  0.261E-01    0.09       1.0  T
 148   -436.6084825  0.108497E-02  0.259E-01    0.09       1.0  T
 149   -436.6093505 -0.868063E-03  0.253E-01    0.09       1.0  T
 150   -436.6132804 -0.392991E-02  0.225E-01    0.10       1.0  T
 151   -436.6150127 -0.173225E-02  0.201E-01    0.10       1.0  T
 152   -436.6192544 -0.424174E-02  0.175E-01    0.11       1.0  T
 153   -436.6199400 -0.685601E-03  0.169E-01    0.11       1.0  T
 154   -436.6203699 -0.429857E-03  0.169E-01    0.11       1.0  T
 155   -436.6201028  0.267091E-03  0.171E-01    0.11       1.0  T
 156   -436.6198413  0.261520E-03  0.172E-01    0.11       1.0  T
 157   -436.6204402 -0.598929E-03  0.175E-01    0.12       1.0  T
 158   -436.6209812 -0.541031E-03  0.168E-01    0.12       1.0  T
 159   -436.6200615  0.919741E-03  0.186E-01    0.12       1.0  T
 160   -436.6199273  0.134170E-03  0.187E-01    0.13       1.0  T
 161   -436.6193520  0.575344E-03  0.198E-01    0.13       1.0  T
 162   -436.6193013  0.506646E-04  0.205E-01    0.13       1.0  T
 163   -436.6192801  0.212383E-04  0.205E-01    0.13       1.0  T
 164   -436.6190354  0.244628E-03  0.210E-01    0.13       1.0  T
 165   -436.6190386 -0.311876E-05  0.210E-01    0.13       1.0  T
 166   -436.6192539 -0.215311E-03  0.205E-01    0.13       1.0  T
 167   -436.6197623 -0.508381E-03  0.195E-01    0.12       1.0  T
 168   -436.6202381 -0.475875E-03  0.193E-01    0.12       1.0  T
 169   -436.6203808 -0.142701E-03  0.192E-01    0.12       1.0  T
 170   -436.6203806  0.216789E-06  0.197E-01    0.12       1.0  T
 171   -436.6202591  0.121560E-03  0.199E-01    0.12       1.0  T
 172   -436.6204162 -0.157132E-03  0.204E-01    0.12       1.0  T
 173   -436.6208392 -0.423006E-03  0.199E-01    0.12       1.0  T
 174   -436.6215118 -0.672633E-03  0.191E-01    0.13       1.0  T
 175   -436.6232207 -0.170886E-02  0.169E-01    0.13       1.0  T
 176   -436.6260247 -0.280401E-02  0.120E-01    0.13       1.0  T
 177   -436.6268318 -0.807084E-03  0.104E-01    0.13       1.0  T
 178   -436.6273571 -0.525359E-03  0.912E-02    0.13       1.0  T
 179   -436.6285780 -0.122083E-02  0.663E-02    0.13       1.0  T
 180   -436.6279046  0.673373E-03  0.767E-02    0.13       1.0  T
 181   -436.6284394 -0.534811E-03  0.637E-02    0.13       1.0  T
 182   -436.6284017  0.377385E-04  0.580E-02    0.13       1.0  T
 183   -436.6284634 -0.617071E-04  0.512E-02    0.13       1.0  T
 184   -436.6285261 -0.627434E-04  0.494E-02    0.13       1.0  T
 185   -436.6284261  0.100013E-03  0.524E-02    0.13       1.0  T
 186   -436.6285113 -0.851899E-04  0.508E-02    0.13       1.0  T
 187   -436.6286520 -0.140711E-03  0.465E-02    0.13       1.0  T
 188   -436.6286579 -0.586694E-05  0.460E-02    0.13       1.0  T
 189   -436.6286729 -0.150487E-04  0.452E-02    0.13       1.0  T
 190   -436.6286557  0.172173E-04  0.456E-02    0.13       1.0  T
 191   -436.6287323 -0.766203E-04  0.431E-02    0.13       1.0  T
 192   -436.6287358 -0.346300E-05  0.425E-02    0.13       1.0  T
 193   -436.6288632 -0.127363E-03  0.379E-02    0.13       1.0  T
 194   -436.6288695 -0.633100E-05  0.364E-02    0.13       1.0  T
 195   -436.6289397 -0.702162E-04  0.328E-02    0.13       1.0  T
 196   -436.6289782 -0.385189E-04  0.300E-02    0.13       1.0  T
 197   -436.6290400 -0.617377E-04  0.266E-02    0.13       1.0  T
 198   -436.6290545 -0.145598E-04  0.257E-02    0.13       1.0  T
 199   -436.6290694 -0.148467E-04  0.248E-02    0.13       1.0  T
 200   -436.6291100 -0.406506E-04  0.228E-02    0.13       1.0  T
 201   -436.6291188 -0.881266E-05  0.222E-02    0.13       1.0  T
 202   -436.6291530 -0.341755E-04  0.202E-02    0.13       1.0  T
 203   -436.6291651 -0.120844E-04  0.191E-02    0.13       1.0  T
 204   -436.6291927 -0.275723E-04  0.167E-02    0.13       1.0  T
 205   -436.6292138 -0.210910E-04  0.146E-02    0.13       1.0  T
 206   -436.6292240 -0.102876E-04  0.130E-02    0.13       1.0  T
 207   -436.6292374 -0.133199E-04  0.111E-02    0.13       1.0  T
 208   -436.6292411 -0.373556E-05  0.994E-03    0.13       1.0  T
 209   -436.6292458 -0.469205E-05  0.887E-03    0.13       1.0  T
 210   -436.6292489 -0.310554E-05  0.781E-03    0.13       1.0  T
 211   -436.6292529 -0.403523E-05  0.672E-03    0.13       1.0  T
 212   -436.6292566 -0.368051E-05  0.558E-03    0.13       1.2  T
 213   -436.6292613 -0.469107E-05  0.379E-03    0.13       1.7  T
 214   -436.6292635 -0.220427E-05  0.240E-03    0.13       2.7  T
 215   -436.6292642 -0.702486E-06  0.143E-03    0.13       4.6  T
 216   -436.6292645 -0.323973E-06  0.995E-04    0.13       6.6  T
 217   -436.6292646 -0.454578E-07  0.800E-04    0.13       8.2  T

   *** convergence criteria satisfied after 217 iterations ***

         #    Occupation            Energy/Eh            Energy/eV
      -------------------------------------------------------------
         1        2.0000           -0.6902269             -18.7820
       ...           ...                  ...                  ...
       395        1.9982           -0.3518265              -9.5737
       396        1.9967           -0.3512237              -9.5573
       397        1.9950           -0.3508282              -9.5465
       398        1.9809           -0.3495544              -9.5119
       399        1.9763           -0.3493474              -9.5062
       400        1.9024           -0.3479643              -9.4686
       401        1.8437           -0.3474872              -9.4556 (HOMO)
       402        0.1566           -0.3428006              -9.3281 (LUMO)
       403        0.1539           -0.3427827              -9.3276
       404        0.0000           -0.3322289              -9.0404
       405        0.0000           -0.3321591              -9.0385
       406        0.0000           -0.3294318              -8.9643
       ...           ...                  ...                  ...
       772                          1.6113531              43.8471
      -------------------------------------------------------------
                  HL-Gap            0.0046867 Eh            0.1275 eV
             Fermi-level           -0.3451431 Eh           -9.3918 eV

 SCC (total)                   0 d,  0 h,  0 min, 36.911 sec
 SCC setup                      ...        0 min,  0.012 sec (  0.033%)
 Dispersion                     ...        0 min,  0.023 sec (  0.063%)
 classical contributions        ...        0 min,  0.002 sec (  0.005%)
 integral evaluation            ...        0 min,  0.163 sec (  0.442%)
 iterations                     ...        0 min, 36.294 sec ( 98.329%)
 molecular gradient             ...        0 min,  0.395 sec (  1.070%)
 printout                       ...        0 min,  0.021 sec (  0.057%)

         :::::::::::::::::::::::::::::::::::::::::::::::::::::
         ::                     SUMMARY                     ::
         :::::::::::::::::::::::::::::::::::::::::::::::::::::
         :: total energy            -428.843430317418 Eh    ::
         :: gradient norm              0.928193508071 Eh/a0 ::
         :: HOMO-LUMO gap              0.127531171613 eV    ::
         ::.................................................::
         :: SCC energy              -436.629264577084 Eh    ::
         :: -> isotropic ES            0.209919492151 Eh    ::
         :: -> anisotropic ES          0.027933836650 Eh    ::
         :: -> anisotropic XC          0.218393703920 Eh    ::
         :: -> dispersion             -0.368896067015 Eh    ::
         :: repulsion energy           7.786145495976 Eh    ::
         :: add. restraining           0.000000000000 Eh    ::
         :: total charge               0.000000000028 e     ::
         :::::::::::::::::::::::::::::::::::::::::::::::::::::

      ----------------------------------------------------------- 
     |                   =====================                   |
     |                        A N C O P T                        |
     |                   =====================                   |
     |               Approximate Normal Coordinate               |
     |                Rational Function Optimizer                |
      ----------------------------------------------------------- 

          ...................................................
          :                      SETUP                      :
          :.................................................:
          :   optimization level            normal          :
          :   max. optcycles                   696          :
          :   ANC micro-cycles                  20          :
          :   degrees of freedom               690          :
          :.................................................:
          :   RF solver                   davidson          :
          :   write xtbopt.log                true          :
          :   linear?                        false          :
          :   energy convergence         0.5000000E-05 Eh   :
          :   grad. convergence          0.1000000E-02 Eh/α :
          :   maximium RF displ.         1.0000000          :
          :   Hlow (freq-cutoff)         0.1000000E-01      :
          :   Hmax (freq-cutoff)         5.0000000          :
          :   S6 in model hess.         20.0000000          :
          ...................................................

generating ANC from model Hessian ...
Using Lindh-Hessian (1995)
 Shifting diagonal of input Hessian by    1.0124436971473865E-002
 Lowest  eigenvalues of input Hessian
    0.010000    0.010039    0.010094    0.010097    0.010097    0.010097
    0.010098    0.010104    0.010108    0.010110    0.010111    0.010114
    0.010116    0.010117    0.010120    0.010120    0.010123    0.000000
 Highest eigenvalues
    2.576440    2.785520    2.844620    2.909723    2.909723    2.909725


........................................................................
.............................. CYCLE    1 ..............................
........................................................................
   1   -436.6292646 -0.436629E+03  0.784E-04    0.13       0.0  T
   2   -436.6292505  0.140884E-04  0.416E-03    0.13       1.6  T
   3   -436.6292594 -0.889540E-05  0.280E-03    0.13       2.3  T
   4   -436.6292636 -0.416239E-05  0.224E-03    0.13       2.9  T
   5   -436.6292628  0.801266E-06  0.300E-03    0.13       2.2  T
   6   -436.6292619  0.854551E-06  0.370E-03    0.13       1.8  T
   7   -436.6292630 -0.108017E-05  0.293E-03    0.13       2.2  T
   8   -436.6292616  0.143767E-05  0.246E-03    0.13       2.7  T
   9   -436.6292645 -0.298101E-05  0.901E-04    0.13       7.3  T
  10   -436.6292647 -0.164407E-06  0.369E-04    0.13      17.8  T
  11   -436.6292647 -0.227727E-07  0.172E-04    0.13      38.1  T
     SCC iter.                  ...        0 min,  1.802 sec
     gradient                   ...        0 min,  0.394 sec
 * total energy  :  -428.8434305 Eh     change       -0.1466576E-06 Eh
   gradient norm :     0.9281973 Eh/α   predicted     0.0000000E+00 (-100.00%)
   displ. norm   :     0.6035706 α      lambda       -0.4693320E+00
   maximum displ.:     0.1464803 α      in ANC's #238, #673, #235, ...

........................................................................
.............................. CYCLE    2 ..............................
........................................................................
   1   -436.6114051 -0.436611E+03  0.360E-01    0.11       0.0  T
   2   -436.4879679  0.123437E+00  0.600E-01    0.33       1.0  T
   3   -436.4142627  0.737052E-01  0.783E-01    0.03       1.0  T
   4   -436.4084892  0.577350E-02  0.821E-01    0.02       1.0  T
   5   -436.5756121 -0.167123E+00  0.432E-01    0.19       1.0  T
   6   -436.5099581  0.656540E-01  0.629E-01    0.03       1.0  T
   7   -436.5682971 -0.583390E-01  0.417E-01    0.15       1.0  T
   8   -436.6090306 -0.407335E-01  0.272E-01    0.17       1.0  T
   9   -436.6187731 -0.974252E-02  0.235E-01    0.20       1.0  T
  10   -436.6235128 -0.473971E-02  0.199E-01    0.19       1.0  T
  11   -436.6241575 -0.644673E-03  0.185E-01    0.18       1.0  T
  12   -436.6261824 -0.202490E-02  0.162E-01    0.17       1.0  T
  13   -436.6260743  0.108077E-03  0.128E-01    0.11       1.0  T
  14   -436.6284571 -0.238277E-02  0.118E-01    0.13       1.0  T
  15   -436.6293665 -0.909426E-03  0.115E-01    0.12       1.0  T
  16   -436.6287514  0.615082E-03  0.113E-01    0.11       1.0  T
  17   -436.6285484  0.203050E-03  0.107E-01    0.11       1.0  T
  18   -436.6323053 -0.375692E-02  0.376E-02    0.13       1.0  T
  19   -436.6323216 -0.162487E-04  0.333E-02    0.12       1.0  T
  20   -436.6324890 -0.167457E-03  0.217E-02    0.12       1.0  T
  21   -436.6325373 -0.482386E-04  0.145E-02    0.13       1.0  T
  22   -436.6325730 -0.357626E-04  0.121E-02    0.13       1.0  T
  23   -436.6325849 -0.119274E-04  0.974E-03    0.13       1.0  T
  24   -436.6325954 -0.104287E-04  0.609E-03    0.13       1.1  T
  25   -436.6326028 -0.745374E-05  0.353E-03    0.13       1.9  T
  26   -436.6326072 -0.440090E-05  0.767E-04    0.13       8.6  T
  27   -436.6326074 -0.156028E-06  0.368E-04    0.13      17.8  T
  28   -436.6326074 -0.318556E-08  0.377E-04    0.13      17.4  T
     SCC iter.                  ...        0 min,  4.617 sec
     gradient                   ...        0 min,  0.394 sec
 * total energy  :  -429.2201911 Eh     change       -0.3767607E+00 Eh
   gradient norm :     0.5363468 Eh/α   predicted    -0.3202029E+00 ( -15.01%)
   displ. norm   :     0.6896471 α      lambda       -0.3094308E+00
   maximum displ.:     0.1974575 α      in ANC's #238, #235, #237, ...

........................................................................
.............................. CYCLE    3 ..............................
........................................................................
   1   -436.6667826 -0.436667E+03  0.392E-01    0.11       0.0  T
   2   -436.3664677  0.300315E+00  0.867E-01    0.37       1.0  T
   3   -436.5155297 -0.149062E+00  0.712E-01    0.18       1.0  T
   4   -435.2542435  0.126129E+01  0.234E+00    0.04       1.0  T
   5   -436.6713283 -0.141708E+01  0.302E-01    0.17       1.0  T
   6   -436.6458858  0.254426E-01  0.374E-01    0.23       1.0  T
   7   -436.6492441 -0.335835E-02  0.351E-01    0.17       1.0  T
   8   -436.6811392 -0.318951E-01  0.225E-01    0.14       1.0  T
   9   -436.6811095  0.297532E-04  0.204E-01    0.17       1.0  T
  10   -436.6816599 -0.550388E-03  0.209E-01    0.22       1.0  T
  11   -436.6847853 -0.312540E-02  0.178E-01    0.15       1.0  T
  12   -436.6835614  0.122383E-02  0.191E-01    0.19       1.0  T
  13   -436.6849251 -0.136366E-02  0.176E-01    0.17       1.0  T
  14   -436.6855880 -0.662963E-03  0.170E-01    0.16       1.0  T
  15   -436.6861958 -0.607741E-03  0.162E-01    0.17       1.0  T
  16   -436.6877253 -0.152946E-02  0.145E-01    0.16       1.0  T
  17   -436.6879797 -0.254445E-03  0.138E-01    0.16       1.0  T
  18   -436.6888478 -0.868081E-03  0.125E-01    0.16       1.0  T
  19   -436.6896599 -0.812074E-03  0.111E-01    0.16       1.0  T
  20   -436.6903011 -0.641288E-03  0.962E-02    0.16       1.0  T
  21   -436.6909061 -0.604947E-03  0.825E-02    0.15       1.0  T
  22   -436.6916784 -0.772267E-03  0.583E-02    0.15       1.0  T
  23   -436.6924413 -0.762926E-03  0.177E-02    0.14       1.0  T
  24   -436.6923316  0.109723E-03  0.288E-02    0.14       1.0  T
  25   -436.6925113 -0.179752E-03  0.773E-03    0.13       1.0  T
  26   -436.6925051  0.622428E-05  0.915E-03    0.14       1.0  T
  27   -436.6925161 -0.109763E-04  0.662E-03    0.13       1.0  T
  28   -436.6925251 -0.901646E-05  0.622E-04    0.13      10.6  T
  29   -436.6925249  0.159968E-06  0.109E-03    0.13       6.0  T
  30   -436.6925251 -0.202824E-06  0.691E-04    0.13       9.5  T
  31   -436.6925252 -0.309882E-07  0.652E-04    0.13      10.1  T
     SCC iter.                  ...        0 min,  5.111 sec
     gradient                   ...        0 min,  0.394 sec
 * total energy  :  -429.4558954 Eh     change       -0.2357042E+00 Eh
   gradient norm :     0.2481836 Eh/α   predicted    -0.2283001E+00 (  -3.14%)
   displ. norm   :     0.7681387 α      lambda       -0.1652226E+00
   maximum displ.:     0.2465268 α      in ANC's #238, #230, #235, ...

........................................................................
.............................. CYCLE    4 ..............................
........................................................................
   1   -436.7886644 -0.436789E+03  0.359E-01    0.10       0.0  T
   2   -436.3846177  0.404047E+00  0.970E-01    0.43       1.0  T
   3   -436.6540076 -0.269390E+00  0.685E-01    0.33       1.0  T
   4   -436.3451072  0.308900E+00  0.131E+00    0.00       1.0  T
   5   -436.7867967 -0.441690E+00  0.318E-01    0.21       1.0  T
   6   -436.7608865  0.259102E-01  0.370E-01    0.24       1.0  T
   7   -436.7746520 -0.137655E-01  0.333E-01    0.27       1.0  T
   8   -436.7982796 -0.236276E-01  0.233E-01    0.17       1.0  T
   9   -436.7974455  0.834100E-03  0.226E-01    0.23       1.0  T
  10   -436.7969947  0.450852E-03  0.223E-01    0.25       1.0  T
  11   -436.7993291 -0.233439E-02  0.211E-01    0.22       1.0  T
  12   -436.8006143 -0.128522E-02  0.196E-01    0.20       1.0  T
  13   -436.8011889 -0.574567E-03  0.190E-01    0.21       1.0  T
  14   -436.8024398 -0.125095E-02  0.175E-01    0.21       1.0  T
  15   -436.8035414 -0.110158E-02  0.160E-01    0.20       1.0  T
  16   -436.8049822 -0.144085E-02  0.138E-01    0.19       1.0  T
  17   -436.8066750 -0.169278E-02  0.106E-01    0.18       1.0  T
  18   -436.8083242 -0.164917E-02  0.596E-02    0.16       1.0  T
  19   -436.8086463 -0.322085E-03  0.453E-02    0.15       1.0  T
  20   -436.8086379  0.834477E-05  0.467E-02    0.16       1.0  T
  21   -436.8089785 -0.340564E-03  0.251E-02    0.15       1.0  T
  22   -436.8090428 -0.643566E-04  0.156E-02    0.14       1.0  T
  23   -436.8091174 -0.745050E-04  0.870E-03    0.15       1.0  T
  24   -436.8091338 -0.164379E-04  0.218E-03    0.14       3.0  T
  25   -436.8091330  0.752553E-06  0.320E-03    0.14       2.0  T
  26   -436.8091345 -0.151052E-05  0.182E-03    0.14       3.6  T
  27   -436.8091353 -0.755772E-06  0.491E-04    0.14      13.4  T
  28   -436.8091352  0.112987E-06  0.887E-04    0.14       7.4  T
     SCC iter.                  ...        0 min,  4.561 sec
     gradient                   ...        0 min,  0.394 sec
 * total energy  :  -429.5924480 Eh     change       -0.1365527E+00 Eh
   gradient norm :     0.1490673 Eh/α   predicted    -0.1313552E+00 (  -3.81%)
   displ. norm   :     0.8216141 α      lambda       -0.1161512E+00
   maximum displ.:     0.2504411 α      in ANC's #238, #122, #230, ...

........................................................................
.............................. CYCLE    5 ..............................
........................................................................
   1   -436.9102410 -0.436910E+03  0.342E-01    0.11       0.0  T
   2   -436.6736618  0.236579E+00  0.754E-01    0.35       1.0  T
   3   -436.7732063 -0.995445E-01  0.675E-01    0.28       1.0  T
   4   -436.6781367  0.950696E-01  0.851E-01    0.02       1.0  T
   5   -436.9061370 -0.228000E+00  0.285E-01    0.18       1.0  T
   6   -436.8884635  0.176735E-01  0.320E-01    0.25       1.0  T
   7   -436.8888770 -0.413513E-03  0.335E-01    0.23       1.0  T
   8   -436.9110134 -0.221364E-01  0.214E-01    0.12       1.0  T
   9   -436.9125860 -0.157263E-02  0.214E-01    0.29       1.0  T
  10   -436.9177646 -0.517857E-02  0.183E-01    0.23       1.0  T
  11   -436.9175490  0.215589E-03  0.179E-01    0.20       1.0  T
  12   -436.9193069 -0.175788E-02  0.165E-01    0.18       1.0  T
  13   -436.9195153 -0.208431E-03  0.156E-01    0.19       1.0  T
  14   -436.9218533 -0.233797E-02  0.126E-01    0.17       1.0  T
  15   -436.9218238  0.294517E-04  0.127E-01    0.17       1.0  T
  16   -436.9224655 -0.641666E-03  0.115E-01    0.17       1.0  T
  17   -436.9231285 -0.662995E-03  0.103E-01    0.16       1.0  T
  18   -436.9253431 -0.221462E-02  0.302E-02    0.15       1.0  T
  19   -436.9251793  0.163842E-03  0.342E-02    0.14       1.0  T
  20   -436.9254679 -0.288599E-03  0.295E-02    0.15       1.0  T
  21   -436.9255396 -0.717113E-04  0.180E-02    0.14       1.0  T
  22   -436.9256317 -0.921139E-04  0.102E-02    0.14       1.0  T
  23   -436.9256494 -0.177189E-04  0.853E-03    0.15       1.0  T
  24   -436.9256535 -0.405113E-05  0.711E-03    0.15       1.0  T
  25   -436.9256664 -0.129059E-04  0.202E-03    0.14       3.3  T
  26   -436.9256667 -0.303790E-06  0.228E-03    0.14       2.9  T
  27   -436.9256677 -0.101288E-05  0.788E-04    0.14       8.3  T
  28   -436.9256674  0.302827E-06  0.137E-03    0.14       4.8  T
  29   -436.9256678 -0.384841E-06  0.324E-04    0.14      20.3  T
  30   -436.9256678  0.108595E-07  0.274E-04    0.14      24.0  T
     SCC iter.                  ...        0 min,  4.964 sec
     gradient                   ...        0 min,  0.394 sec
 * total energy  :  -429.6929413 Eh     change       -0.1004933E+00 Eh
   gradient norm :     0.1165323 Eh/α   predicted    -0.9728059E-01 (  -3.20%)
   displ. norm   :     0.8430348 α      lambda       -0.8936499E-01
   maximum displ.:     0.3097091 α      in ANC's #122, #238, #230, ...

........................................................................
.............................. CYCLE    6 ..............................
........................................................................
   1   -437.0253157 -0.437025E+03  0.321E-01    0.13       0.0  T
   2   -436.9706911  0.546246E-01  0.402E-01    0.25       1.0  T
   3   -436.8947071  0.759840E-01  0.623E-01    0.15       1.0  T
   4   -436.5859226  0.308784E+00  0.105E+00    0.00       1.0  T
   5   -436.9794085 -0.393486E+00  0.298E-01    0.06       1.0  T
   6   -436.9910747 -0.116662E-01  0.336E-01    0.32       1.0  T
   7   -437.0023322 -0.112575E-01  0.311E-01    0.38       1.0  T
   8   -437.0151649 -0.128327E-01  0.250E-01    0.26       1.0  T
   9   -437.0184896 -0.332464E-02  0.182E-01    0.09       1.0  T
  10   -437.0252098 -0.672020E-02  0.173E-01    0.20       1.0  T
  11   -437.0275353 -0.232553E-02  0.154E-01    0.15       1.0  T
  12   -437.0272522  0.283104E-03  0.153E-01    0.16       1.0  T
  13   -437.0285181 -0.126595E-02  0.140E-01    0.15       1.0  T
  14   -437.0290899 -0.571775E-03  0.127E-01    0.14       1.0  T
  15   -437.0296203 -0.530390E-03  0.120E-01    0.14       1.0  T
  16   -437.0305461 -0.925843E-03  0.108E-01    0.15       1.0  T
  17   -437.0319970 -0.145088E-02  0.835E-02    0.14       1.0  T
  18   -437.0327437 -0.746697E-03  0.690E-02    0.14       1.0  T
  19   -437.0329521 -0.208390E-03  0.710E-02    0.14       1.0  T
  20   -437.0339046 -0.952479E-03  0.494E-02    0.15       1.0  T
  21   -437.0338093  0.953165E-04  0.458E-02    0.14       1.0  T
  22   -437.0341979 -0.388670E-03  0.318E-02    0.15       1.0  T
  23   -437.0342179 -0.199906E-04  0.266E-02    0.15       1.0  T
  24   -437.0342711 -0.531299E-04  0.225E-02    0.15       1.0  T
  25   -437.0343614 -0.903979E-04  0.935E-03    0.14       1.0  T
  26   -437.0343397  0.217704E-04  0.855E-03    0.14       1.0  T
  27   -437.0343741 -0.343940E-04  0.324E-03    0.14       2.0  T
  28   -437.0343757 -0.161097E-05  0.355E-03    0.14       1.9  T
  29   -437.0343819 -0.619372E-05  0.692E-04    0.14       9.5  T
  30   -437.0343818  0.373547E-07  0.591E-04    0.14      11.1  T
  31   -437.0343821 -0.255591E-06  0.100E-04    0.14      65.7  T
     SCC iter.                  ...        0 min,  5.053 sec
     gradient                   ...        0 min,  0.395 sec
 * total energy  :  -429.7711044 Eh     change       -0.7816305E-01 Eh
   gradient norm :     0.0925270 Eh/α   predicted    -0.7644048E-01 (  -2.20%)
   displ. norm   :     0.8476483 α      lambda       -0.6876115E-01
   maximum displ.:     0.3561483 α      in ANC's #122, #124, #238, ...

........................................................................
.............................. CYCLE    7 ..............................
........................................................................
   1   -437.1264136 -0.437126E+03  0.301E-01    0.14       0.0  T
   2   -437.1202482  0.616544E-02  0.233E-01    0.18       1.0  T
   3   -436.3685274  0.751721E+00  0.105E+00    0.03       1.0  T
   4   -436.3295413  0.389861E-01  0.938E-01    0.06       1.0  T
   5   -437.1106076 -0.781066E+00  0.247E-01    0.37       1.0  T
   6   -437.0867605  0.238470E-01  0.324E-01    0.33       1.0  T
   7   -437.1013485 -0.145880E-01  0.289E-01    0.26       1.0  T
   8   -437.1182330 -0.168845E-01  0.181E-01    0.21       1.0  T
   9   -437.1236081 -0.537504E-02  0.132E-01    0.20       1.0  T
  10   -437.1236264 -0.183318E-04  0.135E-01    0.19       1.0  T
  11   -437.1246024 -0.976010E-03  0.122E-01    0.20       1.0  T
  12   -437.1251901 -0.587703E-03  0.115E-01    0.20       1.0  T
  13   -437.1263102 -0.112005E-02  0.102E-01    0.19       1.0  T
  14   -437.1272938 -0.983625E-03  0.888E-02    0.18       1.0  T
  15   -437.1285218 -0.122801E-02  0.711E-02    0.17       1.0  T
  16   -437.1294281 -0.906299E-03  0.546E-02    0.16       1.0  T
  17   -437.1294536 -0.255279E-04  0.515E-02    0.15       1.0  T
  18   -437.1297006 -0.246998E-03  0.451E-02    0.15       1.0  T
  19   -437.1304112 -0.710534E-03  0.254E-02    0.14       1.0  T
  20   -437.1304441 -0.329015E-04  0.233E-02    0.14       1.0  T
  21   -437.1304715 -0.274076E-04  0.222E-02    0.14       1.0  T
  22   -437.1307886 -0.317144E-03  0.133E-02    0.14       1.0  T
  23   -437.1307897 -0.106909E-05  0.126E-02    0.14       1.0  T
  24   -437.1308197 -0.299972E-04  0.126E-02    0.14       1.0  T
  25   -437.1308468 -0.271308E-04  0.746E-03    0.14       1.0  T
  26   -437.1308845 -0.377056E-04  0.355E-03    0.14       1.8  T
  27   -437.1308881 -0.359586E-05  0.243E-03    0.14       2.7  T
  28   -437.1308912 -0.307509E-05  0.164E-03    0.14       4.0  T
  29   -437.1308923 -0.111786E-05  0.882E-04    0.14       7.4  T
  30   -437.1308925 -0.209387E-06  0.543E-04    0.14      12.1  T
  31   -437.1308926 -0.112358E-06  0.217E-04    0.14      30.3  T
     SCC iter.                  ...        0 min,  5.140 sec
     gradient                   ...        0 min,  0.396 sec
 * total energy  :  -429.8311475 Eh     change       -0.6004309E-01 Eh
   gradient norm :     0.0693330 Eh/α   predicted    -0.5908331E-01 (  -1.60%)
   displ. norm   :     0.8440108 α      lambda       -0.5165059E-01
   maximum displ.:     0.3807180 α      in ANC's #122, #124, #123, ...

........................................................................
.............................. CYCLE    8 ..............................
........................................................................
   1   -437.2034476 -0.437203E+03  0.289E-01    0.14       0.0  T
   2   -437.1765366  0.269110E-01  0.323E-01    0.13       1.0  T
   3   -436.9782949  0.198242E+00  0.707E-01    0.05       1.0  T
   4   -437.1216228 -0.143328E+00  0.380E-01    0.07       1.0  T
   5   -437.1591979 -0.375751E-01  0.352E-01    0.30       1.0  T
   6   -437.1810768 -0.218790E-01  0.243E-01    0.14       1.0  T
   7   -437.1837750 -0.269814E-02  0.170E-01    0.09       1.0  T
   8   -437.1982239 -0.144490E-01  0.120E-01    0.27       1.0  T
   9   -437.2043303 -0.610635E-02  0.553E-02    0.17       1.0  T
  10   -437.2055494 -0.121913E-02  0.339E-02    0.17       1.0  T
  11   -437.2057436 -0.194172E-03  0.278E-02    0.16       1.0  T
  12   -437.2058670 -0.123421E-03  0.209E-02    0.14       1.0  T
  13   -437.2059602 -0.931377E-04  0.163E-02    0.14       1.0  T
  14   -437.2060151 -0.549892E-04  0.120E-02    0.14       1.0  T
  15   -437.2060638 -0.487066E-04  0.688E-03    0.15       1.0  T
  16   -437.2060756 -0.117222E-04  0.331E-03    0.15       2.0  T
  17   -437.2060818 -0.625746E-05  0.140E-03    0.15       4.7  T
  18   -437.2060823 -0.440126E-06  0.109E-03    0.15       6.0  T
  19   -437.2060829 -0.630364E-06  0.582E-04    0.15      11.3  T
  20   -437.2060829 -0.401546E-07  0.341E-04    0.15      19.3  T
     SCC iter.                  ...        0 min,  3.258 sec
     gradient                   ...        0 min,  0.398 sec
 * total energy  :  -429.8759058 Eh     change       -0.4475831E-01 Eh
   gradient norm :     0.0500778 Eh/α   predicted    -0.4422208E-01 (  -1.20%)
   displ. norm   :     0.8372564 α      lambda       -0.3767991E-01
   maximum displ.:     0.3713287 α      in ANC's #122, #39, #124, ...

........................................................................
.............................. CYCLE    9 ..............................
........................................................................
   1   -437.2537039 -0.437254E+03  0.273E-01    0.16       0.0  T
   2   -437.2019421  0.517618E-01  0.365E-01    0.08       1.0  T
   3   -437.1089455  0.929965E-01  0.520E-01    0.04       1.0  T
   4   -437.1778750 -0.689295E-01  0.409E-01    0.31       1.0  T
   5   -437.2202406 -0.423656E-01  0.297E-01    0.28       1.0  T
   6   -437.2046860  0.155546E-01  0.260E-01    0.08       1.0  T
   7   -437.2226484 -0.179624E-01  0.292E-01    0.31       1.0  T
   8   -437.2436591 -0.210107E-01  0.169E-01    0.34       1.0  T
   9   -437.2502882 -0.662916E-02  0.109E-01    0.24       1.0  T
  10   -437.2533130 -0.302481E-02  0.710E-02    0.20       1.0  T
  11   -437.2543961 -0.108308E-02  0.548E-02    0.20       1.0  T
  12   -437.2554274 -0.103131E-02  0.282E-02    0.16       1.0  T
  13   -437.2558689 -0.441511E-03  0.162E-02    0.16       1.0  T
  14   -437.2555886  0.280317E-03  0.221E-02    0.14       1.0  T
  15   -437.2559070 -0.318347E-03  0.128E-02    0.16       1.0  T
  16   -437.2559015  0.551130E-05  0.889E-03    0.15       1.0  T
  17   -437.2559485 -0.470440E-04  0.437E-03    0.16       1.5  T
  18   -437.2559636 -0.150522E-04  0.150E-03    0.15       4.4  T
  19   -437.2559624  0.116654E-05  0.157E-03    0.16       4.2  T
  20   -437.2559646 -0.216912E-05  0.579E-04    0.15      11.3  T
  21   -437.2559647 -0.125058E-06  0.301E-04    0.15      21.8  T
  22   -437.2559647 -0.602328E-07  0.153E-04    0.15      43.0  T
     SCC iter.                  ...        0 min,  3.631 sec
     gradient                   ...        0 min,  0.396 sec
 * total energy  :  -429.9083736 Eh     change       -0.3246787E-01 Eh
   gradient norm :     0.0370612 Eh/α   predicted    -0.3204675E-01 (  -1.30%)
   displ. norm   :     0.8427111 α      lambda       -0.2755006E-01
   maximum displ.:     0.3227019 α      in ANC's #122, #39, #35, ...

........................................................................
.............................. CYCLE   10 ..............................
........................................................................
   1   -437.2840760 -0.437284E+03  0.245E-01    0.19       0.0  T
   2   -437.2154064  0.686695E-01  0.360E-01    0.06       1.0  T
   3   -437.2462035 -0.307971E-01  0.316E-01    0.11       1.0  T
   4   -437.2431159  0.308764E-02  0.318E-01    0.60       1.0  T
   5   -437.2782510 -0.351351E-01  0.132E-01    0.41       1.0  T
   6   -437.2603247  0.179263E-01  0.258E-01    0.24       1.0  T
   7   -437.2809672 -0.206425E-01  0.116E-01    0.24       1.0  T
   8   -437.2839691 -0.300190E-02  0.720E-02    0.25       1.0  T
   9   -437.2855870 -0.161788E-02  0.462E-02    0.19       1.0  T
  10   -437.2858627 -0.275768E-03  0.338E-02    0.21       1.0  T
  11   -437.2862822 -0.419475E-03  0.187E-02    0.18       1.0  T
  12   -437.2863684 -0.862090E-04  0.128E-02    0.17       1.0  T
  13   -437.2863317  0.366760E-04  0.122E-02    0.16       1.0  T
  14   -437.2864443 -0.112565E-03  0.562E-03    0.17       1.2  T
  15   -437.2864578 -0.134676E-04  0.338E-03    0.16       1.9  T
  16   -437.2864645 -0.676154E-05  0.158E-03    0.17       4.1  T
  17   -437.2864660 -0.146336E-05  0.566E-04    0.17      11.6  T
  18   -437.2864659  0.882549E-07  0.517E-04    0.17      12.7  T
  19   -437.2864660 -0.144253E-06  0.288E-04    0.17      22.8  T
     SCC iter.                  ...        0 min,  3.131 sec
     gradient                   ...        0 min,  0.396 sec
 * total energy  :  -429.9325291 Eh     change       -0.2415543E-01 Eh
   gradient norm :     0.0299157 Eh/α   predicted    -0.2355755E-01 (  -2.48%)
   displ. norm   :     0.8806644 α      lambda       -0.2227247E-01
   maximum displ.:     0.3138620 α      in ANC's #39, #18, #35, ...

........................................................................
.............................. CYCLE   11 ..............................
........................................................................
   1   -437.3032816 -0.437303E+03  0.219E-01    0.24       0.0  T
   2   -437.2590350  0.442466E-01  0.322E-01    0.09       1.0  T
   3   -437.2845852 -0.255502E-01  0.253E-01    0.25       1.0  T
   4   -437.2789960  0.558916E-02  0.265E-01    0.49       1.0  T
   5   -437.3018166 -0.228206E-01  0.986E-02    0.35       1.0  T
   6   -437.3007996  0.101699E-02  0.124E-01    0.27       1.0  T
   7   -437.3050935 -0.429383E-02  0.474E-02    0.27       1.0  T
   8   -437.3054968 -0.403297E-03  0.339E-02    0.19       1.0  T
   9   -437.3058195 -0.322709E-03  0.186E-02    0.21       1.0  T
  10   -437.3058708 -0.513449E-04  0.132E-02    0.20       1.0  T
  11   -437.3058821 -0.113160E-04  0.879E-03    0.20       1.0  T
  12   -437.3059112 -0.290798E-04  0.519E-03    0.19       1.3  T
  13   -437.3059188 -0.760953E-05  0.319E-03    0.19       2.1  T
  14   -437.3059226 -0.376282E-05  0.115E-03    0.20       5.7  T
  15   -437.3059228 -0.206699E-06  0.614E-04    0.20      10.7  T
  16   -437.3059230 -0.178337E-06  0.275E-04    0.20      23.9  T
     SCC iter.                  ...        0 min,  2.636 sec
     gradient                   ...        0 min,  0.396 sec
 * total energy  :  -429.9533373 Eh     change       -0.2080822E-01 Eh
   gradient norm :     0.0287445 Eh/α   predicted    -0.1977316E-01 (  -4.97%)
   displ. norm   :     0.9457609 α      lambda       -0.2211794E-01
   maximum displ.:     0.3826937 α      in ANC's #18, #30, #39, ...

........................................................................
.............................. CYCLE   12 ..............................
........................................................................
   1   -437.3164857 -0.437316E+03  0.221E-01    0.33       0.0  T
   2   -437.2911976  0.252881E-01  0.290E-01    0.17       1.0  T
   3   -437.3011536 -0.995597E-02  0.251E-01    0.32       1.0  T
   4   -437.2985537  0.259989E-02  0.240E-01    0.44       1.0  T
   5   -437.3172295 -0.186758E-01  0.766E-02    0.33       1.0  T
   6   -437.3185099 -0.128044E-02  0.503E-02    0.25       1.0  T
   7   -437.3192728 -0.762875E-03  0.190E-02    0.27       1.0  T
   8   -437.3191907  0.821453E-04  0.191E-02    0.24       1.0  T
   9   -437.3192949 -0.104227E-03  0.107E-02    0.26       1.0  T
  10   -437.3193167 -0.218273E-04  0.614E-03    0.26       1.1  T
  11   -437.3193266 -0.984046E-05  0.252E-03    0.26       2.6  T
  12   -437.3193285 -0.196384E-05  0.994E-04    0.26       6.6  T
  13   -437.3193287 -0.158653E-06  0.676E-04    0.26       9.7  T
  14   -437.3193288 -0.868813E-07  0.305E-04    0.26      21.5  T
     SCC iter.                  ...        0 min,  2.310 sec
     gradient                   ...        0 min,  0.395 sec
 * total energy  :  -429.9757678 Eh     change       -0.2243056E-01 Eh
   gradient norm :     0.0335242 Eh/α   predicted    -0.2095083E-01 (  -6.60%)
   displ. norm   :     0.9276265 α      lambda       -0.2344415E-01
   maximum displ.:     0.4088067 α      in ANC's #18, #30, #39, ...

........................................................................
.............................. CYCLE   13 ..............................
........................................................................
   1   -437.3152976 -0.437315E+03  0.214E-01    0.45       0.0  T
   2   -437.3041338  0.111637E-01  0.221E-01    0.36       1.0  T
   3   -437.3028560  0.127788E-02  0.230E-01    0.44       1.0  T
   4   -437.3078489 -0.499291E-02  0.168E-01    0.50       1.0  T
   5   -437.3167927 -0.894385E-02  0.498E-02    0.44       1.0  T
   6   -437.3170502 -0.257484E-03  0.328E-02    0.40       1.0  T
   7   -437.3173703 -0.320093E-03  0.162E-02    0.43       1.0  T
   8   -437.3173801 -0.976279E-05  0.854E-03    0.42       1.0  T
   9   -437.3173921 -0.120856E-04  0.445E-03    0.42       1.5  T
  10   -437.3173990 -0.688746E-05  0.179E-03    0.42       3.7  T
  11   -437.3173995 -0.492611E-06  0.104E-03    0.42       6.3  T
  12   -437.3173996 -0.702088E-07  0.622E-04    0.42      10.6  T
  13   -437.3173997 -0.690289E-07  0.351E-04    0.42      18.7  T
     SCC iter.                  ...        0 min,  2.122 sec
     gradient                   ...        0 min,  0.395 sec
 * total energy  :  -430.0008296 Eh     change       -0.2506180E-01 Eh
   gradient norm :     0.0462326 Eh/α   predicted    -0.2180882E-01 ( -12.98%)
   displ. norm   :     0.8903768 α      lambda       -0.2760800E-01
   maximum displ.:     0.4179190 α      in ANC's #18, #30, #35, ...

........................................................................
.............................. CYCLE   14 ..............................
........................................................................
   1   -437.3140635 -0.437314E+03  0.209E-01    0.69       0.0  T
   2   -437.3086935  0.537003E-02  0.181E-01    0.62       1.0  T
   3   -437.3054067  0.328677E-02  0.202E-01    0.70       1.0  T
   4   -437.3120452 -0.663851E-02  0.109E-01    0.74       1.0  T
   5   -437.3154197 -0.337450E-02  0.427E-02    0.69       1.0  T
   6   -437.3157403 -0.320556E-03  0.182E-02    0.68       1.0  T
   7   -437.3157234  0.168586E-04  0.157E-02    0.70       1.0  T
   8   -437.3157698 -0.464064E-04  0.707E-03    0.68       1.0  T
   9   -437.3157820 -0.122240E-04  0.263E-03    0.69       2.5  T
  10   -437.3157837 -0.166284E-05  0.135E-03    0.69       4.8  T
  11   -437.3157840 -0.248509E-06  0.788E-04    0.69       8.3  T
  12   -437.3157841 -0.113466E-06  0.538E-04    0.69      12.2  T
     SCC iter.                  ...        0 min,  1.960 sec
     gradient                   ...        0 min,  0.396 sec
 * total energy  :  -430.0311659 Eh     change       -0.3033627E-01 Eh
   gradient norm :     0.0606767 Eh/α   predicted    -0.2474741E-01 ( -18.42%)
   displ. norm   :     0.8605266 α      lambda       -0.3411409E-01
   maximum displ.:     0.4164285 α      in ANC's #18, #30, #35, ...

........................................................................
.............................. CYCLE   15 ..............................
........................................................................
   1   -437.3136586 -0.437314E+03  0.198E-01    1.04       0.0  T
   2   -437.3110655  0.259314E-02  0.159E-01    0.99       1.0  T
   3   -437.3086789  0.238658E-02  0.167E-01    1.07       1.0  T
   4   -437.3139954 -0.531647E-02  0.639E-02    1.07       1.0  T
   5   -437.3145888 -0.593484E-03  0.431E-02    1.05       1.0  T
   6   -437.3150181 -0.429288E-03  0.167E-02    1.05       1.0  T
   7   -437.3150070  0.111530E-04  0.109E-02    1.06       1.0  T
   8   -437.3150286 -0.216482E-04  0.622E-03    1.05       1.1  T
   9   -437.3150418 -0.131748E-04  0.205E-03    1.05       3.2  T
  10   -437.3150425 -0.679728E-06  0.117E-03    1.05       5.6  T
  11   -437.3150426 -0.135819E-06  0.734E-04    1.05       8.9  T
  12   -437.3150427 -0.756930E-07  0.419E-04    1.05      15.7  T
     SCC iter.                  ...        0 min,  1.981 sec
     gradient                   ...        0 min,  0.396 sec
 * total energy  :  -430.0679708 Eh     change       -0.3680485E-01 Eh
   gradient norm :     0.0725819 Eh/α   predicted    -0.2968789E-01 ( -19.34%)
   displ. norm   :     0.8464065 α      lambda       -0.4059614E-01
   maximum displ.:     0.4174752 α      in ANC's #18, #30, #35, ...

........................................................................
.............................. CYCLE   16 ..............................
........................................................................
   1   -437.3162361 -0.437316E+03  0.180E-01    1.18       0.0  T
   2   -437.3148572  0.137890E-02  0.144E-01    1.19       1.0  T
   3   -437.3136451  0.121209E-02  0.134E-01    1.19       1.0  T
   4   -437.3170802 -0.343516E-02  0.385E-02    1.19       1.0  T
   5   -437.3171419 -0.616543E-04  0.277E-02    1.19       1.0  T
   6   -437.3172621 -0.120257E-03  0.167E-02    1.19       1.0  T
   7   -437.3172808 -0.186432E-04  0.831E-03    1.19       1.0  T
   8   -437.3172909 -0.101264E-04  0.478E-03    1.19       1.4  T
   9   -437.3172993 -0.839372E-05  0.167E-03    1.19       3.9  T
  10   -437.3172997 -0.411137E-06  0.101E-03    1.19       6.5  T
  11   -437.3172998 -0.990341E-07  0.639E-04    1.19      10.3  T
  12   -437.3172999 -0.547701E-07  0.336E-04    1.19      19.5  T
     SCC iter.                  ...        0 min,  1.959 sec
     gradient                   ...        0 min,  0.396 sec
 * total energy  :  -430.1097792 Eh     change       -0.4180841E-01 Eh
   gradient norm :     0.0750344 Eh/α   predicted    -0.3483986E-01 ( -16.67%)
   displ. norm   :     0.8445491 α      lambda       -0.4199264E-01
   maximum displ.:     0.4334557 α      in ANC's #18, #30, #35, ...

........................................................................
.............................. CYCLE   17 ..............................
........................................................................
   1   -437.3250189 -0.437325E+03  0.163E-01    1.19       0.0  T
   2   -437.3239286  0.109028E-02  0.138E-01    1.19       1.0  T
   3   -437.3238293  0.992921E-04  0.107E-01    1.19       1.0  T
   4   -437.3257613 -0.193194E-02  0.324E-02    1.19       1.0  T
   5   -437.3258370 -0.757543E-04  0.205E-02    1.19       1.0  T
   6   -437.3258727 -0.356885E-04  0.147E-02    1.19       1.0  T
   7   -437.3259078 -0.351161E-04  0.750E-03    1.19       1.0  T
   8   -437.3259147 -0.691259E-05  0.363E-03    1.19       1.8  T
   9   -437.3259183 -0.354537E-05  0.144E-03    1.19       4.6  T
  10   -437.3259186 -0.338185E-06  0.926E-04    1.19       7.1  T
  11   -437.3259187 -0.103116E-06  0.495E-04    1.19      13.3  T
     SCC iter.                  ...        0 min,  1.799 sec
     gradient                   ...        0 min,  0.395 sec
 * total energy  :  -430.1491401 Eh     change       -0.3936092E-01 Eh
   gradient norm :     0.0723055 Eh/α   predicted    -0.3597223E-01 (  -8.61%)
   displ. norm   :     0.9244126 α      lambda       -0.5041338E-01
   maximum displ.:     0.4268032 α      in ANC's #18, #30, #19, ...

........................................................................
.............................. CYCLE   18 ..............................
........................................................................
   1   -437.3634925 -0.437363E+03  0.226E-01    1.16       0.0  T
   2   -437.3622177  0.127476E-02  0.180E-01    1.17       1.0  T
   3   -437.3594043  0.281345E-02  0.152E-01    1.16       1.0  T
   4   -437.3644397 -0.503547E-02  0.430E-02    1.17       1.0  T
   5   -437.3647506 -0.310821E-03  0.228E-02    1.17       1.0  T
   6   -437.3648098 -0.592323E-04  0.159E-02    1.17       1.0  T
   7   -437.3648469 -0.371041E-04  0.924E-03    1.17       1.0  T
   8   -437.3648572 -0.102991E-04  0.446E-03    1.17       1.5  T
   9   -437.3648628 -0.557878E-05  0.204E-03    1.17       3.2  T
  10   -437.3648632 -0.393806E-06  0.137E-03    1.17       4.8  T
  11   -437.3648633 -0.110382E-06  0.763E-04    1.17       8.6  T
  12   -437.3648634 -0.863020E-07  0.485E-04    1.17      13.5  T
     SCC iter.                  ...        0 min,  1.961 sec
     gradient                   ...        0 min,  0.395 sec
 * total energy  :  -430.1915684 Eh     change       -0.4242832E-01 Eh
   gradient norm :     0.0755282 Eh/α   predicted    -0.4674677E-01 (  10.18%)
   displ. norm   :     0.8195579 α      lambda       -0.3682881E-01
   maximum displ.:     0.4117349 α      in ANC's #18, #30, #19, ...

........................................................................
.............................. CYCLE   19 ..............................
........................................................................
   1   -437.3867114 -0.437387E+03  0.140E-01    1.15       0.0  T
   2   -437.3858044  0.906978E-03  0.124E-01    1.15       1.0  T
   3   -437.3861226 -0.318225E-03  0.815E-02    1.15       1.0  T
   4   -437.3871623 -0.103972E-02  0.284E-02    1.15       1.0  T
   5   -437.3873297 -0.167401E-03  0.136E-02    1.15       1.0  T
   6   -437.3873247  0.502462E-05  0.107E-02    1.15       1.0  T
   7   -437.3873387 -0.140099E-04  0.599E-03    1.15       1.1  T
   8   -437.3873478 -0.906365E-05  0.201E-03    1.15       3.3  T
   9   -437.3873485 -0.758648E-06  0.116E-03    1.15       5.7  T
  10   -437.3873487 -0.161414E-06  0.722E-04    1.15       9.1  T
  11   -437.3873488 -0.484072E-07  0.353E-04    1.15      18.6  T
     SCC iter.                  ...        0 min,  1.800 sec
     gradient                   ...        0 min,  0.395 sec
 * total energy  :  -430.2191222 Eh     change       -0.2755374E-01 Eh
   gradient norm :     0.0792248 Eh/α   predicted    -0.3078293E-01 (  11.72%)
   displ. norm   :     0.7488703 α      lambda       -0.3166537E-01
   maximum displ.:     0.4136278 α      in ANC's #18, #30, #35, ...

........................................................................
.............................. CYCLE   20 ..............................
........................................................................
   1   -437.4361676 -0.437436E+03  0.119E-01    1.15       0.0  T
   2   -437.4361063  0.612367E-04  0.833E-02    1.15       1.0  T
   3   -437.4349897  0.111660E-02  0.682E-02    1.15       1.0  T
   4   -437.4362737 -0.128401E-02  0.219E-02    1.15       1.0  T
   5   -437.4363797 -0.106021E-03  0.108E-02    1.15       1.0  T
   6   -437.4363783  0.147367E-05  0.830E-03    1.15       1.0  T
   7   -437.4363899 -0.115789E-04  0.442E-03    1.15       1.5  T
   8   -437.4363938 -0.391693E-05  0.162E-03    1.15       4.0  T
   9   -437.4363939 -0.172975E-06  0.109E-03    1.15       6.0  T
  10   -437.4363940 -0.860623E-07  0.732E-04    1.15       9.0  T
  11   -437.4363941 -0.451276E-07  0.430E-04    1.15      15.3  T
     SCC iter.                  ...        0 min,  1.821 sec
     gradient                   ...        0 min,  0.395 sec
 * total energy  :  -430.2446879 Eh     change       -0.2556578E-01 Eh
   gradient norm :     0.0559429 Eh/α   predicted    -0.2471176E-01 (  -3.34%)
   displ. norm   :     0.8932624 α      lambda       -0.2762747E-01
   maximum displ.:     0.5309519 α      in ANC's #18, #30, #19, ...
 * RMSD in coord.:     0.8232146 α      energy gain  -0.1401258E+01 Eh

generating ANC from model Hessian ...
Using Lindh-Hessian (1995)
 Shifting diagonal of input Hessian by    1.0013824922984678E-002
 Lowest  eigenvalues of input Hessian
    0.010000    0.010003    0.010006    0.010009    0.010010    0.010011
    0.010012    0.010013    0.010013    0.010014    0.000000    0.000000
    0.000000    0.000000    0.000000    0.000000    0.010014    0.010015
 Highest eigenvalues
    2.387831    2.502870    2.545550    2.845569    2.853707    2.899251


........................................................................
.............................. CYCLE   21 ..............................
........................................................................
   1   -437.4814790 -0.437481E+03  0.101E-01    1.15       0.0  T
   2   -437.4814736  0.542086E-05  0.688E-02    1.15       1.0  T
   3   -437.4806220  0.851544E-03  0.574E-02    1.15       1.0  T
   4   -437.4815080 -0.885953E-03  0.194E-02    1.15       1.0  T
   5   -437.4815932 -0.851784E-04  0.846E-03    1.15       1.0  T
   6   -437.4815918  0.139296E-05  0.638E-03    1.15       1.0  T
   7   -437.4815973 -0.551504E-05  0.325E-03    1.15       2.0  T
   8   -437.4816004 -0.308690E-05  0.107E-03    1.15       6.1  T
   9   -437.4816005 -0.163420E-06  0.668E-04    1.15       9.8  T
  10   -437.4816006 -0.533288E-07  0.408E-04    1.15      16.1  T
     SCC iter.                  ...        0 min,  1.651 sec
     gradient                   ...        0 min,  0.395 sec
 * total energy  :  -430.2694754 Eh     change       -0.2478751E-01 Eh
   gradient norm :     0.0468780 Eh/α   predicted     0.0000000E+00 (-100.00%)
   displ. norm   :     0.7615751 α      lambda       -0.2098016E-01
   maximum displ.:     0.5066423 α      in ANC's #47, #38, #55, ...

........................................................................
.............................. CYCLE   22 ..............................
........................................................................
   1   -437.5233462 -0.437523E+03  0.734E-02    1.14       0.0  T
   2   -437.5233098  0.364021E-04  0.497E-02    1.14       1.0  T
   3   -437.5223030  0.100681E-02  0.468E-02    1.14       1.0  T
   4   -437.5233693 -0.106625E-02  0.101E-02    1.14       1.0  T
   5   -437.5233860 -0.167356E-04  0.669E-03    1.14       1.0  T
   6   -437.5233859  0.997703E-07  0.480E-03    1.14       1.4  T
   7   -437.5233896 -0.371860E-05  0.204E-03    1.14       3.2  T
   8   -437.5233907 -0.112743E-05  0.757E-04    1.14       8.7  T
   9   -437.5233908 -0.858668E-07  0.442E-04    1.14      14.9  T
  10   -437.5233909 -0.201483E-07  0.267E-04    1.14      24.6  T
     SCC iter.                  ...        0 min,  1.654 sec
     gradient                   ...        0 min,  0.395 sec
 * total energy  :  -430.2894770 Eh     change       -0.2000158E-01 Eh
   gradient norm :     0.0339780 Eh/α   predicted    -0.1657432E-01 ( -17.13%)
   displ. norm   :     0.9304893 α      lambda       -0.2340504E-01
   maximum displ.:     0.6047819 α      in ANC's #47, #38, #55, ...

........................................................................
.............................. CYCLE   23 ..............................
........................................................................
   1   -437.5649834 -0.437565E+03  0.893E-02    1.12       0.0  T
   2   -437.5649425  0.408591E-04  0.600E-02    1.12       1.0  T
   3   -437.5636107  0.133177E-02  0.545E-02    1.12       1.0  T
   4   -437.5650103 -0.139953E-02  0.124E-02    1.12       1.0  T
   5   -437.5650394 -0.291343E-04  0.806E-03    1.12       1.0  T
   6   -437.5650398 -0.412896E-06  0.589E-03    1.12       1.1  T
   7   -437.5650451 -0.528535E-05  0.255E-03    1.12       2.6  T
   8   -437.5650469 -0.178798E-05  0.870E-04    1.12       7.5  T
   9   -437.5650470 -0.101510E-06  0.533E-04    1.12      12.3  T
  10   -437.5650470 -0.275269E-07  0.328E-04    1.12      20.0  T
     SCC iter.                  ...        0 min,  1.635 sec
     gradient                   ...        0 min,  0.395 sec
 * total energy  :  -430.3115760 Eh     change       -0.2209899E-01 Eh
   gradient norm :     0.0243588 Eh/α   predicted    -0.2183467E-01 (  -1.20%)
   displ. norm   :     0.9510588 α      lambda       -0.2174537E-01
   maximum displ.:     0.6097067 α      in ANC's #47, #38, #55, ...

........................................................................
.............................. CYCLE   24 ..............................
........................................................................
   1   -437.5997947 -0.437600E+03  0.104E-01    1.10       0.0  T
   2   -437.5997722  0.225156E-04  0.673E-02    1.10       1.0  T
   3   -437.5984974  0.127483E-02  0.530E-02    1.10       1.0  T
   4   -437.5998153 -0.131790E-02  0.122E-02    1.10       1.0  T
   5   -437.5998410 -0.257579E-04  0.824E-03    1.10       1.0  T
   6   -437.5998403  0.770503E-06  0.599E-03    1.10       1.1  T
   7   -437.5998470 -0.678691E-05  0.230E-03    1.10       2.9  T
   8   -437.5998484 -0.137577E-05  0.854E-04    1.10       7.7  T
   9   -437.5998485 -0.100403E-06  0.515E-04    1.10      12.8  T
  10   -437.5998485 -0.270566E-07  0.328E-04    1.10      20.0  T
     SCC iter.                  ...        0 min,  1.637 sec
     gradient                   ...        0 min,  0.396 sec
 * total energy  :  -430.3316878 Eh     change       -0.2011174E-01 Eh
   gradient norm :     0.0263579 Eh/α   predicted    -0.2070717E-01 (   2.96%)
   displ. norm   :     0.9453477 α      lambda       -0.2030493E-01
   maximum displ.:     0.6045780 α      in ANC's #47, #38, #33, ...

........................................................................
.............................. CYCLE   25 ..............................
........................................................................
   1   -437.6335466 -0.437634E+03  0.107E-01    1.09       0.0  T
   2   -437.6335359  0.106825E-04  0.684E-02    1.09       1.0  T
   3   -437.6325514  0.984533E-03  0.477E-02    1.09       1.0  T
   4   -437.6335630 -0.101165E-02  0.123E-02    1.09       1.0  T
   5   -437.6335860 -0.229179E-04  0.833E-03    1.09       1.0  T
   6   -437.6335852  0.740930E-06  0.563E-03    1.09       1.2  T
   7   -437.6335920 -0.677055E-05  0.173E-03    1.09       3.8  T
   8   -437.6335926 -0.561469E-06  0.790E-04    1.09       8.3  T
   9   -437.6335926 -0.787660E-07  0.425E-04    1.09      15.4  T
     SCC iter.                  ...        0 min,  1.491 sec
     gradient                   ...        0 min,  0.395 sec
 * total energy  :  -430.3504552 Eh     change       -0.1876746E-01 Eh
   gradient norm :     0.0253945 Eh/α   predicted    -0.1922557E-01 (   2.44%)
   displ. norm   :     0.9406415 α      lambda       -0.1817752E-01
   maximum displ.:     0.5952945 α      in ANC's #47, #38, #33, ...

........................................................................
.............................. CYCLE   26 ..............................
........................................................................
   1   -437.6666904 -0.437667E+03  0.973E-02    1.09       0.0  T
   2   -437.6666809  0.952048E-05  0.640E-02    1.09       1.0  T
   3   -437.6657898  0.891142E-03  0.479E-02    1.09       1.0  T
   4   -437.6667098 -0.920028E-03  0.131E-02    1.09       1.0  T
   5   -437.6667282 -0.184375E-04  0.912E-03    1.09       1.0  T
   6   -437.6667280  0.253101E-06  0.602E-03    1.09       1.1  T
   7   -437.6667361 -0.814499E-05  0.183E-03    1.09       3.6  T
   8   -437.6667368 -0.714616E-06  0.821E-04    1.09       8.0  T
   9   -437.6667369 -0.107073E-06  0.459E-04    1.09      14.3  T
     SCC iter.                  ...        0 min,  1.489 sec
     gradient                   ...        0 min,  0.396 sec
 * total energy  :  -430.3677322 Eh     change       -0.1727696E-01 Eh
   gradient norm :     0.0222041 Eh/α   predicted    -0.1713056E-01 (  -0.85%)
   displ. norm   :     0.9511856 α      lambda       -0.1705242E-01
   maximum displ.:     0.5904523 α      in ANC's #47, #38, #33, ...

........................................................................
.............................. CYCLE   27 ..............................
........................................................................
   1   -437.6995173 -0.437700E+03  0.111E-01    1.09       0.0  T
   2   -437.6995126  0.473988E-05  0.724E-02    1.09       1.0  T
   3   -437.6986283  0.884296E-03  0.492E-02    1.09       1.0  T
   4   -437.6995394 -0.911094E-03  0.142E-02    1.09       1.0  T
   5   -437.6995563 -0.168710E-04  0.101E-02    1.09       1.0  T
   6   -437.6995564 -0.131954E-06  0.639E-03    1.09       1.0  T
   7   -437.6995665 -0.100745E-04  0.199E-03    1.09       3.3  T
   8   -437.6995673 -0.854267E-06  0.889E-04    1.09       7.4  T
   9   -437.6995674 -0.126048E-06  0.478E-04    1.09      13.7  T
     SCC iter.                  ...        0 min,  1.473 sec
     gradient                   ...        0 min,  0.395 sec
 * total energy  :  -430.3836111 Eh     change       -0.1587891E-01 Eh
   gradient norm :     0.0186686 Eh/α   predicted    -0.1624033E-01 (   2.28%)
   displ. norm   :     0.9484611 α      lambda       -0.1582446E-01
   maximum displ.:     0.5838837 α      in ANC's #38, #47, #33, ...

........................................................................
.............................. CYCLE   28 ..............................
........................................................................
   1   -437.7315992 -0.437732E+03  0.115E-01    1.09       0.0  T
   2   -437.7315983  0.907161E-06  0.747E-02    1.09       1.0  T
   3   -437.7308271  0.771191E-03  0.467E-02    1.09       1.0  T
   4   -437.7316220 -0.794922E-03  0.144E-02    1.09       1.0  T
   5   -437.7316347 -0.126680E-04  0.103E-02    1.09       1.0  T
   6   -437.7316363 -0.163558E-05  0.591E-03    1.09       1.1  T
   7   -437.7316456 -0.932833E-05  0.190E-03    1.09       3.5  T
   8   -437.7316464 -0.814456E-06  0.903E-04    1.09       7.3  T
   9   -437.7316466 -0.139638E-06  0.459E-04    1.09      14.3  T
     SCC iter.                  ...        0 min,  1.472 sec
     gradient                   ...        0 min,  0.396 sec
 * total energy  :  -430.3982564 Eh     change       -0.1464528E-01 Eh
   gradient norm :     0.0163739 Eh/α   predicted    -0.1502991E-01 (   2.63%)
   displ. norm   :     0.9418287 α      lambda       -0.1400561E-01
   maximum displ.:     0.5959796 α      in ANC's #38, #47, #33, ...

........................................................................
.............................. CYCLE   29 ..............................
........................................................................
   1   -437.7599806 -0.437760E+03  0.104E-01    1.08       0.0  T
   2   -437.7599786  0.198585E-05  0.686E-02    1.08       1.0  T
   3   -437.7592906  0.688011E-03  0.444E-02    1.08       1.0  T
   4   -437.7600038 -0.713203E-03  0.133E-02    1.08       1.0  T
   5   -437.7600116 -0.776586E-05  0.960E-03    1.08       1.0  T
   6   -437.7600145 -0.289296E-05  0.491E-03    1.08       1.3  T
   7   -437.7600218 -0.730304E-05  0.152E-03    1.08       4.3  T
   8   -437.7600224 -0.557493E-06  0.818E-04    1.08       8.0  T
   9   -437.7600225 -0.142890E-06  0.374E-04    1.08      17.5  T
     SCC iter.                  ...        0 min,  1.472 sec
     gradient                   ...        0 min,  0.396 sec
 * total energy  :  -430.4114714 Eh     change       -0.1321499E-01 Eh
   gradient norm :     0.0149011 Eh/α   predicted    -0.1321459E-01 (  -0.00%)
   displ. norm   :     0.9411827 α      lambda       -0.1272838E-01
   maximum displ.:     0.6074842 α      in ANC's #38, #47, #24, ...

........................................................................
.............................. CYCLE   30 ..............................
........................................................................
   1   -437.7882343 -0.437788E+03  0.105E-01    1.08       0.0  T
   2   -437.7882315  0.278731E-05  0.683E-02    1.08       1.0  T
   3   -437.7875777  0.653817E-03  0.436E-02    1.08       1.0  T
   4   -437.7882582 -0.680462E-03  0.128E-02    1.08       1.0  T
   5   -437.7882628 -0.465742E-05  0.926E-03    1.08       1.0  T
   6   -437.7882664 -0.361144E-05  0.438E-03    1.08       1.5  T
   7   -437.7882721 -0.565114E-05  0.135E-03    1.08       4.9  T
   8   -437.7882725 -0.424095E-06  0.784E-04    1.08       8.4  T
   9   -437.7882727 -0.158585E-06  0.354E-04    1.08      18.5  T
     SCC iter.                  ...        0 min,  1.492 sec
     gradient                   ...        0 min,  0.396 sec
 * total energy  :  -430.4233634 Eh     change       -0.1189207E-01 Eh
   gradient norm :     0.0135237 Eh/α   predicted    -0.1200176E-01 (   0.92%)
   displ. norm   :     0.9374759 α      lambda       -0.1156917E-01
   maximum displ.:     0.6129381 α      in ANC's #38, #47, #24, ...

........................................................................
.............................. CYCLE   31 ..............................
........................................................................
   1   -437.8161789 -0.437816E+03  0.103E-01    1.07       0.0  T
   2   -437.8161757  0.322440E-05  0.671E-02    1.07       1.0  T
   3   -437.8155557  0.619970E-03  0.421E-02    1.07       1.0  T
   4   -437.8162017 -0.646050E-03  0.122E-02    1.07       1.0  T
   5   -437.8162043 -0.257391E-05  0.889E-03    1.07       1.0  T
   6   -437.8162082 -0.390283E-05  0.414E-03    1.07       1.6  T
   7   -437.8162134 -0.519216E-05  0.130E-03    1.07       5.1  T
   8   -437.8162138 -0.380468E-06  0.762E-04    1.07       8.6  T
   9   -437.8162139 -0.138852E-06  0.333E-04    1.07      19.7  T
     SCC iter.                  ...        0 min,  1.517 sec
     gradient                   ...        0 min,  0.396 sec
 * total energy  :  -430.4341387 Eh     change       -0.1077524E-01 Eh
   gradient norm :     0.0117922 Eh/α   predicted    -0.1086844E-01 (   0.87%)
   displ. norm   :     0.9305239 α      lambda       -0.1024936E-01
   maximum displ.:     0.6219586 α      in ANC's #38, #47, #24, ...

........................................................................
.............................. CYCLE   32 ..............................
........................................................................
   1   -437.8417980 -0.437842E+03  0.992E-02    1.07       0.0  T
   2   -437.8417947  0.327322E-05  0.644E-02    1.07       1.0  T
   3   -437.8412156  0.579072E-03  0.406E-02    1.07       1.0  T
   4   -437.8418197 -0.604137E-03  0.116E-02    1.07       1.0  T
   5   -437.8418214 -0.165602E-05  0.850E-03    1.07       1.0  T
   6   -437.8418249 -0.349559E-05  0.408E-03    1.07       1.6  T
   7   -437.8418299 -0.497329E-05  0.128E-03    1.07       5.1  T
   8   -437.8418302 -0.344607E-06  0.739E-04    1.07       8.9  T
   9   -437.8418303 -0.116412E-06  0.326E-04    1.07      20.1  T
     SCC iter.                  ...        0 min,  1.475 sec
     gradient                   ...        0 min,  0.396 sec
 * total energy  :  -430.4437660 Eh     change       -0.9627331E-02 Eh
   gradient norm :     0.0106586 Eh/α   predicted    -0.9562022E-02 (  -0.68%)
   displ. norm   :     0.9320615 α      lambda       -0.9272628E-02
[...]
 177:  0.00 178:  0.00 179:  0.00 180:  0.00 181:  0.00 182:  0.00 183:  0.00 184:  0.00
 185:  0.00 186:  0.00 187:  0.00 188:  0.00 189:  0.00 190:  0.00 191:  0.00 192:  0.00
 193:  0.00 194:  0.00 195:  0.00 196:  0.00 197:  0.00 198:  0.00 199:  0.00 200:  0.00
 201:  0.00 202:  0.00 203:  0.00 204:  0.00 205:  0.00 206:  0.00 207:  0.00 208:  0.00
 209:  0.00 210:  0.00 211:  0.00 212:  0.00 213:  0.00 214:  0.00 215:  0.00 216:  0.00
 217:  0.00 218:  0.00 219:  0.00 220:  0.00 221:  0.00 222:  0.00 223:  0.00 224:  0.00
 225:  0.00 226:  0.00 227:  0.00 228:  0.00 229:  0.00 230:  0.00 231:  0.00 232:  0.00
 233:  0.00 234:  0.00 235:  0.00 236:  0.00 237:  0.00 238:  0.00 239:  0.00 240:  0.00
 241:  0.00 242:  0.00 243:  0.00 244:  0.00 245:  0.00 246:  0.00 247:  0.00 248:  0.00
 249:  0.00 250:  0.00 251:  0.00 252:  0.00 253:  0.00 254:  0.00 255:  0.00 256:  0.00
 257:  0.00 258:  0.00 259:  0.00 260:  0.00 261:  0.00 262:  0.00 263:  0.00 264:  0.00
 265:  0.00 266:  0.00 267:  0.00 268:  0.00 269:  0.00 270:  0.00 271:  0.00 272:  0.00
 273:  0.00 274:  0.00 275:  0.00 276:  0.00 277:  0.00 278:  0.00 279:  0.00 280:  0.00
 281:  0.00 282:  0.00 283:  0.00 284:  0.00 285:  0.00 286:  0.00 287:  0.00 288:  0.00
 289:  0.00 290:  0.00 291:  0.00 292:  0.00 293:  0.00 294:  0.00 295:  0.00 296:  0.00
 297:  0.00 298:  0.00 299:  0.00 300:  0.00 301:  0.00 302:  0.00 303:  0.00 304:  0.00
 305:  0.00 306:  0.00 307:  0.00 308:  0.00 309:  0.00 310:  0.00 311:  0.00 312:  0.00
 313:  0.00 314:  0.00 315:  0.00 316:  0.00 317:  0.00 318:  0.00 319:  0.00 320:  0.00
 321:  0.00 322:  0.00 323:  0.00 324:  0.00 325:  0.00 326:  0.00 327:  0.00 328:  0.00
 329:  0.00 330:  0.00 331:  0.00 332:  0.00 333:  0.00 334:  0.00 335:  0.00 336:  0.00
 337:  0.00 338:  0.00 339:  0.00 340:  0.00 341:  0.00 342:  0.00 343:  0.00 344:  0.00
 345:  0.00 346:  0.00 347:  0.00 348:  0.00 349:  0.00 350:  0.00 351:  0.00 352:  0.00
 353:  0.00 354:  0.00 355:  0.00 356:  0.00 357:  0.00 358:  0.00 359:  0.00 360:  0.00
 361:  0.00 362:  0.00 363:  0.00 364:  0.00 365:  0.00 366:  0.00 367:  0.00 368:  0.00
 369:  0.00 370:  0.00 371:  0.00 372:  0.00 373:  0.00 374:  0.00 375:  0.00 376:  0.00
 377:  0.00 378:  0.00 379:  0.00 380:  0.00 381:  0.00 382:  0.00 383:  0.00 384:  0.00
 385:  0.00 386:  0.00 387:  0.00 388:  0.00 389:  0.00 390:  0.00 391:  0.00 392:  0.00
 393:  0.00 394:  0.00 395:  0.00 396:  0.00 397:  0.00 398:  0.00 399:  0.00 400:  0.00
 401:  0.00 402:  0.00 403:  0.00 404:  0.00 405:  0.00 406:  0.00 407:  0.00 408:  0.00
 409:  0.00 410:  0.00 411:  0.00 412:  0.00 413:  0.00 414:  0.00 415:  0.00 416:  0.00
 417:  0.00 418:  0.00 419:  0.00 420:  0.00 421:  0.00 422:  0.00 423:  0.00 424:  0.00
 425:  0.00 426:  0.00 427:  0.00 428:  0.00 429:  0.00 430:  0.00 431:  0.00 432:  0.00
 433:  0.00 434:  0.00 435:  0.00 436:  0.00 437:  0.00 438:  0.00 439:  0.00 440:  0.00
 441:  0.00 442:  0.00 443:  0.00 444:  0.00 445:  0.00 446:  0.00 447:  0.00 448:  0.00
 449:  0.00 450:  0.00 451:  0.00 452:  0.00 453:  0.00 454:  0.00 455:  0.00 456:  0.00
 457:  0.00 458:  0.00 459:  0.00 460:  0.00 461:  0.00 462:  0.00 463:  0.00 464:  0.00
 465:  0.00 466:  0.00 467:  0.00 468:  0.00 469:  0.00 470:  0.00 471:  0.00 472:  0.00
 473:  0.00 474:  0.00 475:  0.00 476:  0.00 477:  0.00 478:  0.00 479:  0.00 480:  0.00
 481:  0.00 482:  0.00 483:  0.00 484:  0.00 485:  0.00 486:  0.00 487:  0.00 488:  0.00
 489:  0.00 490:  0.00 491:  0.00 492:  0.00 493:  0.00 494:  0.00 495:  0.00 496:  0.00
 497:  0.00 498:  0.00 499:  0.00 500:  0.00 501:  0.00 502:  0.00 503:  0.00 504:  0.00
 505:  0.00 506:  0.00 507:  0.00 508:  0.00 509:  0.00 510:  0.00 511:  0.00 512:  0.00
 513:  0.00 514:  0.00 515:  0.00 516:  0.00 517:  0.00 518:  0.00 519:  0.00 520:  0.00
 521:  0.00 522:  0.00 523:  0.00 524:  0.00 525:  0.00 526:  0.00 527:  0.00 528:  0.00
 529:  0.00 530:  0.00 531:  0.00 532:  0.00 533:  0.00 534:  0.00 535:  0.00 536:  0.00
 537:  0.00 538:  0.00 539:  0.00 540:  0.00 541:  0.00 542:  0.00 543:  0.00 544:  0.00
 545:  0.00 546:  0.00 547:  0.00 548:  0.00 549:  0.00 550:  0.00 551:  0.00 552:  0.00
 553:  0.00 554:  0.00 555:  0.00 556:  0.00 557:  0.00 558:  0.00 559:  0.00 560:  0.00
 561:  0.00 562:  0.00 563:  0.00 564:  0.00 565:  0.00 566:  0.00 567:  0.00 568:  0.00
 569:  0.00 570:  0.00 571:  0.00 572:  0.00 573:  0.00 574:  0.00 575:  0.00 576:  0.00
 577:  0.00 578:  0.00 579:  0.00 580:  0.00 581:  0.00 582:  0.00 583:  0.00 584:  0.00
 585:  0.00 586:  0.00 587:  0.00 588:  0.00 589:  0.00 590:  0.00 591:  0.00 592:  0.00
 593:  0.00 594:  0.00 595:  0.00 596:  0.00 597:  0.00 598:  0.00 599:  0.00 600:  0.00
 601:  0.00 602:  0.00 603:  0.00 604:  0.00 605:  0.00 606:  0.00 607:  0.00 608:  0.00
 609:  0.00 610:  0.00 611:  0.00 612:  0.00 613:  0.00 614:  0.00 615:  0.00 616:  0.00
 617:  0.00 618:  0.00 619:  0.00 620:  0.00 621:  0.00 622:  0.00 623:  0.00 624:  0.00
 625:  0.00 626:  0.00 627:  0.00 628:  0.00 629:  0.00 630:  0.00 631:  0.00 632:  0.00
 633:  0.00 634:  0.00 635:  0.00 636:  0.00 637:  0.00 638:  0.00 639:  0.00 640:  0.00
 641:  0.00 642:  0.00 643:  0.00 644:  0.00 645:  0.00 646:  0.00 647:  0.00 648:  0.00
 649:  0.00 650:  0.00 651:  0.00 652:  0.00 653:  0.00 654:  0.00 655:  0.00 656:  0.00
 657:  0.00 658:  0.00 659:  0.00 660:  0.00 661:  0.00 662:  0.00 663:  0.00 664:  0.00
 665:  0.00 666:  0.00 667:  0.00 668:  0.00 669:  0.00 670:  0.00 671:  0.00 672:  0.00
 673:  0.00 674:  0.00 675:  0.00 676:  0.00 677:  0.00 678:  0.00 679:  0.00 680:  0.00
 681:  0.00 682:  0.00 683:  0.00 684:  0.00 685:  0.00 686:  0.00 687:  0.00 688:  0.00
 689:  0.00 690:  0.00 691:  0.00 692:  0.00 693:  0.00 694:  0.00 695:  0.00 696:  0.00
 output can be read by thermo (or use thermo option).
 writing <g98.out> molden fake output.
 recommended (thermochemical) frequency scaling factor: 1.0
           -------------------------------------------------
          |             Thermodynamic Functions             |
           -------------------------------------------------
 symmetry recognition skipped because # atoms >         200
 inverting freq            1   7.2847107544452276     
 inverting freq            2   6.8492423119044528     
 inverting freq            3   6.6183817138107424     
 inverting freq            4   5.1553358964069060     
 inverting freq            5   4.1847203568719893     
 inverting freq            6   2.0461557229107199     

          ...................................................
          :                      SETUP                      :
          :.................................................:
          :  # frequencies                         689      :
          :  # imaginary freq.                       0      :
          :  linear?                             false      :
          :  only rotor calc.                    false      :
          :  symmetry                               C1      :
          :  rotational number                       1      :
          :  scaling factor                  1.0000000      :
          :  rotor cutoff                   50.0000000 cm⁻¹ :
          :  imag. cutoff                  -20.0000000 cm⁻¹ :
          :.................................................:

    mode    ω/cm⁻¹     T·S(HO)/kcal·mol⁻¹    T·S(FR)/kcal·mol⁻¹   T·S(vib)
   ------------------------------------------------------------------------
       1      7.28    -2.57617 (  0.05%)    -1.62718 ( 99.95%)    -1.62761
       2      6.85    -2.61268 (  0.04%)    -1.64545 ( 99.96%)    -1.64579
       3      6.62    -2.63300 (  0.03%)    -1.65560 ( 99.97%)    -1.65590
       4      5.16    -2.78100 (  0.01%)    -1.72961 ( 99.99%)    -1.72973
       5      4.18    -2.90458 (  0.00%)    -1.79140 (100.00%)    -1.79146
       6      2.05    -3.32848 (  0.00%)    -2.00336 (100.00%)    -2.00336
       7      2.60    -3.18543 (  0.00%)    -1.93183 (100.00%)    -1.93184
       8      4.28    -2.89097 (  0.01%)    -1.78459 ( 99.99%)    -1.78465
       9      4.33    -2.88416 (  0.01%)    -1.78119 ( 99.99%)    -1.78125
      10      5.98    -2.69294 (  0.02%)    -1.68558 ( 99.98%)    -1.68578
      11      6.96    -2.60313 (  0.04%)    -1.64067 ( 99.96%)    -1.64103
      12      7.30    -2.57529 (  0.05%)    -1.62675 ( 99.95%)    -1.62718
      13      7.70    -2.54331 (  0.06%)    -1.61075 ( 99.94%)    -1.61128
      14      8.39    -2.49272 (  0.08%)    -1.58545 ( 99.92%)    -1.58617
      15      9.49    -2.41919 (  0.13%)    -1.54869 ( 99.87%)    -1.54982
      16     10.82    -2.34178 (  0.22%)    -1.50997 ( 99.78%)    -1.51179
      17     12.18    -2.27150 (  0.35%)    -1.47482 ( 99.65%)    -1.47762
      18     13.92    -2.19240 (  0.60%)    -1.43526 ( 99.40%)    -1.43979
      19     16.43    -2.09451 (  1.15%)    -1.38630 ( 98.85%)    -1.39445
      20     17.28    -2.06447 (  1.41%)    -1.37127 ( 98.59%)    -1.38102
      21     22.23    -1.91538 (  3.76%)    -1.29666 ( 96.24%)    -1.31993
      22     22.76    -1.90143 (  4.12%)    -1.28968 ( 95.88%)    -1.31487
      23     23.27    -1.88833 (  4.48%)    -1.28313 ( 95.52%)    -1.31025
      24     23.56    -1.88098 (  4.70%)    -1.27945 ( 95.30%)    -1.30771
      25     23.72    -1.87693 (  4.82%)    -1.27742 ( 95.18%)    -1.30634
      26     25.13    -1.84273 (  6.00%)    -1.26030 ( 94.00%)    -1.29526
      27     25.38    -1.83708 (  6.22%)    -1.25747 ( 93.78%)    -1.29353
      28     25.93    -1.82433 (  6.74%)    -1.25109 ( 93.26%)    -1.28974
      29     29.20    -1.75406 ( 10.42%)    -1.21590 ( 89.58%)    -1.27197
      30     33.05    -1.68080 ( 16.03%)    -1.17920 ( 83.97%)    -1.25960
      31     35.04    -1.64627 ( 19.43%)    -1.16190 ( 80.57%)    -1.25600
      32     38.03    -1.59786 ( 25.07%)    -1.13763 ( 74.93%)    -1.25302
      33     39.96    -1.56854 ( 28.98%)    -1.12293 ( 71.02%)    -1.25207
      34     42.71    -1.52923 ( 34.75%)    -1.10321 ( 65.25%)    -1.25126
      35     44.49    -1.50512 ( 38.54%)    -1.09111 ( 61.46%)    -1.25068
      36     50.75    -1.42755 ( 51.48%)    -1.05215 ( 48.52%)    -1.24542
      37     50.89    -1.42594 ( 51.76%)    -1.05135 ( 48.24%)    -1.24522
      38     56.13    -1.36814 ( 61.37%)    -1.02228 ( 38.63%)    -1.23452
      39     75.82    -1.19145 ( 84.10%)    -0.93319 ( 15.90%)    -1.15038
      40     77.78    -1.17651 ( 85.42%)    -0.92564 ( 14.58%)    -1.13992
      41     84.44    -1.12848 ( 89.05%)    -0.90132 ( 10.95%)    -1.10361
      42     91.54    -1.08134 ( 91.83%)    -0.87739 (  8.17%)    -1.06467
      43     96.15    -1.05275 ( 93.18%)    -0.86285 (  6.82%)    -1.03981
      44     97.68    -1.04357 ( 93.57%)    -0.85818 (  6.43%)    -1.03166
      45     99.59    -1.03228 ( 94.03%)    -0.85242 (  5.97%)    -1.02153
      46     99.80    -1.03109 ( 94.07%)    -0.85181 (  5.93%)    -1.02046
      47    100.23    -1.02857 ( 94.17%)    -0.85053 (  5.83%)    -1.01819
      48    102.14    -1.01762 ( 94.57%)    -0.84495 (  5.43%)    -1.00824
      49    103.71    -1.00874 ( 94.87%)    -0.84042 (  5.13%)    -1.00012
      50    108.34    -0.98341 ( 95.66%)    -0.82747 (  4.34%)    -0.97664
      51    116.22    -0.94283 ( 96.69%)    -0.80668 (  3.31%)    -0.93832
      52    118.48    -0.93175 ( 96.93%)    -0.80099 (  3.07%)    -0.92772
      53    118.53    -0.93146 ( 96.93%)    -0.80084 (  3.07%)    -0.92745
      54    118.65    -0.93089 ( 96.94%)    -0.80055 (  3.06%)    -0.92691
      55    118.68    -0.93073 ( 96.95%)    -0.80047 (  3.05%)    -0.92675
      56    120.25    -0.92316 ( 97.10%)    -0.79657 (  2.90%)    -0.91949
      57    120.55    -0.92173 ( 97.13%)    -0.79584 (  2.87%)    -0.91811
      58    122.01    -0.91478 ( 97.26%)    -0.79227 (  2.74%)    -0.91142
      59    123.80    -0.90643 ( 97.41%)    -0.78796 (  2.59%)    -0.90336
      60    135.48    -0.85473 ( 98.18%)    -0.76126 (  1.82%)    -0.85303
      61    144.81    -0.81673 ( 98.60%)    -0.74153 (  1.40%)    -0.81568
      62    145.17    -0.81531 ( 98.61%)    -0.74079 (  1.39%)    -0.81428
      63    147.61    -0.80586 ( 98.70%)    -0.73586 (  1.30%)    -0.80495
      64    150.22    -0.79589 ( 98.79%)    -0.73066 (  1.21%)    -0.79510
      65    152.74    -0.78647 ( 98.86%)    -0.72574 (  1.14%)    -0.78578
      66    153.47    -0.78378 ( 98.89%)    -0.72433 (  1.11%)    -0.78311
      67    154.20    -0.78109 ( 98.91%)    -0.72292 (  1.09%)    -0.78046
      68    160.55    -0.75830 ( 99.07%)    -0.71097 (  0.93%)    -0.75786
      69    165.03    -0.74279 ( 99.16%)    -0.70281 (  0.84%)    -0.74246
      70    173.90    -0.71345 ( 99.32%)    -0.68730 (  0.68%)    -0.71327
      71    176.78    -0.70428 ( 99.36%)    -0.68244 (  0.64%)    -0.70414
      72    176.84    -0.70408 ( 99.36%)    -0.68233 (  0.64%)    -0.70395
      73    176.97    -0.70366 ( 99.37%)    -0.68211 (  0.63%)    -0.70353
      74    177.23    -0.70286 ( 99.37%)    -0.68168 (  0.63%)    -0.70273
      75    177.53    -0.70192 ( 99.37%)    -0.68118 (  0.63%)    -0.70179
      76    177.74    -0.70127 ( 99.38%)    -0.68083 (  0.62%)    -0.70114
      77    188.43    -0.66881 ( 99.51%)    -0.66352 (  0.49%)    -0.66878
      78    209.80    -0.60984 ( 99.68%)    -0.63170 (  0.32%)    -0.60991
      79    220.52    -0.58282 ( 99.74%)    -0.61693 (  0.26%)    -0.58291
      80    222.97    -0.57687 ( 99.75%)    -0.61366 (  0.25%)    -0.57696
      81    225.11    -0.57174 ( 99.76%)    -0.61084 (  0.24%)    -0.57184
      82    226.35    -0.56879 ( 99.76%)    -0.60921 (  0.24%)    -0.56888
      83    226.39    -0.56868 ( 99.76%)    -0.60915 (  0.24%)    -0.56878
      84    226.50    -0.56843 ( 99.76%)    -0.60902 (  0.24%)    -0.56853
      85    226.75    -0.56783 ( 99.76%)    -0.60868 (  0.24%)    -0.56793
      86    226.78    -0.56776 ( 99.76%)    -0.60864 (  0.24%)    -0.56786
      87    226.98    -0.56729 ( 99.77%)    -0.60838 (  0.23%)    -0.56739
      88    227.14    -0.56691 ( 99.77%)    -0.60818 (  0.23%)    -0.56701
      89    227.22    -0.56672 ( 99.77%)    -0.60807 (  0.23%)    -0.56682
      90    230.96    -0.55798 ( 99.78%)    -0.60324 (  0.22%)    -0.55808
      91    231.26    -0.55729 ( 99.78%)    -0.60285 (  0.22%)    -0.55739
      92    232.48    -0.55448 ( 99.79%)    -0.60129 (  0.21%)    -0.55458
      93    233.99    -0.55102 ( 99.79%)    -0.59938 (  0.21%)    -0.55113
      94    234.15    -0.55065 ( 99.79%)    -0.59917 (  0.21%)    -0.55075
      95    234.30    -0.55032 ( 99.79%)    -0.59898 (  0.21%)    -0.55042
      96    234.37    -0.55015 ( 99.79%)    -0.59889 (  0.21%)    -0.55025
      97    237.27    -0.54360 ( 99.80%)    -0.59525 (  0.20%)    -0.54370
      98    237.50    -0.54308 ( 99.80%)    -0.59496 (  0.20%)    -0.54318
      99    239.33    -0.53901 ( 99.81%)    -0.59269 (  0.19%)    -0.53911
     100    241.03    -0.53525 ( 99.82%)    -0.59059 (  0.18%)    -0.53536
     101    243.18    -0.53056 ( 99.82%)    -0.58796 (  0.18%)    -0.53066
     102    245.09    -0.52642 ( 99.83%)    -0.58564 (  0.17%)    -0.52652
     103    245.64    -0.52524 ( 99.83%)    -0.58498 (  0.17%)    -0.52534
     104    246.00    -0.52447 ( 99.83%)    -0.58455 (  0.17%)    -0.52457
     105    246.28    -0.52387 ( 99.83%)    -0.58421 (  0.17%)    -0.52398
     106    246.49    -0.52341 ( 99.83%)    -0.58395 (  0.17%)    -0.52351
     107    246.79    -0.52277 ( 99.83%)    -0.58360 (  0.17%)    -0.52288
     108    247.13    -0.52206 ( 99.83%)    -0.58319 (  0.17%)    -0.52216
     109    247.40    -0.52146 ( 99.83%)    -0.58286 (  0.17%)    -0.52157
     110    254.57    -0.50648 ( 99.85%)    -0.57440 (  0.15%)    -0.50658
     111    269.60    -0.47667 ( 99.88%)    -0.55740 (  0.12%)    -0.47676
     112    269.78    -0.47632 ( 99.88%)    -0.55721 (  0.12%)    -0.47642
     113    270.22    -0.47549 ( 99.88%)    -0.55673 (  0.12%)    -0.47559
     114    270.42    -0.47512 ( 99.88%)    -0.55651 (  0.12%)    -0.47521
     115    270.58    -0.47481 ( 99.88%)    -0.55634 (  0.12%)    -0.47491
     116    270.94    -0.47412 ( 99.88%)    -0.55594 (  0.12%)    -0.47421
     117    271.12    -0.47378 ( 99.88%)    -0.55575 (  0.12%)    -0.47388
     118    271.41    -0.47322 ( 99.88%)    -0.55542 (  0.12%)    -0.47332
     119    271.66    -0.47275 ( 99.89%)    -0.55515 (  0.11%)    -0.47285
     120    272.06    -0.47199 ( 99.89%)    -0.55471 (  0.11%)    -0.47208
     121    272.32    -0.47150 ( 99.89%)    -0.55443 (  0.11%)    -0.47160
     122    272.37    -0.47141 ( 99.89%)    -0.55438 (  0.11%)    -0.47151
     123    275.38    -0.46577 ( 99.89%)    -0.55112 (  0.11%)    -0.46586
     124    283.44    -0.45105 ( 99.90%)    -0.54258 (  0.10%)    -0.45113
     125    285.05    -0.44817 ( 99.91%)    -0.54090 (  0.09%)    -0.44826
     126    287.37    -0.44407 ( 99.91%)    -0.53850 (  0.09%)    -0.44415
     127    290.24    -0.43905 ( 99.91%)    -0.53556 (  0.09%)    -0.43914
     128    292.80    -0.43461 ( 99.92%)    -0.53295 (  0.08%)    -0.43470
   ------------------------------------------------------------------------

   temp. (K)  partition function   enthalpy   heat capacity  entropy
                                   cal/mol     cal/K/mol   cal/K/mol   J/K/mol
 298.15  VIB  0.105E+76            83970.128    538.090    534.439
         ROT  0.101E+11              888.752      2.981     48.755
         INT  0.106E+86            84858.880    541.070    583.194
         TR   0.116E+30             1481.254      4.968     49.209
         TOT                       86340.1339   546.0386   632.4031  2645.9747

       T/K    H(0)-H(T)+PV         H(T)/Eh          T*S/Eh         G(T)/Eh
   ------------------------------------------------------------------------
    298.15    0.137592E+00    0.172608E+01    0.300475E+00    0.142560E+01
   ------------------------------------------------------------------------

         :::::::::::::::::::::::::::::::::::::::::::::::::::::
         ::                  THERMODYNAMIC                  ::
         :::::::::::::::::::::::::::::::::::::::::::::::::::::
         :: total free energy        -429.095880134551 Eh   ::
         ::.................................................::
         :: total energy             -430.521480259724 Eh   ::
         :: zero point energy           1.588483493905 Eh   ::
         :: G(RRHO) w/o ZPVE           -0.162883368732 Eh   ::
         :: G(RRHO) contrib.            1.425600125173 Eh   ::
         :::::::::::::::::::::::::::::::::::::::::::::::::::::
imag cut-off (cm-1) :    5.00
 found            4  significant imaginary frequencies
 writing imag mode distorted coords to xtbhess.xyz
 for further optimization.

optimized geometry written to: xtbopt.xyz


           -------------------------------------------------
          | TOTAL ENERGY             -430.521480259724 Eh   |
          | TOTAL ENTHALPY           -428.795405004414 Eh   |
          | TOTAL FREE ENERGY        -429.095880134551 Eh   |
          | GRADIENT NORM               0.000694797491 Eh/α |
          | HOMO-LUMO GAP               0.940113371328 eV   |
           -------------------------------------------------

------------------------------------------------------------------------
 * finished run on 2021/11/20 at 01:55:39.450     
------------------------------------------------------------------------
 total:
 * wall-time:     0 d,  0 h, 33 min, 39.504 sec
 *  cpu-time:     0 d,  0 h, 33 min, 39.509 sec
 * ratio c/w:     1.000 speedup
 SCF:
 * wall-time:     0 d,  0 h,  0 min, 36.915 sec
 *  cpu-time:     0 d,  0 h,  0 min, 36.915 sec
 * ratio c/w:     1.000 speedup
 ANC optimizer:
 * wall-time:     0 d,  0 h,  3 min,  1.707 sec
 *  cpu-time:     0 d,  0 h,  3 min,  1.691 sec
 * ratio c/w:     1.000 speedup
 analytical hessian:
 * wall-time:     0 d,  0 h, 30 min,  0.546 sec
 *  cpu-time:     0 d,  0 h, 30 min,  0.567 sec
 * ratio c/w:     1.000 speedup

