232
 energy: -428.843430464076 gnorm: 0.928197343353 xtb: 6.4.1 (bd6e46d)
Ni       34.82588100000000    0.04286800000000   -0.01312800000000
C        37.15487200000000   -3.10392600000000    1.30956100000000
C        38.07097900000000   -2.15971800000000    1.25927900000000
C        37.65980000000000   -1.10581400000000    0.33798700000000
C        38.27867000000000    0.01853200000000   -0.00842300000000
C        37.57462800000000    1.23848000000000   -0.37252800000000
C        37.90273900000000    2.19853500000000   -1.22000200000000
C        36.86795900000000    3.21482100000000   -1.23689900000000
C        35.93169100000001    2.83835900000000   -0.39000800000000
N        36.33368100000000    1.60534800000000    0.17380900000000
C        34.67061700000000    3.48335800000000   -0.01085600000000
C        33.57539900000000    2.84857500000000    0.33990400000000
C        32.50177400000000    3.16653100000000    1.30893200000000
C        31.66421100000000    2.16977700000000    1.23176600000000
C        32.10250800000000    1.16609400000000    0.25131400000000
N        33.20744700000000    1.60494700000000   -0.23297800000000
C        31.49167400000000   -0.08717700000000   -0.16223400000000
C        32.15583400000000   -1.19168300000000   -0.41665800000000
C        31.78198500000000   -2.25462500000000   -1.37418600000000
C        32.73073300000000   -3.14838000000000   -1.28516600000000
C        33.71645700000000   -2.71093100000000   -0.30228900000000
N        33.36341100000000   -1.56512600000000    0.19450800000000
C        34.94734400000000   -3.36700100000000    0.14343200000000
C        36.07038600000000   -2.72114000000000    0.41055300000000
N        36.39898600000001   -1.47369900000000   -0.18785000000000
H        37.21513400000001   -4.01370600000000    1.92710800000000
H        38.98730700000000   -2.19966700000000    1.83732700000000
H        38.83010400000000    2.21533100000000   -1.82114500000000
H        36.88485800000000    4.11950900000000   -1.84952100000000
H        34.62289400000000    4.57816100000000   -0.01463300000000
H        32.44895200000000    4.04525600000000    1.93392500000000
H        30.75258100000000    2.13410800000000    1.84909000000000
H        30.39342300000000   -0.08426600000000   -0.26150500000000
H        30.91313000000000   -2.30709000000000   -2.02313600000000
H        32.72788700000000   -4.06468900000000   -1.88392600000000
H        34.91186200000000   -4.46280300000000    0.25535700000000
Ni      104.76176300000002   -0.00450900000000   -0.01756100000000
C       102.43277200000001    2.84228300000000    1.86594400000000
C       101.51666500000002    1.92379400000000    1.64137100000000
C       101.92784500000000    1.05909700000000    0.54055600000000
C       101.30897400000001    0.01853200000000   -0.00842300000000
C       102.01301599999999   -1.11269300000000   -0.59252600000000
C       101.68490600000000   -1.89886400000000   -1.60339200000000
C       102.71968600000001   -2.89437400000000   -1.80853300000000
C       103.65595399999999   -2.68155700000000   -0.90650200000000
N       103.25396300000000   -1.57454600000000   -0.12373100000000
C       104.91702800000000   -3.38569800000000   -0.65358900000000
C       106.01224499999999   -2.82700600000000   -0.19115600000000
C       107.08587100000000   -3.31921100000000    0.70206600000000
C       107.92343400000000   -2.32544400000000    0.81115100000000
C       107.48513600000000   -1.15729500000000    0.03391600000000
N       106.38019800000001   -1.49868700000000   -0.52338300000000
C       108.09597100000001    0.15094000000000   -0.13995400000000
C       107.43181000000000    1.28347300000000   -0.18506000000000
C       107.80565900000001    2.50559900000000   -0.92877500000000
C       106.85691200000001    3.36732600000000   -0.67549600000000
C       105.87118800000000    2.75513200000000    0.20916700000000
N       106.22423400000000    1.53705300000000    0.48477700000000
C       104.64030000000000    3.31712600000000    0.76886200000000
C       103.51725900000000    2.63292100000000    0.91152900000000
N       103.18865800000000    1.51814600000000    0.09209500000000
H       102.37251000000002    3.62170800000000    2.64154800000000
H       100.60033800000001    1.85581300000000    2.21679600000000
H       100.75754100000002   -1.80384800000000   -2.19721700000000
H       102.70278700000000   -3.66970800000000   -2.57835300000000
H       104.96475100000002   -4.46079600000000   -0.86040300000000
H       107.13869200000001   -4.29862800000000    1.15319300000000
H       108.83506400000000   -2.40491600000000    1.42437700000000
H       109.19422100000001    0.16649600000000   -0.23804100000000
H       108.67451500000001    2.67754300000000   -1.55672700000000
H       106.85975800000000    4.37880700000000   -1.09387400000000
H       104.67578200000000    4.37314200000000    1.08213100000000
C        41.17337400000000    0.01649600000000   -0.00953500000000
C        42.38135100000000    0.02395100000000   -0.00784000000000
C        43.80011900000000    0.02464800000000   -0.00270300000000
C        45.01563500000000    0.01649600000000   -0.00953500000000
C        54.52352500000001    0.01649600000000   -0.00953500000000
C        55.73150100000000    0.02395100000000   -0.00784000000000
C        57.15026900000000    0.02464800000000   -0.00270300000000
C        58.36578600000001    0.01649600000000   -0.00953500000000
C        67.87367500000001    0.01649600000000   -0.00953500000000
C        69.08165200000001    0.02395100000000   -0.00784000000000
C        70.50042000000001    0.02464800000000   -0.00270300000000
C        71.71593600000000    0.01649600000000   -0.00953500000000
C        81.22382500000001    0.01649600000000   -0.00953500000000
C        82.43180200000000    0.02395100000000   -0.00784000000000
C        83.85057000000000    0.02464800000000   -0.00270300000000
C        85.06608700000000    0.01649600000000   -0.00953500000000
C        94.57397600000002    0.01649600000000   -0.00953500000000
C        95.78195300000000    0.02395100000000   -0.00784000000000
C        97.20072100000000    0.02464800000000   -0.00270300000000
C        98.41623700000000    0.01649600000000   -0.00953500000000
Ni       49.80421700000001    0.03663200000000    0.00260400000000
C        47.52440600000001   -3.22481500000000   -0.90706200000000
C        46.56819700000000   -2.32546500000000   -1.00908800000000
C        46.96057100000000   -1.16316000000000   -0.20657200000000
C        46.32545400000000   -0.01188700000000    0.00569400000000
C        47.01091100000000    1.26271200000000    0.23192300000000
C        46.67562100000000    2.34131200000000    0.93616300000000
C        47.70016200000000    3.36062900000000    0.84558200000000
C        48.65076000000000    2.86370400000000    0.07221700000000
N        48.27376500000000    1.54709900000000   -0.34392600000000
C        49.89789900000000    3.47540600000000   -0.34464800000000
C        50.99945100000000    2.80814900000000   -0.67642000000000
C        51.99299700000001    3.06013300000000   -1.71059000000000
C        52.88688000000000    2.09927400000000   -1.60910600000000
C        52.50718200000001    1.18739000000000   -0.50512900000000
N        51.41226700000000    1.63670900000000    0.00223800000000
C        53.16438900000000   -0.01188700000000    0.00569400000000
C        52.54097800000001   -1.08106900000000    0.46721100000000
C        52.91969000000001   -2.01318500000000    1.54268600000000
C        51.97902200000000   -2.92733100000000    1.62855200000000
C        50.97072000000000   -2.63155200000000    0.63112500000000
N        51.30849500000000   -1.57817400000000   -0.01817000000000
C        49.71832700000001   -3.33855900000000    0.29993200000000
C        48.60445100000000   -2.74186300000000   -0.04741000000000
N        48.22233800000001   -1.45910500000000    0.37027300000000
H        47.52475000000000   -4.21588900000000   -1.39829600000000
H        45.65966200000000   -2.44715900000000   -1.59023600000000
H        45.75076900000000    2.45966400000000    1.51308900000000
H        47.72745700000000    4.34979300000000    1.30223200000000
H        49.98383900000001    4.57278400000000   -0.40667100000000
H        52.02567000000000    3.86634900000000   -2.43741400000000
H        53.77994200000001    1.98630600000000   -2.24288000000000
H        53.83444100000000   -1.93877800000000    2.15285600000000
H        51.99806800000000   -3.74093900000000    2.33682000000000
H        49.75681200000000   -4.43851800000000    0.35896800000000
Ni       63.15436700000001    0.03663200000000    0.00260400000000
C        60.87455600000000   -3.22481500000000   -0.90706200000000
C        59.91834700000000   -2.32546500000000   -1.00908800000000
C        60.31072100000000   -1.16316000000000   -0.20657200000000
C        59.67560500000000   -0.01188700000000    0.00569400000000
C        60.36106200000000    1.26271200000000    0.23192300000000
C        60.02577100000000    2.34131200000000    0.93616300000000
C        61.05031300000001    3.36062900000000    0.84558200000000
C        62.00091000000000    2.86370400000000    0.07221700000000
N        61.62391600000000    1.54709900000000   -0.34392600000000
C        63.24805000000001    3.47540600000000   -0.34464800000000
C        64.34960100000001    2.80814900000000   -0.67642000000000
C        65.34314800000000    3.06013300000000   -1.71059000000000
C        66.23703100000000    2.09927400000000   -1.60910600000000
C        65.85733300000000    1.18739000000000   -0.50512900000000
N        64.76241700000000    1.63670900000000    0.00223800000000
C        66.51454000000000   -0.01188700000000    0.00569400000000
C        65.89112799999999   -1.08106900000000    0.46721100000000
C        66.26984100000000   -2.01318500000000    1.54268600000000
C        65.32917200000000   -2.92733100000000    1.62855200000000
C        64.32087100000000   -2.63155200000000    0.63112500000000
N        64.65864600000000   -1.57817400000000   -0.01817000000000
C        63.06847800000000   -3.33855900000000    0.29993200000000
C        61.95460100000000   -2.74186300000000   -0.04741000000000
N        61.57248900000000   -1.45910500000000    0.37027300000000
H        60.87490100000000   -4.21588900000000   -1.39829600000000
H        59.00981300000001   -2.44715900000000   -1.59023600000000
H        59.10091900000000    2.45966400000000    1.51308900000000
H        61.07760700000000    4.34979300000000    1.30223200000000
H        63.33398900000001    4.57278400000000   -0.40667100000000
H        65.37582000000000    3.86634900000000   -2.43741400000000
H        67.13009200000000    1.98630600000000   -2.24288000000000
H        67.18459100000000   -1.93877800000000    2.15285600000000
H        65.34821900000000   -3.74093900000000    2.33682000000000
H        63.10696200000000   -4.43851800000000    0.35896800000000
Ni       76.50451700000001    0.03663200000000    0.00260400000000
C        74.22470700000000   -3.22481500000000   -0.90706200000000
C        73.26849700000000   -2.32546500000000   -1.00908800000000
C        73.66087200000000   -1.16316000000000   -0.20657200000000
C        73.02575500000000   -0.01188700000000    0.00569400000000
C        73.71121200000000    1.26271200000000    0.23192300000000
C        73.37592200000000    2.34131200000000    0.93616300000000
C        74.40046300000000    3.36062900000000    0.84558200000000
C        75.35106000000000    2.86370400000000    0.07221700000000
N        74.97406599999999    1.54709900000000   -0.34392600000000
C        76.59820000000001    3.47540600000000   -0.34464800000000
C        77.69975200000000    2.80814900000000   -0.67642000000000
C        78.69329800000001    3.06013300000000   -1.71059000000000
C        79.58718100000000    2.09927400000000   -1.60910600000000
C        79.20748300000000    1.18739000000000   -0.50512900000000
N        78.11256800000000    1.63670900000000    0.00223800000000
C        79.86469000000000   -0.01188700000000    0.00569400000000
C        79.24127900000001   -1.08106900000000    0.46721100000000
C        79.61999100000000   -2.01318500000000    1.54268600000000
C        78.67932300000000   -2.92733100000000    1.62855200000000
C        77.67102100000000   -2.63155200000000    0.63112500000000
N        78.00879600000000   -1.57817400000000   -0.01817000000000
C        76.41862800000000   -3.33855900000000    0.29993200000000
C        75.30475100000001   -2.74186300000000   -0.04741000000000
N        74.92263900000000   -1.45910500000000    0.37027300000000
H        74.22505099999999   -4.21588900000000   -1.39829600000000
H        72.35996299999999   -2.44715900000000   -1.59023600000000
H        72.45107000000000    2.45966400000000    1.51308900000000
H        74.42775800000000    4.34979300000000    1.30223200000000
H        76.68414000000000    4.57278400000000   -0.40667100000000
H        78.72597000000002    3.86634900000000   -2.43741400000000
H        80.48024300000000    1.98630600000000   -2.24288000000000
H        80.53474199999999   -1.93877800000000    2.15285600000000
H        78.69836900000000   -3.74093900000000    2.33682000000000
H        76.45711300000001   -4.43851800000000    0.35896800000000
Ni       89.85466800000000    0.03663200000000    0.00260400000000
C        87.57485699999999   -3.22481500000000   -0.90706200000000
C        86.61864799999999   -2.32546500000000   -1.00908800000000
C        87.01102200000000   -1.16316000000000   -0.20657200000000
C        86.37590500000000   -0.01188700000000    0.00569400000000
C        87.06136300000001    1.26271200000000    0.23192300000000
C        86.72607200000000    2.34131200000000    0.93616300000000
C        87.75061400000000    3.36062900000000    0.84558200000000
C        88.70121100000000    2.86370400000000    0.07221700000000
N        88.32421700000000    1.54709900000000   -0.34392600000000
C        89.94835000000000    3.47540600000000   -0.34464800000000
C        91.04990200000000    2.80814900000000   -0.67642000000000
C        92.04344900000001    3.06013300000000   -1.71059000000000
C        92.93733200000000    2.09927400000000   -1.60910600000000
C        92.55763400000001    1.18739000000000   -0.50512900000000
N        91.46271800000000    1.63670900000000    0.00223800000000
C        93.21484100000001   -0.01188700000000    0.00569400000000
C        92.59142900000001   -1.08106900000000    0.46721100000000
C        92.97014200000000   -2.01318500000000    1.54268600000000
C        92.02947300000000   -2.92733100000000    1.62855200000000
C        91.02117200000001   -2.63155200000000    0.63112500000000
N        91.35894700000001   -1.57817400000000   -0.01817000000000
C        89.76877899999999   -3.33855900000000    0.29993200000000
C        88.65490200000001   -2.74186300000000   -0.04741000000000
N        88.27279000000000   -1.45910500000000    0.37027300000000
H        87.57520200000000   -4.21588900000000   -1.39829600000000
H        85.71011300000001   -2.44715900000000   -1.59023600000000
H        85.80122000000000    2.45966400000000    1.51308900000000
H        87.77790800000000    4.34979300000000    1.30223200000000
H        90.03429000000000    4.57278400000000   -0.40667100000000
H        92.07612100000000    3.86634900000000   -2.43741400000000
H        93.83039300000000    1.98630600000000   -2.24288000000000
H        93.88489199999999   -1.93877800000000    2.15285600000000
H        92.04852000000001   -3.74093900000000    2.33682000000000
H        89.80726300000001   -4.43851800000000    0.35896800000000
232
 energy: -429.220191122367 gnorm: 0.536346799822 xtb: 6.4.1 (bd6e46d)
Ni       34.83373590600856    0.04135170377970   -0.01209094332772
C        37.15514395334337   -3.11276480667272    1.30221241845103
C        38.08410677292053   -2.15893022201212    1.25697793135396
C        37.65492194636283   -1.10900731744115    0.34280363744564
C        38.26145591570767    0.03850931535659   -0.01023132039285
C        37.56278476778675    1.23184116163107   -0.36488658509331
C        37.91413900414565    2.22551297082129   -1.23696206547791
C        36.89703034878769    3.21670275254530   -1.25004176276761
C        35.92412318730510    2.81549823457953   -0.38270713478373
N        36.30689308395993    1.58248436398612    0.17320143395984
C        34.68822743298104    3.48360164631859   -0.01138539723890
C        33.56557312188239    2.83389948001290    0.34077043182196
C        32.50321581550714    3.17426826327565    1.29391646048775
C        31.64039926953843    2.16281492932401    1.23490230271224
C        32.09801443908121    1.16603639109125    0.26599874583649
N        33.24338733421949    1.58223067106033   -0.21497390443932
C        31.47972967618890   -0.06708757055359   -0.15622866902639
C        32.15979513280707   -1.19538174774740   -0.42113449747895
C        31.77366896117911   -2.25413097396343   -1.36201599224572
C        32.73751424142101   -3.16794870109212   -1.28329952767269
C        33.72596487161951   -2.71890041976429   -0.30926348218265
N        33.37843137908250   -1.53942786361605    0.17034329590842
C        34.93036800159764   -3.37422066534112    0.13670694723556
C        36.07605810080169   -2.70616237532112    0.41297342946960
N        36.38856231366540   -1.46384204721456   -0.16124243478969
H        37.20794834510186   -4.00877557643652    1.92007862115702
H        38.99110996164943   -2.19158888084159    1.83506255002149
H        38.82761139449256    2.22278982161512   -1.82254245189065
H        36.89082902962786    4.11635438938595   -1.85040135070841
H        34.63632623543761    4.57492473404526   -0.00896431603695
H        32.45488287627073    4.04384241087899    1.92878467981329
H        30.74909243926265    2.12621038729963    1.84796940172536
H        30.39448592785011   -0.07738210398388   -0.26641792280344
H        30.91488624035499   -2.29908166810830   -2.01677569518184
H        32.73717290223313   -4.06784147087344   -1.88092319717186
H        34.90793636850843   -4.45953096678076    0.25583209184810
Ni      104.75391138150044   -0.00320450315042   -0.01626665764923
C       102.43251225146946    2.85233020232174    1.86036616801835
C       101.50355483961525    1.92344654999874    1.63895379353101
C       101.93271238135607    1.06134556008368    0.54588071604517
C       101.32598603207488   -0.00079532279675   -0.01376739414682
C       102.02486277310447   -1.10759590618800   -0.58379761002752
C       101.67351135197819   -1.92222026375323   -1.62502173370968
C       102.69063970866492   -2.89379446544454   -1.82178234282441
C       103.66352635742004   -2.66046560591934   -0.89510297913017
N       103.28073499945492   -1.55194119594028   -0.12012023379903
C       104.89941185558044   -3.38585004260797   -0.65415440336792
C       106.02207043240058   -2.81274220676244   -0.18757555482014
C       107.08442330356746   -3.32402527369740    0.68587015538089
C       107.94724291472838   -2.31917580577732    0.81552331211004
C       107.48963234880593   -1.15996424076301    0.04835630090581
N       106.34425841781865   -1.47971459015044   -0.50148082217257
C       108.10791373811682    0.13008385179197   -0.13777801590053
C       107.42784643218833    1.28793757294600   -0.18877231901986
C       107.81397237579787    2.50285442284112   -0.91690734869315
C       106.85012941900183    3.38620913291349   -0.67003104118814
C       105.86167774609505    2.76425605883215    0.20379385279926
N       106.20921557926839    1.51628611519972    0.45627028116076
C       104.65727480375453    3.32547276301089    0.76359020672624
C       103.51158062687264    2.61775395228920    0.91112175045522
N       103.19908163517809    1.50349916263066    0.11643620264532
H       102.37969295174791    3.61816844573353    2.63372510266097
H       100.59653817748185    1.84831431639748    2.21307224378926
H       100.76004307986818   -1.81090207666523   -2.19998124224868
H       102.69682575092067   -3.66645024086776   -2.57864123652099
H       104.95132569013779   -4.45867790652248   -0.85424011258078
H       107.13276178247122   -4.29628711862258    1.14840342133607
H       108.83855403889294   -2.39694705377935    1.42474038281799
H       109.19315804142347    0.16064378493586   -0.24414533072430
H       108.67275778989821    2.66849340310569   -1.55196214530025
H       106.85047033544200    4.38134827876156   -1.09033758216236
H       104.67970494746686    4.36984168043044    1.08199018352322
C        41.16387044378411    0.01672885145643   -0.00851070243069
C        42.38479155173218    0.02413971136084   -0.00792347640325
C        43.77244918282085    0.02524279752103   -0.00279663441273
C        44.99010220846198    0.02397860932734   -0.01185510617745
C        54.53964163513026    0.02307776017599   -0.00652036723241
C        55.75418675667881    0.02440649516966   -0.00647951826866
C        57.12607482239527    0.02512294914160   -0.00327934620427
C        58.34183015119487    0.02384782283866   -0.01267420555711
C        67.88974346366221    0.02313146473513   -0.00634415299021
C        69.10430552473510    0.02442195343174   -0.00642881591701
C        70.47623856122219    0.02512040914948   -0.00330296965051
C        71.69195528509785    0.02383034472202   -0.01273408988913
C        81.23984180603706    0.02312888173220   -0.00634038418858
C        82.45451689263258    0.02443501773201   -0.00639084855366
C        83.82632261004169    0.02511733802540   -0.00329905978308
C        85.04210793227845    0.02380190254840   -0.01278070383534
C        94.59259181524925    0.02330032419412   -0.00634469987497
C        95.80877668462522    0.02429801402838   -0.00674859177274
C        97.19982675200350    0.02403957128084   -0.00302482302807
C        98.42112142727896    0.01619402060229   -0.00920006606567
Ni       49.79786501822133    0.03819938921434    0.00162052849589
C        47.52552797793020   -3.24231705872774   -0.90087193259980
C        46.56292733352524   -2.32447533069730   -1.00192931185708
C        46.98720409459470   -1.17784076739692   -0.20930637085491
C        46.34076890828892    0.00673931861683    0.00536466225097
C        47.03927961000374    1.26502140630933    0.22882823319227
C        46.66701895260983    2.36701239011705    0.94673009738465
C        47.67642549053764    3.36215130350478    0.85296601666484
C        48.66227121338489    2.84364356802038    0.06737063982613
N        48.30074817343311    1.53080396449393   -0.33043943328263
C        49.88417274401130    3.47630275472908   -0.34584041896301
C        51.00749273275152    2.79643699926994   -0.67707302124556
C        51.99864053162457    3.06753884547122   -1.69936480079356
C        52.90615743070162    2.08850459513331   -1.60793034379690
C        52.50720176683194    1.18665778660269   -0.52033386416461
N        51.37621888458992    1.61599260389555   -0.01464751897573
C        53.16766902794135    0.00429185260776   -0.00262197459888
C        52.52497414933026   -1.09366192888742    0.47476070843290
C        52.93161178710606   -2.01215544025355    1.53369693139926
C        51.97545227906899   -2.94236017623333    1.62839189896443
C        50.95987364820530   -2.63814838623473    0.63899352776702
N        51.28989201540357   -1.54254074397103   -0.00671389668722
C        49.73779979867321   -3.34647623042274    0.30878471370512
C        48.59321521246078   -2.72946794922398   -0.05448999900853
N        48.23827674944104   -1.44288043012196    0.33981611376798
H        47.52912150428210   -4.21264219610256   -1.39498917968752
H        45.66069309674745   -2.43838503080011   -1.58623468341294
H        45.75063540459480    2.46325785527397    1.51410948119095
H        47.71802647131577    4.34454494949215    1.30415741079638
H        49.96917991507568    4.56785618543530   -0.41150080360832
H        52.01937346973375    3.86479013826062   -2.43050252922511
H        53.78010177686836    1.98066244576971   -2.24002187965476
H        53.82940068576428   -1.93432893995299    2.14576895874804
H        51.99168497906673   -3.74611826716647    2.33757390382049
H        49.76178765779100   -4.43661593047157    0.35689102635422
Ni       63.14729540535782    0.03800122982245    0.00162663819877
C        60.87535342937067   -3.24212879266861   -0.90114163132520
C        59.91271238864273   -2.32506095466669   -1.00146857734784
C        60.33738440430076   -1.17753303706234   -0.20869071903599
C        59.69215038280063    0.00639244481479    0.00522157922710
C        60.38955693604357    1.26526961228320    0.22876557474854
C        60.01711603221382    2.36706115523896    0.94667413310997
C        61.02650400404710    3.36205873328252    0.85298609057925
C        62.01264957783353    2.84332280671116    0.06729622103828
N        61.65157848760376    1.53048229086669   -0.32996811403502
C        63.23427073209325    3.47617088712508   -0.34573947290628
C        64.35768488699283    2.79626303783888   -0.67706275752665
C        65.34881442009709    3.06756038064144   -1.69939655557737
C        66.25632894033917    2.08855828458706   -1.60795036194675
C        65.85699909633591    1.18666405773012   -0.52045612169347
N        64.72620258656880    1.61577804784885   -0.01496129246098
C        66.51769917330265    0.00412259565121   -0.00257904129887
C        65.87508870554581   -1.09363453392311    0.47457680263970
C        66.28179578198208   -2.01225820445120    1.53379901118433
C        65.32583260879633   -2.94241968302532    1.62834033920955
C        64.31000299028096   -2.63762987164558    0.63908795063637
N        64.63978918137913   -1.54227693282478   -0.00640599608119
C        63.08776179563091   -3.34633273455453    0.30867725919728
C        61.94383928659808   -2.72905797690506   -0.05438379040742
N        61.58953612340743   -1.44264855503196    0.33947639905830
H        60.87917274670355   -4.21260042862326   -1.39498047703481
H        59.01082503565443   -2.43848649372967   -1.58632558531551
H        59.10079770023658    2.46330522906024    1.51417233065520
H        61.06810265536495    4.34454842454036    1.30403045821162
H        63.31932127273205    4.56778590535801   -0.41145303995578
H        65.36953569875628    3.86480731502725   -2.43049234484642
H        67.13025267077310    1.98067262196507   -2.23999407770864
H        67.17957046167791   -1.93436084800233    2.14577893496532
H        65.34183135437434   -3.74609350588386    2.33757734357066
H        63.11193147592900   -4.43651132248534    0.35675696880754
Ni       76.49736972299930    0.03797282814760    0.00161038994688
C        74.22547344150412   -3.24211160747530   -0.90116437499556
C        73.26284005528674   -2.32511404545805   -1.00143635593428
C        73.68751518804174   -1.17747319379932   -0.20867588540200
C        73.04232590643403    0.00636375146951    0.00519717732261
C        73.73965665315619    1.26530073423991    0.22881618501357
C        73.36724817112631    2.36703443012389    0.94667178777738
C        74.37667222898901    3.36203293857360    0.85299668191615
C        75.36280765521026    2.84329646659947    0.06730033274857
N        75.00178003270997    1.53048848401735   -0.32993566902312
C        76.58443297541341    3.47616583354966   -0.34575028270808
C        77.70783754663773    2.79629317830854   -0.67706363386086
C        78.69897088370163    3.06758773270592   -1.69938311254078
C        79.60645509927802    2.08854603610367   -1.60797047823764
C        79.20708502621751    1.18668382375550   -0.52047738883858
N        78.07639666489058    1.61576701774827   -0.01497728264575
C        79.86792145221440    0.00408483987042   -0.00257224753326
C        79.22526613832044   -1.09366093204151    0.47456699092594
C        79.63193466100526   -2.01221927293412    1.53380059822187
C        78.67597547338021   -2.94243565783000    1.62831449705523
C        77.66019785963358   -2.63759198313663    0.63914115935583
N        77.98996124991024   -1.54228046161398   -0.00636307701159
C        76.43784186376871   -3.34633985442801    0.30865828913340
C        75.29403535764328   -2.72906524444729   -0.05433767461781
N        74.93976770880046   -1.44259843333987    0.33946933488698
H        74.22931176038031   -4.21259896815681   -1.39498070159528
H        72.36097425788677   -2.43849604701729   -1.58634156017783
H        72.45094131383802    2.46330685298691    1.51418630698256
H        74.41824950848302    4.34454976583404    1.30401255532287
H        76.66946715088010    4.56778396631593   -0.41147751218627
H        78.71968920640762    3.86481465301794   -2.43049218224504
H        80.48039729479670    1.98067079970992   -2.23997785279657
H        80.52971933133186   -1.93435975808772    2.14576251378075
H        78.69196924378916   -3.74609009184442    2.33757309433949
H        76.46208205273633   -4.43651267315550    0.35670647815476
Ni       89.84754940642340    0.03790140939547    0.00149400265959
C        87.57561245148000   -3.24212590821550   -0.90115805260164
C        86.61304746226520   -2.32511051073362   -1.00144677110792
C        87.03758290204256   -1.17742727741624   -0.20865757335301
C        86.39236432895036    0.00634204275480    0.00517369884124
C        87.08949254248506    1.26547436456543    0.22893902233544
C        86.71729536752906    2.36687593752222    0.94662984962366
C        87.72695719219536    3.36193365415240    0.85308619776100
C        88.71289791099362    2.84339667259607    0.06735962480456
N        88.35183076537990    1.53088376592338   -0.33014179020167
C        89.93468326232160    3.47622461463774   -0.34586050372616
C        91.05804951903690    2.79657702866322   -0.67704745210392
C        92.04913755898534    3.06774126511316   -1.69921071904094
C        92.95642594944034    2.08836367851437   -1.60813473261808
C        92.55719066133159    1.18625946514250   -0.52101019648889
N        91.42717506034697    1.61573278648113   -0.01484474085578