232
 energy: -430.521480258622 gnorm: 0.000694832868 xtb: 6.4.1 (bd6e46d)
Ni       36.23666344021814    0.00666576764026   -0.00977134078088
C        38.73717487473530   -3.40492977078468    0.03412725964630
C        39.68830085904982   -2.44396618138319    0.02244977598385
C        38.99796399568075   -1.18935228082496    0.00837953387322
C        39.66321999206785    0.04020026073999    0.00040482598960
C        38.97436713382482    1.25654375226928    0.00168207203582
C        39.64009712471506    2.52429313423933    0.01146794120974
C        38.67042809123121    3.46656069770546    0.02136457704555
C        37.42038584226976    2.76739649868148    0.01363311186576
N        37.62183626505324    1.41283935370448    0.00234487245307
C        36.19940567520369    3.40932306838549    0.01090843079815
C        34.99271465945917    2.74118008553863   -0.01160262316415
C        33.72468499444880    3.41209829218446   -0.03020806581982
C        32.77914284871445    2.44823881065352   -0.05905322262654
C        33.47362318810052    1.19247126756038   -0.05450485630158
N        34.82514812974252    1.38560303327786   -0.02619481279799
C        32.82736934607791   -0.02670688154738   -0.07017808333553
C        33.49712685999567   -1.23308506786052   -0.05076333420986
C        32.82722786522204   -2.50216618403162   -0.05147328377951
C        33.79137672614311   -3.44732920804561   -0.01980952741730
C        35.04607372485760   -2.75175338429441   -0.00316547068026
N        34.85215016017230   -1.39974745049114   -0.02181513322261
C        36.26561372618659   -3.39605261120583    0.02173450461339
C        37.47376833942654   -2.73026494992165    0.02349431239315
N        37.64873652236598   -1.37202071120629    0.00841408474634
H        38.85665937161245   -4.47077303085430    0.04713086383850
H        40.75580060144870   -2.54827595999648    0.02440798754794
H        40.70543477202671    2.64930583107476    0.01299090504542
H        38.76912409070021    4.53466498918015    0.03163682371090
H        36.18896232173170    4.48850351230563    0.02131328649728
H        33.60287586249749    4.47799048807292   -0.02315233305382
H        31.71135357436109    2.54996715501086   -0.08006308133405
H        31.74852844099442   -0.03719071083883   -0.09306348189953
H        31.76162282242443   -2.62478322899496   -0.07222627635740
H        33.69037611678930   -4.51536972181225   -0.00967614457712
H        36.27638839589780   -4.47519521029839    0.03514339532540
Ni      103.37732558773847    0.03911562224885   -0.00846712737746
C       100.88359910321113    3.40184965533210    0.59709374771880
C        99.93054333610101    2.45935119194060    0.41936705309243
C       100.61832619665444    1.22226025154596    0.20154532940029
C        99.95071320071351    0.01122111419618   -0.00312226153630
C       100.63712769546449   -1.19053946595897   -0.19920110784106
C        99.96888357245857   -2.44141910695424   -0.39760520003362
C       100.93664919954554   -3.37226463014611   -0.55621956486693
C       102.18803376360023   -2.68267301954933   -0.45605044951345
N       101.98935398915671   -1.34592536808300   -0.23440248888896
C       103.40753908312583   -3.31480698200743   -0.58298216912093
C       104.61544938437251   -2.65401108042023   -0.49746508840405
C       105.88192752185654   -3.31233951171044   -0.64259307680217
C       106.82949830798738   -2.36073664673081   -0.49956206492970
C       106.13780367525457   -1.12546732431286   -0.26507334622437
N       104.78590815420799   -1.31811768469784   -0.26892395414376
C       106.78678194686778    0.07441871058187   -0.05680502027469
C       106.11959203091189    1.25901553847173    0.17955944375501
C       106.79218832359668    2.50543936221922    0.41051813386653
C       105.82983828376804    3.43333109936743    0.60235908085003
C       104.57354579171376    2.75048238296727    0.48482104104352
N       104.76476839857622    1.42234895024968    0.22915885702831
C       103.35518447517724    3.38561483205499    0.60815949868777
C       102.14565072677367    2.73413779315066    0.48332225252348
N       101.96796873493452    1.39827527343921    0.23942231123341
H       100.76625386265968    4.45096938802543    0.78703555134700
H        98.86326155192174    2.56519912950091    0.43273185729788
H        98.90333317473424   -2.56400225028679   -0.40959263596010
H       100.83583461932446   -4.42645047374508   -0.72700626968511
H       103.41571795573678   -4.37904567868745   -0.76236473737192
H       106.00142408026949   -4.36209050584386   -0.82902982514702
H       107.89699674234046   -2.45870826016431   -0.54224938470863
H       107.86570000410876    0.08604911094537   -0.07501659490844
H       107.85817985185136    2.62600347272712    0.42003061211491
H       105.93302441645608    4.48215788016521    0.80311166907419
H       103.34654591352668    4.44630829395942    0.80740266537533
C        41.06047675064469    0.05267444902316   -0.00215190061165
C        42.27800268953423    0.06110180088486   -0.00761919541709
C        43.61997832120739    0.06682367961722   -0.00976367499059
C        44.83764355918530    0.06892707963987   -0.01190329308812
C        54.49199088346669    0.05231429932835   -0.01999724545014
C        55.70966344394846    0.04896728763896   -0.01877541896131
C        57.05090714296175    0.04778248503678   -0.01713066656896
C        58.26858889848821    0.04597443515676   -0.01856084547338
C        67.91864083928303    0.04254812386664   -0.01759645954494
C        69.13620430374279    0.04303497817868   -0.01889892584870
C        70.47722523415011    0.04421277330816   -0.01913705082375
C        71.69485263612201    0.04622974351230   -0.01841754184517
C        81.34496465244504    0.04060451341004   -0.02092300258044
C        82.56262790488452    0.03888362272882   -0.02094600421974
C        83.90388939307212    0.03633019704040   -0.02064404754742
C        85.12162398393377    0.03409670678201   -0.02015132507444
C        94.77605843481736   -0.00028390595645   -0.01616161240445
C        95.99367200389035   -0.00246956485595   -0.01452626112676
C        97.33579662051342   -0.00089195562126   -0.01114846819685
C        98.55325259300848    0.00152862375379   -0.00527705665084
Ni       49.66545406181037    0.06081611545922   -0.01776645705381
C        47.18927695508944   -3.34859980041059    0.37054052940874
C        46.23022555486334   -2.40118139600610    0.26412065293503
C        46.91035547638714   -1.14926271164365    0.12161405868266
C        46.23436348371470    0.06726163499687   -0.01391971499907
C        46.91443075185727    1.28107469600219   -0.15157475858473
C        46.23859336934024    2.53530881153924   -0.29306100600622
C        47.20085795784152    3.47898971733444   -0.40340948623803
C        48.45558267458195    2.79355164882776   -0.32785972352729
N        48.26520431906117    1.44609429862869   -0.17328965588998
C        49.67136552869876    3.43995861570609   -0.40493076518992
C        50.88495266761441    2.78934074677020   -0.33249620728431
C        52.14222124851015    3.46973426890136   -0.41258356935230
C        53.10099735800560    2.52229640714898   -0.30423050820895
C        52.42038969609961    1.27098727562157   -0.15891296301048
N        51.07046324017175    1.44117236270009   -0.17724698721283
C        53.09589440169835    0.05484008292137   -0.01888930994925
C        52.41624535910589   -1.15907354446513    0.12061269216444
C        53.09257516433042   -2.41296815665486    0.26367106727183
C        52.13057478194312   -3.35724109228250    0.37102097780114
C        50.87565567326670   -2.67233742297419    0.29283462007611
N        51.06575618507492   -1.32460078694503    0.13940953015504
C        49.65985426569968   -3.31870236316272    0.36615550658262
C        48.44631236594171   -2.66770692425345    0.29251189198335
N        48.26054775029875   -1.31935333341778    0.13990104571899
H        47.07894546097469   -4.40871714654945    0.49077973695995
H        45.16362979165977   -2.51314260240432    0.27799095852563
H        45.17237715803284    2.65109330732883   -0.30425558391367
H        47.09416107602888    4.53937694064515   -0.52461849529860
H        49.67302574551237    4.51223363649234   -0.52814358761458
H        52.25300384349258    4.52955742198341   -0.53513064659261
H        54.16765161989072    2.63386519009745   -0.31833825364040
H        54.15883308057867   -2.52828139600998    0.27703718519447
H        52.23770131471346   -4.41763045590735    0.49185703330812
H        49.65780521298922   -4.39113999770048    0.48793414860587
Ni       63.09384412255549    0.04380925557406   -0.02047225035651
C        60.62213414067593   -3.36746924535672    0.38504739880566
C        59.66229757617620   -2.42130566004923    0.27454646590878
C        60.34153477059818   -1.16981501648687    0.12469735752261
C        59.66465865894503    0.04502165023841   -0.02014496452805
C        60.34250341845344    1.25924423141131   -0.16586044623769
C        59.66414971143551    2.51116787081202   -0.31616787465134
C        60.62463524751288    3.45643502712081   -0.42857562450133
C        61.88059015507161    2.77415425955144   -0.34559304801732
N        61.69273794766890    1.42691095922972   -0.18499523856017
C        63.09520846904831    3.42284946675216   -0.42010662875747
C        64.30950178347362    2.77428821286080   -0.34080110023533
C        65.56604130609769    3.45620777886407   -0.41823324498311
C        66.52569918514953    2.51011095956933   -0.30586392723460
C        65.84618144460407    1.25812085457707   -0.16091800606851
N        64.49620171981233    1.42661613424200   -0.18251241246923
C        66.52275704181861    0.04278673483211   -0.01912562932213
C        65.84521961565605   -1.17207248693094    0.12158712577731
C        66.52389219066166   -2.42438990243981    0.26704417338054
C        65.56357764551019   -3.37005257755949    0.37755548294520
C        64.30746815223527   -2.68747401264220    0.29892732813720
N        64.49510368928388   -1.33981680795621    0.14158317307169
C        63.09278429616337   -3.33549386829059    0.37652023758909
C        61.87857449769272   -2.68606683817639    0.30213729029109
N        61.69164714443433   -1.33853950137885    0.14298175048391
H        60.51268603331664   -4.42705085466659    0.51072211978603
H        58.59579449992542   -2.53395689864479    0.28962458938026
H        58.59772561155287    2.62463795279189   -0.33064917709780
H        60.51594732991040    4.51596949559408   -0.55552904642058
H        63.09538651170948    4.49469564304467   -0.54685110862540
H        65.67576552531358    4.51597988261845   -0.54205136671571
H        67.59220308706880    2.62299050822952   -0.31740600601765
H        67.59037977137059   -2.53783171608437    0.27964926116163
H        65.67259736377589   -4.42998203658882    0.50092862449307
H        63.09232848843537   -4.40743694350234    0.50246540429196
Ni       76.51966900412528    0.04326888417557   -0.01983443614273
C        74.04683777155594   -3.36780076155342    0.38166720618403
C        73.08735085955706   -2.42119095351505    0.27233554357267
C        73.76718113859997   -1.16976529591110    0.12425810481541
C        73.09074759653441    0.04550421758554   -0.01892210292315
C        73.76842632294084    1.25978789897539   -0.16367410674280
C        73.09006529363194    2.51189021433428   -0.31262528310736
C        74.05054908929090    3.45692672689117   -0.42702223567847
C        75.30647020620249    2.77428365770439   -0.34574169679957
N        75.11854525179560    1.42713011749741   -0.18439957881196
C        76.52135760134034    3.42199850255250   -0.42208767032108
C        77.73537338951611    2.77264186056644   -0.34342304896307
C        78.99196228404139    3.45434105855553   -0.42227246803618
C        79.95158397203862    2.50815418183334   -0.31025054029403
C        79.27209112627077    1.25635142954676   -0.16366949406923
N        77.92199815569485    1.42505025361422   -0.18423535819123
C        79.94888994095562    0.04122086441273   -0.02071099021792
C        79.27094609297515   -1.17319928602727    0.12248326846583
C        79.94898968484402   -2.42548340867918    0.27054698028553
C        78.98826705141801   -3.37062038644576    0.38206685818727
C        77.73248675012506   -2.68788616785532    0.30109958283588
N        77.92068460262962   -1.34052538925088    0.14218253032075
C        76.51768349639808   -3.33602490507029    0.37675714516420
C        75.30357536341889   -2.68668275732227    0.30059905147533
N        75.11715954962671   -1.33891530660428    0.14292356248776
H        73.93688738147854   -4.42741631246749    0.50525125351339
H        72.02082321778420   -2.53351787130838    0.28659733876402
H        72.02360288105072    2.62554521016837   -0.32553533169453
H        73.94174325969037    4.51655295564704   -0.55453638087794
H        76.52222945619765    4.49374208077933   -0.54972559726650
H        79.10161746927493    4.51412593294677   -0.54657217277395
H        81.01810671537714    2.62089975507188   -0.32263711613966
H        81.01537300768298   -2.53930057035261    0.28430297197489
H        79.09670772182669   -4.43025791172272    0.50768689723375
H        76.51711126140036   -4.40798381264379    0.50253028336316
Ni       89.94812304022540    0.01632716879739   -0.02252800944275
C        87.46468310127393   -3.38693527880393    0.37746978431688
C        86.50781909652666   -2.43691751419605    0.27523535055398
C        87.19085045765235   -1.18760775778409    0.12442148151035
C        86.51773479515816    0.02933760948177   -0.02004467812057
C        87.19981451306657    1.24119829053363   -0.16537071728922
C        86.52606585846245    2.49552123656953   -0.31697638878388
C        87.48999622558887    3.43806291479238   -0.42236600386714
C        88.74350045519415    2.75177500013618   -0.33389250858194
N        88.55064237132613    1.40460815288090   -0.17884923399990
C        89.96057023947604    3.39713113439608   -0.39371048267368
C        91.17271456446990    2.74495479097320   -0.30808926667984
C        92.43109482117889    3.42537329590705   -0.36689867492790
C        93.38821889773793    2.47612938131109   -0.25949280416353
C        92.70562555334114    1.22351844564083   -0.13633819494343
N        91.35575773163995    1.39527187923631   -0.16446676073152
C        93.37914938106636    0.00402648255531   -0.01754769923270
C        92.69670403302021   -1.21074981542020    0.09810828626419
C        93.36995517443231   -2.46858135425310    0.21951380476031
C        92.40575219978086   -3.41115920199810    0.32214454821545
C        91.15247202934901   -2.72149439706630    0.26236041509073
N        91.34556232767757   -1.37286790292830    0.12217624180274
C        89.93544770704108   -3.36482582250715    0.34562989879794
C        88.72326086799205   -2.71010193884936    0.28820301227918
N        88.54040827225870   -1.36127905711118    0.13560445717659
H        87.35182352551107   -4.44640978179329    0.50100261164113
H        85.44099306417455   -2.54558280522466    0.29637322413301
H        85.46006036782606    2.61230879676985   -0.33635836478874
H        87.38504146410421    4.49819425471544   -0.54731216798832
H        89.96484267600515    4.46984082990214   -0.51300759172810
H        92.54356655892090    4.48647472396619   -0.47644710627223
H        94.45503298416659    2.58714735461396   -0.26213682204563
H        94.43591087849971   -2.58723816445981    0.22457214801815
H        92.51026417398599   -4.47324829622130    0.42936234658272
H        89.93162792772009   -4.43783715056818    0.46218077154913
