      -----------------------------------------------------------      
     |                   =====================                   |     
     |                           x T B                           |     
     |                   =====================                   |     
     |                         S. Grimme                         |     
     |          Mulliken Center for Theoretical Chemistry        |     
     |                    University of Bonn                     |     
      -----------------------------------------------------------      

   * xtb version 6.4.1 (bd6e46d) compiled by 'conda@4901f00b25ba' on 2021-06-10

   xtb is free software: you can redistribute it and/or modify it under
   the terms of the GNU Lesser General Public License as published by
   the Free Software Foundation, either version 3 of the License, or
   (at your option) any later version.
   
   xtb is distributed in the hope that it will be useful,
   but WITHOUT ANY WARRANTY; without even the implied warranty of
   MERCHANTABILITY or FITNESS FOR A PARTICULAR PURPOSE.  See the
   GNU Lesser General Public License for more details.
   
   Cite this work as:
   * C. Bannwarth, E. Caldeweyher, S. Ehlert, A. Hansen, P. Pracht,
     J. Seibert, S. Spicher, S. Grimme, WIREs Comput. Mol. Sci., 2020, 11,
     e01493. DOI: 10.1002/wcms.1493
   
   for GFN2-xTB:
   * C. Bannwarth, S. Ehlert and S. Grimme., J. Chem. Theory Comput., 2019,
     15, 1652-1671. DOI: 10.1021/acs.jctc.8b01176
   for GFN1-xTB:
   * S. Grimme, C. Bannwarth, P. Shushkov, J. Chem. Theory Comput., 2017,
     13, 1989-2009. DOI: 10.1021/acs.jctc.7b00118
   for GFN0-xTB:
   * P. Pracht, E. Caldeweyher, S. Ehlert, S. Grimme, ChemRxiv, 2019, preprint.
     DOI: 10.26434/chemrxiv.8326202.v1
   for GFN-FF:
   * S. Spicher and S. Grimme, Angew. Chem. Int. Ed., 2020, 59, 15665-15673.
     DOI: 10.1002/anie.202004239
   
   for DFT-D4:
   * E. Caldeweyher, C. Bannwarth and S. Grimme, J. Chem. Phys., 2017,
     147, 034112. DOI: 10.1063/1.4993215
   * E. Caldeweyher, S. Ehlert, A. Hansen, H. Neugebauer, S. Spicher,
     C. Bannwarth and S. Grimme, J. Chem. Phys., 2019, 150, 154122.
     DOI: 10.1063/1.5090222
   * E. Caldeweyher, J.-M. Mewes, S. Ehlert and S. Grimme, Phys. Chem. Chem. Phys.
     2020, 22, 8499-8512. DOI: 10.1039/D0CP00502A
   
   for sTDA-xTB:
   * S. Grimme and C. Bannwarth, J. Chem. Phys., 2016, 145, 054103.
     DOI: 10.1063/1.4959605
   
   in the mass-spec context:
   * V. Asgeirsson, C. Bauer and S. Grimme, Chem. Sci., 2017, 8, 4879.
     DOI: 10.1039/c7sc00601b
   * J. Koopman and S. Grimme, ACS Omega 2019, 4, 12, 15120-15133.
     DOI: 10.1021/acsomega.9b02011
   
   for metadynamics refer to:
   * S. Grimme, J. Chem. Theory Comput., 2019, 155, 2847-2862
     DOI: 10.1021/acs.jctc.9b00143
   
   for SPH calculations refer to:
   * S. Spicher and S. Grimme, J. Chem. Theory Comput., 2021, 17, 1701-1714
     DOI: 10.1021/acs.jctc.0c01306
   
   with help from (in alphabetical order)
   P. Atkinson, C. Bannwarth, F. Bohle, G. Brandenburg, E. Caldeweyher
   M. Checinski, S. Dohm, S. Ehlert, S. Ehrlich, I. Gerasimov, J. Koopman
   C. Lavigne, S. Lehtola, F. März, M. Müller, F. Musil, H. Neugebauer
   J. Pisarek, C. Plett, P. Pracht, J. Seibert, P. Shushkov, S. Spicher
   M. Stahn, M. Steiner, T. Strunk, J. Stückrath, T. Rose, and J. Unsleber
   
 * started run on 2021/11/19 at 10:42:51.699     

           -------------------------------------------------
          |                Calculation Setup                |
           -------------------------------------------------

          program call               : /home/jeff/miniconda3/bin/xtb input_structure_1.xyz --gfn 2 --ohess normal --parallel 1 --etemp 300 --chrg 0 --uhf 0 -I det_control.in
          hostname                   : jelfscompute1
          coordinate file            : input_structure_1.xyz
          omp threads                :                     1
          number of atoms            :                    76
          number of electrons        :                   258
          charge                     :                     0
          spin                       :                   0.0
          first test random number   :      0.87209237530000

   ID    Z sym.   atoms
    1   28 Ni     1, 41
    2    6 C      2-9, 11-15, 17-21, 23, 24, 37-40, 42-49, 51-55, 57-61, 63,
                  64
    3    7 N      10, 16, 22, 25, 50, 56, 62, 65
    4    1 H      26-36, 66-76

           -------------------------------------------------
          |                 G F N 2 - x T B                 |
           -------------------------------------------------

        Reference                      10.1021/acs.jctc.8b01176
      * Hamiltonian:
        H0-scaling (s, p, d)           1.850000    2.230000    2.230000
        zeta-weighting                 0.500000
      * Dispersion:
        s8                             2.700000
        a1                             0.520000
        a2                             5.000000
        s9                             5.000000
      * Repulsion:
        kExp                           1.500000    1.000000
        rExp                           1.000000
      * Coulomb:
        alpha                          2.000000
        third order                    shell-resolved
        anisotropic                    true
        a3                             3.000000
        a5                             4.000000
        cn-shift                       1.200000
        cn-exp                         4.000000
        max-rad                        5.000000


          ...................................................
          :                      SETUP                      :
          :.................................................:
          :  # basis functions                 250          :
          :  # atomic orbitals                 248          :
          :  # shells                          132          :
          :  # electrons                       258          :
          :  max. iterations                   250          :
          :  Hamiltonian                  GFN2-xTB          :
          :  restarted?                      false          :
          :  GBSA solvation                  false          :
          :  PC potential                    false          :
          :  electronic temp.          300.0000000     K    :
          :  accuracy                    1.0000000          :
          :  -> integral cutoff          0.2500000E+02      :
          :  -> integral neglect         0.1000000E-07      :
          :  -> SCF convergence          0.1000000E-05 Eh   :
          :  -> wf. convergence          0.1000000E-03 e    :
          :  Broyden damping             0.4000000          :
          ...................................................

 iter      E             dE          RMSdq      gap      omega  full diag
   1   -140.0686521 -0.140069E+03  0.842E+00    0.42       0.0  T
   2   -138.8534057  0.121525E+01  0.546E+00    0.05       1.0  T
   3   -131.9980823  0.685532E+01  0.610E+00    0.11       1.0  T
   4   -131.4775614  0.520521E+00  0.581E+00    0.16       1.0  T
   5   -128.4240703  0.305349E+01  0.967E+00    0.02       1.0  T
   6   -131.1790460 -0.275498E+01  0.881E+00    0.16       1.0  T
   7   -126.9613228  0.421772E+01  0.102E+01    0.13       1.0  T
   8   -136.0048363 -0.904351E+01  0.585E+00    0.01       1.0  T
   9   -137.9763320 -0.197150E+01  0.494E+00    0.01       1.0  T
  10   -140.0654776 -0.208915E+01  0.252E+00    0.16       1.0  T
  11   -139.0236756  0.104180E+01  0.366E+00    0.03       1.0  T
  12   -140.1706788 -0.114700E+01  0.226E+00    0.16       1.0  T
  13   -140.4095294 -0.238851E+00  0.178E+00    0.05       1.0  T
  14   -140.6412135 -0.231684E+00  0.259E+00    0.28       1.0  T
  15   -140.6531189 -0.119054E-01  0.245E+00    0.23       1.0  T
  16   -140.6353402  0.177787E-01  0.272E+00    0.24       1.0  T
  17   -140.5902536  0.450867E-01  0.291E+00    0.13       1.0  T
  18   -140.5870132  0.324035E-02  0.315E+00    0.13       1.0  T
  19   -140.5733749  0.136384E-01  0.332E+00    0.12       1.0  T
  20   -140.6464937 -0.731188E-01  0.232E+00    0.23       1.0  T
  21   -140.5194974  0.126996E+00  0.128E+00    0.02       1.0  T
  22   -140.5029953  0.165021E-01  0.137E+00    0.02       1.0  T
  23   -140.6190481 -0.116053E+00  0.711E-01    0.07       1.0  T
  24   -140.6584427 -0.393945E-01  0.588E-01    0.11       1.0  T
  25   -140.6519916  0.645103E-02  0.512E-01    0.11       1.0  T
  26   -140.6518766  0.114990E-03  0.488E-01    0.11       1.0  T
  27   -140.6550900 -0.321341E-02  0.420E-01    0.12       1.0  T
  28   -140.6677291 -0.126391E-01  0.262E-01    0.16       1.0  T
  29   -140.6702934 -0.256422E-02  0.210E-01    0.17       1.0  T
  30   -140.6715406 -0.124729E-02  0.186E-01    0.18       1.0  T
  31   -140.6729820 -0.144135E-02  0.131E-01    0.20       1.0  T
  32   -140.6741038 -0.112178E-02  0.702E-02    0.23       1.0  T
  33   -140.6742170 -0.113199E-03  0.581E-02    0.24       1.0  T
  34   -140.6743326 -0.115612E-03  0.391E-02    0.25       1.0  T
  35   -140.6743206  0.120002E-04  0.286E-02    0.26       1.0  T
  36   -140.6743410 -0.204552E-04  0.221E-02    0.26       1.0  T
  37   -140.6743400  0.992588E-06  0.200E-02    0.26       1.0  T
  38   -140.6743606 -0.205924E-04  0.142E-02    0.26       1.0  T
  39   -140.6743632 -0.251954E-05  0.145E-02    0.26       1.0  T
  40   -140.6743756 -0.124554E-04  0.105E-02    0.26       1.1  T
  41   -140.6743806 -0.504003E-05  0.734E-03    0.26       1.6  T
  42   -140.6743833 -0.267020E-05  0.423E-03    0.26       2.7  T
  43   -140.6743844 -0.107227E-05  0.213E-03    0.26       5.4  T
  44   -140.6743847 -0.281467E-06  0.102E-03    0.26      11.2  T
  45   -140.6743847 -0.651720E-07  0.455E-04    0.26      25.2  T
  46   -140.6743847 -0.792497E-08  0.250E-04    0.26      45.9  T

   *** convergence criteria satisfied after 46 iterations ***

         #    Occupation            Energy/Eh            Energy/eV
      -------------------------------------------------------------
         1        2.0000           -0.7155251             -19.4704
       ...           ...                  ...                  ...
       123        2.0000           -0.3539067              -9.6303
       124        2.0000           -0.3517921              -9.5727
       125        2.0000           -0.3467492              -9.4355
       126        1.9999           -0.3451981              -9.3933
       127        1.9995           -0.3439073              -9.3582
       128        1.9985           -0.3429230              -9.3314
       129        1.9873           -0.3408752              -9.2757 (HOMO)
       130        0.0148           -0.3314183              -9.0184 (LUMO)
       131                         -0.3174176              -8.6374
       132                         -0.3127361              -8.5100
       133                         -0.3064179              -8.3381
       134                         -0.3016898              -8.2094
       ...                                ...                  ...
       248                          7.3388691             199.7008
      -------------------------------------------------------------
                  HL-Gap            0.0094570 Eh            0.2573 eV
             Fermi-level           -0.3360714 Eh           -9.1450 eV

 SCC (total)                   0 d,  0 h,  0 min,  0.631 sec
 SCC setup                      ...        0 min,  0.001 sec (  0.174%)
 Dispersion                     ...        0 min,  0.002 sec (  0.381%)
 classical contributions        ...        0 min,  0.000 sec (  0.067%)
 integral evaluation            ...        0 min,  0.028 sec (  4.368%)
 iterations                     ...        0 min,  0.519 sec ( 82.203%)
 molecular gradient             ...        0 min,  0.080 sec ( 12.643%)
 printout                       ...        0 min,  0.001 sec (  0.162%)

         :::::::::::::::::::::::::::::::::::::::::::::::::::::
         ::                     SUMMARY                     ::
         :::::::::::::::::::::::::::::::::::::::::::::::::::::
         :: total energy            -136.839585930140 Eh    ::
         :: gradient norm              4.331996349793 Eh/a0 ::
         :: HOMO-LUMO gap              0.257336811529 eV    ::
         ::.................................................::
         :: SCC energy              -140.674384745112 Eh    ::
         :: -> isotropic ES            0.072454339534 Eh    ::
         :: -> anisotropic ES          0.012866977816 Eh    ::
         :: -> anisotropic XC          0.057447064436 Eh    ::
         :: -> dispersion             -0.117502194345 Eh    ::
         :: repulsion energy           3.834942084367 Eh    ::
         :: add. restraining           0.000000000000 Eh    ::
         :: total charge               0.000000000001 e     ::
         :::::::::::::::::::::::::::::::::::::::::::::::::::::

      ----------------------------------------------------------- 
     |                   =====================                   |
     |                        A N C O P T                        |
     |                   =====================                   |
     |               Approximate Normal Coordinate               |
     |                Rational Function Optimizer                |
      ----------------------------------------------------------- 

          ...................................................
          :                      SETUP                      :
          :.................................................:
          :   optimization level            normal          :
          :   max. optcycles                   228          :
          :   ANC micro-cycles                  20          :
          :   degrees of freedom               222          :
          :.................................................:
          :   RF solver                   davidson          :
          :   write xtbopt.log                true          :
          :   linear?                        false          :
          :   energy convergence         0.5000000E-05 Eh   :
          :   grad. convergence          0.1000000E-02 Eh/α :
          :   maximium RF displ.         1.0000000          :
          :   Hlow (freq-cutoff)         0.1000000E-01      :
          :   Hmax (freq-cutoff)         5.0000000          :
          :   S6 in model hess.         20.0000000          :
          ...................................................

generating ANC from model Hessian ...
Using Lindh-Hessian (1995)
 Shifting diagonal of input Hessian by    1.0032269895478218E-002
 Lowest  eigenvalues of input Hessian
    0.010000    0.010008    0.010016    0.000000    0.000000    0.000000
    0.000000    0.000000    0.000000    0.010448    0.011070    0.011257
    0.011511    0.011747    0.011906    0.012037    0.012858    0.013472
 Highest eigenvalues
    2.226897    2.355754    4.358696    4.516066    4.726575    4.872997


........................................................................
.............................. CYCLE    1 ..............................
........................................................................
   1   -140.6743847 -0.140674E+03  0.151E-04    0.26       0.0  T
   2   -140.6743847  0.606620E-07  0.589E-04    0.26      19.5  T
   3   -140.6743847 -0.573366E-07  0.150E-04    0.26      76.4  T
     SCC iter.                  ...        0 min,  0.033 sec
     gradient                   ...        0 min,  0.080 sec
 * total energy  :  -136.8395859 Eh     change        0.1475655E-09 Eh
   gradient norm :     4.3319972 Eh/α   predicted     0.0000000E+00 (-100.00%)
   displ. norm   :     0.6412618 α      lambda       -0.2711701E+01
   maximum displ.:     0.4425804 α      in ANC's #222, #221, #218, ...

........................................................................
.............................. CYCLE    2 ..............................
........................................................................
   1   -140.7755008 -0.140776E+03  0.824E-01    0.41       0.0  T
   2   -140.7840640 -0.856323E-02  0.679E-01    0.50       1.0  T
   3   -140.8023639 -0.182999E-01  0.338E-01    0.41       1.0  T
   4   -140.7984366  0.392738E-02  0.220E-01    0.55       1.0  T
   5   -140.8032864 -0.484982E-02  0.526E-02    0.42       1.0  T
   6   -140.8035080 -0.221633E-03  0.206E-02    0.45       1.0  T
   7   -140.8035108 -0.281761E-05  0.142E-02    0.44       1.0  T
   8   -140.8035136 -0.276253E-05  0.853E-03    0.45       1.3  T
   9   -140.8035158 -0.220106E-05  0.511E-03    0.44       2.2  T
  10   -140.8035166 -0.771391E-06  0.340E-03    0.44       3.4  T
  11   -140.8035168 -0.259039E-06  0.211E-03    0.44       5.4  T
  12   -140.8035172 -0.386353E-06  0.110E-03    0.44      10.4  T
  13   -140.8035173 -0.358345E-07  0.681E-04    0.44      16.8  T
  14   -140.8035173 -0.125637E-07  0.383E-04    0.44      29.9  T
     SCC iter.                  ...        0 min,  0.147 sec
     gradient                   ...        0 min,  0.079 sec
 * total energy  :  -138.0087723 Eh     change       -0.1169186E+01 Eh
   gradient norm :     0.6655043 Eh/α   predicted    -0.1913399E+01 (  63.65%)
   displ. norm   :     0.5612645 α      lambda       -0.2739041E+00
   maximum displ.:     0.1778579 α      in ANC's #76, #82, #112, ...

........................................................................
.............................. CYCLE    3 ..............................
........................................................................
   1   -140.7501346 -0.140750E+03  0.526E-01    0.47       0.0  T
   2   -140.7486652  0.146942E-02  0.380E-01    0.53       1.0  T
   3   -140.7507571 -0.209184E-02  0.288E-01    0.45       1.0  T
   4   -140.7533339 -0.257679E-02  0.179E-01    0.52       1.0  T
   5   -140.7574356 -0.410170E-02  0.559E-02    0.47       1.0  T
   6   -140.7574821 -0.465281E-04  0.476E-02    0.51       1.0  T
   7   -140.7575709 -0.888181E-04  0.337E-02    0.48       1.0  T
   8   -140.7576176 -0.467383E-04  0.161E-02    0.49       1.0  T
   9   -140.7576316 -0.139596E-04  0.869E-03    0.49       1.3  T
  10   -140.7576333 -0.173509E-05  0.618E-03    0.49       1.9  T
  11   -140.7576351 -0.179731E-05  0.282E-03    0.49       4.1  T
  12   -140.7576354 -0.280607E-06  0.168E-03    0.49       6.8  T
  13   -140.7576355 -0.735985E-07  0.992E-04    0.49      11.6  T
  14   -140.7576355 -0.456730E-07  0.435E-04    0.49      26.4  T
     SCC iter.                  ...        0 min,  0.149 sec
     gradient                   ...        0 min,  0.080 sec
 * total energy  :  -138.1943775 Eh     change       -0.1856052E+00 Eh
   gradient norm :     0.3804112 Eh/α   predicted    -0.1800953E+00 (  -2.97%)
   displ. norm   :     0.6488919 α      lambda       -0.1415866E+00
   maximum displ.:     0.2351478 α      in ANC's #76, #82, #52, ...

........................................................................
.............................. CYCLE    4 ..............................
........................................................................
   1   -140.7668345 -0.140767E+03  0.503E-01    0.58       0.0  T
   2   -140.7671334 -0.298914E-03  0.345E-01    0.72       1.0  T
   3   -140.7697071 -0.257362E-02  0.262E-01    0.60       1.0  T
   4   -140.7712805 -0.157344E-02  0.157E-01    0.69       1.0  T
   5   -140.7737414 -0.246090E-02  0.511E-02    0.69       1.0  T
   6   -140.7738359 -0.945247E-04  0.371E-02    0.69       1.0  T
   7   -140.7738221  0.137876E-04  0.283E-02    0.68       1.0  T
   8   -140.7738785 -0.563242E-04  0.130E-02    0.69       1.0  T
   9   -140.7738861 -0.768465E-05  0.789E-03    0.68       1.5  T
  10   -140.7738877 -0.156889E-05  0.517E-03    0.69       2.2  T
  11   -140.7738890 -0.133002E-05  0.243E-03    0.69       4.7  T
  12   -140.7738893 -0.288522E-06  0.139E-03    0.69       8.3  T
  13   -140.7738894 -0.260108E-07  0.798E-04    0.69      14.4  T
  14   -140.7738894 -0.354993E-07  0.306E-04    0.69      37.4  T
     SCC iter.                  ...        0 min,  0.149 sec
     gradient                   ...        0 min,  0.080 sec
 * total energy  :  -138.3027544 Eh     change       -0.1083768E+00 Eh
   gradient norm :     0.2098662 Eh/α   predicted    -0.1006017E+00 (  -7.17%)
   displ. norm   :     0.6996379 α      lambda       -0.8234722E-01
   maximum displ.:     0.2582319 α      in ANC's #52, #76, #37, ...

........................................................................
.............................. CYCLE    5 ..............................
........................................................................
   1   -140.8049786 -0.140805E+03  0.472E-01    0.77       0.0  T
   2   -140.8061809 -0.120230E-02  0.286E-01    0.91       1.0  T
   3   -140.8056522  0.528779E-03  0.220E-01    0.83       1.0  T
   4   -140.8069182 -0.126606E-02  0.117E-01    0.92       1.0  T
   5   -140.8084062 -0.148802E-02  0.367E-02    0.91       1.0  T
   6   -140.8084385 -0.322322E-04  0.246E-02    0.91       1.0  T
   7   -140.8084236  0.148778E-04  0.185E-02    0.91       1.0  T
   8   -140.8084583 -0.347443E-04  0.678E-03    0.91       1.7  T
   9   -140.8084595 -0.113360E-05  0.419E-03    0.91       2.7  T
  10   -140.8084595  0.118626E-07  0.267E-03    0.91       4.3  T
  11   -140.8084599 -0.392013E-06  0.149E-03    0.91       7.7  T
  12   -140.8084600 -0.122604E-06  0.871E-04    0.91      13.2  T
  13   -140.8084600 -0.147214E-07  0.509E-04    0.91      22.5  T
     SCC iter.                  ...        0 min,  0.137 sec
     gradient                   ...        0 min,  0.080 sec
 * total energy  :  -138.3676784 Eh     change       -0.6492401E-01 Eh
   gradient norm :     0.1220184 Eh/α   predicted    -0.6132814E-01 (  -5.54%)
   displ. norm   :     0.7372902 α      lambda       -0.5157523E-01
   maximum displ.:     0.3101859 α      in ANC's #52, #37, #76, ...

........................................................................
.............................. CYCLE    6 ..............................
........................................................................
   1   -140.8304939 -0.140830E+03  0.439E-01    0.98       0.0  T
   2   -140.8310742 -0.580290E-03  0.269E-01    1.06       1.0  T
   3   -140.8284475  0.262665E-02  0.200E-01    1.04       1.0  T
   4   -140.8308984 -0.245089E-02  0.101E-01    1.06       1.0  T
   5   -140.8321934 -0.129501E-02  0.285E-02    1.07       1.0  T
   6   -140.8321967 -0.327477E-05  0.192E-02    1.07       1.0  T
   7   -140.8321940  0.267037E-05  0.128E-02    1.06       1.0  T
   8   -140.8322122 -0.181601E-04  0.398E-03    1.07       2.9  T
   9   -140.8322125 -0.358251E-06  0.227E-03    1.07       5.1  T
  10   -140.8322126 -0.927540E-07  0.138E-03    1.07       8.3  T
  11   -140.8322128 -0.118398E-06  0.708E-04    1.07      16.2  T
  12   -140.8322128 -0.312967E-07  0.380E-04    1.07      30.2  T
     SCC iter.                  ...        0 min,  0.127 sec
     gradient                   ...        0 min,  0.080 sec
 * total energy  :  -138.4094935 Eh     change       -0.4181515E-01 Eh
   gradient norm :     0.0840761 Eh/α   predicted    -0.3980569E-01 (  -4.81%)
   displ. norm   :     0.7461796 α      lambda       -0.3445227E-01
   maximum displ.:     0.2898179 α      in ANC's #52, #37, #11, ...

........................................................................
.............................. CYCLE    7 ..............................
........................................................................
   1   -140.8536110 -0.140854E+03  0.395E-01    1.16       0.0  T
   2   -140.8539629 -0.351830E-03  0.242E-01    1.17       1.0  T
   3   -140.8513517  0.261115E-02  0.168E-01    1.18       1.0  T
   4   -140.8537616 -0.240988E-02  0.777E-02    1.17       1.0  T
   5   -140.8545763 -0.814656E-03  0.189E-02    1.17       1.0  T
   6   -140.8545744  0.180538E-05  0.133E-02    1.17       1.0  T
   7   -140.8545764 -0.195054E-05  0.840E-03    1.17       1.4  T
   8   -140.8545832 -0.680670E-05  0.259E-03    1.17       4.4  T
   9   -140.8545834 -0.209048E-06  0.153E-03    1.17       7.5  T
  10   -140.8545835 -0.417034E-07  0.922E-04    1.17      12.4  T
  11   -140.8545835 -0.640333E-08  0.561E-04    1.17      20.4  T
     SCC iter.                  ...        0 min,  0.117 sec
     gradient                   ...        0 min,  0.080 sec
 * total energy  :  -138.4378073 Eh     change       -0.2831376E-01 Eh
   gradient norm :     0.0584366 Eh/α   predicted    -0.2681740E-01 (  -5.28%)
   displ. norm   :     0.7567471 α      lambda       -0.2374233E-01
   maximum displ.:     0.3148085 α      in ANC's #11, #7, #52, ...

........................................................................
.............................. CYCLE    8 ..............................
........................................................................
   1   -140.8705526 -0.140871E+03  0.348E-01    1.24       0.0  T
   2   -140.8707446 -0.192004E-03  0.217E-01    1.25       1.0  T
   3   -140.8687075  0.203708E-02  0.136E-01    1.25       1.0  T
   4   -140.8705920 -0.188454E-02  0.602E-02    1.25       1.0  T
   5   -140.8710614 -0.469325E-03  0.186E-02    1.25       1.0  T
   6   -140.8710591  0.224295E-05  0.131E-02    1.25       1.0  T
   7   -140.8710620 -0.285681E-05  0.813E-03    1.25       1.4  T
   8   -140.8710678 -0.579430E-05  0.305E-03    1.25       3.8  T
   9   -140.8710679 -0.152934E-06  0.199E-03    1.25       5.8  T
  10   -140.8710679 -0.217664E-07  0.119E-03    1.25       9.6  T
  11   -140.8710680 -0.542844E-07  0.668E-04    1.25      17.2  T
  12   -140.8710680 -0.272790E-07  0.275E-04    1.25      41.7  T
     SCC iter.                  ...        0 min,  0.127 sec
     gradient                   ...        0 min,  0.080 sec
 * total energy  :  -138.4573467 Eh     change       -0.1953945E-01 Eh
   gradient norm :     0.0381875 Eh/α   predicted    -0.1866941E-01 (  -4.45%)
   displ. norm   :     0.7692652 α      lambda       -0.1627245E-01
   maximum displ.:     0.3943090 α      in ANC's #11, #7, #15, ...

........................................................................
.............................. CYCLE    9 ..............................
........................................................................
   1   -140.8832523 -0.140883E+03  0.298E-01    1.29       0.0  T
   2   -140.8833370 -0.846959E-04  0.190E-01    1.30       1.0  T
   3   -140.8818040  0.153298E-02  0.116E-01    1.29       1.0  T
   4   -140.8832751 -0.147109E-02  0.482E-02    1.30       1.0  T
   5   -140.8835140 -0.238910E-03  0.213E-02    1.30       1.0  T
   6   -140.8835094  0.463969E-05  0.149E-02    1.30       1.0  T
   7   -140.8835179 -0.844174E-05  0.751E-03    1.30       1.5  T
   8   -140.8835227 -0.485394E-05  0.284E-03    1.30       4.0  T
   9   -140.8835228 -0.906439E-07  0.199E-03    1.30       5.8  T
  10   -140.8835229 -0.653516E-07  0.103E-03    1.30      11.1  T
  11   -140.8835229 -0.602681E-07  0.584E-04    1.30      19.6  T
  12   -140.8835229 -0.153200E-07  0.334E-04    1.30      34.3  T
     SCC iter.                  ...        0 min,  0.128 sec
     gradient                   ...        0 min,  0.080 sec
 * total energy  :  -138.4708954 Eh     change       -0.1354864E-01 Eh
   gradient norm :     0.0270287 Eh/α   predicted    -0.1295099E-01 (  -4.41%)
   displ. norm   :     0.7925102 α      lambda       -0.1193596E-01
   maximum displ.:     0.4505002 α      in ANC's #11, #7, #15, ...

........................................................................
.............................. CYCLE   10 ..............................
........................................................................
   1   -140.8912438 -0.140891E+03  0.252E-01    1.32       0.0  T
   2   -140.8913005 -0.566465E-04  0.166E-01    1.33       1.0  T
   3   -140.8904684  0.832035E-03  0.940E-02    1.32       1.0  T
   4   -140.8912794 -0.810911E-03  0.412E-02    1.33       1.0  T
   5   -140.8913808 -0.101468E-03  0.250E-02    1.32       1.0  T
   6   -140.8913839 -0.310067E-05  0.155E-02    1.32       1.0  T
   7   -140.8913965 -0.125377E-04  0.674E-03    1.32       1.7  T
   8   -140.8914000 -0.353334E-05  0.314E-03    1.32       3.7  T
   9   -140.8914000 -0.381398E-07  0.232E-03    1.32       4.9  T
  10   -140.8914002 -0.128748E-06  0.999E-04    1.32      11.5  T
  11   -140.8914002 -0.610961E-07  0.624E-04    1.32      18.4  T
     SCC iter.                  ...        0 min,  0.115 sec
     gradient                   ...        0 min,  0.080 sec
 * total energy  :  -138.4809074 Eh     change       -0.1001206E-01 Eh
   gradient norm :     0.0236979 Eh/α   predicted    -0.9716307E-02 (  -2.95%)
   displ. norm   :     0.8449009 α      lambda       -0.1045139E-01
   maximum displ.:     0.4856302 α      in ANC's #7, #11, #15, ...

........................................................................
.............................. CYCLE   11 ..............................
........................................................................
   1   -140.8952621 -0.140895E+03  0.262E-01    1.34       0.0  T
   2   -140.8953116 -0.494861E-04  0.176E-01    1.34       1.0  T
   3   -140.8942084  0.110324E-02  0.103E-01    1.33       1.0  T
   4   -140.8953475 -0.113908E-02  0.405E-02    1.34       1.0  T
   5   -140.8953999 -0.524880E-04  0.283E-02    1.34       1.0  T
   6   -140.8954149 -0.150047E-04  0.153E-02    1.34       1.0  T
   7   -140.8954298 -0.148162E-04  0.686E-03    1.34       1.7  T
   8   -140.8954323 -0.253903E-05  0.426E-03    1.34       2.7  T
   9   -140.8954322  0.112546E-06  0.304E-03    1.34       3.8  T
  10   -140.8954325 -0.352025E-06  0.118E-03    1.34       9.7  T
  11   -140.8954326 -0.664740E-07  0.735E-04    1.34      15.6  T
  12   -140.8954326 -0.176701E-07  0.388E-04    1.34      29.6  T
     SCC iter.                  ...        0 min,  0.128 sec
     gradient                   ...        0 min,  0.080 sec
 * total energy  :  -138.4885784 Eh     change       -0.7670984E-02 Eh
   gradient norm :     0.0253077 Eh/α   predicted    -0.8956116E-02 (  16.75%)
   displ. norm   :     0.7755695 α      lambda       -0.8829233E-02
   maximum displ.:     0.4762219 α      in ANC's #7, #11, #15, ...

........................................................................
.............................. CYCLE   12 ..............................
........................................................................
   1   -140.8978519 -0.140898E+03  0.211E-01    1.35       0.0  T
   2   -140.8979073 -0.553987E-04  0.143E-01    1.35       1.0  T
   3   -140.8974061  0.501206E-03  0.792E-02    1.35       1.0  T
   4   -140.8979425 -0.536372E-03  0.333E-02    1.35       1.0  T
   5   -140.8979712 -0.287364E-04  0.225E-02    1.35       1.0  T
   6   -140.8979788 -0.761794E-05  0.118E-02    1.35       1.0  T
   7   -140.8979866 -0.779746E-05  0.557E-03    1.35       2.1  T
   8   -140.8979884 -0.179233E-05  0.351E-03    1.35       3.3  T
   9   -140.8979884 -0.100423E-07  0.243E-03    1.35       4.7  T
  10   -140.8979886 -0.181436E-06  0.111E-03    1.35      10.3  T
  11   -140.8979887 -0.634645E-07  0.627E-04    1.35      18.3  T
  12   -140.8979887 -0.194493E-07  0.322E-04    1.35      35.7  T
     SCC iter.                  ...        0 min,  0.129 sec
     gradient                   ...        0 min,  0.079 sec
 * total energy  :  -138.4957288 Eh     change       -0.7150393E-02 Eh
   gradient norm :     0.0203992 Eh/α   predicted    -0.7070043E-02 (  -1.12%)
   displ. norm   :     0.7817449 α      lambda       -0.6493358E-02
   maximum displ.:     0.5322718 α      in ANC's #7, #11, #15, ...

........................................................................
.............................. CYCLE   13 ..............................
........................................................................
   1   -140.8959446 -0.140896E+03  0.180E-01    1.35       0.0  T
   2   -140.8959578 -0.132099E-04  0.119E-01    1.35       1.0  T
   3   -140.8955336  0.424148E-03  0.649E-02    1.35       1.0  T
   4   -140.8959767 -0.443074E-03  0.234E-02    1.35       1.0  T
   5   -140.8959886 -0.118806E-04  0.151E-02    1.35       1.0  T
   6   -140.8959899 -0.125062E-05  0.712E-03    1.35       1.6  T
   7   -140.8959939 -0.407366E-05  0.201E-03    1.35       5.7  T
   8   -140.8959941 -0.134646E-06  0.129E-03    1.35       8.9  T
   9   -140.8959941 -0.515375E-07  0.690E-04    1.35      16.6  T
  10   -140.8959941 -0.136793E-07  0.421E-04    1.35      27.2  T
     SCC iter.                  ...        0 min,  0.107 sec
     gradient                   ...        0 min,  0.079 sec
 * total energy  :  -138.5014897 Eh     change       -0.5760880E-02 Eh
   gradient norm :     0.0188021 Eh/α   predicted    -0.5230807E-02 (  -9.20%)
   displ. norm   :     0.7982107 α      lambda       -0.6060358E-02
   maximum displ.:     0.5581396 α      in ANC's #7, #11, #8, ...

........................................................................
.............................. CYCLE   14 ..............................
........................................................................
   1   -140.8983742 -0.140898E+03  0.203E-01    1.35       0.0  T
   2   -140.8983914 -0.171873E-04  0.132E-01    1.35       1.0  T
   3   -140.8979330  0.458420E-03  0.664E-02    1.35       1.0  T
   4   -140.8984010 -0.468057E-03  0.249E-02    1.35       1.0  T
   5   -140.8984233 -0.223170E-04  0.159E-02    1.35       1.0  T
   6   -140.8984207  0.262169E-05  0.978E-03    1.35       1.2  T
   7   -140.8984293 -0.860543E-05  0.331E-03    1.35       3.5  T
   8   -140.8984299 -0.590645E-06  0.185E-03    1.35       6.2  T
   9   -140.8984300 -0.765391E-07  0.119E-03    1.35       9.6  T
  10   -140.8984300 -0.473009E-07  0.533E-04    1.35      21.5  T
  11   -140.8984300 -0.873106E-08  0.351E-04    1.35      32.7  T
     SCC iter.                  ...        0 min,  0.117 sec
     gradient                   ...        0 min,  0.079 sec
 * total energy  :  -138.5065924 Eh     change       -0.5102753E-02 Eh
   gradient norm :     0.0258463 Eh/α   predicted    -0.4960836E-02 (  -2.78%)
   displ. norm   :     0.7956086 α      lambda       -0.5562657E-02
   maximum displ.:     0.5743729 α      in ANC's #7, #11, #5, ...

........................................................................
.............................. CYCLE   15 ..............................
........................................................................
   1   -140.8900423 -0.140890E+03  0.192E-01    1.33       0.0  T
   2   -140.8900680 -0.256512E-04  0.126E-01    1.33       1.0  T
   3   -140.8894128  0.655203E-03  0.761E-02    1.33       1.0  T
   4   -140.8900968 -0.684004E-03  0.268E-02    1.33       1.0  T
   5   -140.8901336 -0.368122E-04  0.174E-02    1.33       1.0  T
   6   -140.8901335  0.756496E-07  0.116E-02    1.33       1.0  T
   7   -140.8901403 -0.678260E-05  0.477E-03    1.33       2.4  T
   8   -140.8901419 -0.157442E-05  0.237E-03    1.33       4.8  T
   9   -140.8901419 -0.649884E-07  0.156E-03    1.33       7.4  T
  10   -140.8901420 -0.661383E-07  0.745E-04    1.33      15.4  T
  11   -140.8901420 -0.252252E-07  0.464E-04    1.33      24.7  T
     SCC iter.                  ...        0 min,  0.116 sec
     gradient                   ...        0 min,  0.079 sec
 * total energy  :  -138.5107474 Eh     change       -0.4154944E-02 Eh
   gradient norm :     0.0205058 Eh/α   predicted    -0.4541888E-02 (   9.31%)
   displ. norm   :     0.7508116 α      lambda       -0.4282734E-02
   maximum displ.:     0.5662067 α      in ANC's #7, #11, #5, ...

........................................................................
.............................. CYCLE   16 ..............................
........................................................................
   1   -140.8817412 -0.140882E+03  0.186E-01    1.33       0.0  T
   2   -140.8817500 -0.886006E-05  0.121E-01    1.33       1.0  T
   3   -140.8809090  0.841031E-03  0.773E-02    1.33       1.0  T
   4   -140.8817877 -0.878731E-03  0.254E-02    1.33       1.0  T
   5   -140.8818168 -0.290838E-04  0.167E-02    1.33       1.0  T
   6   -140.8818152  0.156705E-05  0.965E-03    1.33       1.2  T
   7   -140.8818221 -0.684843E-05  0.407E-03    1.33       2.8  T
   8   -140.8818231 -0.102915E-05  0.235E-03    1.33       4.9  T
   9   -140.8818231 -0.199063E-07  0.161E-03    1.33       7.1  T
  10   -140.8818232 -0.933605E-07  0.835E-04    1.33      13.7  T
  11   -140.8818233 -0.386277E-07  0.463E-04    1.33      24.8  T
     SCC iter.                  ...        0 min,  0.118 sec
     gradient                   ...        0 min,  0.079 sec
 * total energy  :  -138.5137843 Eh     change       -0.3036953E-02 Eh
   gradient norm :     0.0221703 Eh/α   predicted    -0.3348497E-02 (  10.26%)
   displ. norm   :     0.7007947 α      lambda       -0.3625758E-02
   maximum displ.:     0.5315069 α      in ANC's #7, #11, #5, ...

........................................................................
.............................. CYCLE   17 ..............................
........................................................................
   1   -140.8821835 -0.140882E+03  0.188E-01    1.34       0.0  T
   2   -140.8821901 -0.655307E-05  0.120E-01    1.34       1.0  T
   3   -140.8814856  0.704505E-03  0.727E-02    1.34       1.0  T
   4   -140.8822236 -0.738034E-03  0.217E-02    1.34       1.0  T
   5   -140.8822475 -0.239231E-04  0.135E-02    1.34       1.0  T
   6   -140.8822416  0.593314E-05  0.998E-03    1.34       1.1  T
   7   -140.8822508 -0.918936E-05  0.334E-03    1.34       3.4  T
   8   -140.8822514 -0.663566E-06  0.168E-03    1.34       6.8  T
   9   -140.8822515 -0.293991E-07  0.110E-03    1.34      10.5  T
  10   -140.8822515 -0.365160E-07  0.561E-04    1.34      20.5  T
  11   -140.8822515 -0.721371E-08  0.389E-04    1.34      29.5  T
     SCC iter.                  ...        0 min,  0.115 sec
     gradient                   ...        0 min,  0.079 sec
 * total energy  :  -138.5163172 Eh     change       -0.2532859E-02 Eh
   gradient norm :     0.0258828 Eh/α   predicted    -0.2703209E-02 (   6.73%)
   displ. norm   :     0.6604025 α      lambda       -0.2578283E-02
   maximum displ.:     0.5223751 α      in ANC's #7, #5, #11, ...

........................................................................
.............................. CYCLE   18 ..............................
........................................................................
   1   -140.8851649 -0.140885E+03  0.135E-01    1.34       0.0  T
   2   -140.8851739 -0.900673E-05  0.843E-02    1.34       1.0  T
   3   -140.8849782  0.195729E-03  0.423E-02    1.33       1.0  T
   4   -140.8851742 -0.195993E-03  0.157E-02    1.34       1.0  T
   5   -140.8851896 -0.154249E-04  0.897E-03    1.34       1.3  T
   6   -140.8851869  0.271806E-05  0.692E-03    1.34       1.7  T
   7   -140.8851911 -0.418201E-05  0.209E-03    1.34       5.5  T
   8   -140.8851913 -0.242084E-06  0.111E-03    1.34      10.3  T
   9   -140.8851913 -0.166915E-07  0.712E-04    1.34      16.1  T
  10   -140.8851914 -0.221613E-07  0.361E-04    1.34      31.7  T
     SCC iter.                  ...        0 min,  0.106 sec
     gradient                   ...        0 min,  0.079 sec
 * total energy  :  -138.5183402 Eh     change       -0.2023040E-02 Eh
   gradient norm :     0.0154084 Eh/α   predicted    -0.1851379E-02 (  -8.49%)
   displ. norm   :     0.7065560 α      lambda       -0.2421938E-02
   maximum displ.:     0.5649325 α      in ANC's #7, #5, #11, ...

........................................................................
.............................. CYCLE   19 ..............................
........................................................................
   1   -140.8827432 -0.140883E+03  0.153E-01    1.34       0.0  T
   2   -140.8827448 -0.155531E-05  0.954E-02    1.34       1.0  T
   3   -140.8823198  0.424971E-03  0.541E-02    1.34       1.0  T
   4   -140.8827598 -0.439970E-03  0.156E-02    1.34       1.0  T
   5   -140.8827748 -0.150339E-04  0.959E-03    1.34       1.2  T
   6   -140.8827738  0.957597E-06  0.703E-03    1.34       1.6  T
   7   -140.8827768 -0.297622E-05  0.250E-03    1.34       4.6  T
   8   -140.8827771 -0.324083E-06  0.142E-03    1.34       8.1  T
   9   -140.8827772 -0.332505E-07  0.994E-04    1.34      11.5  T
  10   -140.8827772 -0.440832E-07  0.535E-04    1.34      21.4  T
     SCC iter.                  ...        0 min,  0.106 sec
     gradient                   ...        0 min,  0.079 sec
 * total energy  :  -138.5201478 Eh     change       -0.1807571E-02 Eh
   gradient norm :     0.0150279 Eh/α   predicted    -0.1815513E-02 (   0.44%)
   displ. norm   :     0.6626207 α      lambda       -0.2044899E-02
   maximum displ.:     0.5390164 α      in ANC's #7, #5, #4, ...

........................................................................
.............................. CYCLE   20 ..............................
........................................................................
   1   -140.8864861 -0.140886E+03  0.139E-01    1.34       0.0  T
   2   -140.8864910 -0.481805E-05  0.830E-02    1.34       1.0  T
   3   -140.8863111  0.179839E-03  0.368E-02    1.34       1.0  T
   4   -140.8864925 -0.181324E-03  0.106E-02    1.34       1.1  T
   5   -140.8865037 -0.112875E-04  0.526E-03    1.34       2.2  T
   6   -140.8865038 -0.101313E-06  0.355E-03    1.34       3.2  T
   7   -140.8865043 -0.448145E-06  0.158E-03    1.34       7.3  T
   8   -140.8865044 -0.955587E-07  0.927E-04    1.34      12.4  T
   9   -140.8865044 -0.170351E-07  0.609E-04    1.34      18.8  T
     SCC iter.                  ...        0 min,  0.096 sec
     gradient                   ...        0 min,  0.079 sec
 * total energy  :  -138.5215646 Eh     change       -0.1416798E-02 Eh
   gradient norm :     0.0211555 Eh/α   predicted    -0.1471373E-02 (   3.85%)
   displ. norm   :     0.6341576 α      lambda       -0.2000056E-02
   maximum displ.:     0.4663667 α      in ANC's #7, #5, #14, ...
 * RMSD in coord.:     1.2529416 α      energy gain  -0.1681979E+01 Eh

generating ANC from model Hessian ...
Using Lindh-Hessian (1995)
 Shifting diagonal of input Hessian by    1.0025172471219833E-002
 Lowest  eigenvalues of input Hessian
    0.010000    0.010008    0.010011    0.000000    0.000000    0.000000
    0.000000    0.000000    0.000000    0.010086    0.010573    0.011250
    0.011439    0.011687    0.012043    0.012398    0.012800    0.013012
 Highest eigenvalues
    2.140767    2.142273    2.145877    2.148673    2.383273    2.907862


........................................................................
.............................. CYCLE   21 ..............................
........................................................................
   1   -140.8859410 -0.140886E+03  0.131E-01    1.34       0.0  T
   2   -140.8859445 -0.350472E-05  0.794E-02    1.34       1.0  T
   3   -140.8856857  0.258835E-03  0.411E-02    1.34       1.0  T
   4   -140.8859507 -0.265024E-03  0.116E-02    1.34       1.0  T
   5   -140.8859640 -0.132969E-04  0.529E-03    1.34       2.2  T
   6   -140.8859643 -0.289923E-06  0.398E-03    1.34       2.9  T
   7   -140.8859649 -0.652738E-06  0.190E-03    1.34       6.1  T
   8   -140.8859651 -0.123157E-06  0.112E-03    1.34      10.2  T
   9   -140.8859651 -0.145857E-07  0.714E-04    1.34      16.1  T
  10   -140.8859651 -0.246588E-07  0.397E-04    1.34      28.9  T
     SCC iter.                  ...        0 min,  0.105 sec
     gradient                   ...        0 min,  0.078 sec
 * total energy  :  -138.5229194 Eh     change       -0.1354782E-02 Eh
   gradient norm :     0.0218928 Eh/α   predicted     0.0000000E+00 (-100.00%)
   displ. norm   :     0.2169342 α      lambda       -0.1256281E-02
   maximum displ.:     0.1499421 α      in ANC's #8, #13, #6, ...

........................................................................
.............................. CYCLE   22 ..............................
........................................................................
   1   -140.8909716 -0.140891E+03  0.568E-02    1.34       0.0  T
   2   -140.8909736 -0.200241E-05  0.351E-02    1.34       1.0  T
   3   -140.8909260  0.476071E-04  0.209E-02    1.34       1.0  T
   4   -140.8909751 -0.490564E-04  0.575E-03    1.34       2.0  T
   5   -140.8909786 -0.350625E-05  0.237E-03    1.34       4.8  T
   6   -140.8909785  0.790851E-07  0.161E-03    1.34       7.1  T
   7   -140.8909786 -0.141972E-06  0.867E-04    1.34      13.2  T
   8   -140.8909787 -0.715506E-07  0.352E-04    1.34      32.6  T
     SCC iter.                  ...        0 min,  0.086 sec
     gradient                   ...        0 min,  0.079 sec
 * total energy  :  -138.5238918 Eh     change       -0.9724627E-03 Eh
   gradient norm :     0.0091866 Eh/α   predicted    -0.6578069E-03 ( -32.36%)
   displ. norm   :     0.4431244 α      lambda       -0.1433220E-02
   maximum displ.:     0.3181908 α      in ANC's #8, #13, #7, ...

........................................................................
.............................. CYCLE   23 ..............................
........................................................................
   1   -140.8957252 -0.140896E+03  0.113E-01    1.33       0.0  T
   2   -140.8957289 -0.363557E-05  0.685E-02    1.33       1.0  T
   3   -140.8955818  0.147025E-03  0.361E-02    1.33       1.0  T
   4   -140.8957339 -0.152085E-03  0.833E-03    1.33       1.4  T
   5   -140.8957408 -0.688776E-05  0.351E-03    1.33       3.3  T
   6   -140.8957408  0.377432E-07  0.253E-03    1.33       4.5  T
   7   -140.8957411 -0.311799E-06  0.139E-03    1.33       8.3  T
   8   -140.8957412 -0.140553E-06  0.552E-04    1.33      20.8  T
   9   -140.8957412 -0.336047E-08  0.401E-04    1.33      28.6  T
     SCC iter.                  ...        0 min,  0.097 sec
     gradient                   ...        0 min,  0.079 sec
 * total energy  :  -138.5248510 Eh     change       -0.9591429E-03 Eh
   gradient norm :     0.0109039 Eh/α   predicted    -0.8573242E-03 ( -10.62%)
   displ. norm   :     0.4536413 α      lambda       -0.1084644E-02
   maximum displ.:     0.3109131 α      in ANC's #8, #13, #6, ...

........................................................................
.............................. CYCLE   24 ..............................
........................................................................
   1   -140.8978534 -0.140898E+03  0.125E-01    1.32       0.0  T
   2   -140.8978565 -0.312811E-05  0.751E-02    1.32       1.0  T
   3   -140.8977710  0.854853E-04  0.266E-02    1.32       1.0  T
   4   -140.8978589 -0.878913E-04  0.701E-03    1.32       1.6  T
   5   -140.8978628 -0.383041E-05  0.387E-03    1.32       3.0  T
   6   -140.8978628 -0.865482E-07  0.241E-03    1.32       4.8  T
   7   -140.8978630 -0.188178E-06  0.114E-03    1.32      10.0  T
   8   -140.8978631 -0.112154E-06  0.571E-04    1.32      20.1  T
   9   -140.8978631 -0.544631E-08  0.358E-04    1.32      32.0  T
     SCC iter.                  ...        0 min,  0.097 sec
     gradient                   ...        0 min,  0.079 sec
 * total energy  :  -138.5255250 Eh     change       -0.6740270E-03 Eh
   gradient norm :     0.0156423 Eh/α   predicted    -0.6539292E-03 (  -2.98%)
   displ. norm   :     0.3721204 α      lambda       -0.8131870E-03
   maximum displ.:     0.2730976 α      in ANC's #8, #7, #5, ...

........................................................................
.............................. CYCLE   25 ..............................
........................................................................
   1   -140.9001700 -0.140900E+03  0.821E-02    1.32       0.0  T
   2   -140.9001714 -0.135549E-05  0.493E-02    1.32       1.0  T
   3   -140.9001542  0.171837E-04  0.124E-02    1.32       1.0  T
   4   -140.9001714 -0.171563E-04  0.547E-03    1.32       2.1  T
   5   -140.9001724 -0.100822E-05  0.391E-03    1.32       2.9  T
   6   -140.9001727 -0.304183E-06  0.217E-03    1.32       5.3  T
   7   -140.9001729 -0.262839E-06  0.826E-04    1.32      13.9  T
   8   -140.9001730 -0.434463E-07  0.428E-04    1.32      26.8  T
     SCC iter.                  ...        0 min,  0.086 sec
     gradient                   ...        0 min,  0.079 sec
 * total energy  :  -138.5262292 Eh     change       -0.7041667E-03 Eh
   gradient norm :     0.0124473 Eh/α   predicted    -0.4628974E-03 ( -34.26%)
   displ. norm   :     0.4414405 α      lambda       -0.9329913E-03
   maximum displ.:     0.3227436 α      in ANC's #8, #7, #6, ...

........................................................................
.............................. CYCLE   26 ..............................
........................................................................
   1   -140.9033978 -0.140903E+03  0.924E-02    1.32       0.0  T
   2   -140.9034003 -0.250298E-05  0.557E-02    1.32       1.0  T
   3   -140.9033667  0.336166E-04  0.182E-02    1.32       1.0  T
   4   -140.9034002 -0.334654E-04  0.691E-03    1.32       1.7  T
   5   -140.9034025 -0.238584E-05  0.462E-03    1.32       2.5  T
   6   -140.9034027 -0.194219E-06  0.274E-03    1.32       4.2  T
   7   -140.9034033 -0.536587E-06  0.979E-04    1.32      11.7  T
   8   -140.9034033 -0.424047E-07  0.537E-04    1.32      21.4  T
     SCC iter.                  ...        0 min,  0.084 sec
     gradient                   ...        0 min,  0.078 sec
 * total energy  :  -138.5269878 Eh     change       -0.7586148E-03 Eh
   gradient norm :     0.0062256 Eh/α   predicted    -0.5574093E-03 ( -26.52%)
   displ. norm   :     0.4979890 α      lambda       -0.7302501E-03
   maximum displ.:     0.3600729 α      in ANC's #8, #7, #6, ...

........................................................................
.............................. CYCLE   27 ..............................
........................................................................
   1   -140.9046163 -0.140905E+03  0.942E-02    1.32       0.0  T
   2   -140.9046186 -0.223814E-05  0.564E-02    1.32       1.0  T
   3   -140.9045868  0.318184E-04  0.167E-02    1.32       1.0  T
   4   -140.9046178 -0.310550E-04  0.647E-03    1.32       1.8  T
   5   -140.9046206 -0.280549E-05  0.412E-03    1.32       2.8  T
   6   -140.9046208 -0.233056E-06  0.262E-03    1.32       4.4  T
   7   -140.9046212 -0.369378E-06  0.908E-04    1.32      12.6  T
   8   -140.9046213 -0.378756E-07  0.509E-04    1.32      22.5  T
     SCC iter.                  ...        0 min,  0.086 sec
     gradient                   ...        0 min,  0.078 sec
 * total energy  :  -138.5276176 Eh     change       -0.6297688E-03 Eh
   gradient norm :     0.0073614 Eh/α   predicted    -0.4556772E-03 ( -27.64%)
   displ. norm   :     0.5131036 α      lambda       -0.6622876E-03
   maximum displ.:     0.3656384 α      in ANC's #8, #7, #6, ...

........................................................................
.............................. CYCLE   28 ..............................
........................................................................
   1   -140.9052257 -0.140905E+03  0.921E-02    1.32       0.0  T
   2   -140.9052276 -0.185564E-05  0.548E-02    1.32       1.0  T
   3   -140.9052060  0.215746E-04  0.136E-02    1.32       1.0  T
   4   -140.9052270 -0.209672E-04  0.535E-03    1.32       2.1  T
   5   -140.9052291 -0.211694E-05  0.311E-03    1.32       3.7  T
   6   -140.9052292 -0.136477E-06  0.196E-03    1.32       5.8  T
   7   -140.9052295 -0.237053E-06  0.656E-04    1.32      17.5  T
   8   -140.9052295 -0.207779E-07  0.332E-04    1.32      34.5  T
     SCC iter.                  ...        0 min,  0.087 sec
     gradient                   ...        0 min,  0.078 sec
 * total energy  :  -138.5282146 Eh     change       -0.5970541E-03 Eh
   gradient norm :     0.0079962 Eh/α   predicted    -0.4183304E-03 ( -29.93%)
   displ. norm   :     0.5737392 α      lambda       -0.7089064E-03
   maximum displ.:     0.4052322 α      in ANC's #8, #7, #6, ...

........................................................................
.............................. CYCLE   29 ..............................
........................................................................
   1   -140.9055813 -0.140906E+03  0.100E-01    1.31       0.0  T
   2   -140.9055835 -0.216025E-05  0.595E-02    1.31       1.0  T
   3   -140.9055648  0.186934E-04  0.130E-02    1.31       1.0  T
   4   -140.9055830 -0.182129E-04  0.547E-03    1.31       2.1  T
   5   -140.9055849 -0.194243E-05  0.320E-03    1.31       3.6  T
   6   -140.9055851 -0.117908E-06  0.198E-03    1.31       5.8  T
   7   -140.9055853 -0.270929E-06  0.695E-04    1.31      16.5  T
   8   -140.9055854 -0.228877E-07  0.351E-04    1.31      32.7  T
     SCC iter.                  ...        0 min,  0.087 sec
     gradient                   ...        0 min,  0.078 sec
 * total energy  :  -138.5288507 Eh     change       -0.6360757E-03 Eh
   gradient norm :     0.0068325 Eh/α   predicted    -0.4711362E-03 ( -25.93%)
   displ. norm   :     0.6440457 α      lambda       -0.7169659E-03
   maximum displ.:     0.4544374 α      in ANC's #8, #7, #6, ...

........................................................................
.............................. CYCLE   30 ..............................
........................................................................
   1   -140.9053045 -0.140905E+03  0.111E-01    1.31       0.0  T
   2   -140.9053073 -0.275022E-05  0.659E-02    1.31       1.0  T
   3   -140.9052953  0.119344E-04  0.119E-02    1.31       1.0  T
   4   -140.9053071 -0.117885E-04  0.605E-03    1.31       1.9  T
   5   -140.9053083 -0.116804E-05  0.407E-03    1.31       2.8  T
   6   -140.9053087 -0.394951E-06  0.225E-03    1.31       5.1  T
   7   -140.9053090 -0.347062E-06  0.889E-04    1.31      12.9  T
   8   -140.9053091 -0.344513E-07  0.477E-04    1.31      24.0  T
     SCC iter.                  ...        0 min,  0.086 sec
     gradient                   ...        0 min,  0.079 sec
 * total energy  :  -138.5294799 Eh     change       -0.6291965E-03 Eh
   gradient norm :     0.0052604 Eh/α   predicted    -0.5071813E-03 ( -19.39%)
   displ. norm   :     0.6840416 α      lambda       -0.6395030E-03
   maximum displ.:     0.4836819 α      in ANC's #8, #7, #6, ...

........................................................................
.............................. CYCLE   31 ..............................
........................................................................
   1   -140.9043913 -0.140904E+03  0.116E-01    1.31       0.0  T
   2   -140.9043944 -0.305170E-05  0.693E-02    1.31       1.0  T
   3   -140.9043831  0.113184E-04  0.124E-02    1.31       1.0  T
   4   -140.9043951 -0.120059E-04  0.647E-03    1.31       1.8  T
   5   -140.9043957 -0.652311E-06  0.429E-03    1.31       2.7  T
   6   -140.9043960 -0.271002E-06  0.227E-03    1.31       5.0  T
   7   -140.9043964 -0.354000E-06  0.978E-04    1.31      11.7  T
   8   -140.9043964 -0.493100E-07  0.502E-04    1.31      22.9  T
     SCC iter.                  ...        0 min,  0.087 sec
     gradient                   ...        0 min,  0.078 sec
 * total energy  :  -138.5300271 Eh     change       -0.5471872E-03 Eh
   gradient norm :     0.0043621 Eh/α   predicted    -0.4693678E-03 ( -14.22%)
   displ. norm   :     0.6944485 α      lambda       -0.5185886E-03
   maximum displ.:     0.4941759 α      in ANC's #8, #6, #7, ...

........................................................................
.............................. CYCLE   32 ..............................
........................................................................
   1   -140.9036122 -0.140904E+03  0.116E-01    1.30       0.0  T
   2   -140.9036152 -0.296233E-05  0.692E-02    1.30       1.0  T
   3   -140.9036013  0.138937E-04  0.128E-02    1.30       1.0  T
   4   -140.9036159 -0.146296E-04  0.630E-03    1.31       1.8  T
   5   -140.9036168 -0.835372E-06  0.417E-03    1.30       2.8  T
   6   -140.9036171 -0.334838E-06  0.191E-03    1.30       6.0  T
   7   -140.9036173 -0.203215E-06  0.848E-04    1.30      13.5  T
   8   -140.9036173 -0.263107E-07  0.515E-04    1.30      22.3  T
     SCC iter.                  ...        0 min,  0.087 sec
     gradient                   ...        0 min,  0.078 sec
 * total energy  :  -138.5304568 Eh     change       -0.4297674E-03 Eh
   gradient norm :     0.0039130 Eh/α   predicted    -0.3843424E-03 ( -10.57%)
   displ. norm   :     0.6800324 α      lambda       -0.3884784E-03
   maximum displ.:     0.4882183 α      in ANC's #8, #6, #7, ...

........................................................................
.............................. CYCLE   33 ..............................
........................................................................
   1   -140.9034297 -0.140903E+03  0.112E-01    1.30       0.0  T
   2   -140.9034323 -0.262633E-05  0.661E-02    1.30       1.0  T
   3   -140.9034160  0.163840E-04  0.125E-02    1.30       1.0  T
   4   -140.9034331 -0.171272E-04  0.545E-03    1.30       2.1  T
   5   -140.9034340 -0.930475E-06  0.373E-03    1.30       3.1  T
   6   -140.9034342 -0.173655E-06  0.209E-03    1.30       5.5  T
   7   -140.9034344 -0.249759E-06  0.933E-04    1.30      12.3  T
   8   -140.9034345 -0.477577E-07  0.477E-04    1.30      24.0  T
     SCC iter.                  ...        0 min,  0.084 sec
     gradient                   ...        0 min,  0.078 sec
 * total energy  :  -138.5307675 Eh     change       -0.3106819E-03 Eh
   gradient norm :     0.0035920 Eh/α   predicted    -0.2840645E-03 (  -8.57%)
   displ. norm   :     0.6072627 α      lambda       -0.2636390E-03
   maximum displ.:     0.4396958 α      in ANC's #8, #6, #7, ...

........................................................................
.............................. CYCLE   34 ..............................
........................................................................
   1   -140.9046311 -0.140905E+03  0.978E-02    1.30       0.0  T
   2   -140.9046330 -0.190564E-05  0.576E-02    1.30       1.0  T
   3   -140.9046196  0.134405E-04  0.102E-02    1.30       1.1  T
   4   -140.9046337 -0.141517E-04  0.371E-03    1.30       3.1  T
   5   -140.9046345 -0.748351E-06  0.236E-03    1.30       4.9  T
   6   -140.9046345 -0.377524E-07  0.142E-03    1.30       8.1  T
   7   -140.9046346 -0.105395E-06  0.686E-04    1.30      16.7  T
   8   -140.9046347 -0.276271E-07  0.349E-04    1.30      32.9  T
     SCC iter.                  ...        0 min,  0.086 sec
     gradient                   ...        0 min,  0.078 sec
 * total energy  :  -138.5309752 Eh     change       -0.2076910E-03 Eh
   gradient norm :     0.0032178 Eh/α   predicted    -0.1804321E-03 ( -13.12%)
   displ. norm   :     0.5485233 α      lambda       -0.1861697E-03
   maximum displ.:     0.3998083 α      in ANC's #8, #6, #7, ...

........................................................................
.............................. CYCLE   35 ..............................
........................................................................
   1   -140.9063389 -0.140906E+03  0.873E-02    1.30       0.0  T
   2   -140.9063404 -0.142565E-05  0.512E-02    1.30       1.0  T
   3   -140.9063322  0.820374E-05  0.755E-03    1.30       1.5  T
   4   -140.9063410 -0.885855E-05  0.227E-03    1.30       5.1  T
   5   -140.9063414 -0.412819E-06  0.127E-03    1.30       9.0  T
   6   -140.9063415 -0.425138E-07  0.574E-04    1.30      20.0  T
   7   -140.9063415 -0.101626E-07  0.297E-04    1.30      38.7  T
     SCC iter.                  ...        0 min,  0.075 sec
     gradient                   ...        0 min,  0.078 sec
 * total energy  :  -138.5311207 Eh     change       -0.1454596E-03 Eh
   gradient norm :     0.0028962 Eh/α   predicted    -0.1210962E-03 ( -16.75%)
   displ. norm   :     0.4959334 α      lambda       -0.1352312E-03
   maximum displ.:     0.3635874 α      in ANC's #8, #6, #7, ...

........................................................................
.............................. CYCLE   36 ..............................
........................................................................
   1   -140.9084162 -0.140908E+03  0.788E-02    1.30       0.0  T
   2   -140.9084173 -0.110747E-05  0.464E-02    1.30       1.0  T
   3   -140.9084115  0.578437E-05  0.705E-03    1.30       1.6  T
   4   -140.9084179 -0.637985E-05  0.248E-03    1.30       4.6  T
   5   -140.9084180 -0.155596E-06  0.169E-03    1.30       6.8  T
   6   -140.9084181 -0.542515E-07  0.876E-04    1.30      13.1  T
   7   -140.9084182 -0.484320E-07  0.447E-04    1.30      25.7  T
     SCC iter.                  ...        0 min,  0.077 sec
     gradient                   ...        0 min,  0.078 sec
 * total energy  :  -138.5312233 Eh     change       -0.1025925E-03 Eh
   gradient norm :     0.0023833 Eh/α   predicted    -0.8424743E-04 ( -17.88%)
   displ. norm   :     0.4156191 α      lambda       -0.8471125E-04
   maximum displ.:     0.3065518 α      in ANC's #8, #6, #7, ...

........................................................................
.............................. CYCLE   37 ..............................
........................................................................
   1   -140.9098751 -0.140910E+03  0.668E-02    1.30       0.0  T
   2   -140.9098760 -0.851136E-06  0.396E-02    1.30       1.0  T
   3   -140.9098706  0.531416E-05  0.761E-03    1.30       1.5  T
   4   -140.9098764 -0.574193E-05  0.320E-03    1.30       3.6  T
   5   -140.9098765 -0.148509E-06  0.214E-03    1.30       5.4  T
   6   -140.9098766 -0.492948E-07  0.103E-03    1.30      11.1  T
   7   -140.9098767 -0.834579E-07  0.451E-04    1.30      25.4  T
   8   -140.9098767 -0.835703E-08  0.278E-04    1.30      41.3  T
     SCC iter.                  ...        0 min,  0.087 sec
     gradient                   ...        0 min,  0.078 sec
 * total energy  :  -138.5312839 Eh     change       -0.6067102E-04 Eh
   gradient norm :     0.0020032 Eh/α   predicted    -0.4967580E-04 ( -18.12%)
   displ. norm   :     0.2692441 α      lambda       -0.4132188E-04
   maximum displ.:     0.2006843 α      in ANC's #8, #6, #7, ...

........................................................................
.............................. CYCLE   38 ..............................
........................................................................
   1   -140.9118306 -0.140912E+03  0.439E-02    1.30       0.0  T
   2   -140.9118310 -0.433757E-06  0.262E-02    1.30       1.0  T
   3   -140.9118264  0.455743E-05  0.687E-03    1.30       1.7  T
   4   -140.9118312 -0.475860E-05  0.285E-03    1.30       4.0  T
   5   -140.9118314 -0.165257E-06  0.195E-03    1.30       5.9  T
   6   -140.9118313  0.460151E-07  0.127E-03    1.30       9.1  T
   7   -140.9118315 -0.141122E-06  0.371E-04    1.30      30.9  T
   8   -140.9118315 -0.768549E-08  0.193E-04    1.30      59.5  T
     SCC iter.                  ...        0 min,  0.086 sec
     gradient                   ...        0 min,  0.078 sec
 * total energy  :  -138.5313119 Eh     change       -0.2795262E-04 Eh
   gradient norm :     0.0017060 Eh/α   predicted    -0.2215900E-04 ( -20.73%)
   displ. norm   :     0.2971708 α      lambda       -0.2189874E-04
   maximum displ.:     0.2298435 α      in ANC's #8, #6, #7, ...

........................................................................
.............................. CYCLE   39 ..............................
........................................................................
   1   -140.9103019 -0.140910E+03  0.487E-02    1.30       0.0  T
   2   -140.9103026 -0.670073E-06  0.290E-02    1.30       1.0  T
   3   -140.9102961  0.645254E-05  0.765E-03    1.30       1.5  T
   4   -140.9103027 -0.656750E-05  0.310E-03    1.30       3.7  T
   5   -140.9103032 -0.444515E-06  0.201E-03    1.30       5.7  T
   6   -140.9103031  0.163825E-07  0.127E-03    1.30       9.1  T
   7   -140.9103032 -0.927839E-07  0.512E-04    1.30      22.4  T
   8   -140.9103033 -0.173488E-07  0.242E-04    1.30      47.4  T
     SCC iter.                  ...        0 min,  0.084 sec
     gradient                   ...        0 min,  0.078 sec
 * total energy  :  -138.5313262 Eh     change       -0.1427771E-04 Eh
   gradient norm :     0.0018060 Eh/α   predicted    -0.1138161E-04 ( -20.28%)
   displ. norm   :     0.0982592 α      lambda       -0.2228370E-04
   maximum displ.:     0.0470344 α      in ANC's #9, #5, #8, ...

........................................................................
.............................. CYCLE   40 ..............................
........................................................................
   1   -140.9155745 -0.140916E+03  0.221E-02    1.30       0.0  T
   2   -140.9155750 -0.452336E-06  0.136E-02    1.30       1.0  T
   3   -140.9155698  0.521315E-05  0.649E-03    1.30       1.8  T
   4   -140.9155748 -0.503523E-05  0.250E-03    1.30       4.6  T
   5   -140.9155755 -0.667880E-06  0.110E-03    1.30      10.4  T
   6   -140.9155755  0.778414E-08  0.738E-04    1.30      15.6  T
   7   -140.9155755 -0.171897E-07  0.358E-04    1.30      32.0  T
     SCC iter.                  ...        0 min,  0.076 sec
     gradient                   ...        0 min,  0.078 sec
 * total energy  :  -138.5313354 Eh     change       -0.9203781E-05 Eh
   gradient norm :     0.0023602 Eh/α   predicted    -0.1118998E-04 (  21.58%)
   displ. norm   :     0.0382317 α      lambda       -0.1827075E-04
   maximum displ.:     0.0199538 α      in ANC's #13, #6, #5, ...

........................................................................
.............................. CYCLE   41 ..............................
........................................................................
   1   -140.9136293 -0.140914E+03  0.947E-03    1.30       0.0  T
   2   -140.9136293 -0.423026E-07  0.610E-03    1.30       1.9  T
   3   -140.9136281  0.122020E-05  0.343E-03    1.30       3.3  T
   4   -140.9136293 -0.122247E-05  0.128E-03    1.30       9.0  T
   5   -140.9136294 -0.679588E-07  0.821E-04    1.30      14.0  T
   6   -140.9136294 -0.376045E-08  0.559E-04    1.30      20.5  T
     SCC iter.                  ...        0 min,  0.063 sec
     gradient                   ...        0 min,  0.078 sec
 * total energy  :  -138.5313492 Eh     change       -0.1379262E-04 Eh
   gradient norm :     0.0017478 Eh/α   predicted    -0.9151485E-05 ( -33.65%)
   displ. norm   :     0.1439955 α      lambda       -0.2821757E-04
   maximum displ.:     0.0613581 α      in ANC's #5, #13, #6, ...

........................................................................
.............................. CYCLE   42 ..............................
........................................................................
   1   -140.9097533 -0.140910E+03  0.301E-02    1.30       0.0  T
   2   -140.9097537 -0.377623E-06  0.191E-02    1.30       1.0  T
   3   -140.9097467  0.694146E-05  0.858E-03    1.30       1.3  T
   4   -140.9097536 -0.687171E-05  0.362E-03    1.30       3.2  T
   5   -140.9097541 -0.452048E-06  0.237E-03    1.30       4.8  T
   6   -140.9097540  0.517436E-07  0.163E-03    1.30       7.0  T
   7   -140.9097542 -0.208760E-06  0.457E-04    1.30      25.1  T
   8   -140.9097542 -0.142401E-07  0.199E-04    1.30      57.7  T
     SCC iter.                  ...        0 min,  0.086 sec
     gradient                   ...        0 min,  0.078 sec
 * total energy  :  -138.5313624 Eh     change       -0.1321192E-04 Eh
   gradient norm :     0.0021342 Eh/α   predicted    -0.1423902E-04 (   7.77%)
   displ. norm   :     0.0632180 α      lambda       -0.1272126E-04
   maximum displ.:     0.0497963 α      in ANC's #8, #9, #10, ...
 * RMSD in coord.:     0.9659364 α      energy gain  -0.9797781E-02 Eh

generating ANC from model Hessian ...
Using Lindh-Hessian (1995)
 Shifting diagonal of input Hessian by    1.0031461535256622E-002
 Lowest  eigenvalues of input Hessian
    0.010000    0.010010    0.010023    0.000000    0.000000    0.000000
    0.000000    0.000000    0.000000    0.010135    0.010329    0.011176
    0.011186    0.011541    0.012251    0.012605    0.013166    0.013338
 Highest eigenvalues
    2.151680    2.153009    2.153184    2.154830    2.411520    2.931055


........................................................................
.............................. CYCLE   43 ..............................
........................................................................
   1   -140.9102066 -0.140910E+03  0.117E-02    1.30       0.0  T
   2   -140.9102067 -0.366658E-07  0.693E-03    1.30       1.7  T
   3   -140.9102064  0.296263E-06  0.175E-03    1.30       6.6  T
   4   -140.9102067 -0.304294E-06  0.711E-04    1.30      16.1  T
   5   -140.9102067 -0.209967E-07  0.453E-04    1.30      25.3  T
     SCC iter.                  ...        0 min,  0.054 sec
     gradient                   ...        0 min,  0.078 sec
 * total energy  :  -138.5313722 Eh     change       -0.9836218E-05 Eh
   gradient norm :     0.0014841 Eh/α   predicted     0.0000000E+00 (-100.00%)
   displ. norm   :     0.0338356 α      lambda       -0.2182716E-05
   maximum displ.:     0.0139075 α      in ANC's #13, #5, #14, ...

........................................................................
.............................. CYCLE   44 ..............................
........................................................................
   1   -140.9113890 -0.140911E+03  0.206E-02    1.30       0.0  T
   2   -140.9113890 -0.615016E-07  0.123E-02    1.30       1.0  T
   3   -140.9113886  0.465440E-06  0.219E-03    1.30       5.2  T
   4   -140.9113890 -0.460472E-06  0.755E-04    1.30      15.2  T
   5   -140.9113891 -0.454932E-07  0.373E-04    1.30      30.8  T
     SCC iter.                  ...        0 min,  0.054 sec
     gradient                   ...        0 min,  0.078 sec
 * total energy  :  -138.5313709 Eh     change        0.1326826E-05 Eh
   gradient norm :     0.0013501 Eh/α   predicted    -0.5396283E-05 (-506.71%)
   displ. norm   :     0.0378764 α      lambda       -0.1860787E-04
   maximum displ.:     0.0168017 α      in ANC's #7, #6, #13, ...

........................................................................
.............................. CYCLE   45 ..............................
........................................................................
   1   -140.9127582 -0.140913E+03  0.164E-02    1.30       0.0  T
   2   -140.9127582 -0.507972E-07  0.983E-03    1.30       1.2  T
   3   -140.9127573  0.911168E-06  0.293E-03    1.30       3.9  T
   4   -140.9127582 -0.893589E-06  0.930E-04    1.30      12.3  T
   5   -140.9127583 -0.721695E-07  0.377E-04    1.30      30.5  T
     SCC iter.                  ...        0 min,  0.054 sec
     gradient                   ...        0 min,  0.078 sec
 * total energy  :  -138.5313808 Eh     change       -0.9947456E-05 Eh
   gradient norm :     0.0015970 Eh/α   predicted    -0.9312221E-05 (  -6.39%)
   displ. norm   :     0.0243667 α      lambda       -0.8493414E-05
   maximum displ.:     0.0101119 α      in ANC's #7, #6, #5, ...

........................................................................
.............................. CYCLE   46 ..............................
........................................................................
   1   -140.9115536 -0.140912E+03  0.122E-02    1.30       0.0  T
   2   -140.9115536 -0.507591E-07  0.726E-03    1.30       1.6  T
   3   -140.9115530  0.634342E-06  0.231E-03    1.30       5.0  T
   4   -140.9115536 -0.596269E-06  0.897E-04    1.30      12.8  T
   5   -140.9115537 -0.818296E-07  0.304E-04    1.30      37.8  T
     SCC iter.                  ...        0 min,  0.054 sec
     gradient                   ...        0 min,  0.078 sec
 * total energy  :  -138.5313879 Eh     change       -0.7051577E-05 Eh
   gradient norm :     0.0006115 Eh/α   predicted    -0.4250294E-05 ( -39.73%)
   displ. norm   :     0.0420815 α      lambda       -0.5222291E-05
   maximum displ.:     0.0224577 α      in ANC's #7, #6, #5, ...

........................................................................
.............................. CYCLE   47 ..............................
........................................................................
   1   -140.9109101 -0.140911E+03  0.819E-03    1.30       0.0  T
   2   -140.9109101 -0.142699E-07  0.488E-03    1.30       2.4  T
   3   -140.9109096  0.566978E-06  0.201E-03    1.30       5.7  T
   4   -140.9109102 -0.587736E-06  0.474E-04    1.30      24.2  T
   5   -140.9109102 -0.198444E-07  0.258E-04    1.30      44.5  T
     SCC iter.                  ...        0 min,  0.054 sec
     gradient                   ...        0 min,  0.078 sec
 * total energy  :  -138.5313942 Eh     change       -0.6308247E-05 Eh
   gradient norm :     0.0006698 Eh/α   predicted    -0.2614225E-05 ( -58.56%)
   displ. norm   :     0.1234016 α      lambda       -0.1123733E-04
   maximum displ.:     0.0644301 α      in ANC's #7, #6, #5, ...

........................................................................
.............................. CYCLE   48 ..............................
........................................................................
   1   -140.9105683 -0.140911E+03  0.223E-02    1.30       0.0  T
   2   -140.9105684 -0.782130E-07  0.132E-02    1.30       1.0  T
   3   -140.9105672  0.115766E-05  0.285E-03    1.30       4.0  T
   4   -140.9105684 -0.119673E-05  0.871E-04    1.30      13.2  T
   5   -140.9105685 -0.571800E-07  0.520E-04    1.30      22.1  T
   6   -140.9105685  0.311275E-09  0.349E-04    1.30      32.9  T
     SCC iter.                  ...        0 min,  0.066 sec
     gradient                   ...        0 min,  0.079 sec
 * total energy  :  -138.5314071 Eh     change       -0.1294631E-04 Eh
   gradient norm :     0.0009583 Eh/α   predicted    -0.5657672E-05 ( -56.30%)
   displ. norm   :     0.1865993 α      lambda       -0.1337985E-04
   maximum displ.:     0.0975859 α      in ANC's #7, #6, #5, ...

........................................................................
.............................. CYCLE   49 ..............................
........................................................................
   1   -140.9106755 -0.140911E+03  0.331E-02    1.30       0.0  T
   2   -140.9106757 -0.217948E-06  0.196E-02    1.30       1.0  T
   3   -140.9106753  0.461519E-06  0.248E-03    1.30       4.6  T
   4   -140.9106758 -0.527726E-06  0.137E-03    1.30       8.4  T
   5   -140.9106758 -0.187974E-07  0.107E-03    1.30      10.7  T
   6   -140.9106759 -0.652392E-07  0.420E-04    1.30      27.3  T
   7   -140.9106759 -0.780292E-08  0.222E-04    1.30      51.8  T
     SCC iter.                  ...        0 min,  0.076 sec
     gradient                   ...        0 min,  0.078 sec
 * total energy  :  -138.5314201 Eh     change       -0.1292932E-04 Eh
   gradient norm :     0.0009885 Eh/α   predicted    -0.6795195E-05 ( -47.44%)
   displ. norm   :     0.1405614 α      lambda       -0.8500270E-05
   maximum displ.:     0.0749872 α      in ANC's #7, #6, #5, ...

........................................................................
.............................. CYCLE   50 ..............................
........................................................................
   1   -140.9109374 -0.140911E+03  0.246E-02    1.30       0.0  T
   2   -140.9109376 -0.131928E-06  0.146E-02    1.30       1.0  T
   3   -140.9109367  0.919586E-06  0.283E-03    1.30       4.1  T
   4   -140.9109377 -0.100753E-05  0.121E-03    1.30       9.5  T
   5   -140.9109377 -0.285164E-07  0.859E-04    1.30      13.4  T
   6   -140.9109377 -0.279086E-07  0.271E-04    1.30      42.4  T
     SCC iter.                  ...        0 min,  0.065 sec
     gradient                   ...        0 min,  0.078 sec
 * total energy  :  -138.5314278 Eh     change       -0.7748165E-05 Eh
   gradient norm :     0.0007121 Eh/α   predicted    -0.4289996E-05 ( -44.63%)
   displ. norm   :     0.0702698 α      lambda       -0.3679626E-05
   maximum displ.:     0.0387353 α      in ANC's #7, #6, #5, ...

........................................................................
.............................. CYCLE   51 ..............................
........................................................................
   1   -140.9114449 -0.140911E+03  0.123E-02    1.30       0.0  T
   2   -140.9114449 -0.219227E-07  0.732E-03    1.30       1.6  T
   3   -140.9114435  0.136500E-05  0.297E-03    1.30       3.9  T
   4   -140.9114449 -0.142458E-05  0.664E-04    1.30      17.3  T
   5   -140.9114450 -0.351913E-07  0.360E-04    1.30      31.9  T
   6   -140.9114450  0.146377E-08  0.243E-04    1.30      47.2  T
     SCC iter.                  ...        0 min,  0.065 sec
     gradient                   ...        0 min,  0.078 sec
 * total energy  :  -138.5314318 Eh     change       -0.3997834E-05 Eh
   gradient norm :     0.0004461 Eh/α   predicted    -0.1846899E-05 ( -53.80%)
   displ. norm   :     0.0582863 α      lambda       -0.2990566E-05
   maximum displ.:     0.0325350 α      in ANC's #7, #6, #4, ...

   *** GEOMETRY OPTIMIZATION CONVERGED AFTER 51 ITERATIONS ***

------------------------------------------------------------------------
 total energy gain   :        -1.6918459 Eh    -1061.6493 kcal/mol
 total RMSD          :         1.9315606 a0        1.0221 Å
 total power (kW/mol):       -87.0968779 (step) -434.4399 (real)
------------------------------------------------------------------------

 ANCopt (total)                0 d,  0 h,  0 min, 10.225 sec
 optimizer setup                ...        0 min,  0.000 sec (  0.001%)
 model hessian                  ...        0 min,  0.039 sec (  0.383%)
 ANC generation                 ...        0 min,  0.016 sec (  0.161%)
 coordinate transformation      ...        0 min,  0.003 sec (  0.027%)
 single point calculation       ...        0 min, 10.122 sec ( 98.996%)
 optimization log               ...        0 min,  0.013 sec (  0.127%)
 hessian update                 ...        0 min,  0.002 sec (  0.021%)
 rational function              ...        0 min,  0.010 sec (  0.100%)

================
 final structure:
================
76
 xtb: 6.4.1 (bd6e46d)
Ni        7.94091963265095   -0.05351767615911    0.01642508746395
C        10.41328655790618   -3.48502364557113    0.06846609358463
C        11.37211334064118   -2.53203792513966    0.09492318004423
C        10.69281244778834   -1.27161677818454    0.07580014977049
C        11.36827545511596   -0.04773291228035    0.08407384189895
C        10.68870392689773    1.17386565281732    0.06394021813813
C        11.36418671361297    2.43652519535354    0.06766211659453
C        10.40200110529528    3.38638837279826    0.05334733344712
C         9.14661800188691    2.69705950298189    0.04134215720001
N         9.33743572614544    1.34088239068632    0.04508909734756
C         7.93072983982768    3.34877368029777    0.03420809243140
C         6.71856296537356    2.69048057888665    0.01994066874121
C         5.45583078028467    3.37158071113935    0.01268942758354
C         4.50241460745867    2.41542968880008   -0.01190679366945
C         5.18683638925635    1.15416194096243   -0.01928642011085
N         6.54002803535751    1.33631806953914    0.00293275029137
C         4.53087446042377   -0.05952225351067   -0.05024398980775
[...]
    53   6 C       54   6 C                                       1.3507692
    54   6 C       55   6 C                                       1.4350526 (max)
    52   6 C       56   7 N                                       1.3658460
    55   6 C       56   7 N                                       1.3654893
    55   6 C       57   6 C                                       1.3803406
    57   6 C       58   6 C                                       1.3804103
    58   6 C       59   6 C                                       1.4349948
    59   6 C       60   6 C                                       1.3507521
    60   6 C       61   6 C                                       1.4347337
    58   6 C       62   7 N                                       1.3653921
    61   6 C       62   7 N                                       1.3659217
    61   6 C       63   6 C                                       1.3798785
    42   6 C       64   6 C                                       1.4322491
    63   6 C       64   6 C                                       1.3799497
    44   6 C       65   7 N                                       1.3614781
    64   6 C       65   7 N                                       1.3693645
    42   6 C       66   1 H                                       1.0726637
    43   6 C       67   1 H                                       1.0725844 (min)
    47   6 C       68   1 H                                       1.0726383
    48   6 C       69   1 H                                       1.0726627
    51   6 C       70   1 H                                       1.0792744
    53   6 C       71   1 H                                       1.0728779
    54   6 C       72   1 H                                       1.0728666
    57   6 C       73   1 H                                       1.0791503
    59   6 C       74   1 H                                       1.0728622
    60   6 C       75   1 H                                       1.0728660
    63   6 C       76   1 H                                       1.0792845

 * 3 distinct bonds (by element types)

   Z      Z             #   av. dist./Å        max./Å        min./Å
   1 H    6 C          22     1.0745186     1.0793003     1.0725844
   6 C    6 C          42     1.3889004     1.4350526     1.2175506
   6 C    7 N          16     1.3656238     1.3695407     1.3614781

           -------------------------------------------------
          |               Frequency Printout                |
           -------------------------------------------------
 projected vibrational frequencies (cm⁻¹)
eigval :       -0.00    -0.00    -0.00    -0.00     0.00     0.00
eigval :       -4.45     5.27     7.96     8.03    21.74    25.71
eigval :       27.18    35.27    49.59    78.60    90.63    99.75
eigval :      100.25   120.22   120.51   123.96   150.62   155.47
eigval :      176.50   177.65   181.94   225.85   226.82   227.03
eigval :      230.19   231.67   237.26   237.88   243.06   245.98
eigval :      246.67   247.17   271.81   272.10   273.81   274.51
eigval :      288.02   314.68   316.72   317.94   319.63   341.87
eigval :      344.25   355.00   359.11   367.14   371.91   379.95
eigval :      383.09   384.03   388.81   389.53   394.04   402.48
eigval :      404.41   415.42   422.39   423.01   435.48   436.03
eigval :      459.06   459.56   504.05   507.88   531.08   614.80
eigval :      615.13   621.38   621.67   626.37   626.40   639.25
eigval :      639.65   644.85   645.31   658.10   658.53   666.11
eigval :      666.52   671.21   671.82   721.93   722.26   722.91
eigval :      723.89   758.95   759.44   760.14   766.92   778.68
eigval :      779.18   780.73   781.57   797.37   798.55   800.63
eigval :      800.75   807.22   807.42   812.20   812.85   817.93
eigval :      820.37   820.80   827.97   828.47   835.42   835.88
eigval :      838.54   839.01   846.63   846.80   847.11   847.17
eigval :      848.15   848.43   848.49   848.84   928.28   985.13
eigval :      988.03  1000.55  1001.89  1002.52  1018.48  1022.82
eigval :     1022.89  1027.73  1027.87  1032.46  1036.69  1036.96
eigval :     1040.40  1040.65  1067.59  1067.84  1069.50  1070.53
eigval :     1071.85  1072.64  1073.08  1073.94  1127.26  1141.05
eigval :     1141.33  1142.18  1168.10  1174.27  1174.74  1175.93
eigval :     1226.22  1226.30  1226.93  1244.43  1244.65  1282.04
eigval :     1282.27  1302.83  1304.06  1304.57  1308.51  1316.89
eigval :     1317.33  1330.00  1332.49  1332.56  1332.63  1343.93
eigval :     1346.78  1353.81  1356.21  1359.21  1359.52  1403.03
eigval :     1465.94  1466.90  1470.40  1478.63  1490.02  1491.80
eigval :     1514.46  1514.58  1516.05  1517.05  1530.21  1532.04
eigval :     1533.73  1535.15  1543.99  1545.47  1560.41  1562.05
eigval :     1570.35  1572.28  1581.27  1583.47  1613.45  1615.96
eigval :     2236.29  2239.02  3095.71  3095.96  3096.26  3096.40
eigval :     3097.29  3097.36  3150.26  3150.37  3150.64  3150.75
eigval :     3154.79  3154.99  3155.13  3155.32  3164.03  3164.16
eigval :     3164.80  3165.24  3169.22  3169.61  3169.83  3170.11
 reduced masses (amu)
   1: 17.91   2: 17.68   3: 18.73   4: 18.30   5: 18.55   6: 13.60   7: 11.37   8: 11.23
   9: 11.58  10: 11.44  11: 11.44  12: 10.94  13: 11.00  14: 12.65  15: 11.63  16: 19.33
  17: 14.34  18: 28.78  19: 26.94  20: 10.51  21: 10.56  22: 11.28  23: 12.55  24: 11.28
  25: 12.10  26: 12.09  27: 12.45  28: 14.46  29: 11.97  30: 12.00  31: 13.49  32: 18.68
  33: 12.30  34: 12.34  35: 13.45  36: 10.65  37: 24.83  38: 10.66  39: 42.73  40: 42.46
  41: 42.67  42: 41.84  43: 19.99  44: 12.29  45: 15.40  46: 15.90  47: 12.69  48: 12.22
  49: 12.13  50: 11.85  51: 11.37  52: 12.11  53: 12.01  54: 13.01  55: 13.88  56: 13.99
  57:  9.94  58: 10.22  59: 16.52  60: 15.59  61: 15.79  62: 16.48  63: 10.00  64: 10.29
  65: 10.26  66: 10.26  67: 11.77  68: 11.78  69: 11.73  70: 11.72  71: 12.04  72: 11.30
  73: 11.31  74: 10.87  75: 10.85  76: 10.84  77: 10.83  78: 11.18  79: 11.18  80: 11.03
  81: 11.04  82: 11.37  83: 11.38  84: 11.56  85: 11.56  86: 11.43  87: 11.41  88: 10.98
  89: 10.99  90: 11.13  91: 11.07  92: 11.18  93: 11.17  94: 11.26  95: 11.31  96: 11.37
  97: 11.39  98: 11.05  99: 11.01 100: 11.71 101: 11.75 102:  3.83 103:  3.80 104:  3.95
 105:  3.90 106:  4.26 107:  3.99 108: 11.03 109:  4.30 110:  4.30 111:  3.87 112:  3.87
 113:  3.95 114:  3.95 115:  4.07 116:  4.08 117:  3.48 118:  3.38 119:  3.48 120:  3.38
 121:  3.47 122:  3.45 123:  3.49 124:  3.48 125: 11.60 126: 12.42 127: 12.36 128: 12.09
 129: 12.13 130: 12.12 131: 11.35 132:  8.95 133:  8.95 134:  9.73 135:  9.72 136: 10.25
 137:  9.38 138:  9.54 139:  9.02 140:  9.05 141:  1.54 142:  1.54 143:  1.82 144:  1.83
 145:  1.90 146:  1.86 147:  1.96 148:  1.96 149:  5.68 150:  5.48 151:  5.51 152:  5.60
 153:  6.41 154:  7.11 155:  7.14 156:  6.35 157:  8.66 158:  8.66 159: 10.92 160:  8.44
 161:  8.80 162:  8.98 163:  8.98 164: 10.92 165: 10.57 166: 10.56 167: 10.63 168: 10.33
 169: 10.30 170: 11.51 171: 11.27 172: 10.16 173: 10.24 174: 12.11 175: 12.14 176:  9.76
 177:  9.69 178:  9.22 179:  9.18 180: 11.63 181: 11.52 182: 11.52 183: 11.51 184: 11.55
 185: 11.73 186: 11.78 187: 11.49 188: 11.72 189: 11.48 190: 11.75 191: 11.82 192: 11.82
 193: 11.73 194: 11.74 195: 11.67 196: 11.67 197: 11.59 198: 11.59 199: 11.60 200: 11.61
 201: 11.62 202: 11.63 203: 11.77 204: 11.77 205: 12.01 206: 12.01 207:  1.82 208:  1.82
 209:  1.82 210:  1.82 211:  1.82 212:  1.82 213:  1.81 214:  1.81 215:  1.81 216:  1.81
 217:  1.81 218:  1.81 219:  1.81 220:  1.81 221:  1.98 222:  1.98 223:  1.98 224:  1.98
 225:  1.97 226:  1.97 227:  1.97 228:  1.97
 IR intensities (km·mol⁻¹)
   1:  1.06   2:  0.67   3:  0.84   4:  0.20   5:  3.26   6:  0.40   7:  0.07   8:  1.05
   9:  2.52  10:  1.11  11:  0.51  12:  0.38  13:  1.12  14:  0.05  15:  1.02  16:  0.04
  17:  2.21  18:  1.48  19:  3.54  20:  0.11  21:  7.96  22:  2.03  23:  0.02  24:  1.62
  25:  0.10  26:  0.22  27:  1.66  28:  1.10  29:  1.95  30:  3.52  31:  0.48  32:  0.77
  33:  0.04  34:  0.16  35:  0.45  36:  0.50  37:  8.29  38:  1.22  39:  0.51  40:  0.72
  41:  0.21  42:  2.07  43:  0.01  44:  0.09  45:  8.30  46: 17.21  47:  4.66  48:  0.19
  49:  4.13  50:  0.72  51: 11.86  52:  0.64  53:  0.15  54:  0.07  55:  2.98  56:  1.21
  57:  0.27  58:  0.98  59: 14.72  60: 21.45  61: 12.78  62:  0.75  63:  0.67  64:  6.98
  65:  0.63  66:  0.69  67:  0.02  68:  0.02  69:  5.62  70:  0.22  71: 17.61  72:  3.88
  73:  9.83  74:  2.84  75:  0.66  76:  1.11  77:  0.43  78:  1.26  79:  0.02  80:  0.81
  81:  3.70  82:  0.70  83:  1.36  84: 12.35  85:  3.25  86: 25.47  87:  4.14  88:  4.28
  89:  4.81  90:  0.00  91:  8.19  92:  0.23  93:  0.01  94:  0.13  95:  0.07  96: 24.72
  97: 16.09  98:  0.35  99:  0.39 100: 14.28 101:  0.37 102:  0.56 103: 34.13 104:  0.01
 105:  0.06 106:  2.85 107:  8.63 108:  0.44 109:  1.77 110:  1.03 111:  1.07 112:  5.95
 113:  2.42 114:  0.31 115: 33.91 116:116.72 117:  0.21 118:  0.08 119:  2.80 120:  0.12
 121:  1.40 122:  0.60 123:  1.59 124:  0.36 125:  1.88 126:  0.47 127: 20.49 128:  0.14
 129:  8.89 130: 10.35 131:  1.86 132:  0.01 133:  0.13 134:  0.15 135:  0.09 136:  0.31
Refinement of some symmetry elements was terminated before convergence was reached.
Some symmetry elements may remain unidentified.
Molecule has no symmetry elements
It seems to be the C1 point group
 137:  1.83 138:  0.69 139: 11.87 140: 39.24 141:  1.93 142: 10.44 143:  1.28 144:  0.23
 145:  0.99 146: 16.63 147: 11.93 148:  0.19 149: 14.70 150: 16.61 151: 18.32 152:  0.63
 153: 66.78 154:  5.73 155:  5.07 156:  0.14 157:  0.05 158:  0.02 159: 90.62 160:  1.97
 161: 17.89 162: 36.28 163:  2.40 164:  0.75 165: 14.21 166: 18.51 167:  0.49 168:  3.55
 169:  5.39 170:  0.13 171: 17.52 172: 17.18 173:  3.34 174:  0.11 175: 40.25 176:  0.01
 177: 19.15 178:  0.21 179:  1.33 180:  0.19 181: 24.61 182: 18.42 183: 15.07 184:  0.24
 185:  5.05 186:  0.16 187:  1.92 188:  3.34 189:  1.84 190:  0.70 191:  6.06 192:  5.22
 193:  4.45 194:  6.02 195: 60.11 196: 54.68 197:  2.45 198:  8.70 199:  2.88 200:  3.53
 201: 89.71 202: 44.05 203:  0.56 204:  0.94 205:  0.05 206:  1.43 207:  1.78 208:  0.09
 209:  1.55 210:  0.90 211:  2.21 212: 15.11 213: 18.04 214: 19.52 215: 22.45 216: 22.08
 217:  7.43 218: 59.43 219: 59.78 220:  0.95 221:143.67 222:157.90 223:420.89 224:  9.09
 225: 10.80 226: 69.58 227:114.49 228:  9.64
 Raman intensities (amu)
   1:  0.00   2:  0.00   3:  0.00   4:  0.00   5:  0.00   6:  0.00   7:  0.00   8:  0.00
   9:  0.00  10:  0.00  11:  0.00  12:  0.00  13:  0.00  14:  0.00  15:  0.00  16:  0.00
  17:  0.00  18:  0.00  19:  0.00  20:  0.00  21:  0.00  22:  0.00  23:  0.00  24:  0.00
  25:  0.00  26:  0.00  27:  0.00  28:  0.00  29:  0.00  30:  0.00  31:  0.00  32:  0.00
  33:  0.00  34:  0.00  35:  0.00  36:  0.00  37:  0.00  38:  0.00  39:  0.00  40:  0.00
  41:  0.00  42:  0.00  43:  0.00  44:  0.00  45:  0.00  46:  0.00  47:  0.00  48:  0.00
  49:  0.00  50:  0.00  51:  0.00  52:  0.00  53:  0.00  54:  0.00  55:  0.00  56:  0.00
  57:  0.00  58:  0.00  59:  0.00  60:  0.00  61:  0.00  62:  0.00  63:  0.00  64:  0.00
  65:  0.00  66:  0.00  67:  0.00  68:  0.00  69:  0.00  70:  0.00  71:  0.00  72:  0.00
  73:  0.00  74:  0.00  75:  0.00  76:  0.00  77:  0.00  78:  0.00  79:  0.00  80:  0.00
  81:  0.00  82:  0.00  83:  0.00  84:  0.00  85:  0.00  86:  0.00  87:  0.00  88:  0.00
  89:  0.00  90:  0.00  91:  0.00  92:  0.00  93:  0.00  94:  0.00  95:  0.00  96:  0.00
  97:  0.00  98:  0.00  99:  0.00 100:  0.00 101:  0.00 102:  0.00 103:  0.00 104:  0.00
 105:  0.00 106:  0.00 107:  0.00 108:  0.00 109:  0.00 110:  0.00 111:  0.00 112:  0.00
 113:  0.00 114:  0.00 115:  0.00 116:  0.00 117:  0.00 118:  0.00 119:  0.00 120:  0.00
 121:  0.00 122:  0.00 123:  0.00 124:  0.00 125:  0.00 126:  0.00 127:  0.00 128:  0.00
 129:  0.00 130:  0.00 131:  0.00 132:  0.00 133:  0.00 134:  0.00 135:  0.00 136:  0.00
 137:  0.00 138:  0.00 139:  0.00 140:  0.00 141:  0.00 142:  0.00 143:  0.00 144:  0.00
 145:  0.00 146:  0.00 147:  0.00 148:  0.00 149:  0.00 150:  0.00 151:  0.00 152:  0.00
 153:  0.00 154:  0.00 155:  0.00 156:  0.00 157:  0.00 158:  0.00 159:  0.00 160:  0.00
 161:  0.00 162:  0.00 163:  0.00 164:  0.00 165:  0.00 166:  0.00 167:  0.00 168:  0.00
 169:  0.00 170:  0.00 171:  0.00 172:  0.00 173:  0.00 174:  0.00 175:  0.00 176:  0.00
 177:  0.00 178:  0.00 179:  0.00 180:  0.00 181:  0.00 182:  0.00 183:  0.00 184:  0.00
 185:  0.00 186:  0.00 187:  0.00 188:  0.00 189:  0.00 190:  0.00 191:  0.00 192:  0.00
 193:  0.00 194:  0.00 195:  0.00 196:  0.00 197:  0.00 198:  0.00 199:  0.00 200:  0.00
 201:  0.00 202:  0.00 203:  0.00 204:  0.00 205:  0.00 206:  0.00 207:  0.00 208:  0.00
 209:  0.00 210:  0.00 211:  0.00 212:  0.00 213:  0.00 214:  0.00 215:  0.00 216:  0.00
 217:  0.00 218:  0.00 219:  0.00 220:  0.00 221:  0.00 222:  0.00 223:  0.00 224:  0.00
 225:  0.00 226:  0.00 227:  0.00 228:  0.00
 output can be read by thermo (or use thermo option).
 writing <g98.out> molden fake output.
 recommended (thermochemical) frequency scaling factor: 1.0
           -------------------------------------------------
          |             Thermodynamic Functions             |
           -------------------------------------------------

c1  symmetry found (for desy threshold:  0.10E+00) used in thermo
 inverting freq            1   4.4530765180284773     

          ...................................................
          :                      SETUP                      :
          :.................................................:
          :  # frequencies                         222      :
          :  # imaginary freq.                       0      :
          :  linear?                             false      :
          :  only rotor calc.                    false      :
          :  symmetry                               c1      :
          :  rotational number                       1      :
          :  scaling factor                  1.0000000      :
          :  rotor cutoff                   50.0000000 cm⁻¹ :
          :  imag. cutoff                  -20.0000000 cm⁻¹ :
          :.................................................:

    mode    ω/cm⁻¹     T·S(HO)/kcal·mol⁻¹    T·S(FR)/kcal·mol⁻¹   T·S(vib)
   ------------------------------------------------------------------------
       1      4.45    -2.86776 (  0.01%)    -1.77295 ( 99.99%)    -1.77302
       2      5.27    -2.76785 (  0.01%)    -1.72300 ( 99.99%)    -1.72313
       3      7.96    -2.52364 (  0.06%)    -1.60090 ( 99.94%)    -1.60149
       4      8.03    -2.51830 (  0.07%)    -1.59823 ( 99.93%)    -1.59884
       5     21.74    -1.92873 (  3.45%)    -1.30334 ( 96.55%)    -1.32490
       6     25.71    -1.82941 (  6.53%)    -1.25362 ( 93.47%)    -1.29123
       7     27.18    -1.79646 (  8.03%)    -1.23713 ( 91.97%)    -1.28204
       8     35.27    -1.64242 ( 19.84%)    -1.15997 ( 80.16%)    -1.25568
       9     49.59    -1.44114 ( 49.18%)    -1.05898 ( 50.82%)    -1.24692
      10     78.60    -1.17038 ( 85.93%)    -0.92253 ( 14.07%)    -1.13551
      11     90.63    -1.08718 ( 91.52%)    -0.88035 (  8.48%)    -1.06964
      12     99.75    -1.03137 ( 94.06%)    -0.85196 (  5.94%)    -1.02072
      13    100.25    -1.02843 ( 94.17%)    -0.85046 (  5.83%)    -1.01806
      14    120.22    -0.92333 ( 97.09%)    -0.79666 (  2.91%)    -0.91965
      15    120.51    -0.92194 ( 97.12%)    -0.79595 (  2.88%)    -0.91831
      16    123.96    -0.90569 ( 97.42%)    -0.78758 (  2.58%)    -0.90264
      17    150.62    -0.79438 ( 98.80%)    -0.72987 (  1.20%)    -0.79361
      18    155.47    -0.77643 ( 98.94%)    -0.72048 (  1.06%)    -0.77583
      19    176.50    -0.70515 ( 99.36%)    -0.68290 (  0.64%)    -0.70501
      20    177.65    -0.70154 ( 99.38%)    -0.68098 (  0.62%)    -0.70141
      21    181.94    -0.68826 ( 99.43%)    -0.67391 (  0.57%)    -0.68818
      22    225.85    -0.56997 ( 99.76%)    -0.60986 (  0.24%)    -0.57007
      23    226.82    -0.56767 ( 99.76%)    -0.60859 (  0.24%)    -0.56777
      24    227.03    -0.56717 ( 99.77%)    -0.60832 (  0.23%)    -0.56727
      25    230.19    -0.55976 ( 99.78%)    -0.60422 (  0.22%)    -0.55986
      26    231.67    -0.55633 ( 99.78%)    -0.60232 (  0.22%)    -0.55643
      27    237.26    -0.54364 ( 99.80%)    -0.59527 (  0.20%)    -0.54374
      28    237.88    -0.54225 ( 99.81%)    -0.59449 (  0.19%)    -0.54235
      29    243.06    -0.53081 ( 99.82%)    -0.58810 (  0.18%)    -0.53091
      30    245.98    -0.52450 ( 99.83%)    -0.58456 (  0.17%)    -0.52460
      31    246.67    -0.52302 ( 99.83%)    -0.58373 (  0.17%)    -0.52312
      32    247.17    -0.52196 ( 99.83%)    -0.58314 (  0.17%)    -0.52206
      33    271.81    -0.47247 ( 99.89%)    -0.55499 (  0.11%)    -0.47256
      34    272.10    -0.47191 ( 99.89%)    -0.55467 (  0.11%)    -0.47201
      35    273.81    -0.46870 ( 99.89%)    -0.55281 (  0.11%)    -0.46879
      36    274.51    -0.46739 ( 99.89%)    -0.55206 (  0.11%)    -0.46749
      37    288.02    -0.44292 ( 99.91%)    -0.53783 (  0.09%)    -0.44301
   ------------------------------------------------------------------------

   temp. (K)  partition function   enthalpy   heat capacity  entropy
                                   cal/mol     cal/K/mol   cal/K/mol   J/K/mol
 298.15  VIB  0.737E+20            24668.305    164.627    152.515
         ROT  0.179E+09              888.752      2.981     40.742
         INT  0.132E+29            25557.058    167.608    193.257
         TR   0.211E+29             1481.254      4.968     45.820
         TOT                       27038.3115   172.5757   239.0775  1000.3002

       T/K    H(0)-H(T)+PV         H(T)/Eh          T*S/Eh         G(T)/Eh
   ------------------------------------------------------------------------
    298.15    0.430883E-01    0.573395E+00    0.113593E+00    0.459802E+00
   ------------------------------------------------------------------------

         :::::::::::::::::::::::::::::::::::::::::::::::::::::
         ::                  THERMODYNAMIC                  ::
         :::::::::::::::::::::::::::::::::::::::::::::::::::::
         :: total free energy        -138.071629778044 Eh   ::
         ::.................................................::
         :: total energy             -138.531431823627 Eh   ::
         :: zero point energy           0.530307184128 Eh   ::
         :: G(RRHO) w/o ZPVE           -0.070505138545 Eh   ::
         :: G(RRHO) contrib.            0.459802045583 Eh   ::
         :::::::::::::::::::::::::::::::::::::::::::::::::::::

optimized geometry written to: xtbopt.xyz


           -------------------------------------------------
          | TOTAL ENERGY             -138.531431823627 Eh   |
          | TOTAL ENTHALPY           -137.958036347469 Eh   |
          | TOTAL FREE ENERGY        -138.071629778044 Eh   |
          | GRADIENT NORM               0.000446171250 Eh/α |
          | HOMO-LUMO GAP               1.303399848014 eV   |
           -------------------------------------------------

------------------------------------------------------------------------
 * finished run on 2021/11/19 at 10:44:14.962     
------------------------------------------------------------------------
 total:
 * wall-time:     0 d,  0 h,  1 min, 23.263 sec
 *  cpu-time:     0 d,  0 h,  1 min, 23.260 sec
 * ratio c/w:     1.000 speedup
 SCF:
 * wall-time:     0 d,  0 h,  0 min,  0.632 sec
 *  cpu-time:     0 d,  0 h,  0 min,  0.632 sec
 * ratio c/w:     1.000 speedup
 ANC optimizer:
 * wall-time:     0 d,  0 h,  0 min, 10.365 sec
 *  cpu-time:     0 d,  0 h,  0 min, 10.362 sec
 * ratio c/w:     1.000 speedup
 analytical hessian:
 * wall-time:     0 d,  0 h,  1 min, 12.198 sec
 *  cpu-time:     0 d,  0 h,  1 min, 12.199 sec
 * ratio c/w:     1.000 speedup

