76
 energy: -136.839585929993 gnorm: 4.331997196273 xtb: 6.4.1 (bd6e46d)
Ni        8.41034900000000    0.02446900000000   -0.00463200000000
C        10.73934000000000   -3.12232400000000    1.31805700000000
C        11.65544700000000   -2.17811600000000    1.26777500000000
C        11.24426800000000   -1.12421200000000    0.34648300000000
C        11.86313800000000    0.00013400000000    0.00007300000000
C        11.15909600000000    1.22008200000000   -0.36403200000000
C        11.48720700000000    2.18013700000000   -1.21150600000000
C        10.45242700000000    3.19642200000000   -1.22840400000000
C         9.51615900000000    2.81996000000000   -0.38151200000000
N         9.91814900000000    1.58694900000000    0.18230500000000
C         8.25508400000000    3.46496000000000   -0.00236000000000
C         7.15986700000000    2.83017700000000    0.34840000000000
C         6.08624200000000    3.14813300000000    1.31742800000000
C         5.24867900000000    2.15137900000000    1.24026200000000
C         5.68697600000000    1.14769600000000    0.25981000000000
N         6.79191400000000    1.58654900000000   -0.22448200000000
C         5.07614100000000   -0.10557500000000   -0.15373800000000
C         5.74030200000000   -1.21008100000000   -0.40816300000000
C         5.36645300000000   -2.27302300000000   -1.36569000000000
C         6.31520000000000   -3.16677900000000   -1.27667100000000
C         7.30092400000000   -2.72932900000000   -0.29379300000000
N         6.94787800000000   -1.58352400000000    0.20300400000000
C         8.53181200000000   -3.38539900000000    0.15192800000000
C         9.65485400000000   -2.73953800000000    0.41904900000000
N         9.98345400000000   -1.49209700000000   -0.17935500000000
H        10.79960200000000   -4.03210400000000    1.93560300000000
H        12.57177500000000   -2.21806600000000    1.84582300000000
H        12.41457200000000    2.19693300000000   -1.81264900000000
H        10.46932600000000    4.10111100000000   -1.84102500000000
H         8.20736200000000    4.55976200000000   -0.00613800000000
H         6.03342000000000    4.02685800000000    1.94242000000000
H         4.33704800000000    2.11571000000000    1.85758600000000
H         3.97789100000000   -0.10266400000000   -0.25300900000000
H         4.49759800000000   -2.32548800000000   -2.01464000000000
H         6.31235400000000   -4.08308700000000   -1.87543000000000
H         8.49633000000000   -4.48120100000000    0.26385300000000
C        12.73429200000000   -0.00240700000000   -0.00131500000000
C        13.94226900000000    0.00504700000000    0.00038000000000
C        15.36103700000000    0.00574400000000    0.00551700000000
C        16.57655400000000   -0.00240700000000   -0.00131500000000
Ni       20.93163600000000   -0.00913300000000   -0.16358000000000
C        18.38576700000000    3.22821100000000    1.12827000000000
C        17.45940800000000    2.30103600000000    0.98372300000000
C        18.06142100000000    1.13225600000000    0.32697900000000
C        17.46846800000000    0.00013400000000    0.00007300000000
C        18.10078300000000   -1.31305300000000   -0.02181800000000
C        17.58011900000000   -2.53261500000000    0.09969400000000
C        18.61566600000000   -3.53389700000000    0.01112700000000
C        19.76904200000000   -2.87842800000000   -0.16658500000000
N        19.48258800000000   -1.50770300000000   -0.19091100000000
C        21.11066600000000   -3.45005000000000   -0.31492400000000
C        22.25286000000000   -2.84482000000000   -0.14557800000000
C        23.53157100000000   -3.26367200000000    0.49097900000000
C        24.33144700000000   -2.25802400000000    0.35276900000000
C        23.68308500000000   -1.13245400000000   -0.35657500000000
N        22.49295700000000   -1.52999800000000   -0.61488800000000
C        24.19241100000000    0.18189900000000   -0.74339700000000
C        23.53302800000000    1.31106000000000   -0.64646700000000
C        23.93083500000000    2.59576500000000   -1.26687700000000
C        23.02363800000000    3.45889100000000   -0.92573600000000
C        22.01708000000000    2.79067800000000   -0.08734200000000
N        22.34700500000000    1.55198000000000    0.05009500000000
C        20.82163200000000    3.36193800000000    0.52621800000000
C        19.65501000000000    2.75155200000000    0.58571200000000
N        19.40399400000000    1.44918800000000    0.10138200000000
H        18.19414300000000    4.21041200000000    1.59604600000000
H        16.41709300000000    2.42588800000000    1.31565900000000
H        16.49410300000000   -2.69963900000000    0.24787100000000
H        18.44359000000000   -4.59540700000000    0.08067200000000
H        21.17159300000000   -4.51816600000000   -0.60100300000000
H        23.68472000000000   -4.22699200000000    0.95208100000000
H        25.35375300000000   -2.26078100000000    0.71973700000000
H        25.22647700000000    0.14857000000000   -1.14034300000000
H        24.80690000000000    2.79844500000000   -1.88984500000000
H        23.06329100000000    4.51013100000000   -1.24736400000000
H        20.90823000000000    4.35161300000000    0.95677700000000
76
 energy: -138.008772282485 gnorm: 0.665504310681 xtb: 6.4.1 (bd6e46d)
Ni        8.41129160118258    0.02481497700273   -0.00434040262391
C        10.73670249667988   -3.12747995637150    1.31659315537200
C        11.65938697341380   -2.17477398355728    1.26685363662792
C        11.20804288425846   -1.14339917918568    0.35057176249197
C        11.69583932383166    0.00615477408112   -0.00017797922489
C        11.13144381728519    1.22643273851261   -0.36226988203810
C        11.49076634560353    2.18927933426480   -1.21845231469224
C        10.46271174107794    3.19861257383315   -1.23444427535453
C         9.51033572239121    2.81483314709452   -0.37673198865906
N         9.90897171236906    1.58362413482509    0.18205761235238
C         8.26245400749418    3.46770462643875   -0.00382753722012
C         7.15313902406002    2.82444681853391    0.34978767962492
C         6.09006352819573    3.15202332081937    1.31349150029780
C         5.23975487194888    2.14706497475900    1.24201141586704
C         5.68323929560571    1.14764192902017    0.26444525472184
N         6.80357400821392    1.58297815266205   -0.22303674290421
C         5.07112733315272   -0.09719889548786   -0.15145817440765
C         5.74300471229414   -1.21482029663775   -0.41016064257758
C         5.36261291454644   -2.27004362896872   -1.36287380447628
C         6.31896643782632   -3.17399080624855   -1.27702000740906
C         7.30455201180127   -2.73379641027374   -0.29562848655976
N         6.95000605344542   -1.57535005226218    0.19920353423099
C         8.52398475515173   -3.38944923916012    0.14948602937906
C         9.65916209451336   -2.73519727096616    0.42007273880998
N         9.98009844328223   -1.49323766883004   -0.17167782025915
H        10.79830534198507   -4.03040820451687    1.93386965956453
H        12.57194283643066   -2.21591554631249    1.84497912948180
H        12.41294460388032    2.19740249145223   -1.81196082306465
H        10.47005898483248    4.10000190035934   -1.84065715553137
H         8.20948502563475    4.55926210296274   -0.00504085235184
H         6.03433858036545    4.02640621604789    1.94173379522294
H         4.33759774635965    2.11415675712483    1.85661429672821
H         3.97897414165767   -0.10180909156210   -0.25391280740227
H         4.49825221965919   -2.32393863961373   -2.01341619814887
H         6.31415573187852   -4.08273693355165   -1.87434620360469
H         8.49573550465524   -4.47999116635410    0.26410497707648
C        12.89936430809423    0.00242623121543   -0.00283096675747
C        13.99985781962874    0.00613526752936    0.00016489937117
C        15.31054871263608    0.00482262966336    0.00432471302713
C        16.42414640797476   -0.00752161249263   -0.00476546725678
Ni       20.93044286339305   -0.00935501433580   -0.16403565607104
C        18.38816826340295    3.23331370920782    1.12963275699738
C        17.45630859543063    2.29781986256638    0.98228466980640
C        18.09514303501272    1.15209838636003    0.33135503538555
C        17.61896841120473   -0.00671463671323    0.00115609895643
C        18.12820720841785   -1.31836824543212   -0.02339466535485
C        17.57553208799482   -2.54143230313321    0.10036261899914
C        18.60594331869457   -3.53460239601411    0.01147413382921
C        19.77435825433857   -2.87298302327633   -0.17045160745422
N        19.48986724888563   -1.50578517593989   -0.18999842041581
C        21.10114435455972   -3.45439413460043   -0.31556728396697
C        22.26155448972276   -2.83801130437093   -0.14613781014498
C        23.52483875454742   -3.26832573803299    0.48686449470456
C        24.34023047885382   -2.25127977134241    0.35198150493638
C        23.68742475847633   -1.13325802021499   -0.35381958225694
N        22.48175502690733   -1.52656958644173   -0.61039494098260
C        24.19760086422352    0.17294914068487   -0.74331177155710
C        23.53138580059736    1.31591079964701   -0.64793217674152
C        23.93537525029107    2.59128629256562   -1.26708897981913
C        23.01928032641662    3.46658853525707   -0.92345655240312
C        22.01528861121750    2.79556340882494   -0.08701057489846
N        22.34485037375786    1.54381156693827    0.04704788363314
C        20.82857382249502    3.36469020928476    0.52465687958668
C        19.64923802316900    2.74593235212628    0.58672757520361
N        19.40713856109917    1.45096674475278    0.10342017560014
H        18.19590748036512    4.20863436167160    1.59492839011572
H        16.41896403849751    2.42368826113272    1.31422930600192
H        16.49653016502386   -2.70034980692684    0.24766332119058
H        18.44332096751456   -4.59516082739848    0.08073422253340
H        21.16952265809278   -4.51779792868366   -0.59723222997276
H        23.68404586250831   -4.22649656957229    0.95186698035858
H        25.35431107877091   -2.25931183709457    0.71978297153368
H        25.22492939758228    0.14907180068980   -1.13978762085331
H        24.80577225865473    2.79661426970957   -1.88878776674796
H        23.06138872002530    4.50911491027715   -1.24598337647368
H        20.90854851455641    4.35258119197799    0.95541473901823
76
 energy: -138.194377531961 gnorm: 0.380411172731 xtb: 6.4.1 (bd6e46d)
Ni        8.41301355979487    0.02373003456097   -0.00239287347327
C        10.73244841882553   -3.14560720657238    1.30577814228592
C        11.65990415863099   -2.18109528347554    1.26017483376646
C        11.14001179009628   -1.17034939823176    0.36677740211145
C        11.62271792531788    0.02767112610507    0.00183699904118
C        11.06387054617995    1.24321464651948   -0.36713710508257
C        11.48884996964813    2.22164082676122   -1.23172906164375
C        10.48654650770602    3.20845070419997   -1.24253218518006
C         9.49532834144766    2.80536189728624   -0.37617621317505
N         9.84329460009118    1.56996116417036    0.16551437686684
C         8.27758776042279    3.46951653620642   -0.00327909744169
C         7.14791579842919    2.80760367774081    0.35168574065062
C         6.08794845715072    3.15725532627961    1.29203600064822
C         5.21485776314073    2.14214506533196    1.24123527309868
C         5.68153790606629    1.14631363033315    0.28323721469951
N         6.84741458966342    1.55100370366949   -0.18991339359980
C         5.06064189029112   -0.07644878858622   -0.14433526561781
C         5.74699658530183   -1.21285567281872   -0.41675773280941
C         5.35562427614431   -2.27218997161222   -1.34515116298567
C         6.32357587997455   -3.19421828476409   -1.27146130343315
C         7.31330816291213   -2.74056886985825   -0.30662305215749
N         6.97168268979666   -1.54358101929082    0.16039043179356
C         8.50092289093506   -3.40518542064702    0.14385056063577
C         9.64803558524736   -2.73948266001335    0.42828501113889
N         9.92625424084624   -1.49944784901607   -0.12494378775893
H        10.78825824973570   -4.02966834459922    1.92604549959988
H        12.57253072519685   -2.20053865783431    1.83648108137723
H        12.40627499329829    2.20379937148747   -1.81089433647460
H        10.47915017450132    4.10055263223023   -1.84324909499466
H         8.22636497523933    4.55734034817692    0.00193252902985
H         6.04263242733059    4.02355406709055    1.93206266378971
H         4.33012172655585    2.10300766781885    1.85538702498952
H         3.97906479477525   -0.09127830136952   -0.25955062818017
H         4.50057013418545   -2.31276031917111   -2.00296630507276
H         6.32720753244448   -4.08926441436394   -1.87009701990604
H         8.48598727065765   -4.48334694936856    0.26419713897631
C        12.85158199766907    0.02216072495623   -0.00608949721479
C        14.05117906803371    0.01490366116536   -0.00183180618802
C        15.27042217630918   -0.00098347269438   -0.00020793979575
C        16.45977126731318   -0.02858703711619   -0.00264281902839
Ni       20.92605883879582   -0.00620691808485   -0.16788662999149
C        18.39789883861143    3.24529802677390    1.13235255735564
C        17.46344514284677    2.30088132884207    0.97103471133326
C        18.15849006094339    1.18243875154435    0.33806990389359
C        17.69126969051569   -0.03045746760672    0.00857122335103
C        18.19626922605930   -1.33393310710020   -0.03155958560732
C        17.57938443524057   -2.56407963820660    0.09678476623241
C        18.58579984093248   -3.53535140402509    0.00400148292829
C        19.78610015509860   -2.86580812266739   -0.18961845940630
N        19.54180500327576   -1.50465199276544   -0.18143768713739
C        21.08256307466550   -3.46021080776476   -0.31544482935709
C        22.26830399334003   -2.81993398451905   -0.15274867326186
C        23.51632646884021   -3.27043179226165    0.45975633101786
C        24.36102238352009   -2.23936545035433    0.34281891539914
C        23.69184285197965   -1.13419771822420   -0.34113002973875
N        22.44495984890622   -1.49813663170394   -0.56742660883870
C        24.21007355466566    0.15085318564965   -0.74017339429198
C        23.52922941373539    1.31410593645298   -0.65747575914816
C        23.94032355257730    2.58489274356294   -1.25891671041505
C        23.01435010458360    3.48229931892919   -0.90968961180307
C        22.01361849021341    2.80217667821610   -0.08666091010526
N        22.32816404423802    1.52023502980724    0.01611524627056
C        20.84770938389804    3.37636795091684    0.52145972437607
C        19.65579734694745    2.74236180800494    0.59703863643726
N        19.44980972789326    1.46498920325890    0.11722717776733
H        18.20860515784993    4.20695797244029    1.59228215511896
H        16.43099419016114    2.40607563865769    1.30237032707339
H        16.50981293293289   -2.70580455460850    0.24643922190220
H        18.43747903951825   -4.59505074248650    0.08126490889936
H        21.15267169895139   -4.52143782265821   -0.56856213940040
H        23.67485642843054   -4.22071064430592    0.94457253639310
H        25.36462473481376   -2.24815601934303    0.72053487681198
H        25.22427128042847    0.14758890132873   -1.13698647106740
H        24.80168888764946    2.78326368587720   -1.88243252649009
H        23.04717493679325    4.51140778251754   -1.23610111762384
H        20.91459743284059    4.36560798521909    0.94313819783696
76
 energy: -138.302754358245 gnorm: 0.209866204005 xtb: 6.4.1 (bd6e46d)
Ni        8.40397675250453    0.02288077419836    0.00142257593772
C        10.72336302440015   -3.16721858466408    1.29087345251516
C        11.65087976789196   -2.18289327935554    1.25224459073223
C        11.07491815637562   -1.18476323083532    0.38854413682375
C        11.56517164094767    0.05032390864841    0.00446754281313
C        10.98674588378212    1.25747391664141   -0.37452341693888
C        11.47755897593671    2.25396412994671   -1.23823568266699
C        10.50741697609593    3.22483035438876   -1.24296589912766
C         9.47006883043311    2.80196700706862   -0.38169363970279
N         9.76079937519871    1.55347837290019    0.12094180565920
C         8.28963856302252    3.47134668830794   -0.00352597612737
C         7.15076854762416    2.78179499723425    0.36306279090807
C         6.08703406217876    3.15735250544162    1.26500134661922
C         5.18915556324868    2.13976371262056    1.23147930578421
C         5.68296156533780    1.13982267274266    0.30900084134574
N         6.90227298939091    1.50739525585714   -0.13531411447042
C         5.05520299153024   -0.05550580111210   -0.13567115813353
C         5.75801043075164   -1.20341080048670   -0.43408128099607
C         5.35110286208299   -2.27323495137326   -1.32368020449344
C         6.32310679035275   -3.21448383550241   -1.25892171876349
C         7.32149862643444   -2.74502638593793   -0.32362699474237
N         7.00188314635302   -1.50073214454598    0.10195256090502
C         8.47056924733039   -3.42522480946133    0.13875486775089
C         9.62400379976750   -2.74921730178991    0.44718868743692
N         9.86176192702728   -1.50061624643546   -0.05528028531995
H        10.77518900370691   -4.03793363463515    1.91159872205331
H        12.56872109383635   -2.17861174562451    1.81780028911168
H        12.39422941269540    2.21009610575718   -1.80220376940284
H        10.48781494715170    4.10916449168890   -1.84215128109422
H         8.24239649532287    4.55478211352932    0.00592935166146
H         6.05199129817505    4.01915676078929    1.91193057968778
H         4.31720782294664    2.08926927059012    1.84772453077639
H         3.98093585382222   -0.07946784185165   -0.26007028098329
H         4.50163356430121   -2.29897043502930   -1.98449583013112
H         6.34182789296686   -4.10049422312973   -1.85928296875956
H         8.46874463417419   -4.49422439599531    0.25977693276383
C        12.82609038340944    0.04340690154287   -0.01118344099058
C        14.02399754212226    0.02484754467352   -0.00677644169357
C        15.28518772841453   -0.00809044667019   -0.00761610864263
C        16.48066227734288   -0.05228754153499    0.00333739938640
Ni       20.92839452432917   -0.00455288564901   -0.17245561109694
C        18.41795550640891    3.25686599039907    1.13343051882063
C        17.48350669936141    2.29828089652672    0.95677381588097
C        18.21788438132132    1.20380898846890    0.34238506585304
C        17.75050970084303   -0.05664127304563    0.02376479410994
C        18.27506741843950   -1.34797960992355   -0.03682877360956
C        17.59541852945468   -2.58299615586540    0.08798440352464
C        18.57163677929924   -3.53655748852805   -0.01152813818325
C        19.80776890443887   -2.86572368297683   -0.20711363102695
N        19.60397312274744   -1.51063038050114   -0.16820677060716
C        21.06754236986120   -3.46684769260747   -0.30995665976310
C        22.26911907290850   -2.79431057464354   -0.15347630919940
C        23.50420324333036   -3.26484599287573    0.42419678188370
C        24.37857471907299   -2.22798523502581    0.32297118352267
C        23.69417657868912   -1.13032964931233   -0.32144315667543
N        22.40285508391025   -1.46147788937128   -0.50740333842323
C        24.21932468616247    0.12855800799589   -0.73318051840650
C        23.52007137195362    1.30844417322600   -0.67705074448449
C        23.94113420229761    2.57519286252533   -1.24757274490977
C        23.01371083473779    3.49326472995482   -0.88762830223450
C        22.01322657806062    2.80670574995676   -0.09019909676321
N        22.30345595965186    1.49087734502415   -0.03239593556395
C        20.87444912338158    3.39299691393485    0.51741938629909
C        19.67420283261831    2.74443449345842    0.61337303256351
N        19.49801816127765    1.47728311371610    0.14176085362591
H        18.23054661587992    4.20908702246032    1.58775791514788
H        16.45318875248017    2.37846505835641    1.28028969716924
H        16.53386024520983   -2.70686518381878    0.24355964224927
H        18.43568549971119   -4.59607122033844    0.07721061179952
H        21.13580927944604   -4.52767360741584   -0.52696389350562
H        23.66226527441107   -4.20853768800897    0.92580707850978
H        25.37487815219722   -2.23394177329532    0.71398111969973
H        25.22616542940538    0.14669039796315   -1.12521648675882
H        24.79692426480516    2.76463469259393   -1.87156318389830
H        23.03006755112384    4.51416013717161   -1.21611337796221
H        20.92672810438450    4.38911356087347    0.92042695492182
76
 energy: -138.367678370758 gnorm: 0.122018441197 xtb: 6.4.1 (bd6e46d)
Ni        8.37377134111576    0.02271959820935    0.00906155415294
C        10.70880476352061   -3.18237677139985    1.27926420354661
C        11.62913112559508   -2.17820891375563    1.24242971081956
C        11.01807712262968   -1.17129402539419    0.41968610059695
C        11.52573867232890    0.06846111224283    0.00707286807125
C        10.91526489685451    1.25004487068043   -0.38919459037990
C        11.45840738260072    2.27098984368414   -1.23588028162204
C        10.51573720523130    3.24642769924375   -1.23797318266156
C         9.43386058091390    2.80541859368398   -0.39740782677002
N         9.67717423701824    1.53302504872872    0.04992669389301
C         8.28875496489913    3.47599457996933   -0.00423774425775
C         7.16219575330667    2.75045480126168    0.38952359296311
C         6.08676987130511    3.15077209365283    1.24467801317201
C         5.16988392447307    2.13968137973488    1.21604857581900
C         5.68852623638413    1.12430192916973    0.34050341742319
N         6.94983704133005    1.46507273682144   -0.06946259226427
C         5.05916886982522   -0.04163905156002   -0.12803246579263
C         5.77810720619910   -1.18648293029041   -0.46588754797741
C         5.34976544032667   -2.27062023481376   -1.30985682808060
C         6.31369640976621   -3.22899748730410   -1.24234697373110
C         7.32686042271669   -2.74473762910785   -0.34635580391138
N         7.03228188887594   -1.45888872554411    0.03521276423656
C         8.43846609522071   -3.44422599118206    0.13679562334453
C         9.58624921933468   -2.75775512351907    0.48084430548520
N         9.78576628558109   -1.48768603138258    0.02748660317069
H        10.76573298235578   -4.05822657800783    1.88915713801231
H        12.55935482168239   -2.15505674245684    1.78482225541430
H        12.38200306608707    2.21158982740349   -1.78205573103118
H        10.49356354709828    4.13376366601178   -1.83208769662897
H         8.24465923420466    4.55535926132361    0.00287414889322
H         6.05549932670478    4.01878032190545    1.88098148244506
H         4.29565059486383    2.07859000937115    1.82743119960972
H         3.98593342751949   -0.07181080053036   -0.24820333966291
H         4.49470446239731   -2.28700842948379   -1.95980232221087
H         6.34867486743311   -4.11855628498227   -1.83648846368773
H         8.44525336511131   -4.51290662102455    0.24357023516150
C        12.82004324826089    0.06012040977267   -0.01861865783182
C        14.01724290131138    0.03139432354275   -0.01579706308995
C        15.28557133580750   -0.01099109832320   -0.01562375595193
C        16.47908657815188   -0.07229822160438    0.01510688069381
Ni       20.94716855509886   -0.00761760105874   -0.16986320183783
C        18.44759893911458    3.26015836051795    1.13312928295553
C        17.51826232716858    2.28802361846806    0.94131500756798
C        18.26259852384911    1.20139272639530    0.34870392431336
C        17.78444656308614   -0.07914441911084    0.04736070503260
C        18.34298364596215   -1.34582033232020   -0.03648374287540
C        17.62079346576848   -2.58629048723722    0.07256419398067
C        18.57147939417943   -3.54056201877895   -0.03418558521260
C        19.83786701391982   -2.87346154788781   -0.21588125360225
N        19.66247126185462   -1.51935271527496   -0.15218199974088
C        21.06714091993029   -3.47725859894009   -0.29771162798276
C        22.26500983513294   -2.76522837793786   -0.14177178825235
C        23.49433830582430   -3.25214549912296    0.39328210747323
C        24.38887857290435   -2.21921841592784    0.29757958633081
C        23.69356268606154   -1.11708680496152   -0.29559478133051
N        22.37109233307261   -1.42793878960591   -0.44751662186614
C        24.22065787463436    0.11456575154313   -0.72400211876960
C        23.50082581150856    1.30043844411676   -0.70844985902475
C        23.93847990073158    2.56371263635350   -1.24020326431370
C        23.02089920532497    3.49574390131224   -0.86283093469535
C        22.01340448295130    2.80805630693582   -0.10124676501400
N        22.27567721975535    1.46479629410065   -0.09005775443568
C        20.90467572549726    3.41196206844226    0.51220124776695
C        19.70551074781412    2.74932046163493    0.63515648913773
N        19.55024385388820    1.47689227894379    0.17705765299500
H        18.26005022113385    4.21412006569486    1.58090699897963
H        16.48493750136379    2.34481035361398    1.24706049436208
H        16.56323665579865   -2.69618578526490    0.23713944108380
H        18.44360654211464   -4.60094762723299    0.06317442864349
H        21.13252556198512   -4.54066173931165   -0.47656816874935
H        23.65265431722482   -4.19594690993501    0.89171327601902
H        25.38481823708300   -2.22037806210558    0.69207738266392
H        25.23287314888601    0.14861041264735   -1.09733007561604
H        24.79761345885412    2.74394695763931   -1.85816649425255
H        23.01911311350512    4.51884267892591   -1.18195562487699
H        20.94603336067459    4.42226399998173    0.88294294376287
76
 energy: -138.409493522659 gnorm: 0.084076235313 xtb: 6.4.1 (bd6e46d)
Ni        8.33934000246398    0.01919048158162    0.01754526747426
C        10.68843448827826   -3.18898734556424    1.27611146361664
C        11.59487078469878   -2.17065048265075    1.23449046286294
C        10.95728238793492   -1.14206946948987    0.45944836547269
C        11.48401280672952    0.07861167668765    0.00987362096147
C        10.85017892360628    1.23049374090220   -0.41685249978619
C        11.43005896790421    2.27425458039946   -1.23313059323192
C        10.50742037904839    3.26525047606887   -1.23614756234436
C         9.39262030702330    2.80834884238137   -0.42845813029843
N         9.60231985867308    1.51449925056147   -0.02646851439978
C         8.27161218113894    3.48162871370780   -0.00409535815434
C         7.17016947528299    2.72489415697211    0.42167812875162
C         6.07696414852119    3.14470751901527    1.23536520816117
C         5.15502423262721    2.13952075202051    1.20727456470085
C         5.69447258037678    1.10235147977674    0.37638378739846
N         6.97766529814364    1.43052065683460   -0.00151285489163
C         5.06564926394842   -0.03818909118765   -0.12306927182182
C         5.79429443639126   -1.17004893884535   -0.50206410816445
C         5.34373859169303   -2.26865949713945   -1.30735713466388
C         6.29688253140546   -3.23650163857434   -1.23221050828446
C         7.32775114233850   -2.73990955588624   -0.37369496443132
N         7.05332497950014   -1.42995986742983   -0.02802292352469
C         8.40998161197517   -3.45483122409430    0.13840540232522
C         9.54043183040048   -2.75793831343224    0.52585781018756
N         9.70736622631467   -1.46608694968366    0.10927255771693
H        10.76322660974443   -4.08723757287801    1.85623978389113
H        12.54574615660591   -2.13452849577603    1.74087063860079
H        12.36914449484357    2.21371909610395   -1.75386358908200
H        10.50244664046114    4.16906980648919   -1.80963802894794
H         8.23252417195106    4.55881368788905    0.00163268767619
H         6.04565924277100    4.02939751499689    1.84472872717774
H         4.26282987706299    2.07568740356597    1.79630699875579
H         3.99067738352906   -0.06741740191273   -0.22953988313804
H         4.47301038722349   -2.28108932371889   -1.93364468777087
H         6.34040416077933   -4.14382982457328   -1.80217151078472
H         8.41655882757146   -4.52869603769596    0.21776602546164
C        12.80408517682531    0.06980487376564   -0.02602854406187
C        14.00098054737892    0.03594279282893   -0.02963790883853
C        15.29157927815130   -0.00707996188843   -0.02525479061543
C        16.48507806452789   -0.08524507883942    0.03276882813319
Ni       20.97271237863811   -0.01002838614676   -0.15556716578662
C        18.48223079075718    3.25747068456111    1.13372405192987
C        17.56363539858973    2.27624574531017    0.92926416613432
C        18.30898432793315    1.18378730448254    0.36435474311063
C        17.81480235978576   -0.09358279366076    0.07724386555805
C        18.39755750052744   -1.33753021495123   -0.02935135708029
C        17.65370961064588   -2.57917447353412    0.05533912586737
C        18.58581979350507   -3.54677695848463   -0.05853488072815
C        19.86662233503081   -2.88445901151277   -0.21944188207429
N        19.71273633718934   -1.52718364506350   -0.13974411041884
C        21.08609474083200   -3.49186303899955   -0.28008680838211
C        22.26495542849802   -2.74355041727199   -0.12302712189240
C        23.50130592597251   -3.24191964217726    0.36996327764438
C        24.39914132020244   -2.21400698189097    0.27779416329344
C        23.69261037966814   -1.09820741536446   -0.26772493938668
N        22.35643895409669   -1.40275471654816   -0.39239184816903
C        24.21863405791769    0.11255897173106   -0.71705088594850
C        23.48282015896426    1.29416883972186   -0.74285738201730
C        23.94097552874339    2.55672994675408   -1.24089033853318
C        23.03652967713100    3.49412530850045   -0.84718735888022
C        22.01566323380237    2.80685298698959   -0.12034526924082