76
 energy: -138.531431823609 gnorm: 0.000446218083 xtb: 6.4.1 (bd6e46d)
Ni        7.94091940961067   -0.05355922604938    0.01639746183115
C        10.41326854917247   -3.48507804986434    0.06843582687054
C        11.37210041405713   -2.53209730367683    0.09488790311923
C        10.69280605400762   -1.27167263330539    0.07576504420317
C        11.36827549843605   -0.04779228969572    0.08403424244056
C        10.68871029621918    1.17380979847211    0.06390085874032
C        11.36419970717516    2.43646581066538    0.06761819556033
C        10.40201902237455    3.38633400110394    0.05330511325042
C         9.14663226777164    2.69701168351586    0.04130552222294
N         9.33744290418722    1.34083357866126    0.04505416326653
C         7.93074749319732    3.34873221474619    0.03417456424892
C         6.71857712215376    2.69044543533491    0.01991252075765
C         5.45584847800600    3.37155216657183    0.01266449862290
C         4.50242721295243    2.41540609339448   -0.01192672578129
C         5.18684236500193    1.15413474907222   -0.01930653997786
N         6.54003504240218    1.33628383113063    0.00290758897186
C         4.53087397329156   -0.05954606480435   -0.05025970165690
C         5.19138556744548   -1.27113899476719   -0.05489234538246
C         4.51204545800615   -2.53474588233709   -0.08712157012253
C         5.46899603157387   -3.48760904760487   -0.07428164478421
C         6.72875312711586   -2.80219166900123   -0.03417199972355
N         6.54497772461122   -1.44863848228975   -0.02471499460868
C         7.94306010783956   -3.45591930854119   -0.00443091901396
C         9.15601933690169   -2.79981924274811    0.03447481548549
N         9.34225170265860   -1.44311282856594    0.04158620596508
H        10.52369366316663   -4.55202526998435    0.07081871383356
H        12.43833856687284   -2.64522596613203    0.12345277020925
H        12.43036381608322    2.55326662547617    0.07931895157730
H        10.50912652105982    4.45363092815242    0.05099862071499
H         7.92906850153705    4.42800747968753    0.03959600266801
H         5.34256474996777    4.43835272469005    0.02475930117025
H         3.43534035881211    2.52571195748629   -0.02466769837877
H         3.45194218103813   -0.06114417019619   -0.07164159420673
H         3.44563391975000   -2.64880637748217   -0.11494912142191
H         5.35987447318906   -4.55479452336100   -0.08911240405368
H         7.94577205418495   -4.53519348409417   -0.01144024716991
C        12.76581668340839   -0.04426682456720    0.11062619264567
C        13.98311323061595   -0.04362249825564    0.13548738527969
C        15.32553888990188   -0.03198423629635    0.15268109088544
C        16.54298103818560   -0.02297480200181    0.17094158250471
Ni       21.35550993855018    0.05590652638802   -0.02367497764284
C        18.85836088318994    3.44274966273199    0.34763349375458
C        17.90818718479854    2.48168781112119    0.29689044044059
C        18.59901197883649    1.23277089388497    0.18160187955411
C        17.94029677442506   -0.00078538001156    0.16672312565924
C        18.64019347913827   -1.21117838431274    0.18746580140591
C        17.99188943585674   -2.48178759043414    0.31227353136144
C        18.97361191700589   -3.41085437205353    0.35812813726203
C        20.21289551846635   -2.70351844194246    0.23395184509554
N        19.99326615005196   -1.35507949197098    0.14048005914010
C        21.43743011957937   -3.33507514994964    0.15620253721369
C        22.61951219529007   -2.66327402404173   -0.07970215145837
C        23.87581034108417   -3.32663740164967   -0.27996411459150
C        24.78465615453615   -2.36153601042133   -0.53910869038830
C        24.08510663200751   -1.11037641418734   -0.47124122272141
N        22.76210922458114   -1.31010326201518   -0.19857265804937
C        24.70870048460224    0.11330972129532   -0.60931044586870
C        24.05017558094007    1.31409926661034   -0.43615734532318
C        24.71310152662852    2.58644237946254   -0.46586262186849
C        23.77190202309808    3.51847869321076   -0.20131961894108
C        22.53315000371242    2.81408345377285   -0.03464162218468
N        22.71889335629475    1.46813800177991   -0.17490013482777
C        21.32632219680748    3.44647127185450    0.18380046706229
C        20.12127036345161    2.77622312956208    0.23745426344864
N        19.94682594157901    1.42129385279921    0.14314072855792
H        18.73753058607369    4.50470215922377    0.43854225187433
H        16.84135928316930    2.58206252698480    0.34422446100454
H        16.92924511297020   -2.61692576898295    0.36774922846222
H        18.88875401714624   -4.47593140925986    0.45307725069254
H        21.46519125721144   -4.41058888843467    0.24183458712838
H        24.01427337114264   -4.38957704527246   -0.23463982234812
H        25.83260759451040   -2.45940411922941   -0.74710489523336
H        25.76646820146479    0.13159029580040   -0.82228606514712
H        25.76076498141836    2.71975690141295   -0.65470602314579
H        23.87754217999876    4.58386585430639   -0.13180843320915
H        21.31849058591031    4.52175780249116    0.27628105462970
