      -----------------------------------------------------------      
     |                   =====================                   |     
     |                           x T B                           |     
     |                   =====================                   |     
     |                         S. Grimme                         |     
     |          Mulliken Center for Theoretical Chemistry        |     
     |                    University of Bonn                     |     
      -----------------------------------------------------------      

   * xtb version 6.4.1 (bd6e46d) compiled by 'conda@4901f00b25ba' on 2021-06-10

   xtb is free software: you can redistribute it and/or modify it under
   the terms of the GNU Lesser General Public License as published by
   the Free Software Foundation, either version 3 of the License, or
   (at your option) any later version.
   
   xtb is distributed in the hope that it will be useful,
   but WITHOUT ANY WARRANTY; without even the implied warranty of
   MERCHANTABILITY or FITNESS FOR A PARTICULAR PURPOSE.  See the
   GNU Lesser General Public License for more details.
   
   Cite this work as:
   * C. Bannwarth, E. Caldeweyher, S. Ehlert, A. Hansen, P. Pracht,
     J. Seibert, S. Spicher, S. Grimme, WIREs Comput. Mol. Sci., 2020, 11,
     e01493. DOI: 10.1002/wcms.1493
   
   for GFN2-xTB:
   * C. Bannwarth, S. Ehlert and S. Grimme., J. Chem. Theory Comput., 2019,
     15, 1652-1671. DOI: 10.1021/acs.jctc.8b01176
   for GFN1-xTB:
   * S. Grimme, C. Bannwarth, P. Shushkov, J. Chem. Theory Comput., 2017,
     13, 1989-2009. DOI: 10.1021/acs.jctc.7b00118
   for GFN0-xTB:
   * P. Pracht, E. Caldeweyher, S. Ehlert, S. Grimme, ChemRxiv, 2019, preprint.
     DOI: 10.26434/chemrxiv.8326202.v1
   for GFN-FF:
   * S. Spicher and S. Grimme, Angew. Chem. Int. Ed., 2020, 59, 15665-15673.
     DOI: 10.1002/anie.202004239
   
   for DFT-D4:
   * E. Caldeweyher, C. Bannwarth and S. Grimme, J. Chem. Phys., 2017,
     147, 034112. DOI: 10.1063/1.4993215
   * E. Caldeweyher, S. Ehlert, A. Hansen, H. Neugebauer, S. Spicher,
     C. Bannwarth and S. Grimme, J. Chem. Phys., 2019, 150, 154122.
     DOI: 10.1063/1.5090222
   * E. Caldeweyher, J.-M. Mewes, S. Ehlert and S. Grimme, Phys. Chem. Chem. Phys.
     2020, 22, 8499-8512. DOI: 10.1039/D0CP00502A
   
   for sTDA-xTB:
   * S. Grimme and C. Bannwarth, J. Chem. Phys., 2016, 145, 054103.
     DOI: 10.1063/1.4959605
   
   in the mass-spec context:
   * V. Asgeirsson, C. Bauer and S. Grimme, Chem. Sci., 2017, 8, 4879.
     DOI: 10.1039/c7sc00601b
   * J. Koopman and S. Grimme, ACS Omega 2019, 4, 12, 15120-15133.
     DOI: 10.1021/acsomega.9b02011
   
   for metadynamics refer to:
   * S. Grimme, J. Chem. Theory Comput., 2019, 155, 2847-2862
     DOI: 10.1021/acs.jctc.9b00143
   
   for SPH calculations refer to:
   * S. Spicher and S. Grimme, J. Chem. Theory Comput., 2021, 17, 1701-1714
     DOI: 10.1021/acs.jctc.0c01306
   
   with help from (in alphabetical order)
   P. Atkinson, C. Bannwarth, F. Bohle, G. Brandenburg, E. Caldeweyher
   M. Checinski, S. Dohm, S. Ehlert, S. Ehrlich, I. Gerasimov, J. Koopman
   C. Lavigne, S. Lehtola, F. März, M. Müller, F. Musil, H. Neugebauer
   J. Pisarek, C. Plett, P. Pracht, J. Seibert, P. Shushkov, S. Spicher
   M. Stahn, M. Steiner, T. Strunk, J. Stückrath, T. Rose, and J. Unsleber
   
 * started run on 2021/11/19 at 19:08:33.778     

           -------------------------------------------------
          |                Calculation Setup                |
           -------------------------------------------------

          program call               : /home/jeff/miniconda3/bin/xtb input_structure_1.xyz --gfn 2 --ohess normal --parallel 1 --etemp 300 --chrg 0 --uhf 0 -I det_control.in
          hostname                   : jelfscompute1
          coordinate file            : input_structure_1.xyz
          omp threads                :                     1
          number of atoms            :                   278
          number of electrons        :                   882
          charge                     :                     0
          spin                       :                   0.0
          first test random number   :      0.75448440791236

   ID    Z sym.   atoms
    1    6 C      1-8, 10-14, 16-20, 22, 23, 38-45, 47-51, 53-57, 59, 60,
                  75-106, 108-112, 114-118, 120, 121, 135-142, 144-148,
                  150-154, 156, 157, 171-178, 180-184, 186-190, 192, 193,
                  207-214, 216-220, 222-226, 228, 229, 243-250, 252-256,
                  258-262, 264, 265
    2    7 N      9, 15, 21, 24, 46, 52, 58, 61, 107, 113, 119, 122, 143,
                  149, 155, 158, 179, 185, 191, 194, 215, 221, 227, 230, 251,
                  257, 263, 266
    3    1 H      25-37, 62-74, 123-134, 159-170, 195-206, 231-242, 267-278

molecular fragmentation (1/2 indicates fragments):
111111111111111111111111111111111111122222222222222222222222222222222222
222222222222222222222222222222222222222222222222222222222222222222222222
222222222222222222222222222222222222222222222222222222222222222222222222
22222222222222222222222222222222222222222222222222222222222222
# atoms in fragment 1/2:    37   241
 fragment masses (1/2) :      309.34     2139.29
CMA distance (Bohr)    :  84.979
constraining FC (au)   :  0.0500

           -------------------------------------------------
          |                 G F N 2 - x T B                 |
           -------------------------------------------------

        Reference                      10.1021/acs.jctc.8b01176
      * Hamiltonian:
        H0-scaling (s, p, d)           1.850000    2.230000    2.230000
        zeta-weighting                 0.500000
      * Dispersion:
        s8                             2.700000
        a1                             0.520000
        a2                             5.000000
        s9                             5.000000
      * Repulsion:
        kExp                           1.500000    1.000000
        rExp                           1.000000
      * Coulomb:
        alpha                          2.000000
        third order                    shell-resolved
        anisotropic                    true
        a3                             3.000000
        a5                             4.000000
        cn-shift                       1.200000
        cn-exp                         4.000000
        max-rad                        5.000000


          ...................................................
          :                      SETUP                      :
          :.................................................:
          :  # basis functions                 854          :
          :  # atomic orbitals                 854          :
          :  # shells                          470          :
          :  # electrons                       882          :
          :  max. iterations                   250          :
          :  Hamiltonian                  GFN2-xTB          :
          :  restarted?                      false          :
          :  GBSA solvation                  false          :
          :  PC potential                    false          :
          :  electronic temp.          300.0000000     K    :
          :  accuracy                    1.0000000          :
          :  -> integral cutoff          0.2500000E+02      :
          :  -> integral neglect         0.1000000E-07      :
          :  -> SCF convergence          0.1000000E-05 Eh   :
          :  -> wf. convergence          0.1000000E-03 e    :
          :  Broyden damping             0.4000000          :
          ...................................................

 iter      E             dE          RMSdq      gap      omega  full diag
   1   -483.3316107 -0.483332E+03  0.522E+00    0.02       0.0  T
   2   -483.4000940 -0.684833E-01  0.357E+00    0.07       1.0  T
   3   -462.7200292  0.206801E+02  0.389E+00    0.02       1.0  T
   4   -318.8425679  0.143877E+03  0.785E+00    0.07       1.0  T
   5   -450.1827080 -0.131340E+03  0.414E+00    0.03       1.0  T
   6   -473.6614553 -0.234787E+02  0.307E+00    0.09       1.0  T
   7   -481.8984497 -0.823699E+01  0.187E+00    0.07       1.0  T
   8   -480.5863134  0.131214E+01  0.180E+00    0.05       1.0  T
   9   -483.9466987 -0.336039E+01  0.975E-01    0.17       1.0  T
  10   -483.7783540  0.168345E+00  0.103E+00    0.17       1.0  T
  11   -484.2147000 -0.436346E+00  0.679E-01    0.04       1.0  T
  12   -484.3095976 -0.948975E-01  0.515E-01    0.03       1.0  T
  13   -484.2915845  0.180131E-01  0.489E-01    0.05       1.0  T
  14   -484.3450119 -0.534274E-01  0.347E-01    0.03       1.0  T
  15   -484.2776246  0.673873E-01  0.401E-01    0.10       1.0  T
  16   -484.3572015 -0.795769E-01  0.230E-01    0.03       1.0  T
  17   -484.3661537 -0.895226E-02  0.153E-01    0.03       1.0  T
  18   -484.3725570 -0.640333E-02  0.828E-02    0.02       1.0  T
  19   -484.3612022  0.113549E-01  0.131E-01    0.04       1.0  T
  20   -484.3630440 -0.184186E-02  0.113E-01    0.04       1.0  T
  21   -484.3661250 -0.308094E-02  0.912E-02    0.04       1.0  T
  22   -484.3738981 -0.777311E-02  0.508E-02    0.02       1.0  T
  23   -484.3730708  0.827298E-03  0.667E-02    0.02       1.0  T
  24   -484.3740210 -0.950253E-03  0.474E-02    0.02       1.0  T
  25   -484.3744216 -0.400520E-03  0.362E-02    0.02       1.0  T
  26   -484.3745145 -0.929064E-04  0.326E-02    0.02       1.0  T
  27   -484.3745154 -0.907974E-06  0.326E-02    0.02       1.0  T
  28   -484.3746458 -0.130381E-03  0.270E-02    0.02       1.0  T
  29   -484.3748197 -0.173997E-03  0.158E-02    0.02       1.0  T
  30   -484.3748881 -0.683088E-04  0.813E-03    0.02       1.0  T
  31   -484.3749178 -0.296940E-04  0.154E-03    0.02       3.9  T
  32   -484.3749186 -0.875742E-06  0.939E-04    0.02       6.4  T
  33   -484.3749180  0.621684E-06  0.127E-03    0.02       4.7  T
  34   -484.3749187 -0.651132E-06  0.650E-04    0.02       9.2  T

   *** convergence criteria satisfied after 34 iterations ***

         #    Occupation            Energy/Eh            Energy/eV
      -------------------------------------------------------------
         1        2.0000           -0.6964241             -18.9507
       ...           ...                  ...                  ...
       435        2.0000           -0.3478080              -9.4643
       436        2.0000           -0.3475393              -9.4570
       437        2.0000           -0.3473815              -9.4527
       438        2.0000           -0.3467403              -9.4353
       439        2.0000           -0.3423918              -9.3170
       440        2.0000           -0.3356468              -9.1334
       441        1.1807           -0.3205534              -8.7227 (HOMO)
       442        0.7631           -0.3197474              -8.7008 (LUMO)
       443        0.0306           -0.3162492              -8.6056
       444        0.0256           -0.3160777              -8.6009
       445        0.0000           -0.3079506              -8.3798
       446        0.0000           -0.3076303              -8.3710
       ...           ...                  ...                  ...
       854                          3.8752253             105.4502
      -------------------------------------------------------------
                  HL-Gap            0.0008060 Eh            0.0219 eV
             Fermi-level           -0.3202062 Eh           -8.7133 eV

 SCC (total)                   0 d,  0 h,  0 min,  8.497 sec
 SCC setup                      ...        0 min,  0.013 sec (  0.154%)
 Dispersion                     ...        0 min,  0.027 sec (  0.318%)
 classical contributions        ...        0 min,  0.003 sec (  0.029%)
 integral evaluation            ...        0 min,  0.199 sec (  2.343%)
 iterations                     ...        0 min,  7.691 sec ( 90.513%)
 molecular gradient             ...        0 min,  0.534 sec (  6.283%)
 printout                       ...        0 min,  0.030 sec (  0.358%)

         :::::::::::::::::::::::::::::::::::::::::::::::::::::
         ::                     SUMMARY                     ::
         :::::::::::::::::::::::::::::::::::::::::::::::::::::
         :: total energy            -471.975356376721 Eh    ::
         :: gradient norm              4.949519078671 Eh/a0 ::
         :: HOMO-LUMO gap              0.021933059352 eV    ::
         ::.................................................::
         :: SCC energy              -484.374918656457 Eh    ::
         :: -> isotropic ES            0.280381622558 Eh    ::
         :: -> anisotropic ES         -0.017271718733 Eh    ::
         :: -> anisotropic XC          0.340437455196 Eh    ::
         :: -> dispersion             -0.390666083733 Eh    ::
         :: repulsion energy          12.403250105721 Eh    ::
         :: add. restraining           0.000000000000 Eh    ::
         :: total charge              -0.000000000453 e     ::
         :::::::::::::::::::::::::::::::::::::::::::::::::::::

      ----------------------------------------------------------- 
     |                   =====================                   |
     |                        A N C O P T                        |
     |                   =====================                   |
     |               Approximate Normal Coordinate               |
     |                Rational Function Optimizer                |
      ----------------------------------------------------------- 

          ...................................................
          :                      SETUP                      :
          :.................................................:
          :   optimization level            normal          :
          :   max. optcycles                   834          :
          :   ANC micro-cycles                  20          :
          :   degrees of freedom               828          :
          :.................................................:
          :   RF solver                   davidson          :
          :   write xtbopt.log                true          :
          :   linear?                        false          :
          :   energy convergence         0.5000000E-05 Eh   :
          :   grad. convergence          0.1000000E-02 Eh/α :
          :   maximium RF displ.         1.0000000          :
          :   Hlow (freq-cutoff)         0.1000000E-01      :
          :   Hmax (freq-cutoff)         5.0000000          :
          :   S6 in model hess.         20.0000000          :
          ...................................................

generating ANC from model Hessian ...
Using Lindh-Hessian (1995)
 Shifting diagonal of input Hessian by    1.0028574198529813E-002
 Lowest  eigenvalues of input Hessian
    0.010000    0.010013    0.010017    0.010018    0.010019    0.010020
    0.010020    0.010024    0.010026    0.010027    0.010028    0.000000
    0.000000    0.000000    0.000000    0.000000    0.000000    0.010029
 Highest eigenvalues
    4.058991    4.150199    4.161499    4.161499    4.161501    4.161501


........................................................................
.............................. CYCLE    1 ..............................
........................................................................
   1   -484.3749189 -0.484375E+03  0.253E-04    0.02       0.0  T
   2   -484.3749187  0.213144E-06  0.592E-04    0.02      10.1  T
   3   -484.3749174  0.129678E-05  0.139E-03    0.02       4.3  T
   4   -484.3749164  0.994228E-06  0.173E-03    0.02       3.5  T
   5   -484.3749184 -0.198230E-05  0.843E-04    0.02       7.1  T
   6   -484.3749188 -0.425818E-06  0.420E-04    0.02      14.3  T
     SCC iter.                  ...        0 min,  1.370 sec
     gradient                   ...        0 min,  0.535 sec
 * total energy  :  -471.9753565 Eh     change       -0.1487430E-06 Eh
   gradient norm :     4.9495126 Eh/α   predicted     0.0000000E+00 (-100.00%)
   displ. norm   :     0.7242231 α      lambda       -0.3524274E+01
   maximum displ.:     0.3363788 α      in ANC's #828, #731, #825, ...

........................................................................
.............................. CYCLE    2 ..............................
........................................................................
   1   -484.6255264 -0.484626E+03  0.543E-01    0.17       0.0  T
   2   -484.6143974  0.111290E-01  0.472E-01    0.10       1.0  T
   3   -484.6334384 -0.190410E-01  0.302E-01    0.17       1.0  T
   4   -484.5052033  0.128235E+00  0.445E-01    0.11       1.0  T
   5   -484.6188881 -0.113685E+00  0.272E-01    0.11       1.0  T
   6   -484.6605213 -0.416331E-01  0.169E-01    0.17       1.0  T
   7   -484.6729143 -0.123930E-01  0.762E-02    0.15       1.0  T
   8   -484.6711382  0.177607E-02  0.797E-02    0.15       1.0  T
   9   -484.6745375 -0.339923E-02  0.366E-02    0.15       1.0  T
  10   -484.6746468 -0.109341E-03  0.282E-02    0.15       1.0  T
  11   -484.6747937 -0.146926E-03  0.202E-02    0.15       1.0  T
  12   -484.6749481 -0.154404E-03  0.912E-03    0.15       1.0  T
  13   -484.6749668 -0.186811E-04  0.541E-03    0.15       1.1  T
  14   -484.6749826 -0.157776E-04  0.298E-03    0.15       2.0  T
  15   -484.6749867 -0.406717E-05  0.150E-03    0.15       4.0  T
  16   -484.6749871 -0.469545E-06  0.854E-04    0.15       7.0  T
  17   -484.6749874 -0.280619E-06  0.453E-04    0.15      13.2  T
     SCC iter.                  ...        0 min,  3.853 sec
     gradient                   ...        0 min,  0.548 sec
 * total energy  :  -474.1273557 Eh     change       -0.2151999E+01 Eh
   gradient norm :     1.5682843 Eh/α   predicted    -0.2686377E+01 (  24.83%)
   displ. norm   :     0.5668598 α      lambda       -0.7274163E+00
   maximum displ.:     0.1691789 α      in ANC's #731, #803, #558, ...

........................................................................
.............................. CYCLE    3 ..............................
........................................................................
   1   -484.7592491 -0.484759E+03  0.260E-01    0.13       0.0  T
   2   -484.7513479  0.790125E-02  0.271E-01    0.13       1.0  T
   3   -484.7603070 -0.895915E-02  0.183E-01    0.14       1.0  T
   4   -484.7373199  0.229872E-01  0.223E-01    0.16       1.0  T
   5   -484.6877203  0.495996E-01  0.304E-01    0.16       1.0  T
   6   -484.7666879 -0.789676E-01  0.673E-02    0.14       1.0  T
   7   -484.7688764 -0.218852E-02  0.344E-02    0.13       1.0  T
   8   -484.7694953 -0.618929E-03  0.117E-02    0.13       1.0  T
   9   -484.7694971 -0.175645E-05  0.107E-02    0.13       1.0  T
  10   -484.7695272 -0.301096E-04  0.705E-03    0.13       1.0  T
  11   -484.7695357 -0.847403E-05  0.418E-03    0.13       1.4  T
  12   -484.7695395 -0.388618E-05  0.190E-03    0.13       3.1  T
  13   -484.7695416 -0.208318E-05  0.673E-04    0.13       8.9  T
  14   -484.7695415  0.167532E-06  0.630E-04    0.13       9.5  T
  15   -484.7695418 -0.344600E-06  0.225E-04    0.13      26.6  T
     SCC iter.                  ...        0 min,  3.410 sec
     gradient                   ...        0 min,  0.533 sec
 * total energy  :  -474.6859004 Eh     change       -0.5585447E+00 Eh
   gradient norm :     0.8505554 Eh/α   predicted    -0.4805787E+00 ( -13.96%)
   displ. norm   :     0.6470374 α      lambda       -0.4182558E+00
   maximum displ.:     0.1327845 α      in ANC's #177, #558, #405, ...

........................................................................
.............................. CYCLE    4 ..............................
........................................................................
   1   -484.9065969 -0.484907E+03  0.263E-01    0.17       0.0  T
   2   -484.8970712  0.952571E-02  0.263E-01    0.17       1.0  T
   3   -484.9046996 -0.762839E-02  0.181E-01    0.17       1.0  T
   4   -484.8774258  0.272738E-01  0.229E-01    0.21       1.0  T
   5   -484.8847861 -0.736035E-02  0.198E-01    0.19       1.0  T
   6   -484.9134834 -0.286973E-01  0.560E-02    0.17       1.0  T
   7   -484.9148493 -0.136586E-02  0.215E-02    0.17       1.0  T
   8   -484.9149876 -0.138311E-03  0.112E-02    0.17       1.0  T
   9   -484.9149974 -0.986528E-05  0.876E-03    0.17       1.0  T
  10   -484.9149944  0.303861E-05  0.749E-03    0.17       1.0  T
  11   -484.9150144 -0.200338E-04  0.357E-03    0.17       1.7  T
  12   -484.9150201 -0.563800E-05  0.108E-03    0.17       5.6  T
  13   -484.9150207 -0.584034E-06  0.377E-04    0.17      15.9  T
  14   -484.9150207 -0.495577E-07  0.196E-04    0.17      30.6  T
     SCC iter.                  ...        0 min,  3.185 sec
     gradient                   ...        0 min,  0.532 sec
 * total energy  :  -475.0029500 Eh     change       -0.3170496E+00 Eh
   gradient norm :     0.3878337 Eh/α   predicted    -0.2966812E+00 (  -6.42%)
   displ. norm   :     0.7863127 α      lambda       -0.2394358E+00
   maximum displ.:     0.2168785 α      in ANC's #177, #208, #147, ...

........................................................................
.............................. CYCLE    5 ..............................
........................................................................
   1   -484.9762383 -0.484976E+03  0.260E-01    0.23       0.0  T
   2   -484.9685912  0.764709E-02  0.230E-01    0.23       1.0  T
   3   -484.9729856 -0.439445E-02  0.172E-01    0.23       1.0  T
   4   -484.9779919 -0.500632E-02  0.817E-02    0.23       1.0  T
   5   -484.9796486 -0.165667E-02  0.467E-02    0.23       1.0  T
   6   -484.9805672 -0.918573E-03  0.173E-02    0.23       1.0  T
   7   -484.9806873 -0.120075E-03  0.831E-03    0.23       1.0  T
   8   -484.9807113 -0.240872E-04  0.525E-03    0.23       1.1  T
   9   -484.9807217 -0.103495E-04  0.222E-03    0.23       2.7  T
  10   -484.9807219 -0.173186E-06  0.165E-03    0.23       3.6  T
  11   -484.9807231 -0.120488E-05  0.749E-04    0.23       8.0  T
  12   -484.9807233 -0.199892E-06  0.310E-04    0.23      19.3  T
  13   -484.9807233 -0.129586E-07  0.202E-04    0.23      29.7  T
     SCC iter.                  ...        0 min,  2.965 sec
     gradient                   ...        0 min,  0.532 sec
 * total energy  :  -475.2052495 Eh     change       -0.2022995E+00 Eh
   gradient norm :     0.2396444 Eh/α   predicted    -0.1937385E+00 (  -4.23%)
   displ. norm   :     0.8603750 α      lambda       -0.1826999E+00
   maximum displ.:     0.2469094 α      in ANC's #177, #208, #147, ...

........................................................................
.............................. CYCLE    6 ..............................
........................................................................
   1   -484.9947661 -0.484995E+03  0.246E-01    0.29       0.0  T
   2   -484.9899127  0.485340E-02  0.209E-01    0.29       1.0  T
   3   -484.9925682 -0.265554E-02  0.151E-01    0.29       1.0  T
   4   -484.9967022 -0.413402E-02  0.598E-02    0.29       1.0  T
   5   -484.9977726 -0.107034E-02  0.326E-02    0.29       1.0  T
   6   -484.9982530 -0.480396E-03  0.101E-02    0.29       1.0  T
   7   -484.9982932 -0.402137E-04  0.416E-03    0.29       1.4  T
   8   -484.9982948 -0.162182E-05  0.265E-03    0.29       2.3  T
   9   -484.9982955 -0.720280E-06  0.201E-03    0.29       3.0  T
  10   -484.9982969 -0.135659E-05  0.778E-04    0.29       7.7  T
  11   -484.9982971 -0.175026E-06  0.334E-04    0.29      18.0  T
  12   -484.9982971 -0.120451E-07  0.215E-04    0.29      27.9  T
     SCC iter.                  ...        0 min,  2.734 sec
     gradient                   ...        0 min,  0.533 sec
 * total energy  :  -475.3701785 Eh     change       -0.1649290E+00 Eh
   gradient norm :     0.1934130 Eh/α   predicted    -0.1589714E+00 (  -3.61%)
   displ. norm   :     0.9089696 α      lambda       -0.1590175E+00
   maximum displ.:     0.2493912 α      in ANC's #177, #80, #208, ...

........................................................................
.............................. CYCLE    7 ..............................
........................................................................
   1   -484.9898815 -0.484990E+03  0.223E-01    0.35       0.0  T
   2   -484.9868139  0.306760E-02  0.190E-01    0.34       1.0  T
   3   -484.9879477 -0.113384E-02  0.129E-01    0.34       1.0  T
   4   -484.9908682 -0.292054E-02  0.585E-02    0.35       1.0  T
   5   -484.9921757 -0.130746E-02  0.251E-02    0.34       1.0  T
   6   -484.9923938 -0.218122E-03  0.790E-03    0.34       1.0  T
   7   -484.9924064 -0.126079E-04  0.426E-03    0.34       1.4  T
   8   -484.9924085 -0.202146E-05  0.289E-03    0.34       2.1  T
   9   -484.9924100 -0.155499E-05  0.162E-03    0.34       3.7  T
  10   -484.9924111 -0.107421E-05  0.487E-04    0.34      12.3  T
  11   -484.9924112 -0.681846E-07  0.238E-04    0.34      25.2  T
  12   -484.9924112 -0.752942E-08  0.150E-04    0.34      40.0  T
     SCC iter.                  ...        0 min,  2.729 sec
     gradient                   ...        0 min,  0.530 sec
 * total energy  :  -475.5150045 Eh     change       -0.1448260E+00 Eh
   gradient norm :     0.1573300 Eh/α   predicted    -0.1452010E+00 (   0.26%)
   displ. norm   :     0.9013578 α      lambda       -0.1275670E+00
   maximum displ.:     0.2424448 α      in ANC's #80, #177, #208, ...

........................................................................
.............................. CYCLE    8 ..............................
........................................................................
   1   -484.9803120 -0.484980E+03  0.188E-01    0.38       0.0  T
   2   -484.9773979  0.291411E-02  0.175E-01    0.37       1.0  T
   3   -484.9802631 -0.286516E-02  0.964E-02    0.37       1.0  T
   4   -484.9807915 -0.528418E-03  0.572E-02    0.38       1.0  T
   5   -484.9821478 -0.135625E-02  0.198E-02    0.38       1.0  T
   6   -484.9822710 -0.123212E-03  0.574E-03    0.38       1.0  T
   7   -484.9822749 -0.388875E-05  0.369E-03    0.38       1.6  T
   8   -484.9822765 -0.163648E-05  0.239E-03    0.38       2.5  T
   9   -484.9822783 -0.182974E-05  0.946E-04    0.38       6.3  T
  10   -484.9822787 -0.363869E-06  0.271E-04    0.38      22.2  T
  11   -484.9822787 -0.172931E-07  0.145E-04    0.38      41.3  T
     SCC iter.                  ...        0 min,  2.510 sec
     gradient                   ...        0 min,  0.531 sec
 * total energy  :  -475.6219266 Eh     change       -0.1069220E+00 Eh
   gradient norm :     0.1141112 Eh/α   predicted    -0.1156042E+00 (   8.12%)
   displ. norm   :     0.8478095 α      lambda       -0.8390409E-01
   maximum displ.:     0.2324982 α      in ANC's #177, #147, #80, ...

........................................................................
.............................. CYCLE    9 ..............................
........................................................................
   1   -484.9808797 -0.484981E+03  0.154E-01    0.39       0.0  T
   2   -484.9801863  0.693365E-03  0.115E-01    0.39       1.0  T
   3   -484.9767255  0.346079E-02  0.105E-01    0.39       1.0  T
   4   -484.9810180 -0.429251E-02  0.356E-02    0.39       1.0  T
   5   -484.9814604 -0.442369E-03  0.116E-02    0.39       1.0  T
   6   -484.9815027 -0.423045E-04  0.352E-03    0.39       1.7  T
   7   -484.9815049 -0.223629E-05  0.217E-03    0.39       2.8  T
   8   -484.9815055 -0.585969E-06  0.138E-03    0.39       4.3  T
   9   -484.9815061 -0.632528E-06  0.608E-04    0.39       9.9  T
  10   -484.9815063 -0.143223E-06  0.214E-04    0.39      28.1  T
     SCC iter.                  ...        0 min,  2.281 sec
     gradient                   ...        0 min,  0.531 sec
 * total energy  :  -475.6950300 Eh     change       -0.7310344E-01 Eh
   gradient norm :     0.0925182 Eh/α   predicted    -0.7210641E-01 (  -1.36%)
   displ. norm   :     0.8644971 α      lambda       -0.6845886E-01
   maximum displ.:     0.2191965 α      in ANC's #147, #64, #100, ...

........................................................................
.............................. CYCLE   10 ..............................
........................................................................
   1   -485.0027138 -0.485003E+03  0.146E-01    0.40       0.0  T
   2   -485.0026646  0.492096E-04  0.949E-02    0.40       1.0  T
   3   -484.9992344  0.343018E-02  0.878E-02    0.40       1.0  T
   4   -485.0026656 -0.343116E-02  0.322E-02    0.40       1.0  T
   5   -485.0030530 -0.387453E-03  0.762E-03    0.40       1.0  T
   6   -485.0030700 -0.169523E-04  0.304E-03    0.40       2.0  T
   7   -485.0030720 -0.197730E-05  0.164E-03    0.40       3.7  T
   8   -485.0030721 -0.151618E-06  0.113E-03    0.40       5.3  T
   9   -485.0030725 -0.347946E-06  0.433E-04    0.40      13.8  T
  10   -485.0030725 -0.622649E-07  0.204E-04    0.40      29.4  T
     SCC iter.                  ...        0 min,  2.285 sec
     gradient                   ...        0 min,  0.531 sec
 * total energy  :  -475.7551899 Eh     change       -0.6015989E-01 Eh
   gradient norm :     0.0732122 Eh/α   predicted    -0.5981097E-01 (  -0.58%)
   displ. norm   :     0.8997372 α      lambda       -0.5598233E-01
   maximum displ.:     0.2524335 α      in ANC's #64, #80, #63, ...

........................................................................
.............................. CYCLE   11 ..............................
........................................................................
   1   -485.0364466 -0.485036E+03  0.127E-01    0.42       0.0  T
   2   -485.0361634  0.283252E-03  0.878E-02    0.42       1.0  T
   3   -485.0331294  0.303403E-02  0.884E-02    0.42       1.0  T
   4   -485.0365464 -0.341708E-02  0.209E-02    0.42       1.0  T
   5   -485.0367237 -0.177264E-03  0.549E-03    0.42       1.1  T
   6   -485.0367317 -0.799269E-05  0.246E-03    0.42       2.4  T
   7   -485.0367327 -0.990741E-06  0.136E-03    0.42       4.4  T
   8   -485.0367329 -0.239564E-06  0.665E-04    0.42       9.0  T
   9   -485.0367330 -0.949855E-07  0.344E-04    0.42      17.4  T
     SCC iter.                  ...        0 min,  2.057 sec
     gradient                   ...        0 min,  0.530 sec
 * total energy  :  -475.8055514 Eh     change       -0.5036152E-01 Eh
   gradient norm :     0.0608369 Eh/α   predicted    -0.5065078E-01 (   0.57%)
   displ. norm   :     0.9064900 α      lambda       -0.4745264E-01
   maximum displ.:     0.2893331 α      in ANC's #64, #63, #100, ...

........................................................................
.............................. CYCLE   12 ..............................
........................................................................
   1   -485.0568760 -0.485057E+03  0.122E-01    0.44       0.0  T
   2   -485.0568596  0.164452E-04  0.738E-02    0.44       1.0  T
   3   -485.0547991  0.206042E-02  0.645E-02    0.44       1.0  T
   4   -485.0568837 -0.208454E-02  0.166E-02    0.44       1.0  T
   5   -485.0570095 -0.125817E-03  0.375E-03    0.44       1.6  T
   6   -485.0570128 -0.335674E-05  0.197E-03    0.44       3.0  T
   7   -485.0570136 -0.726605E-06  0.949E-04    0.44       6.3  T
   8   -485.0570136 -0.548048E-07  0.568E-04    0.44      10.6  T
     SCC iter.                  ...        0 min,  1.825 sec
     gradient                   ...        0 min,  0.532 sec
 * total energy  :  -475.8487782 Eh     change       -0.4322674E-01 Eh
   gradient norm :     0.0554773 Eh/α   predicted    -0.4322282E-01 (  -0.01%)
   displ. norm   :     0.9185983 α      lambda       -0.4140126E-01
   maximum displ.:     0.3261426 α      in ANC's #64, #63, #58, ...

........................................................................
.............................. CYCLE   13 ..............................
........................................................................
   1   -485.0943806 -0.485094E+03  0.112E-01    0.46       0.0  T
   2   -485.0943279  0.527415E-04  0.698E-02    0.46       1.0  T
   3   -485.0925268  0.180109E-02  0.648E-02    0.46       1.0  T
   4   -485.0944069 -0.188008E-02  0.144E-02    0.46       1.0  T
   5   -485.0945095 -0.102625E-03  0.352E-03    0.46       1.7  T
   6   -485.0945128 -0.331461E-05  0.173E-03    0.46       3.5  T
   7   -485.0945131 -0.324845E-06  0.992E-04    0.46       6.0  T
   8   -485.0945133 -0.185828E-06  0.477E-04    0.46      12.6  T
     SCC iter.                  ...        0 min,  1.827 sec
     gradient                   ...        0 min,  0.530 sec
 * total energy  :  -475.8870372 Eh     change       -0.3825909E-01 Eh
   gradient norm :     0.0463873 Eh/α   predicted    -0.3816829E-01 (  -0.24%)
   displ. norm   :     0.9304905 α      lambda       -0.3691743E-01
   maximum displ.:     0.3618773 α      in ANC's #64, #63, #58, ...

........................................................................
.............................. CYCLE   14 ..............................
........................................................................
   1   -485.1256077 -0.485126E+03  0.117E-01    0.49       0.0  T
   2   -485.1255160  0.917380E-04  0.725E-02    0.49       1.0  T
   3   -485.1231913  0.232474E-02  0.747E-02    0.49       1.0  T
   4   -485.1256696 -0.247834E-02  0.138E-02    0.49       1.0  T
   5   -485.1257535 -0.838997E-04  0.360E-03    0.49       1.7  T
   6   -485.1257573 -0.377193E-05  0.175E-03    0.49       3.4  T
   7   -485.1257578 -0.502185E-06  0.964E-04    0.49       6.2  T
   8   -485.1257580 -0.185465E-06  0.468E-04    0.49      12.8  T
     SCC iter.                  ...        0 min,  1.828 sec
     gradient                   ...        0 min,  0.532 sec
 * total energy  :  -475.9210872 Eh     change       -0.3405000E-01 Eh
   gradient norm :     0.0428598 Eh/α   predicted    -0.3444051E-01 (   1.15%)
   displ. norm   :     0.9462403 α      lambda       -0.3422537E-01
   maximum displ.:     0.3926410 α      in ANC's #64, #63, #58, ...

........................................................................
.............................. CYCLE   15 ..............................
........................................................................
   1   -485.1591274 -0.485159E+03  0.120E-01    0.52       0.0  T
   2   -485.1589460  0.181444E-03  0.791E-02    0.51       1.0  T
   3   -485.1570208  0.192520E-02  0.767E-02    0.52       1.0  T
   4   -485.1592476 -0.222681E-02  0.167E-02    0.52       1.0  T
   5   -485.1593684 -0.120774E-03  0.452E-03    0.52       1.3  T
   6   -485.1593754 -0.697382E-05  0.184E-03    0.52       3.3  T
   7   -485.1593758 -0.464141E-06  0.105E-03    0.52       5.7  T
   8   -485.1593760 -0.142103E-06  0.617E-04    0.52       9.7  T
   9   -485.1593761 -0.143887E-06  0.208E-04    0.52      28.8  T
     SCC iter.                  ...        0 min,  2.048 sec
     gradient                   ...        0 min,  0.531 sec
 * total energy  :  -475.9511177 Eh     change       -0.3003045E-01 Eh
   gradient norm :     0.0503127 Eh/α   predicted    -0.3243489E-01 (   8.01%)
   displ. norm   :     0.9203983 α      lambda       -0.3108650E-01
   maximum displ.:     0.4095008 α      in ANC's #64, #63, #58, ...

........................................................................
.............................. CYCLE   16 ..............................
........................................................................
   1   -485.1886320 -0.485189E+03  0.110E-01    0.54       0.0  T
   2   -485.1884721  0.159848E-03  0.735E-02    0.54       1.0  T
   3   -485.1870087  0.146336E-02  0.688E-02    0.54       1.0  T
   4   -485.1887483 -0.173955E-02  0.158E-02    0.54       1.0  T
   5   -485.1888549 -0.106584E-03  0.412E-03    0.54       1.5  T
   6   -485.1888607 -0.580428E-05  0.164E-03    0.54       3.7  T
   7   -485.1888611 -0.398918E-06  0.921E-04    0.54       6.5  T
   8   -485.1888612 -0.824971E-07  0.571E-04    0.54      10.5  T
     SCC iter.                  ...        0 min,  1.826 sec
     gradient                   ...        0 min,  0.531 sec
 * total energy  :  -475.9786762 Eh     change       -0.2755853E-01 Eh
   gradient norm :     0.0393999 Eh/α   predicted    -0.2871044E-01 (   4.18%)
   displ. norm   :     0.9373700 α      lambda       -0.2766274E-01
   maximum displ.:     0.4400063 α      in ANC's #64, #63, #58, ...

........................................................................
.............................. CYCLE   17 ..............................
........................................................................
   1   -485.2093277 -0.485209E+03  0.125E-01    0.57       0.0  T
   2   -485.2092870  0.407325E-04  0.754E-02    0.56       1.0  T
   3   -485.2073122  0.197475E-02  0.678E-02    0.57       1.0  T
   4   -485.2093838 -0.207157E-02  0.115E-02    0.57       1.0  T
   5   -485.2094396 -0.558389E-04  0.353E-03    0.57       1.7  T
   6   -485.2094441 -0.443922E-05  0.161E-03    0.57       3.7  T
   7   -485.2094446 -0.492668E-06  0.857E-04    0.57       7.0  T
   8   -485.2094446 -0.765062E-07  0.494E-04    0.57      12.1  T
     SCC iter.                  ...        0 min,  1.827 sec
     gradient                   ...        0 min,  0.531 sec
 * total energy  :  -476.0033884 Eh     change       -0.2471222E-01 Eh
   gradient norm :     0.0363933 Eh/α   predicted    -0.2598445E-01 (   5.15%)
   displ. norm   :     0.9372292 α      lambda       -0.2521181E-01
   maximum displ.:     0.4658890 α      in ANC's #64, #63, #58, ...

........................................................................
.............................. CYCLE   18 ..............................
........................................................................
   1   -485.2311489 -0.485231E+03  0.117E-01    0.59       0.0  T
   2   -485.2311477  0.122419E-05  0.691E-02    0.58       1.0  T
   3   -485.2298790  0.126870E-02  0.487E-02    0.59       1.0  T
   4   -485.2311791 -0.130012E-02  0.107E-02    0.59       1.0  T
   5   -485.2312306 -0.514661E-04  0.287E-03    0.58       2.1  T
   6   -485.2312330 -0.239233E-05  0.142E-03    0.58       4.2  T
   7   -485.2312333 -0.370418E-06  0.803E-04    0.58       7.5  T
   8   -485.2312334 -0.841648E-07  0.469E-04    0.58      12.8  T
     SCC iter.                  ...        0 min,  1.843 sec
     gradient                   ...        0 min,  0.533 sec
 * total energy  :  -476.0266629 Eh     change       -0.2327450E-01 Eh
   gradient norm :     0.0316146 Eh/α   predicted    -0.2367891E-01 (   1.74%)
   displ. norm   :     0.9357401 α      lambda       -0.2252778E-01
   maximum displ.:     0.4856670 α      in ANC's #64, #63, #58, ...

........................................................................
.............................. CYCLE   19 ..............................
........................................................................
   1   -485.2571851 -0.485257E+03  0.114E-01    0.60       0.0  T
   2   -485.2571808  0.433207E-05  0.674E-02    0.60       1.0  T
   3   -485.2560298  0.115097E-02  0.471E-02    0.60       1.0  T
   4   -485.2572210 -0.119124E-02  0.908E-03    0.60       1.0  T
   5   -485.2572560 -0.349558E-04  0.271E-03    0.60       2.2  T
   6   -485.2572585 -0.246929E-05  0.128E-03    0.60       4.7  T
   7   -485.2572588 -0.313487E-06  0.687E-04    0.60       8.7  T
   8   -485.2572588 -0.471829E-07  0.420E-04    0.60      14.3  T
     SCC iter.                  ...        0 min,  1.832 sec
     gradient                   ...        0 min,  0.534 sec
 * total energy  :  -476.0478369 Eh     change       -0.2117391E-01 Eh
   gradient norm :     0.0285083 Eh/α   predicted    -0.2112666E-01 (  -0.22%)
   displ. norm   :     0.9496673 α      lambda       -0.2097759E-01
   maximum displ.:     0.4989546 α      in ANC's #64, #63, #58, ...

........................................................................
.............................. CYCLE   20 ..............................
........................................................................
   1   -485.2769295 -0.485277E+03  0.127E-01    0.61       0.0  T
   2   -485.2769251  0.445763E-05  0.753E-02    0.61       1.0  T
   3   -485.2756375  0.128756E-02  0.504E-02    0.61       1.0  T
   4   -485.2769721 -0.133460E-02  0.894E-03    0.61       1.0  T
   5   -485.2770049 -0.327678E-04  0.277E-03    0.61       2.2  T
   6   -485.2770071 -0.226787E-05  0.136E-03    0.61       4.4  T
   7   -485.2770074 -0.291776E-06  0.721E-04    0.61       8.3  T
   8   -485.2770075 -0.563804E-07  0.408E-04    0.61      14.7  T
     SCC iter.                  ...        0 min,  1.832 sec
     gradient                   ...        0 min,  0.534 sec
 * total energy  :  -476.0670212 Eh     change       -0.1918433E-01 Eh
   gradient norm :     0.0264830 Eh/α   predicted    -0.1994831E-01 (   3.98%)
   displ. norm   :     0.9475289 α      lambda       -0.1966358E-01
   maximum displ.:     0.5085166 α      in ANC's #64, #63, #58, ...
 * RMSD in coord.:     0.8130467 α      energy gain  -0.4091665E+01 Eh

generating ANC from model Hessian ...
Using Lindh-Hessian (1995)
 Shifting diagonal of input Hessian by    1.0004843816235802E-002
 Lowest  eigenvalues of input Hessian
    0.010000    0.010004    0.000000    0.000000    0.000000    0.000000
    0.000000    0.000000    0.010005    0.010006    0.010006    0.010009
    0.010009    0.010011    0.010011    0.010012    0.010015    0.010017
 Highest eigenvalues
    2.903505    2.907487    2.988147    2.989027    3.008336    3.008343


........................................................................
.............................. CYCLE   21 ..............................
........................................................................
   1   -485.2905358 -0.485291E+03  0.136E-01    0.62       0.0  T
   2   -485.2905280  0.777406E-05  0.805E-02    0.62       1.0  T
   3   -485.2892177  0.131031E-02  0.541E-02    0.62       1.0  T
   4   -485.2905760 -0.135827E-02  0.857E-03    0.62       1.0  T
   5   -485.2906031 -0.271222E-04  0.314E-03    0.62       1.9  T
   6   -485.2906065 -0.341282E-05  0.147E-03    0.62       4.1  T
   7   -485.2906069 -0.357953E-06  0.748E-04    0.62       8.0  T
   8   -485.2906069 -0.461882E-07  0.379E-04    0.62      15.8  T
     SCC iter.                  ...        0 min,  1.833 sec
     gradient                   ...        0 min,  0.535 sec
 * total energy  :  -476.0844734 Eh     change       -0.1745225E-01 Eh
   gradient norm :     0.0249368 Eh/α   predicted     0.0000000E+00 (-100.00%)
   displ. norm   :     0.6748695 α      lambda       -0.1264404E-01
   maximum displ.:     0.3360109 α      in ANC's #60, #65, #61, ...

........................................................................
.............................. CYCLE   22 ..............................
........................................................................
   1   -485.3070357 -0.485307E+03  0.103E-01    0.63       0.0  T
   2   -485.3070345  0.126047E-05  0.607E-02    0.63       1.0  T
   3   -485.3066564  0.378105E-03  0.284E-02    0.63       1.0  T
   4   -485.3070476 -0.391243E-03  0.404E-03    0.63       1.5  T
   5   -485.3070543 -0.672678E-05  0.136E-03    0.63       4.4  T
   6   -485.3070544 -0.113978E-06  0.960E-04    0.63       6.2  T
   7   -485.3070546 -0.189495E-06  0.335E-04    0.63      17.9  T
     SCC iter.                  ...        0 min,  1.619 sec
     gradient                   ...        0 min,  0.531 sec
 * total energy  :  -476.0962873 Eh     change       -0.1181389E-01 Eh
   gradient norm :     0.0199648 Eh/α   predicted    -0.9201384E-02 ( -22.11%)
   displ. norm   :     0.9343864 α      lambda       -0.1563514E-01
   maximum displ.:     0.4634489 α      in ANC's #60, #65, #61, ...

........................................................................
.............................. CYCLE   23 ..............................
........................................................................
   1   -485.3199942 -0.485320E+03  0.129E-01    0.65       0.0  T
   2   -485.3199979 -0.372281E-05  0.759E-02    0.65       1.0  T
   3   -485.3194465  0.551355E-03  0.341E-02    0.65       1.0  T
   4   -485.3200141 -0.567618E-03  0.597E-03    0.65       1.0  T
   5   -485.3200302 -0.160768E-04  0.167E-03    0.65       3.6  T
   6   -485.3200304 -0.151276E-06  0.120E-03    0.65       5.0  T
   7   -485.3200307 -0.289680E-06  0.475E-04    0.65      12.6  T
   8   -485.3200307 -0.664785E-07  0.183E-04    0.65      32.9  T
     SCC iter.                  ...        0 min,  1.828 sec
     gradient                   ...        0 min,  0.531 sec
 * total energy  :  -476.1107518 Eh     change       -0.1446448E-01 Eh
   gradient norm :     0.0179544 Eh/α   predicted    -0.1464292E-01 (   1.23%)
   displ. norm   :     0.9324724 α      lambda       -0.1395200E-01
   maximum displ.:     0.4606938 α      in ANC's #60, #65, #61, ...

........................................................................
.............................. CYCLE   24 ..............................
........................................................................
   1   -485.3245555 -0.485325E+03  0.127E-01    0.66       0.0  T
   2   -485.3245672 -0.116529E-04  0.739E-02    0.66       1.0  T
   3   -485.3242439  0.323271E-03  0.260E-02    0.67       1.0  T
   4   -485.3245700 -0.326059E-03  0.624E-03    0.66       1.0  T
   5   -485.3245892 -0.192216E-04  0.170E-03    0.66       3.5  T
   6   -485.3245894 -0.171897E-06  0.124E-03    0.66       4.8  T
   7   -485.3245897 -0.349738E-06  0.527E-04    0.66      11.4  T
   8   -485.3245898 -0.865436E-07  0.188E-04    0.66      31.8  T
     SCC iter.                  ...        0 min,  1.943 sec
     gradient                   ...        0 min,  0.558 sec
 * total energy  :  -476.1235189 Eh     change       -0.1276712E-01 Eh
   gradient norm :     0.0170082 Eh/α   predicted    -0.1304167E-01 (   2.15%)
   displ. norm   :     0.9219727 α      lambda       -0.1211936E-01
   maximum displ.:     0.4477420 α      in ANC's #60, #65, #61, ...

........................................................................
.............................. CYCLE   25 ..............................
........................................................................
   1   -485.3307294 -0.485331E+03  0.122E-01    0.68       0.0  T
   2   -485.3307419 -0.124982E-04  0.711E-02    0.68       1.0  T
   3   -485.3305423  0.199616E-03  0.205E-02    0.68       1.0  T
   4   -485.3307434 -0.201163E-03  0.546E-03    0.68       1.1  T
   5   -485.3307575 -0.140439E-04  0.160E-03    0.68       3.7  T
   6   -485.3307576 -0.141856E-06  0.116E-03    0.68       5.2  T
   7   -485.3307579 -0.325745E-06  0.480E-04    0.68      12.5  T
   8   -485.3307580 -0.778140E-07  0.170E-04    0.68      35.3  T
     SCC iter.                  ...        0 min,  1.941 sec
     gradient                   ...        0 min,  0.559 sec
 * total energy  :  -476.1345746 Eh     change       -0.1105566E-01 Eh
   gradient norm :     0.0154333 Eh/α   predicted    -0.1121062E-01 (   1.40%)
   displ. norm   :     0.9110531 α      lambda       -0.1038170E-01
   maximum displ.:     0.4243804 α      in ANC's #60, #65, #64, ...

........................................................................
.............................. CYCLE   26 ..............................
........................................................................
   1   -485.3386294 -0.485339E+03  0.120E-01    0.69       0.0  T
   2   -485.3386405 -0.111286E-04  0.703E-02    0.69       1.0  T
   3   -485.3385028  0.137759E-03  0.177E-02    0.69       1.0  T
   4   -485.3386438 -0.141069E-03  0.459E-03    0.69       1.3  T
   5   -485.3386525 -0.865168E-05  0.163E-03    0.69       3.7  T
   6   -485.3386526 -0.124520E-06  0.114E-03    0.69       5.3  T
   7   -485.3386529 -0.338411E-06  0.435E-04    0.69      13.8  T
   8   -485.3386530 -0.649219E-07  0.144E-04    0.69      41.6  T
     SCC iter.                  ...        0 min,  1.941 sec
     gradient                   ...        0 min,  0.561 sec
 * total energy  :  -476.1438620 Eh     change       -0.9287435E-02 Eh
   gradient norm :     0.0146362 Eh/α   predicted    -0.9499359E-02 (   2.28%)
   displ. norm   :     0.9093790 α      lambda       -0.9140921E-02
   maximum displ.:     0.4322861 α      in ANC's #60, #65, #61, ...

........................................................................
.............................. CYCLE   27 ..............................
........................................................................
   1   -485.3469646 -0.485347E+03  0.124E-01    0.70       0.0  T
   2   -485.3469730 -0.839760E-05  0.726E-02    0.70       1.0  T
   3   -485.3467868  0.186215E-03  0.202E-02    0.70       1.0  T
   4   -485.3469799 -0.193053E-03  0.420E-03    0.70       1.4  T
   5   -485.3469864 -0.654151E-05  0.180E-03    0.70       3.3  T
   6   -485.3469865 -0.127581E-06  0.124E-03    0.70       4.8  T
   7   -485.3469870 -0.453386E-06  0.439E-04    0.70      13.6  T
   8   -485.3469870 -0.632199E-07  0.156E-04    0.70      38.5  T
     SCC iter.                  ...        0 min,  1.863 sec
     gradient                   ...        0 min,  0.580 sec
 * total energy  :  -476.1514503 Eh     change       -0.7588315E-02 Eh
   gradient norm :     0.0154599 Eh/α   predicted    -0.8350093E-02 (  10.04%)
   displ. norm   :     0.8670255 α      lambda       -0.7579877E-02
   maximum displ.:     0.3718330 α      in ANC's #60, #65, #61, ...

........................................................................
.............................. CYCLE   28 ..............................
........................................................................
   1   -485.3507806 -0.485351E+03  0.116E-01    0.71       0.0  T
   2   -485.3507895 -0.889879E-05  0.678E-02    0.71       1.0  T
   3   -485.3507278  0.616609E-04  0.124E-02    0.71       1.0  T
   4   -485.3507939 -0.661063E-04  0.308E-03    0.71       1.9  T
   5   -485.3507965 -0.257797E-05  0.160E-03    0.71       3.8  T
   6   -485.3507967 -0.193265E-06  0.963E-04    0.71       6.2  T
   7   -485.3507970 -0.282414E-06  0.336E-04    0.71      17.9  T
     SCC iter.                  ...        0 min,  1.597 sec
     gradient                   ...        0 min,  0.532 sec
 * total energy  :  -476.1578351 Eh     change       -0.6384750E-02 Eh
   gradient norm :     0.0126915 Eh/α   predicted    -0.6638970E-02 (   3.98%)
   displ. norm   :     0.8511369 α      lambda       -0.5740981E-02
   maximum displ.:     0.3677082 α      in ANC's #60, #65, #64, ...

........................................................................
.............................. CYCLE   29 ..............................
........................................................................
   1   -485.3569797 -0.485357E+03  0.105E-01    0.71       0.0  T
   2   -485.3569866 -0.685002E-05  0.615E-02    0.71       1.0  T
   3   -485.3568796  0.106939E-03  0.160E-02    0.71       1.0  T
   4   -485.3569930 -0.113346E-03  0.280E-03    0.71       2.1  T
   5   -485.3569951 -0.212144E-05  0.140E-03    0.71       4.3  T
   6   -485.3569952 -0.124666E-06  0.900E-04    0.71       6.7  T
   7   -485.3569955 -0.255428E-06  0.328E-04    0.71      18.3  T
     SCC iter.                  ...        0 min,  1.655 sec
     gradient                   ...        0 min,  0.563 sec
 * total energy  :  -476.1628195 Eh     change       -0.4984403E-02 Eh
   gradient norm :     0.0117943 Eh/α   predicted    -0.4949988E-02 (  -0.69%)
   displ. norm   :     0.8440108 α      lambda       -0.4704135E-02
   maximum displ.:     0.3288648 α      in ANC's #60, #65, #21, ...

........................................................................
.............................. CYCLE   30 ..............................
........................................................................
   1   -485.3643114 -0.485364E+03  0.100E-01    0.71       0.0  T
   2   -485.3643187 -0.738508E-05  0.586E-02    0.71       1.0  T
   3   -485.3642481  0.706384E-04  0.135E-02    0.71       1.0  T
   4   -485.3643238 -0.757128E-04  0.255E-03    0.71       2.4  T
   5   -485.3643251 -0.128731E-05  0.147E-03    0.71       4.1  T
   6   -485.3643254 -0.275507E-06  0.915E-04    0.71       6.6  T
   7   -485.3643256 -0.259529E-06  0.321E-04    0.71      18.7  T
     SCC iter.                  ...        0 min,  1.596 sec
     gradient                   ...        0 min,  0.531 sec
 * total energy  :  -476.1667547 Eh     change       -0.3935165E-02 Eh
   gradient norm :     0.0133405 Eh/α   predicted    -0.4027578E-02 (   2.35%)
   displ. norm   :     0.8281129 α      lambda       -0.3951843E-02
   maximum displ.:     0.3027184 α      in ANC's #60, #21, #65, ...

........................................................................
.............................. CYCLE   31 ..............................
........................................................................
   1   -485.3805853 -0.485381E+03  0.973E-02    0.72       0.0  T
   2   -485.3805930 -0.763817E-05  0.572E-02    0.72       1.0  T
   3   -485.3805255  0.675314E-04  0.136E-02    0.72       1.0  T
   4   -485.3805961 -0.706315E-04  0.322E-03    0.72       1.9  T
   5   -485.3805989 -0.277418E-05  0.151E-03    0.72       4.0  T
   6   -485.3805991 -0.195512E-06  0.950E-04    0.72       6.3  T
   7   -485.3805993 -0.244053E-06  0.353E-04    0.72      17.0  T
     SCC iter.                  ...        0 min,  1.596 sec
     gradient                   ...        0 min,  0.531 sec
 * total energy  :  -476.1697370 Eh     change       -0.2982352E-02 Eh
   gradient norm :     0.0179891 Eh/α   predicted    -0.3330947E-02 (  11.69%)
   displ. norm   :     0.7717607 α      lambda       -0.3003064E-02
   maximum displ.:     0.2973264 α      in ANC's #21, #60, #69, ...

........................................................................
.............................. CYCLE   32 ..............................
........................................................................
   1   -485.3779422 -0.485378E+03  0.895E-02    0.71       0.0  T
   2   -485.3779472 -0.502292E-05  0.527E-02    0.71       1.0  T
   3   -485.3778330  0.114266E-03  0.177E-02    0.71       1.0  T
   4   -485.3779534 -0.120412E-03  0.267E-03    0.71       2.2  T
   5   -485.3779547 -0.134574E-05  0.159E-03    0.71       3.8  T
   6   -485.3779553 -0.594538E-06  0.849E-04    0.71       7.1  T
   7   -485.3779555 -0.155519E-06  0.352E-04    0.71      17.0  T
     SCC iter.                  ...        0 min,  1.597 sec
     gradient                   ...        0 min,  0.530 sec
 * total energy  :  -476.1720722 Eh     change       -0.2335147E-02 Eh
   gradient norm :     0.0113253 Eh/α   predicted    -0.2395863E-02 (   2.60%)
   displ. norm   :     0.7391136 α      lambda       -0.2101331E-02
   maximum displ.:     0.3295434 α      in ANC's #21, #41, #27, ...

........................................................................
.............................. CYCLE   33 ..............................
........................................................................
   1   -485.3837993 -0.485384E+03  0.723E-02    0.71       0.0  T
   2   -485.3838044 -0.512180E-05  0.425E-02    0.71       1.0  T
   3   -485.3837484  0.560052E-04  0.122E-02    0.71       1.0  T
   4   -485.3838074 -0.590405E-04  0.255E-03    0.71       2.3  T
   5   -485.3838090 -0.152320E-05  0.132E-03    0.71       4.5  T
   6   -485.3838094 -0.395219E-06  0.709E-04    0.71       8.5  T
   7   -485.3838095 -0.111804E-06  0.278E-04    0.71      21.6  T
     SCC iter.                  ...        0 min,  1.595 sec
     gradient                   ...        0 min,  0.528 sec
 * total energy  :  -476.1737407 Eh     change       -0.1668506E-02 Eh
   gradient norm :     0.0111701 Eh/α   predicted    -0.1624637E-02 (  -2.63%)
   displ. norm   :     0.7254607 α      lambda       -0.1717817E-02
   maximum displ.:     0.3653342 α      in ANC's #21, #27, #41, ...

........................................................................
.............................. CYCLE   34 ..............................
........................................................................
   1   -485.3917491 -0.485392E+03  0.663E-02    0.71       0.0  T
   2   -485.3917520 -0.293659E-05  0.391E-02    0.71       1.0  T
   3   -485.3916354  0.116662E-03  0.178E-02    0.71       1.0  T
   4   -485.3917567 -0.121282E-03  0.277E-03    0.71       2.2  T
   5   -485.3917588 -0.217350E-05  0.139E-03    0.71       4.3  T
   6   -485.3917594 -0.590831E-06  0.666E-04    0.71       9.0  T
   7   -485.3917595 -0.659723E-07  0.305E-04    0.71      19.7  T
     SCC iter.                  ...        0 min,  1.602 sec
     gradient                   ...        0 min,  0.529 sec
 * total energy  :  -476.1750342 Eh     change       -0.1293578E-02 Eh
   gradient norm :     0.0108056 Eh/α   predicted    -0.1310947E-02 (   1.34%)
   displ. norm   :     0.6759755 α      lambda       -0.1449702E-02
   maximum displ.:     0.3883670 α      in ANC's #21, #41, #27, ...

........................................................................
.............................. CYCLE   35 ..............................
........................................................................
   1   -485.3956633 -0.485396E+03  0.556E-02    0.71       0.0  T
   2   -485.3956653 -0.202347E-05  0.329E-02    0.71       1.0  T
   3   -485.3955777  0.876345E-04  0.154E-02    0.71       1.0  T
   4   -485.3956697 -0.919438E-04  0.231E-03    0.71       2.6  T
   5   -485.3956709 -0.121318E-05  0.128E-03    0.71       4.7  T
   6   -485.3956714 -0.515062E-06  0.591E-04    0.71      10.2  T
   7   -485.3956714 -0.549197E-07  0.280E-04    0.71      21.4  T
     SCC iter.                  ...        0 min,  1.598 sec
     gradient                   ...        0 min,  0.530 sec
 * total energy  :  -476.1761165 Eh     change       -0.1082289E-02 Eh
   gradient norm :     0.0121944 Eh/α   predicted    -0.1056071E-02 (  -2.42%)
   displ. norm   :     0.6105609 α      lambda       -0.1253317E-02
   maximum displ.:     0.3795035 α      in ANC's #21, #41, #27, ...

........................................................................
.............................. CYCLE   36 ..............................
........................................................................
   1   -485.3959611 -0.485396E+03  0.457E-02    0.71       0.0  T
   2   -485.3959629 -0.181169E-05  0.271E-02    0.71       1.0  T
   3   -485.3959107  0.522791E-04  0.118E-02    0.71       1.0  T
   4   -485.3959654 -0.547700E-04  0.196E-03    0.71       3.1  T
   5   -485.3959664 -0.974727E-06  0.974E-04    0.71       6.2  T
   6   -485.3959667 -0.273187E-06  0.466E-04    0.71      12.9  T
     SCC iter.                  ...        0 min,  1.371 sec
     gradient                   ...        0 min,  0.527 sec
 * total energy  :  -476.1771297 Eh     change       -0.1013166E-02 Eh
   gradient norm :     0.0107970 Eh/α   predicted    -0.8602700E-03 ( -15.09%)
   displ. norm   :     0.6259734 α      lambda       -0.1222936E-02
   maximum displ.:     0.4073012 α      in ANC's #21, #41, #27, ...

........................................................................
.............................. CYCLE   37 ..............................
........................................................................
   1   -485.3942497 -0.485394E+03  0.396E-02    0.71       0.0  T
   2   -485.3942516 -0.184764E-05  0.234E-02    0.71       1.0  T
   3   -485.3942101  0.414528E-04  0.110E-02    0.71       1.0  T
   4   -485.3942536 -0.434698E-04  0.192E-03    0.71       3.1  T
   5   -485.3942547 -0.103762E-05  0.879E-04    0.71       6.8  T
   6   -485.3942549 -0.253146E-06  0.382E-04    0.71      15.7  T
   7   -485.3942549 -0.241026E-07  0.209E-04    0.71      28.7  T
     SCC iter.                  ...        0 min,  1.600 sec
     gradient                   ...        0 min,  0.528 sec
 * total energy  :  -476.1782190 Eh     change       -0.1089277E-02 Eh
   gradient norm :     0.0086339 Eh/α   predicted    -0.8510617E-03 ( -21.87%)
   displ. norm   :     0.6871648 α      lambda       -0.1328410E-02
   maximum displ.:     0.4607353 α      in ANC's #21, #41, #27, ...

........................................................................
.............................. CYCLE   38 ..............................
........................................................................
   1   -485.3928152 -0.485393E+03  0.465E-02    0.71       0.0  T
   2   -485.3928169 -0.168724E-05  0.275E-02    0.71       1.0  T
   3   -485.3927710  0.459355E-04  0.107E-02    0.71       1.0  T
   4   -485.3928191 -0.481517E-04  0.179E-03    0.71       3.4  T
   5   -485.3928202 -0.109805E-05  0.749E-04    0.71       8.0  T
   6   -485.3928203 -0.123717E-06  0.432E-04    0.71      13.9  T
   7   -485.3928204 -0.357204E-07  0.230E-04    0.71      26.0  T
     SCC iter.                  ...        0 min,  1.611 sec
     gradient                   ...        0 min,  0.583 sec
 * total energy  :  -476.1794043 Eh     change       -0.1185288E-02 Eh
   gradient norm :     0.0074494 Eh/α   predicted    -0.9778462E-03 ( -17.50%)
   displ. norm   :     0.7050050 α      lambda       -0.1254859E-02
   maximum displ.:     0.4766256 α      in ANC's #21, #41, #27, ...

........................................................................
.............................. CYCLE   39 ..............................
........................................................................
   1   -485.3871402 -0.485387E+03  0.470E-02    0.71       0.0  T
   2   -485.3871415 -0.127812E-05  0.277E-02    0.71       1.0  T
   3   -485.3870895  0.520274E-04  0.111E-02    0.71       1.0  T
   4   -485.3871440 -0.544951E-04  0.175E-03    0.71       3.4  T
   5   -485.3871449 -0.976015E-06  0.791E-04    0.71       7.6  T
   6   -485.3871450 -0.112529E-06  0.475E-04    0.71      12.6  T
     SCC iter.                  ...        0 min,  1.513 sec
     gradient                   ...        0 min,  0.586 sec
 * total energy  :  -476.1804844 Eh     change       -0.1080101E-02 Eh
   gradient norm :     0.0088467 Eh/α   predicted    -0.9392775E-03 ( -13.04%)
   displ. norm   :     0.6780880 α      lambda       -0.1116882E-02
   maximum displ.:     0.4713936 α      in ANC's #21, #41, #27, ...

........................................................................
.............................. CYCLE   40 ..............................
........................................................................
   1   -485.3830218 -0.485383E+03  0.469E-02    0.71       0.0  T
   2   -485.3830228 -0.100760E-05  0.277E-02    0.71       1.0  T
   3   -485.3829780  0.447905E-04  0.100E-02    0.71       1.0  T
   4   -485.3830249 -0.468557E-04  0.160E-03    0.71       3.8  T
   5   -485.3830257 -0.809538E-06  0.697E-04    0.71       8.6  T
   6   -485.3830257 -0.339867E-07  0.473E-04    0.71      12.7  T
     SCC iter.                  ...        0 min,  1.397 sec
     gradient                   ...        0 min,  0.528 sec
 * total energy  :  -476.1814100 Eh     change       -0.9255905E-03 Eh
   gradient norm :     0.0093085 Eh/α   predicted    -0.8152208E-03 ( -11.92%)
   displ. norm   :     0.6039247 α      lambda       -0.9611155E-03
   maximum displ.:     0.4281339 α      in ANC's #21, #41, #27, ...

........................................................................
.............................. CYCLE   41 ..............................
........................................................................
   1   -485.3829515 -0.485383E+03  0.377E-02    0.71       0.0  T
   2   -485.3829518 -0.342035E-06  0.222E-02    0.71       1.0  T
   3   -485.3829049  0.469671E-04  0.101E-02    0.71       1.0  T
   4   -485.3829537 -0.488713E-04  0.151E-03    0.71       4.0  T
   5   -485.3829545 -0.767708E-06  0.690E-04    0.71       8.7  T
   6   -485.3829546 -0.929709E-07  0.409E-04    0.71      14.7  T
     SCC iter.                  ...        0 min,  1.372 sec
     gradient                   ...        0 min,  0.528 sec
 * total energy  :  -476.1822178 Eh     change       -0.8078413E-03 Eh
   gradient norm :     0.0086577 Eh/α   predicted    -0.6558337E-03 ( -18.82%)
   displ. norm   :     0.5769762 α      lambda       -0.8773865E-03
   maximum displ.:     0.4115184 α      in ANC's #21, #41, #27, ...

........................................................................
.............................. CYCLE   42 ..............................
........................................................................
   1   -485.3830416 -0.485383E+03  0.296E-02    0.71       0.0  T
   2   -485.3830419 -0.286135E-06  0.175E-02    0.71       1.0  T
   3   -485.3830084  0.334914E-04  0.885E-03    0.71       1.0  T
   4   -485.3830435 -0.351126E-04  0.127E-03    0.71       4.7  T
   5   -485.3830440 -0.501943E-06  0.587E-04    0.71      10.2  T
   6   -485.3830441 -0.842421E-07  0.310E-04    0.71      19.4  T
     SCC iter.                  ...        0 min,  1.370 sec
     gradient                   ...        0 min,  0.528 sec
 * total energy  :  -476.1830172 Eh     change       -0.7994088E-03 Eh
   gradient norm :     0.0061658 Eh/α   predicted    -0.5847350E-03 ( -26.85%)
   displ. norm   :     0.6066447 α      lambda       -0.9168143E-03
   maximum displ.:     0.4394518 α      in ANC's #21, #41, #27, ...
 * RMSD in coord.:     0.8024771 α      energy gain  -0.1159960E+00 Eh

generating ANC from model Hessian ...
Using Lindh-Hessian (1995)
 Shifting diagonal of input Hessian by    1.0007382925472793E-002
 Lowest  eigenvalues of input Hessian
    0.010000    0.010001    0.010002    0.010003    0.000000    0.000000
    0.000000    0.000000    0.000000    0.000000    0.010008    0.010008
    0.010008    0.010010    0.010010    0.010011    0.010013    0.010015
 Highest eigenvalues
    2.945373    2.949715    2.957221    2.957771    2.958349    2.959265


........................................................................
.............................. CYCLE   43 ..............................
........................................................................
   1   -485.3820403 -0.485382E+03  0.309E-02    0.71       0.0  T
   2   -485.3820404 -0.133277E-06  0.183E-02    0.71       1.0  T
   3   -485.3820077  0.326554E-04  0.895E-03    0.71       1.0  T
   4   -485.3820419 -0.341731E-04  0.125E-03    0.71       4.8  T
   5   -485.3820424 -0.474069E-06  0.563E-04    0.71      10.7  T
   6   -485.3820425 -0.702452E-07  0.279E-04    0.71      21.5  T
     SCC iter.                  ...        0 min,  1.379 sec
     gradient                   ...        0 min,  0.555 sec
 * total energy  :  -476.1838712 Eh     change       -0.8539670E-03 Eh
   gradient norm :     0.0060776 Eh/α   predicted     0.0000000E+00 (-100.00%)
   displ. norm   :     0.1659863 α      lambda       -0.3747203E-03
   maximum displ.:     0.1252436 α      in ANC's #20, #29, #45, ...

........................................................................
.............................. CYCLE   44 ..............................
........................................................................
   1   -485.3835657 -0.485384E+03  0.212E-02    0.71       0.0  T
   2   -485.3835660 -0.304690E-06  0.127E-02    0.71       1.0  T
   3   -485.3835559  0.100571E-04  0.492E-03    0.71       1.2  T
   4   -485.3835663 -0.103665E-04  0.920E-04    0.71       6.5  T
   5   -485.3835666 -0.307448E-06  0.434E-04    0.71      13.8  T
   6   -485.3835666 -0.573749E-07  0.213E-04    0.71      28.2  T
     SCC iter.                  ...        0 min,  1.462 sec
     gradient                   ...        0 min,  0.554 sec
 * total energy  :  -476.1841687 Eh     change       -0.2975013E-03 Eh
   gradient norm :     0.0042363 Eh/α   predicted    -0.1951860E-03 ( -34.39%)
   displ. norm   :     0.4062854 α      lambda       -0.8246431E-03
   maximum displ.:     0.2642817 α      in ANC's #20, #29, #22, ...

........................................................................
.............................. CYCLE   45 ..............................
........................................................................
   1   -485.3874785 -0.485387E+03  0.370E-02    0.71       0.0  T
   2   -485.3874803 -0.182642E-05  0.218E-02    0.71       1.0  T
   3   -485.3874424  0.379361E-04  0.922E-03    0.71       1.0  T
   4   -485.3874808 -0.383965E-04  0.224E-03    0.71       2.7  T
   5   -485.3874829 -0.214118E-05  0.812E-04    0.71       7.4  T
   6   -485.3874831 -0.207993E-06  0.390E-04    0.71      15.4  T
   7   -485.3874831 -0.213209E-07  0.219E-04    0.71      27.3  T
     SCC iter.                  ...        0 min,  1.698 sec
     gradient                   ...        0 min,  0.538 sec
 * total energy  :  -476.1848015 Eh     change       -0.6328413E-03 Eh
   gradient norm :     0.0082937 Eh/α   predicted    -0.4803836E-03 ( -24.09%)
   displ. norm   :     0.5624945 α      lambda       -0.9236719E-03
   maximum displ.:     0.3767996 α      in ANC's #20, #29, #45, ...

........................................................................
.............................. CYCLE   46 ..............................
........................................................................
   1   -485.3902107 -0.485390E+03  0.444E-02    0.71       0.0  T
   2   -485.3902126 -0.182011E-05  0.262E-02    0.71       1.0  T
   3   -485.3901555  0.571048E-04  0.114E-02    0.71       1.0  T
   4   -485.3902148 -0.593162E-04  0.215E-03    0.71       2.8  T
   5   -485.3902166 -0.180209E-05  0.919E-04    0.71       6.5  T
   6   -485.3902168 -0.270158E-06  0.467E-04    0.71      12.8  T
   7   -485.3902169 -0.351953E-07  0.247E-04    0.71      24.3  T
     SCC iter.                  ...        0 min,  1.716 sec
     gradient                   ...        0 min,  0.528 sec
 * total energy  :  -476.1855328 Eh     change       -0.7312600E-03 Eh
   gradient norm :     0.0091198 Eh/α   predicted    -0.6079799E-03 ( -16.86%)
   displ. norm   :     0.5955479 α      lambda       -0.9777087E-03
   maximum displ.:     0.3932555 α      in ANC's #20, #29, #22, ...

........................................................................
.............................. CYCLE   47 ..............................
........................................................................
   1   -485.3916573 -0.485392E+03  0.461E-02    0.71       0.0  T
   2   -485.3916584 -0.113169E-05  0.272E-02    0.71       1.0  T
   3   -485.3916134  0.449766E-04  0.101E-02    0.71       1.0  T
   4   -485.3916605 -0.470505E-04  0.178E-03    0.71       3.4  T
   5   -485.3916615 -0.978112E-06  0.842E-04    0.71       7.1  T
   6   -485.3916616 -0.154598E-06  0.479E-04    0.71      12.5  T
     SCC iter.                  ...        0 min,  1.372 sec
     gradient                   ...        0 min,  0.527 sec
 * total energy  :  -476.1862761 Eh     change       -0.7433725E-03 Eh
   gradient norm :     0.0083491 Eh/α   predicted    -0.6622402E-03 ( -10.91%)
   displ. norm   :     0.5836849 α      lambda       -0.9070518E-03
   maximum displ.:     0.3956131 α      in ANC's #20, #29, #22, ...

........................................................................
.............................. CYCLE   48 ..............................
........................................................................
   1   -485.3933022 -0.485393E+03  0.368E-02    0.72       0.0  T
   2   -485.3933030 -0.800034E-06  0.216E-02    0.72       1.0  T
   3   -485.3932778  0.252407E-04  0.751E-03    0.71       1.0  T
   4   -485.3933045 -0.267057E-04  0.131E-03    0.72       4.6  T
   5   -485.3933050 -0.495153E-06  0.603E-04    0.72       9.9  T
   6   -485.3933050 -0.534396E-07  0.368E-04    0.72      16.3  T
     SCC iter.                  ...        0 min,  1.372 sec
     gradient                   ...        0 min,  0.526 sec
 * total energy  :  -476.1870736 Eh     change       -0.7974767E-03 Eh
   gradient norm :     0.0074832 Eh/α   predicted    -0.6080412E-03 ( -23.75%)
   displ. norm   :     0.6116038 α      lambda       -0.9834332E-03
   maximum displ.:     0.4201386 α      in ANC's #20, #29, #22, ...

........................................................................
.............................. CYCLE   49 ..............................
........................................................................
   1   -485.3948827 -0.485395E+03  0.430E-02    0.72       0.0  T
   2   -485.3948839 -0.125079E-05  0.254E-02    0.72       1.0  T
   3   -485.3948650  0.189337E-04  0.719E-03    0.72       1.0  T
   4   -485.3948850 -0.199922E-04  0.143E-03    0.72       4.2  T
   5   -485.3948856 -0.594265E-06  0.622E-04    0.72       9.6  T
   6   -485.3948856 -0.331137E-07  0.414E-04    0.72      14.5  T
     SCC iter.                  ...        0 min,  1.372 sec
     gradient                   ...        0 min,  0.529 sec
 * total energy  :  -476.1878937 Eh     change       -0.8200993E-03 Eh
   gradient norm :     0.0073540 Eh/α   predicted    -0.6756484E-03 ( -17.61%)
   displ. norm   :     0.6452974 α      lambda       -0.1086149E-02
   maximum displ.:     0.4377807 α      in ANC's #20, #22, #29, ...

........................................................................
.............................. CYCLE   50 ..............................
........................................................................
   1   -485.3959969 -0.485396E+03  0.459E-02    0.72       0.0  T
   2   -485.3959983 -0.141667E-05  0.271E-02    0.72       1.0  T
   3   -485.3959709  0.274033E-04  0.842E-03    0.72       1.0  T
   4   -485.3959984 -0.274401E-04  0.216E-03    0.72       2.8  T
   5   -485.3960003 -0.189696E-05  0.689E-04    0.72       8.7  T
   6   -485.3960003 -0.718338E-07  0.421E-04    0.72      14.2  T
   7   -485.3960004 -0.337672E-07  0.185E-04    0.72      32.5  T
     SCC iter.                  ...        0 min,  1.597 sec
     gradient                   ...        0 min,  0.526 sec
 * total energy  :  -476.1887779 Eh     change       -0.8841811E-03 Eh
   gradient norm :     0.0085084 Eh/α   predicted    -0.7692215E-03 ( -13.00%)
   displ. norm   :     0.6835924 α      lambda       -0.9972641E-03
   maximum displ.:     0.4704061 α      in ANC's #20, #22, #29, ...

........................................................................
.............................. CYCLE   51 ..............................
........................................................................
   1   -485.3949346 -0.485395E+03  0.395E-02    0.72       0.0  T
   2   -485.3949355 -0.887347E-06  0.231E-02    0.72       1.0  T
   3   -485.3949162  0.193103E-04  0.652E-03    0.72       1.0  T
   4   -485.3949359 -0.197055E-04  0.155E-03    0.72       3.9  T
   5   -485.3949368 -0.934084E-06  0.533E-04    0.72      11.3  T
   6   -485.3949369 -0.309989E-07  0.338E-04    0.72      17.8  T
     SCC iter.                  ...        0 min,  1.413 sec
     gradient                   ...        0 min,  0.583 sec
 * total energy  :  -476.1897042 Eh     change       -0.9263398E-03 Eh
   gradient norm :     0.0080888 Eh/α   predicted    -0.7316433E-03 ( -21.02%)
   displ. norm   :     0.6883275 α      lambda       -0.1019876E-02
   maximum displ.:     0.4738095 α      in ANC's #20, #22, #29, ...

........................................................................
.............................. CYCLE   52 ..............................
........................................................................
   1   -485.3928177 -0.485393E+03  0.401E-02    0.72       0.0  T
   2   -485.3928186 -0.932627E-06  0.236E-02    0.72       1.0  T
   3   -485.3927957  0.229856E-04  0.694E-03    0.72       1.0  T
   4   -485.3928191 -0.234796E-04  0.170E-03    0.72       3.5  T
   5   -485.3928203 -0.114191E-05  0.552E-04    0.72      10.9  T
   6   -485.3928203 -0.237512E-07  0.355E-04    0.72      16.9  T
   7   -485.3928203 -0.275448E-07  0.135E-04    0.72      44.3  T
     SCC iter.                  ...        0 min,  1.752 sec
     gradient                   ...        0 min,  0.584 sec
 * total energy  :  -476.1906566 Eh     change       -0.9523085E-03 Eh
   gradient norm :     0.0061129 Eh/α   predicted    -0.7515441E-03 ( -21.08%)
   displ. norm   :     0.7185004 α      lambda       -0.1011938E-02
   maximum displ.:     0.4960387 α      in ANC's #20, #22, #29, ...

........................................................................
.............................. CYCLE   53 ..............................
........................................................................
   1   -485.3907066 -0.485391E+03  0.429E-02    0.72       0.0  T
   2   -485.3907079 -0.132895E-05  0.252E-02    0.72       1.0  T
   3   -485.3906889  0.190014E-04  0.665E-03    0.72       1.0  T
   4   -485.3907084 -0.194971E-04  0.169E-03    0.72       3.5  T
   5   -485.3907096 -0.113692E-05  0.583E-04    0.72      10.3  T
   6   -485.3907096 -0.301179E-07  0.382E-04    0.72      15.7  T
   7   -485.3907096 -0.322700E-07  0.139E-04    0.72      43.2  T
     SCC iter.                  ...        0 min,  1.594 sec
     gradient                   ...        0 min,  0.526 sec
 * total energy  :  -476.1916084 Eh     change       -0.9518905E-03 Eh
   gradient norm :     0.0051233 Eh/α   predicted    -0.7671754E-03 ( -19.41%)
   displ. norm   :     0.7311062 α      lambda       -0.9750252E-03
   maximum displ.:     0.5067053 α      in ANC's #20, #22, #29, ...

........................................................................
.............................. CYCLE   54 ..............................
........................................................................
   1   -485.3892510 -0.485389E+03  0.436E-02    0.72       0.0  T
   2   -485.3892523 -0.136469E-05  0.256E-02    0.72       1.0  T
   3   -485.3892404  0.119043E-04  0.545E-03    0.72       1.1  T
   4   -485.3892528 -0.123869E-04  0.143E-03    0.72       4.2  T
   5   -485.3892536 -0.748380E-06  0.552E-04    0.72      10.9  T
   6   -485.3892536 -0.216388E-07  0.373E-04    0.72      16.1  T
     SCC iter.                  ...        0 min,  1.371 sec
     gradient                   ...        0 min,  0.527 sec
 * total energy  :  -476.1925354 Eh     change       -0.9269853E-03 Eh
   gradient norm :     0.0053113 Eh/α   predicted    -0.7481035E-03 ( -19.30%)
   displ. norm   :     0.7277108 α      lambda       -0.9321562E-03
   maximum displ.:     0.5065416 α      in ANC's #20, #22, #29, ...

........................................................................
.............................. CYCLE   55 ..............................
........................................................................
   1   -485.3882349 -0.485388E+03  0.424E-02    0.72       0.0  T
   2   -485.3882361 -0.116818E-05  0.249E-02    0.72       1.0  T
   3   -485.3882296  0.654278E-05  0.430E-03    0.72       1.4  T
   4   -485.3882366 -0.706379E-05  0.108E-03    0.72       5.5  T
   5   -485.3882369 -0.327142E-06  0.512E-04    0.72      11.7  T
   6   -485.3882370 -0.159101E-07  0.345E-04    0.72      17.4  T
     SCC iter.                  ...        0 min,  1.371 sec
     gradient                   ...        0 min,  0.526 sec
 * total energy  :  -476.1934269 Eh     change       -0.8914225E-03 Eh
   gradient norm :     0.0052732 Eh/α   predicted    -0.7128987E-03 ( -20.03%)
   displ. norm   :     0.7212900 α      lambda       -0.8928446E-03
   maximum displ.:     0.5040163 α      in ANC's #20, #22, #29, ...

........................................................................
[...]
 425:  0.00 426:  0.00 427:  0.00 428:  0.00 429:  0.00 430:  0.00 431:  0.00 432:  0.00
 433:  0.00 434:  0.00 435:  0.00 436:  0.00 437:  0.00 438:  0.00 439:  0.00 440:  0.00
 441:  0.00 442:  0.00 443:  0.00 444:  0.00 445:  0.00 446:  0.00 447:  0.00 448:  0.00
 449:  0.00 450:  0.00 451:  0.00 452:  0.00 453:  0.00 454:  0.00 455:  0.00 456:  0.00
 457:  0.00 458:  0.00 459:  0.00 460:  0.00 461:  0.00 462:  0.00 463:  0.00 464:  0.00
 465:  0.00 466:  0.00 467:  0.00 468:  0.00 469:  0.00 470:  0.00 471:  0.00 472:  0.00
 473:  0.00 474:  0.00 475:  0.00 476:  0.00 477:  0.00 478:  0.00 479:  0.00 480:  0.00
 481:  0.00 482:  0.00 483:  0.00 484:  0.00 485:  0.00 486:  0.00 487:  0.00 488:  0.00
 489:  0.00 490:  0.00 491:  0.00 492:  0.00 493:  0.00 494:  0.00 495:  0.00 496:  0.00
 497:  0.00 498:  0.00 499:  0.00 500:  0.00 501:  0.00 502:  0.00 503:  0.00 504:  0.00
 505:  0.00 506:  0.00 507:  0.00 508:  0.00 509:  0.00 510:  0.00 511:  0.00 512:  0.00
 513:  0.00 514:  0.00 515:  0.00 516:  0.00 517:  0.00 518:  0.00 519:  0.00 520:  0.00
 521:  0.00 522:  0.00 523:  0.00 524:  0.00 525:  0.00 526:  0.00 527:  0.00 528:  0.00
 529:  0.00 530:  0.00 531:  0.00 532:  0.00 533:  0.00 534:  0.00 535:  0.00 536:  0.00
 537:  0.00 538:  0.00 539:  0.00 540:  0.00 541:  0.00 542:  0.00 543:  0.00 544:  0.00
 545:  0.00 546:  0.00 547:  0.00 548:  0.00 549:  0.00 550:  0.00 551:  0.00 552:  0.00
 553:  0.00 554:  0.00 555:  0.00 556:  0.00 557:  0.00 558:  0.00 559:  0.00 560:  0.00
 561:  0.00 562:  0.00 563:  0.00 564:  0.00 565:  0.00 566:  0.00 567:  0.00 568:  0.00
 569:  0.00 570:  0.00 571:  0.00 572:  0.00 573:  0.00 574:  0.00 575:  0.00 576:  0.00
 577:  0.00 578:  0.00 579:  0.00 580:  0.00 581:  0.00 582:  0.00 583:  0.00 584:  0.00
 585:  0.00 586:  0.00 587:  0.00 588:  0.00 589:  0.00 590:  0.00 591:  0.00 592:  0.00
 593:  0.00 594:  0.00 595:  0.00 596:  0.00 597:  0.00 598:  0.00 599:  0.00 600:  0.00
 601:  0.00 602:  0.00 603:  0.00 604:  0.00 605:  0.00 606:  0.00 607:  0.00 608:  0.00
 609:  0.00 610:  0.00 611:  0.00 612:  0.00 613:  0.00 614:  0.00 615:  0.00 616:  0.00
 617:  0.00 618:  0.00 619:  0.00 620:  0.00 621:  0.00 622:  0.00 623:  0.00 624:  0.00
 625:  0.00 626:  0.00 627:  0.00 628:  0.00 629:  0.00 630:  0.00 631:  0.00 632:  0.00
 633:  0.00 634:  0.00 635:  0.00 636:  0.00 637:  0.00 638:  0.00 639:  0.00 640:  0.00
 641:  0.00 642:  0.00 643:  0.00 644:  0.00 645:  0.00 646:  0.00 647:  0.00 648:  0.00
 649:  0.00 650:  0.00 651:  0.00 652:  0.00 653:  0.00 654:  0.00 655:  0.00 656:  0.00
 657:  0.00 658:  0.00 659:  0.00 660:  0.00 661:  0.00 662:  0.00 663:  0.00 664:  0.00
 665:  0.00 666:  0.00 667:  0.00 668:  0.00 669:  0.00 670:  0.00 671:  0.00 672:  0.00
 673:  0.00 674:  0.00 675:  0.00 676:  0.00 677:  0.00 678:  0.00 679:  0.00 680:  0.00
 681:  0.00 682:  0.00 683:  0.00 684:  0.00 685:  0.00 686:  0.00 687:  0.00 688:  0.00
 689:  0.00 690:  0.00 691:  0.00 692:  0.00 693:  0.00 694:  0.00 695:  0.00 696:  0.00
 697:  0.00 698:  0.00 699:  0.00 700:  0.00 701:  0.00 702:  0.00 703:  0.00 704:  0.00
 705:  0.00 706:  0.00 707:  0.00 708:  0.00 709:  0.00 710:  0.00 711:  0.00 712:  0.00
 713:  0.00 714:  0.00 715:  0.00 716:  0.00 717:  0.00 718:  0.00 719:  0.00 720:  0.00
 721:  0.00 722:  0.00 723:  0.00 724:  0.00 725:  0.00 726:  0.00 727:  0.00 728:  0.00
 729:  0.00 730:  0.00 731:  0.00 732:  0.00 733:  0.00 734:  0.00 735:  0.00 736:  0.00
 737:  0.00 738:  0.00 739:  0.00 740:  0.00 741:  0.00 742:  0.00 743:  0.00 744:  0.00
 745:  0.00 746:  0.00 747:  0.00 748:  0.00 749:  0.00 750:  0.00 751:  0.00 752:  0.00
 753:  0.00 754:  0.00 755:  0.00 756:  0.00 757:  0.00 758:  0.00 759:  0.00 760:  0.00
 761:  0.00 762:  0.00 763:  0.00 764:  0.00 765:  0.00 766:  0.00 767:  0.00 768:  0.00
 769:  0.00 770:  0.00 771:  0.00 772:  0.00 773:  0.00 774:  0.00 775:  0.00 776:  0.00
 777:  0.00 778:  0.00 779:  0.00 780:  0.00 781:  0.00 782:  0.00 783:  0.00 784:  0.00
 785:  0.00 786:  0.00 787:  0.00 788:  0.00 789:  0.00 790:  0.00 791:  0.00 792:  0.00
 793:  0.00 794:  0.00 795:  0.00 796:  0.00 797:  0.00 798:  0.00 799:  0.00 800:  0.00
 801:  0.00 802:  0.00 803:  0.00 804:  0.00 805:  0.00 806:  0.00 807:  0.00 808:  0.00
 809:  0.00 810:  0.00 811:  0.00 812:  0.00 813:  0.00 814:  0.00 815:  0.00 816:  0.00
 817:  0.00 818:  0.00 819:  0.00 820:  0.00 821:  0.00 822:  0.00 823:  0.00 824:  0.00
 825:  0.00 826:  0.00 827:  0.00 828:  0.00 829:  0.00 830:  0.00 831:  0.00 832:  0.00
 833:  0.00 834:  0.00
 output can be read by thermo (or use thermo option).
 writing <g98.out> molden fake output.
 recommended (thermochemical) frequency scaling factor: 1.0
           -------------------------------------------------
          |             Thermodynamic Functions             |
           -------------------------------------------------
 symmetry recognition skipped because # atoms >         200
 inverting freq            1   5.0688296001348272     
 inverting freq            2   4.5680519612420847     
 inverting freq            3   3.4343950288968346     

          ...................................................
          :                      SETUP                      :
          :.................................................:
          :  # frequencies                         827      :
          :  # imaginary freq.                       0      :
          :  linear?                             false      :
          :  only rotor calc.                    false      :
          :  symmetry                               C1      :
          :  rotational number                       1      :
          :  scaling factor                  1.0000000      :
          :  rotor cutoff                   50.0000000 cm⁻¹ :
          :  imag. cutoff                  -20.0000000 cm⁻¹ :
          :.................................................:

    mode    ω/cm⁻¹     T·S(HO)/kcal·mol⁻¹    T·S(FR)/kcal·mol⁻¹   T·S(vib)
   ------------------------------------------------------------------------
       1      5.07    -2.79103 (  0.01%)    -1.73462 ( 99.99%)    -1.73473
       2      4.57    -2.85266 (  0.01%)    -1.76544 ( 99.99%)    -1.76551
       3      3.43    -3.02165 (  0.00%)    -1.84994 (100.00%)    -1.84997
       4      1.05    -3.72293 (  0.00%)    -2.20058 (100.00%)    -2.20058
       5      2.61    -3.18368 (  0.00%)    -1.93095 (100.00%)    -1.93096
       6      2.91    -3.11940 (  0.00%)    -1.89881 (100.00%)    -1.89883
       7      4.46    -2.86720 (  0.01%)    -1.77271 ( 99.99%)    -1.77278
       8      5.56    -2.73654 (  0.02%)    -1.70738 ( 99.98%)    -1.70754
       9      6.51    -2.64311 (  0.03%)    -1.66066 ( 99.97%)    -1.66094
      10      6.68    -2.62724 (  0.03%)    -1.65272 ( 99.97%)    -1.65303
      11      6.97    -2.60262 (  0.04%)    -1.64041 ( 99.96%)    -1.64077
      12      7.59    -2.55156 (  0.05%)    -1.61488 ( 99.95%)    -1.61538
      13      8.30    -2.49888 (  0.08%)    -1.58854 ( 99.92%)    -1.58923
      14      8.82    -2.46266 (  0.10%)    -1.57043 ( 99.90%)    -1.57129
      15      8.99    -2.45171 (  0.10%)    -1.56495 ( 99.90%)    -1.56587
      16      9.41    -2.42432 (  0.13%)    -1.55125 ( 99.87%)    -1.55235
      17     10.86    -2.33941 (  0.22%)    -1.50879 ( 99.78%)    -1.51064
      18     11.39    -2.31161 (  0.27%)    -1.49488 ( 99.73%)    -1.49707
      19     12.35    -2.26339 (  0.37%)    -1.47077 ( 99.63%)    -1.47371
      20     15.75    -2.11949 (  0.97%)    -1.39879 ( 99.03%)    -1.40581
      21     19.35    -1.99740 (  2.20%)    -1.33771 ( 97.80%)    -1.35220
      22     22.73    -1.90228 (  4.09%)    -1.29011 ( 95.91%)    -1.31518
      23     23.30    -1.88749 (  4.51%)    -1.28271 ( 95.49%)    -1.30996
      24     24.81    -1.85035 (  5.72%)    -1.26412 ( 94.28%)    -1.29764
      25     26.68    -1.80750 (  7.50%)    -1.24266 ( 92.50%)    -1.28500
      26     27.46    -1.79041 (  8.34%)    -1.23411 ( 91.66%)    -1.28048
      27     31.07    -1.71725 ( 12.98%)    -1.19746 ( 87.02%)    -1.26493
      28     31.46    -1.70995 ( 13.55%)    -1.19381 ( 86.45%)    -1.26374
      29     35.41    -1.64002 ( 20.10%)    -1.15876 ( 79.90%)    -1.25549
      30     37.46    -1.60669 ( 23.97%)    -1.14206 ( 76.03%)    -1.25341
      31     38.79    -1.58619 ( 26.59%)    -1.13178 ( 73.41%)    -1.25258
      32     40.91    -1.55476 ( 30.94%)    -1.11602 ( 69.06%)    -1.25176
      33     41.56    -1.54541 ( 32.31%)    -1.11132 ( 67.69%)    -1.25157
      34     41.60    -1.54488 ( 32.39%)    -1.11106 ( 67.61%)    -1.25156
      35     41.75    -1.54274 ( 32.71%)    -1.10999 ( 67.29%)    -1.25152
      36     41.98    -1.53953 ( 33.19%)    -1.10837 ( 66.81%)    -1.25146
      37     42.18    -1.53661 ( 33.63%)    -1.10691 ( 66.37%)    -1.25140
      38     42.61    -1.53061 ( 34.54%)    -1.10390 ( 65.46%)    -1.25128
      39     42.66    -1.52994 ( 34.64%)    -1.10357 ( 65.36%)    -1.25127
      40     43.75    -1.51506 ( 36.96%)    -1.09610 ( 63.04%)    -1.25094
      41     46.29    -1.48178 ( 42.35%)    -1.07939 ( 57.65%)    -1.24980
      42     49.18    -1.44611 ( 48.34%)    -1.06148 ( 51.66%)    -1.24740
      43     51.20    -1.42231 ( 52.37%)    -1.04952 ( 47.63%)    -1.24475
      44     56.80    -1.36115 ( 62.48%)    -1.01877 ( 37.52%)    -1.23271
      45     59.53    -1.33349 ( 66.78%)    -1.00485 ( 33.22%)    -1.22431
      46     62.69    -1.30312 ( 71.19%)    -0.98955 ( 28.81%)    -1.21278
      47     67.56    -1.25917 ( 76.92%)    -0.96739 ( 23.08%)    -1.19183
      48     68.38    -1.25208 ( 77.77%)    -0.96382 ( 22.23%)    -1.18799
      49     71.66    -1.22459 ( 80.84%)    -0.94994 ( 19.16%)    -1.17196
      50     72.71    -1.21605 ( 81.72%)    -0.94563 ( 18.28%)    -1.16663
      51     83.79    -1.13296 ( 88.75%)    -0.90359 ( 11.25%)    -1.10716
      52     87.71    -1.10629 ( 90.45%)    -0.89006 (  9.55%)    -1.08564
      53     90.33    -1.08909 ( 91.42%)    -0.88133 (  8.58%)    -1.07126
      54     91.59    -1.08101 ( 91.84%)    -0.87722 (  8.16%)    -1.06439
      55     92.05    -1.07809 ( 91.99%)    -0.87574 (  8.01%)    -1.06189
      56     92.49    -1.07534 ( 92.13%)    -0.87434 (  7.87%)    -1.05952
      57     94.44    -1.06321 ( 92.71%)    -0.86817 (  7.29%)    -1.04900
      58     94.88    -1.06048 ( 92.84%)    -0.86678 (  7.16%)    -1.04661
      59     99.13    -1.03499 ( 93.92%)    -0.85380 (  6.08%)    -1.02397
      60    102.19    -1.01732 ( 94.58%)    -0.84479 (  5.42%)    -1.00797
      61    105.93    -0.99646 ( 95.27%)    -0.83414 (  4.73%)    -0.98878
      62    108.84    -0.98074 ( 95.74%)    -0.82611 (  4.26%)    -0.97415
      63    110.98    -0.96949 ( 96.04%)    -0.82035 (  3.96%)    -0.96359
      64    111.16    -0.96856 ( 96.07%)    -0.81987 (  3.93%)    -0.96271
      65    113.18    -0.95812 ( 96.33%)    -0.81452 (  3.67%)    -0.95285
      66    113.54    -0.95630 ( 96.38%)    -0.81359 (  3.62%)    -0.95113
      67    113.99    -0.95402 ( 96.43%)    -0.81242 (  3.57%)    -0.94896
      68    114.51    -0.95141 ( 96.49%)    -0.81108 (  3.51%)    -0.94649
      69    115.14    -0.94824 ( 96.57%)    -0.80946 (  3.43%)    -0.94347
      70    116.39    -0.94197 ( 96.71%)    -0.80624 (  3.29%)    -0.93750
      71    116.49    -0.94151 ( 96.72%)    -0.80600 (  3.28%)    -0.93706
      72    130.30    -0.87706 ( 97.88%)    -0.77281 (  2.12%)    -0.87484
      73    130.61    -0.87566 ( 97.90%)    -0.77209 (  2.10%)    -0.87348
      74    131.18    -0.87319 ( 97.93%)    -0.77081 (  2.07%)    -0.87107
      75    132.03    -0.86949 ( 97.98%)    -0.76890 (  2.02%)    -0.86746
      76    133.13    -0.86473 ( 98.05%)    -0.76644 (  1.95%)    -0.86281
      77    134.26    -0.85990 ( 98.11%)    -0.76394 (  1.89%)    -0.85809
      78    139.02    -0.83997 ( 98.35%)    -0.75361 (  1.65%)    -0.83855
      79    139.13    -0.83954 ( 98.36%)    -0.75339 (  1.64%)    -0.83813
      80    139.32    -0.83873 ( 98.37%)    -0.75297 (  1.63%)    -0.83733
      81    139.59    -0.83763 ( 98.38%)    -0.75239 (  1.62%)    -0.83625
      82    139.99    -0.83601 ( 98.40%)    -0.75155 (  1.60%)    -0.83466
      83    140.66    -0.83328 ( 98.43%)    -0.75013 (  1.57%)    -0.83197
      84    142.48    -0.82596 ( 98.51%)    -0.74633 (  1.49%)    -0.82477
      85    143.74    -0.82097 ( 98.56%)    -0.74373 (  1.44%)    -0.81985
      86    146.13    -0.81158 ( 98.65%)    -0.73884 (  1.35%)    -0.81059
      87    147.16    -0.80758 ( 98.68%)    -0.73676 (  1.32%)    -0.80665
      88    148.94    -0.80076 ( 98.75%)    -0.73320 (  1.25%)    -0.79991
      89    151.50    -0.79107 ( 98.83%)    -0.72814 (  1.17%)    -0.79033
      90    153.81    -0.78251 ( 98.90%)    -0.72366 (  1.10%)    -0.78186
      91    154.94    -0.77837 ( 98.93%)    -0.72150 (  1.07%)    -0.77776
      92    156.57    -0.77244 ( 98.97%)    -0.71839 (  1.03%)    -0.77189
      93    168.70    -0.73045 ( 99.23%)    -0.69629 (  0.77%)    -0.73019
      94    178.59    -0.69858 ( 99.39%)    -0.67941 (  0.61%)    -0.69846
      95    179.13    -0.69691 ( 99.40%)    -0.67852 (  0.60%)    -0.69680
      96    181.39    -0.68993 ( 99.43%)    -0.67480 (  0.57%)    -0.68984
      97    182.58    -0.68631 ( 99.44%)    -0.67288 (  0.56%)    -0.68624
      98    183.42    -0.68375 ( 99.45%)    -0.67151 (  0.55%)    -0.68368
      99    184.81    -0.67957 ( 99.47%)    -0.66928 (  0.53%)    -0.67952
     100    185.79    -0.67663 ( 99.48%)    -0.66771 (  0.52%)    -0.67658
     101    186.39    -0.67484 ( 99.48%)    -0.66675 (  0.52%)    -0.67480
     102    190.72    -0.66214 ( 99.53%)    -0.65995 (  0.47%)    -0.66213
     103    191.40    -0.66018 ( 99.54%)    -0.65890 (  0.46%)    -0.66018
     104    194.07    -0.65253 ( 99.56%)    -0.65479 (  0.44%)    -0.65254
     105    196.50    -0.64569 ( 99.58%)    -0.65111 (  0.42%)    -0.64571
     106    198.62    -0.63978 ( 99.60%)    -0.64792 (  0.40%)    -0.63982
     107    200.72    -0.63400 ( 99.62%)    -0.64480 (  0.38%)    -0.63404
     108    200.75    -0.63393 ( 99.62%)    -0.64476 (  0.38%)    -0.63397
     109    201.42    -0.63211 ( 99.62%)    -0.64378 (  0.38%)    -0.63216
     110    201.48    -0.63194 ( 99.62%)    -0.64369 (  0.38%)    -0.63198
     111    201.59    -0.63164 ( 99.62%)    -0.64353 (  0.38%)    -0.63168
     112    202.43    -0.62937 ( 99.63%)    -0.64230 (  0.37%)    -0.62942
     113    202.73    -0.62854 ( 99.63%)    -0.64185 (  0.37%)    -0.62859
     114    206.42    -0.61870 ( 99.66%)    -0.63652 (  0.34%)    -0.61876
     115    208.21    -0.61397 ( 99.67%)    -0.63395 (  0.33%)    -0.61404
     116    213.50    -0.60032 ( 99.70%)    -0.62651 (  0.30%)    -0.60040
     117    219.91    -0.58433 ( 99.73%)    -0.61776 (  0.27%)    -0.58442
     118    246.20    -0.52404 ( 99.83%)    -0.58431 (  0.17%)    -0.52414
     119    253.00    -0.50971 ( 99.85%)    -0.57623 (  0.15%)    -0.50981
     120    255.64    -0.50429 ( 99.85%)    -0.57316 (  0.15%)    -0.50439
     121    260.06    -0.49534 ( 99.86%)    -0.56808 (  0.14%)    -0.49544
     122    261.78    -0.49191 ( 99.87%)    -0.56613 (  0.13%)    -0.49201
     123    264.68    -0.48620 ( 99.87%)    -0.56287 (  0.13%)    -0.48629
     124    264.92    -0.48572 ( 99.87%)    -0.56259 (  0.13%)    -0.48581
     125    265.13    -0.48532 ( 99.87%)    -0.56236 (  0.13%)    -0.48542
     126    265.22    -0.48515 ( 99.87%)    -0.56226 (  0.13%)    -0.48524
     127    265.39    -0.48480 ( 99.87%)    -0.56207 (  0.13%)    -0.48490
     128    265.54    -0.48451 ( 99.87%)    -0.56190 (  0.13%)    -0.48460
     129    265.71    -0.48418 ( 99.87%)    -0.56172 (  0.13%)    -0.48428
     130    265.73    -0.48415 ( 99.87%)    -0.56169 (  0.13%)    -0.48424
     131    265.81    -0.48398 ( 99.87%)    -0.56160 (  0.13%)    -0.48408
     132    265.90    -0.48380 ( 99.88%)    -0.56150 (  0.12%)    -0.48390
     133    266.95    -0.48177 ( 99.88%)    -0.56033 (  0.12%)    -0.48186
     134    267.14    -0.48140 ( 99.88%)    -0.56012 (  0.12%)    -0.48149
     135    271.43    -0.47319 ( 99.88%)    -0.55540 (  0.12%)    -0.47328
     136    277.79    -0.46131 ( 99.90%)    -0.54854 (  0.10%)    -0.46140
     137    279.60    -0.45800 ( 99.90%)    -0.54662 (  0.10%)    -0.45809
     138    281.16    -0.45516 ( 99.90%)    -0.54497 (  0.10%)    -0.45525
     139    282.94    -0.45194 ( 99.90%)    -0.54310 (  0.10%)    -0.45203
     140    287.94    -0.44307 ( 99.91%)    -0.53791 (  0.09%)    -0.44315
     141    290.82    -0.43804 ( 99.91%)    -0.53496 (  0.09%)    -0.43812
     142    292.62    -0.43494 ( 99.91%)    -0.53314 (  0.09%)    -0.43502
     143    295.68    -0.42971 ( 99.92%)    -0.53006 (  0.08%)    -0.42979
     144    299.41    -0.42344 ( 99.92%)    -0.52634 (  0.08%)    -0.42352
     145    299.46    -0.42335 ( 99.92%)    -0.52629 (  0.08%)    -0.42343
     146    299.89    -0.42263 ( 99.92%)    -0.52587 (  0.08%)    -0.42271
   ------------------------------------------------------------------------

   temp. (K)  partition function   enthalpy   heat capacity  entropy
                                   cal/mol     cal/K/mol   cal/K/mol   J/K/mol
 298.15  VIB  0.213E+88            97162.985    620.425    627.048
         ROT  0.154E+11              888.752      2.981     49.599
         INT  0.328E+98            98051.738    623.406    676.647
         TR   0.117E+30             1481.254      4.968     49.229
         TOT                       99532.9915   628.3739   725.8759  3037.0648

       T/K    H(0)-H(T)+PV         H(T)/Eh          T*S/Eh         G(T)/Eh
   ------------------------------------------------------------------------
    298.15    0.158616E+00    0.214735E+01    0.344887E+00    0.180247E+01
   ------------------------------------------------------------------------

         :::::::::::::::::::::::::::::::::::::::::::::::::::::
         ::                  THERMODYNAMIC                  ::
         :::::::::::::::::::::::::::::::::::::::::::::::::::::
         :: total free energy        -474.411848027695 Eh   ::
         ::.................................................::
         :: total energy             -476.214315646995 Eh   ::
         :: zero point energy           1.988738768137 Eh   ::
         :: G(RRHO) w/o ZPVE           -0.186271148837 Eh   ::
         :: G(RRHO) contrib.            1.802467619300 Eh   ::
         :::::::::::::::::::::::::::::::::::::::::::::::::::::
imag cut-off (cm-1) :    5.00
 found            1  significant imaginary frequency
 writing imag mode distorted coords to xtbhess.xyz
 for further optimization.

optimized geometry written to: xtbopt.xyz


           -------------------------------------------------
          | TOTAL ENERGY             -476.214315646995 Eh   |
          | TOTAL ENTHALPY           -474.066960960595 Eh   |
          | TOTAL FREE ENERGY        -474.411848027695 Eh   |
          | GRADIENT NORM               0.000526111146 Eh/α |
          | HOMO-LUMO GAP               0.717259383977 eV   |
           -------------------------------------------------

------------------------------------------------------------------------
 * finished run on 2021/11/19 at 19:58:14.432     
------------------------------------------------------------------------
 total:
 * wall-time:     0 d,  0 h, 49 min, 40.654 sec
 *  cpu-time:     0 d,  0 h, 49 min, 40.670 sec
 * ratio c/w:     1.000 speedup
 SCF:
 * wall-time:     0 d,  0 h,  0 min,  8.501 sec
 *  cpu-time:     0 d,  0 h,  0 min,  8.501 sec
 * ratio c/w:     1.000 speedup
 ANC optimizer:
 * wall-time:     0 d,  0 h,  4 min, 49.296 sec
 *  cpu-time:     0 d,  0 h,  4 min, 49.289 sec
 * ratio c/w:     1.000 speedup
 analytical hessian:
 * wall-time:     0 d,  0 h, 44 min, 42.416 sec
 *  cpu-time:     0 d,  0 h, 44 min, 42.442 sec
 * ratio c/w:     1.000 speedup

