278
 energy: -476.214315646830 gnorm: 0.000526160290 xtb: 6.4.1 (bd6e46d)
C        49.81286047386849    3.43151182604188    0.07260676256594
C        50.77054154771416    2.48452745467024    0.03714267800091
C        50.07193236204591    1.21296407201351   -0.02163460197819
C        50.73559689890200   -0.02971775865465   -0.06789340708667
C        50.08491195008710   -1.27345630094696   -0.12305633690834
C        50.68788183163083   -2.55865787857231   -0.17294248089733
C        49.68300543459211   -3.48155794210649   -0.22053829908071
C        48.44489831363425   -2.77969177437178   -0.20086608578961
N        48.74052474729011   -1.45151365743912   -0.14143375142134
C        47.17674775083012   -3.34053111102921   -0.23650231182405
C        45.95906807624132   -2.67451997789003   -0.21824688802524
C        44.68145168746883   -3.37144486877236   -0.26025797365809
C        43.73198950088963   -2.41825235326408   -0.22607606532481
C        44.43680639056253   -1.14717583972296   -0.16360713699797
N        45.77284949738137   -1.33961978594826   -0.16088589901213
C        43.79067767049717    0.08159460365160   -0.11404926162966
C        44.41668719257390    1.31717746470566   -0.05440806812556
C        43.81217106601095    2.60569130542467   -0.00142011934975
C        44.81354573851490    3.52990556752067    0.04645303252580
C        46.05538124169512    2.83054308669990    0.02385990057327
N        45.76340686625340    1.50473830955360   -0.03668800758393
C        47.32386303852855    3.39075381302176    0.05641760460164
C        48.54190389972306    2.72812400102047    0.03464461168044
N        48.74047309564065    1.38907347438962   -0.02213923802871
H        49.91928682263282    4.49827162035936    0.11963871864014
H        51.83737679833657    2.59668451101727    0.04865871577291
H        51.74549249661172   -2.73742456754775   -0.17228596168821
H        49.77935452166593   -4.54890083672632   -0.26542746539179
H        48.06896115927131   -0.69294433781564   -0.11468786127652
H        47.13516735015470   -4.41998610959764   -0.28394650739252
H        44.56939744208822   -4.43774633397526   -0.30865971940771
H        42.66410197729554   -2.52416977903054   -0.23997958470047
H        42.71031802463063    0.07431647359285   -0.12266279947249
H        42.75470054451872    2.78579564915084   -0.00068994877209
H        44.71585668677187    4.59725646177184    0.09312430966913
H        46.43294884474221    0.74522190413416   -0.06581830777167
H        47.36696289934979    4.47023963670458    0.10414896236473
C       126.22097144016873   -3.41742047051015    0.35275391495489
C       125.26010409969716   -2.47553385256834    0.28347541820755
C       125.95390448281661   -1.20777325444250    0.14282040516813
C       125.28590528506199    0.02884180538459    0.03637831452560
C       125.93182856753377    1.26857429416296   -0.10277093255115
C       125.32388776228753    2.54735694467256   -0.21654859690588
C       126.32478530988662    3.46846821727137   -0.33281739344439
C       127.56535816509580    2.77191762099321   -0.29232102123343
N       127.27512577990488    1.44853928293718   -0.15268300285348
C       128.83101404629306    3.33290036466789   -0.37832460876227
C       130.05090938470562    2.67182902629222   -0.33970174539367
C       131.32564803270731    3.36828840316755   -0.43835435788019
C       132.27844158014599    2.42072581575671   -0.36396587242067
C       131.57848647548471    1.15347017631864   -0.22101581543115
N       130.24201636397169    1.34268073664903   -0.21026770605131
C       132.22899202619934   -0.06925075753739   -0.11335064876577
C       131.60777902452759   -1.30126628609579    0.02218235428099
C       132.21712525318566   -2.58368364195823    0.13441594622787
C       131.21954197995245   -3.50642109805572    0.24675767698182
C       129.97530094761908   -2.81216754761773    0.20646971556786
N       130.26209410076609   -1.49079795513169    0.07073784156105
C       128.70926488089790   -3.37266847325165    0.29004964779828
C       127.48904048148245   -2.71469180261016    0.25406208135830
N       127.28563344042568   -1.38106735879791    0.12829189953229
H       126.11848081441066   -4.48030092098625    0.45910545994398
H       124.19393486275075   -2.58889070570785    0.31970745723479
H       124.26584417596791    2.72328597132935   -0.20909441366894
H       126.22415800245179    4.53125213733903   -0.43709955152608
H       127.94974413408478    0.69458016438356   -0.09307642575557
H       128.86847767141529    4.40802210618464   -0.48742396775937
H       131.43369612888682    4.43047170565906   -0.54785848155554
H       133.34570319704585    2.52821124851729   -0.39851574728156
H       133.30909531347658   -0.05998252910842   -0.13798355579514
H       133.27504609539776   -2.76101982175114    0.12836406175837
H       131.32138857600086   -4.56954866665554    0.34846535493602
H       129.58964279453164   -0.73564579140899    0.01129082455234
H       128.67034487589558   -4.44816425041366    0.39596920601807
C        52.13186196110380   -0.02984481742986   -0.05872279561516
C        53.35057192408393   -0.01456227377524   -0.04822284231051
C        54.69115477889315    0.00003479907325   -0.03523630528253
C        55.90996993192876    0.02112172423855   -0.02439848133255
C        65.73130826894058    0.00104563941257    0.03416962944515
C        66.95059433015103    0.00814211038984    0.03307017634171
C        68.29059587041677    0.01818062331488    0.03235735699016
C        69.50987492708957    0.02442150637710    0.02987301974591
C        79.32739834639763   -0.01646842992210    0.05311195701437
C        80.54666621306002   -0.00284115470485    0.05442258020726
C        81.88653331266707    0.01344925093891    0.05605136546533
C        83.10571943082479    0.02806196657823    0.05065106377849
C        92.92022985571319   -0.01067736401559   -0.07474708522697
C        94.13936256280508   -0.00121797394401   -0.09217314473266
C        95.47919384530344    0.01087647768940   -0.10651613227625
C        96.69844368287738    0.01892722082751   -0.11637470767905
C       106.51447773299574    0.00782793983514    0.02870071105066
C       107.73312612924001    0.02774907112787    0.06393616993682
C       109.07264103127306    0.04438079657744    0.09753556758259
C       110.29155101279949    0.05765441339423    0.12525120558091
C       120.11246613656786   -0.00554523670807    0.15133018634141
C       121.33120830273091    0.00676730668566    0.12708251480992
C       122.67157312154892    0.01690512957427    0.09943569029948
C       123.89003887989050    0.02770450288110    0.06931181458319
C        58.29026746980086   -3.40051733025421    0.28335661943977
C        57.31391803284679   -2.47598976111289    0.19571119937125
C        57.98718531270850   -1.19463748274927    0.09339905124774
C        57.30488860882301    0.03437587912514   -0.01217059212311
C        57.95104729401488    1.27900683550281   -0.10478036229749
C        57.35321412432594    2.56174825227656   -0.21019667743441
C        58.36374848116802    3.47840827021471   -0.27692432279873
C        59.59819188098432    2.77380198175399   -0.21416212803978
N        59.29641948306152    1.45035546345293   -0.10996768624707
C        60.86601632314149    3.33842954483942   -0.25538101677146
C        62.09435246195416    2.70007740718995   -0.20070337757415
C        63.35172022825479    3.42638878832433   -0.25937027550070
C        64.32800749568118    2.50095329021542   -0.18113806123125
C        63.65449911866268    1.21995085051467   -0.07488348228776
N        62.31990938221813    1.36830360519776   -0.08968115283936
C        64.33684663361683   -0.00922613677521    0.03140835577970
C        63.69041266339321   -1.25293067335179    0.13630499759110
C        64.28826553483880   -2.53502659963053    0.24895802895474
C        63.27776949834125   -3.45110560188092    0.32298187247538
C        62.04334986541085   -2.74680168564724    0.25657328193926
N        62.34521472505400   -1.42381091100035    0.14496101616376
C        60.77572649041563   -3.31129313236671    0.29657672522494
C        59.54741004253265   -2.67340601480387    0.23248882583527
N        59.32202789812205   -1.34218442854711    0.11754501098963
H        58.20482860903546   -4.46638240909735    0.37354063415171
H        56.24943644634220   -2.60919041815658    0.19804329864610
H        56.29652392208989    2.74421345471013   -0.23117147432433
H        58.27251489986700    4.54376839297648   -0.36199461164823
H        59.95139684471715    0.67873069080216   -0.04505879748118
H        60.89517976004053    4.41623120002971   -0.34275308122264
H        63.43729018271526    4.49235939178801   -0.34828747659913
H        65.39259058123292    2.63330041234121   -0.19095834569604
H        65.34494075898230   -2.71755208783281    0.26932157977080
H        63.36904262264478   -4.51590414298023    0.41463003678583
H        61.69001109144688   -0.65272343804780    0.07621754388904
H        60.74623966879150   -4.38868594377106    0.38856132439076
C        71.88159335140674   -3.39804673419903    0.40115789241684
C        70.90752549698333   -2.47247174884060    0.30002713390946
C        71.58405668475318   -1.19608353686096    0.16252898401963
C        70.90434473209461    0.03189085411414    0.02901377551730
C        71.55278560277220    1.27165119118062   -0.10662150764393
C        70.95641262818548    2.55148339836569   -0.24846800470747
C        71.96796277367201    3.46398299398396   -0.34897938545629
C        73.20143477566423    2.75954151031672   -0.27032136457167
N        72.89820012480618    1.44026741419273   -0.12449026099926
C        74.47015919624333    3.32016078105690   -0.33105436525536
C        75.69687812207412    2.68067339703986   -0.25780121175412
C        76.95591816782058    3.40220381624928   -0.33467237970949
C        77.92986985788060    2.47706330212074   -0.22900045405258
C        77.25319068537402    1.20094100365516   -0.08929234926695
N        75.91899937913259    1.35188168490095   -0.10977892333591
C        77.93301511105702   -0.02654801529321    0.04864392057142
C        77.28487828870800   -1.26660179156435    0.18234364468554
C        77.88128427558100   -2.54648198476144    0.32383295592101
C        76.86976063921738   -3.45951209765559    0.41970007566502
C        75.63621511429014   -2.75536295813702    0.33897393644437
N        75.93949238767007   -1.43571612391195    0.19614275677968
C        74.36742677752842   -3.31610791168025    0.39639835795026
C        73.14060127949895   -2.67641570025438    0.32456539359711
N        72.91835202305116   -1.34729553080154    0.18017264152640
H        71.79356994019611   -4.46130197972972    0.51621944701458
H        69.84265723405802   -2.60204828396647    0.31301977296369
H        69.89994426985952    2.73512077632813   -0.26943523302066
H        71.87785855702165    4.52631848898846   -0.46661555707578
H        73.55320251975135    0.67069636396522   -0.03953551387554
H        74.50163524624675    4.39481110846101   -0.45028218546056
H        77.04402386265595    4.46513693242365   -0.45256569550684
H        78.99473546414808    2.60675026861197   -0.24047470171055
H        78.93776416153580   -2.72983230125645    0.34727053297295
H        76.95998936493582   -4.52202935428150    0.53565617518102
H        75.28450096590980   -0.66624222173338    0.11036781900274
H        74.33579808535298   -4.39105606239781    0.51298982932650
C        85.48339501165269   -3.38433853311742    0.45518629587755
C        84.50790010706653   -2.46040784259786    0.35321299631956
C        85.18228539253474   -1.18638304150287    0.18578319109193
C        84.50008272168216    0.03913640000884    0.04229223384882
C        85.14539458043755    1.27826306410582   -0.11228129410184
C        84.54586459588592    2.55643373077300   -0.25608586771497
C        85.55502351152276    3.46940353217942   -0.37476312804429
C        86.79019624848529    2.76683316044172   -0.30670704603014
N        86.49026828404790    1.44827469778550   -0.14765689746426
C        88.05765014409540    3.32745423088289   -0.38950357852780
C        89.28546237087997    2.68821139110974   -0.33274456234663
C        90.54309662762027    3.40882828410012   -0.43666143899907
C        91.51857223495875    2.48380176703419   -0.34462974913201
C        90.84423730534836    1.20879003567826   -0.18489370409010
N        89.50989824376431    1.36023823248715   -0.18118211116487
C        91.52600369042490   -0.01803055825364   -0.05139140595047
C        90.88044651512523   -1.25658437825708    0.10717259769149
C        91.48005612460868   -2.53474281525211    0.25058148777910
C        90.47109489916093   -3.44667105835232    0.37856539149631
C        89.23602211464673   -2.74353425387345    0.31551045496004
N        89.53572993039562   -1.42563523711511    0.15082675869156
C        87.96876060383583   -3.30340051242381    0.40581339087893
C        86.74101547412478   -2.66429285421492    0.34769495524137
N        86.51661556519043   -1.33734282004409    0.18685742262675
H        85.39719667147624   -4.44555873172980    0.58884136404902
H        83.44337083538269   -2.58958644678348    0.38444146623023
H        83.48899167124110    2.73877716474112   -0.26528816495255
H        85.46217993569716    4.53083463808409   -0.49832497751479
H        87.14771491823177    0.68063189439868   -0.06477491711507
H        88.08715664381037    4.40135495264722   -0.51578437815954
H        90.62930617517563    4.47110111057516   -0.56170943951754
H        92.58308557842021    2.61295427101643   -0.37669777445536
H        92.53684600912921   -2.71772292442976    0.25407962477628
H        90.56400831579322   -4.50775594959767    0.50494406440117
H        88.87820417208728   -0.65780245584208    0.07028707339535
H        87.93942764123851   -4.37666389349491    0.53735717434780
C        99.07557713849907   -3.39678425392511    0.28103479189907
C        98.10001319566977   -2.47419603065629    0.16791820612583
C        98.77443416481408   -1.19687335763949    0.02837004878435
C        98.09283566022833    0.02852763806920   -0.11853976646579
C        98.73923994521164    1.26787476399767   -0.26699460522806
C        98.14074682542901    2.54398626446230   -0.43168274337198
C        99.15076106886191    3.45722077454767   -0.54050742964322
C       100.38537124880922    2.75718895512839   -0.44256325508307
N       100.08429613805536    1.43944593136075   -0.27904360526738
C       101.65314604606399    3.32021451576885   -0.49947673166608
C       102.88071967793572    2.68608175140687   -0.39810681513276
C       104.13839192178121    3.41091916520968   -0.46554690317633
C       105.11355089554861    2.49166145208585   -0.32519201571331
C       104.43904153577581    1.21544703289735   -0.17634970391611
N       103.10486563802419    1.36085541840934   -0.22381891317888
C       105.12053112135008   -0.00720255914314   -0.00748411666297
C       104.47439346752695   -1.24847533450086    0.12528710061548
C       105.07278914892592   -2.52483924388348    0.28832750052499
C       104.06308729605441   -3.44117241621149    0.37124418127635
C       102.82867807570778   -2.74244396274322    0.26207635739539
N       103.12961596230045   -1.42280668384746    0.11455757869358
C       101.56108531685281   -3.30745992993215    0.30302071207468
C       100.33333626122683   -2.67217031088999    0.21183179095338
N       100.10887074082954   -1.34453418819042    0.05738465989785
H        98.98937417739822   -4.45966706677536    0.40083281191243
H        97.03539081349079   -2.60640722829062    0.17263146583871
H        97.08399362781236    2.72470734230259   -0.46179267716969
H        99.05888054404467    4.51738295314284   -0.67515218974442
H       100.74053918143913    0.67286461933272   -0.17824804218850
H       101.68309270871089    4.39277846871018   -0.63656485666813
H       104.22481037321276    4.47194751410282   -0.60058810765851
H       106.17796851490024    2.62527744145257   -0.31945150437370
H       106.12930709112656   -2.70382989805374    0.33354073292697
H       104.15511622318660   -4.50243060810997    0.49689549140813
H       102.47336891715950   -0.65667960836382    0.01041067262341
H       101.53142468572808   -4.38174614884475    0.42601565929468
C       112.65605915512496   -3.36036429928048    0.57002816758849
C       111.68382991501605   -2.43518402493352    0.44974893661757
C       112.36283617730419   -1.16121989098756    0.30210448177272
C       111.68581640919442    0.06604733153007    0.14932140896642
C       112.33753603830608    1.30429515277875    0.01648595403698
C       111.74530276653566    2.58534967168184   -0.13200751629167
C       112.75975815080969    3.49552415997311   -0.22316197847693
C       113.99106929363714    2.78832861693784   -0.13372285590059
N       113.68342254234872    1.46989396223161    0.01099718327610
C       115.26125368507732    3.34580626835576   -0.18905561678058
C       116.48676259813416    2.70330535218994   -0.11758311498416
C       117.74714199796888    3.42190901547513   -0.19991022601601
C       118.71943857035916    2.49392939681361   -0.10417463739357
C       118.04053192322675    1.21933852763108    0.03787771758207
N       116.70634309406036    1.37398602702863    0.02707112272656
C       118.71761449356266   -0.01008487897688    0.16971294909530
C       118.06608610620903   -1.24643949444525    0.31865426187318
C       118.65818449080521   -2.52744555029675    0.46801306191119
C       117.64358343389017   -3.43484962058651    0.58267942584502
C       116.41231710058757   -2.72633569858339    0.50406926403886
N       116.71997707715916   -1.40962343640256    0.34574870445491
C       115.14193441465471   -3.28248101964246    0.57243915260134
C       113.91652066881454   -2.64126637674061    0.49209104120880
N       113.69674602365730   -1.31361034322017    0.33136779975352
H       112.56590127166523   -4.42203216834536    0.69749762024257
H       110.61873653633380   -2.56341695382710    0.45693143589858
H       110.68946665457267    2.77133279858725   -0.16256289256339
H       112.67316041466519    4.55800507888989   -0.34220811181433
H       114.33513667540588    0.69826804964913    0.10303364451608
H       115.29560978947718    4.42049790477521   -0.30726249985672
H       117.83724083458280    4.48493287803386   -0.31549826229354
H       119.78452383057713    2.62090470430921   -0.12250108499030
H       119.71403911315812   -2.71513008775312    0.48465309772188
H       117.73011839760248   -4.49645882685936    0.70935711802128
H       116.06822801965542   -0.63758828188476    0.25746853033243
H       115.10778788830928   -4.35596843404702    0.70125958649848
