278
 energy: -471.975356525464 gnorm: 4.949512608277 xtb: 6.4.1 (bd6e46d)
C        51.53201700000001    3.51201200000000    0.78970300000000
C        52.42199500000000    2.57175300000000    0.59150700000000
C        51.76049300000000    1.31167800000000    0.29070000000000
C        52.11893200000000    0.00601600000000    0.00201900000000
C        51.29375300000001   -1.12505600000000   -0.08319700000000
C        51.74931900000000   -2.33378000000000    0.49811000000000
C        50.77662400000001   -3.26632700000000    0.29795500000000
C        49.74553000000001   -2.59862500000000   -0.40503300000000
N        50.08225500000001   -1.31776600000000   -0.62194700000000
C        48.58757000000000   -3.32474100000000   -0.73675000000000
C        47.26946900000000   -2.88204500000000   -0.62321500000000
C        45.95712200000000   -3.48417900000000   -0.72019400000000
C        45.03549500000000   -2.53753200000000   -0.51410900000000
C        45.73238100000000   -1.29170100000000   -0.27737800000000
N        47.05345400000000   -1.57145300000000   -0.35706400000000
C        45.33313900000000    0.01029600000000   -0.00937500000000
C        46.16575100000000    1.14697200000000    0.06653300000000
C        45.73160700000000    2.34896200000000   -0.54360700000000
C        46.72712100000000    3.26535000000000   -0.35165100000000
C        47.74127200000000    2.59210700000000    0.37228000000000
N        47.37607500000000    1.32428500000000    0.61110400000000
C        48.91091300000000    3.29906300000000    0.69378000000000
C        50.22616600000000    2.89553900000000    0.62376400000000
N        50.41578900000000    1.58443500000000    0.32736200000000
H        51.69928100000001    4.54055600000000    1.02829200000000
H        53.49225400000001    2.69509000000000    0.64052600000000
H        52.70984000000000   -2.51948300000000    1.01668700000000
H        50.81350600000000   -4.32293600000000    0.62328200000000
H        49.47897000000000   -0.55035600000000   -1.16946600000000
H        48.67596100000000   -4.36016800000000   -1.11509600000000
H        45.75844700000000   -4.54488000000000   -0.92893900000000
H        43.96608500000000   -2.72946600000000   -0.53334300000000
H        44.25819600000000    0.09956600000000    0.12837000000000
H        44.77795300000000    2.54051900000000   -1.07240500000000
H        46.71269900000000    4.31557900000000   -0.69809200000000
H        47.96939900000000    0.56684100000000    1.18310000000000
H        48.84240500000000    4.35646800000000    1.05049500000000
C       124.49973000000001   -3.49161000000000    0.82607300000000
C       123.60975200000000   -2.55346000000000    0.61812300000000
C       124.27125400000001   -1.29657800000000    0.30424500000000
C       123.91281499999999    0.00601600000000    0.00201900000000
C       124.73799400000000    1.13614200000000   -0.09494000000000
C       124.28242800000000    2.35083800000000    0.47378200000000
C       125.25512300000000    3.28125600000000    0.26395300000000
C       126.28621600000000    2.60629000000000   -0.43206200000000
N       125.94949099999999    1.32324600000000   -0.63566200000000
C       127.44417700000000    3.32892100000000   -0.77130300000000
C       128.76227800000001    2.88742800000000   -0.65317600000000
C       130.07462400000000    3.48852200000000   -0.75640400000000
C       130.99625200000000    2.54406600000000   -0.54049800000000
C       130.29936599999999    1.30076200000000   -0.29084100000000
N       128.97829300000001    1.57967100000000   -0.37342800000000
C       130.69860800000001    0.00161800000000   -0.00933000000000
C       129.86599600000000   -1.13420800000000    0.07838000000000
C       130.30013900000000   -2.34247000000000   -0.51924400000000
C       129.30462600000001   -3.25681500000000   -0.31778100000000
C       128.29047499999999   -2.57609000000000    0.39911900000000
N       128.65567200000001   -1.30585600000000    0.62476200000000
C       127.12083400000000   -3.27966900000000    0.72794300000000
C       125.80558100000000   -2.87689300000000    0.65374000000000
N       125.61595800000002   -1.56893900000000    0.34373700000000
H       124.33246500000000   -4.51762100000000    1.07533200000000
H       122.53949300000001   -2.67628200000000    0.66842000000000
H       123.32190700000000    2.54191700000000    0.99040200000000
H       125.21824100000002    4.34118700000000    0.57828900000000
H       126.55277600000001    0.55019100000000   -1.17518100000000
H       127.35578600000001    4.36036300000000   -1.16038300000000
H       130.27330000000001    4.54699800000000   -0.97615400000000
H       132.06566200000000    2.73579000000000   -0.56172400000000
H       131.77355100000000   -0.08621600000000    0.12933400000000
H       131.25379400000000   -2.53950900000000   -1.04602400000000
H       129.31904800000001   -4.31058600000000   -0.65329600000000
H       128.06234799999999   -0.54251300000000    1.18886100000000
H       127.18934200000001   -4.33331200000000    1.09562200000000
C        54.52054500000000    0.00379400000000    0.00080500000000
C        55.72852200000001    0.01124900000000    0.00250000000000
C        57.14729000000000    0.01194600000000    0.00763700000000
C        58.36280600000000    0.00379400000000    0.00080500000000
C        67.15065400000000    0.00379400000000    0.00080500000000
C        68.35863000000002    0.01124900000000    0.00250000000000
C        69.77739800000001    0.01194600000000    0.00763700000000
C        70.99291500000000    0.00379400000000    0.00080500000000
C        79.78076200000001    0.00379400000000    0.00080500000000
C        80.98873900000000    0.01124900000000    0.00250000000000
C        82.40750700000000    0.01194600000000    0.00763700000000
C        83.62302300000000    0.00379400000000    0.00080500000000
C        92.41087100000000    0.00379400000000    0.00080500000000
C        93.61884700000000    0.01124900000000    0.00250000000000
C        95.03761500000002    0.01194600000000    0.00763700000000
C        96.25313200000001    0.00379400000000    0.00080500000000
C       105.04097899999999    0.00379400000000    0.00080500000000
C       106.24895600000001    0.01124900000000    0.00250000000000
C       107.66772400000001    0.01194600000000    0.00763700000000
C       108.88324000000000    0.00379400000000    0.00080500000000
C       117.67108800000000    0.00379400000000    0.00080500000000
C       118.87906400000000    0.01124900000000    0.00250000000000
C       120.29783200000000    0.01194600000000    0.00763700000000
C       121.51334900000001    0.00379400000000    0.00080500000000
C        59.96250800000000   -3.59225200000000    0.00095400000000
C        59.08795800000000   -2.59734800000000   -0.00934800000000
C        59.75942200000001   -1.31856500000000    0.00384100000000
C        59.36239100000001   -0.00297900000000   -0.00093700000000
C        60.17358400000000    1.14134400000000   -0.15506400000000
C        59.69455800000001    2.19386100000000   -0.96712900000000
C        60.68164300000000    3.13661300000000   -0.95859800000000
C        61.72891400000000    2.63481900000000   -0.14579500000000
N        61.39006100000000    1.42845100000000    0.32695100000000
C        62.88929200000000    3.41280200000000    0.00855500000000
C        64.21028099999999    2.95492800000000   -0.02083800000000
C        65.52285000000001    3.58306100000000   -0.08196600000000
C        66.43696300000001    2.62799700000000   -0.08454900000000
C        65.76341600000001    1.34112400000000   -0.02536000000000
N        64.45135800000000    1.62972300000000    0.00943000000000
C        66.16570000000000   -0.00297900000000   -0.00093700000000
C        65.33354600000000   -1.11676800000000    0.18134400000000
C        65.77350400000000   -2.14842500000000    1.04465500000000
C        64.77532200000000   -3.07176600000000    1.04927600000000
C        63.75240600000000   -2.59182800000000    0.19584600000000
N        64.11958300000001   -1.41058100000000   -0.31466200000000
C        62.59549700000000   -3.36723600000000    0.03877800000000
C        61.27472200000000   -2.94775700000000    0.02209200000000
N        61.09833100000000   -1.60955400000000    0.02299300000000
H        59.79398900000001   -4.65441900000000   -0.00444900000000
H        58.00013000000000   -2.78338400000000   -0.02637500000000
H        58.73048000000001    2.26923200000000   -1.50144500000000
H        60.64349600000000    4.10772800000000   -1.49104100000000
H        61.99774000000000    0.79135100000000    1.01558000000000
H        62.83419200000000    4.49906300000000    0.15267000000000
H        65.74127700000000    4.65105400000000   -0.12029600000000
H        67.51327800000000    2.77404100000000   -0.12417700000000
H        66.72751300000000   -2.21283700000000    1.60220300000000
H        64.80074000000000   -4.01708300000000    1.62459500000000
H        63.53250700000001   -0.79112400000000   -1.03831200000000
H        62.65621500000000   -4.47897500000000   -0.07535100000000
C        72.59261700000000   -3.59225200000000    0.00095400000000
C        71.71806700000002   -2.59734800000000   -0.00934800000000
C        72.38953100000001   -1.31856500000000    0.00384100000000
C        71.99250000000001   -0.00297900000000   -0.00093700000000
C        72.80369200000000    1.14134400000000   -0.15506400000000
C        72.32466599999999    2.19386100000000   -0.96712900000000
C        73.31175100000000    3.13661300000000   -0.95859800000000
C        74.35902299999999    2.63481900000000   -0.14579500000000
N        74.02016999999999    1.42845100000000    0.32695100000000
C        75.51940000000000    3.41280200000000    0.00855500000000
C        76.84038900000000    2.95492800000000   -0.02083800000000
C        78.15295900000000    3.58306100000000   -0.08196600000000
C        79.06707100000000    2.62799700000000   -0.08454900000000
C        78.39352500000000    1.34112400000000   -0.02536000000000
N        77.08146600000001    1.62972300000000    0.00943000000000
C        78.79580799999999   -0.00297900000000   -0.00093700000000
C        77.96365400000001   -1.11676800000000    0.18134400000000
C        78.40361200000000   -2.14842500000000    1.04465500000000
C        77.40543000000000   -3.07176600000000    1.04927600000000
C        76.38251500000001   -2.59182800000000    0.19584600000000
N        76.74969200000000   -1.41058100000000   -0.31466200000000
C        75.22560500000000   -3.36723600000000    0.03877800000000
C        73.90483000000000   -2.94775700000000    0.02209200000000
N        73.72843899999999   -1.60955400000000    0.02299300000000
H        72.42409800000000   -4.65441900000000   -0.00444900000000
H        70.63023900000000   -2.78338400000000   -0.02637500000000
H        71.36058900000000    2.26923200000000   -1.50144500000000
H        73.27360500000000    4.10772800000000   -1.49104100000000
H        74.62784800000000    0.79135100000000    1.01558000000000
H        75.46429999999999    4.49906300000000    0.15267000000000
H        78.37138600000000    4.65105400000000   -0.12029600000000
H        80.14338600000002    2.77404100000000   -0.12417700000000
H        79.35762200000001   -2.21283700000000    1.60220300000000
H        77.43084900000001   -4.01708300000000    1.62459500000000
H        76.16261600000000   -0.79112400000000   -1.03831200000000
H        75.28632400000001   -4.47897500000000   -0.07535100000000
C        85.22272500000000   -3.59225200000000    0.00095400000000
C        84.34817500000000   -2.59734800000000   -0.00934800000000
C        85.01963900000000   -1.31856500000000    0.00384100000000
C        84.62260800000001   -0.00297900000000   -0.00093700000000
C        85.43380100000000    1.14134400000000   -0.15506400000000
C        84.95477500000000    2.19386100000000   -0.96712900000000
C        85.94186000000001    3.13661300000000   -0.95859800000000
C        86.98913100000001    2.63481900000000   -0.14579500000000
N        86.65027800000000    1.42845100000000    0.32695100000000
C        88.14950899999999    3.41280200000000    0.00855500000000
C        89.47049800000002    2.95492800000000   -0.02083800000000
C        90.78306700000002    3.58306100000000   -0.08196600000000
C        91.69718000000000    2.62799700000000   -0.08454900000000
C        91.02363300000002    1.34112400000000   -0.02536000000000
N        89.71157500000000    1.62972300000000    0.00943000000000
C        91.42591700000000   -0.00297900000000   -0.00093700000000
C        90.59376300000000   -1.11676800000000    0.18134400000000
C        91.03372100000001   -2.14842500000000    1.04465500000000
C        90.03553900000000   -3.07176600000000    1.04927600000000
C        89.01262300000000   -2.59182800000000    0.19584600000000
N        89.37980000000002   -1.41058100000000   -0.31466200000000
C        87.85571400000001   -3.36723600000000    0.03877800000000
C        86.53493899999999   -2.94775700000000    0.02209200000000
N        86.35854800000000   -1.60955400000000    0.02299300000000
H        85.05420600000001   -4.65441900000000   -0.00444900000000
H        83.26034700000000   -2.78338400000000   -0.02637500000000
H        83.99069700000000    2.26923200000000   -1.50144500000000
H        85.90371300000000    4.10772800000000   -1.49104100000000
H        87.25795700000000    0.79135100000000    1.01558000000000
H        88.09440900000000    4.49906300000000    0.15267000000000
H        91.00149400000001    4.65105400000000   -0.12029600000000
H        92.77349500000000    2.77404100000000   -0.12417700000000
H        91.98773100000001   -2.21283700000000    1.60220300000000
H        90.06095700000000   -4.01708300000000    1.62459500000000
H        88.79272400000001   -0.79112400000000   -1.03831200000000
H        87.91643200000000   -4.47897500000000   -0.07535100000000
C        97.85283400000000   -3.59225200000000    0.00095400000000
C        96.97828400000000   -2.59734800000000   -0.00934800000000
C        97.64974800000000   -1.31856500000000    0.00384100000000
C        97.25271700000000   -0.00297900000000   -0.00093700000000
C        98.06390900000000    1.14134400000000   -0.15506400000000
C        97.58488300000002    2.19386100000000   -0.96712900000000
C        98.57196900000000    3.13661300000000   -0.95859800000000
C        99.61924000000000    2.63481900000000   -0.14579500000000
N        99.28038700000000    1.42845100000000    0.32695100000000
C       100.77961700000000    3.41280200000000    0.00855500000000
C       102.10060600000000    2.95492800000000   -0.02083800000000
C       103.41317600000001    3.58306100000000   -0.08196600000000
C       104.32728800000000    2.62799700000000   -0.08454900000000
C       103.65374199999999    1.34112400000000   -0.02536000000000
N       102.34168400000000    1.62972300000000    0.00943000000000
C       104.05602500000002   -0.00297900000000   -0.00093700000000
C       103.22387100000000   -1.11676800000000    0.18134400000000
C       103.66382900000001   -2.14842500000000    1.04465500000000
C       102.66564700000002   -3.07176600000000    1.04927600000000
C       101.64273200000000   -2.59182800000000    0.19584600000000
N       102.00990899999999   -1.41058100000000   -0.31466200000000
C       100.48582200000001   -3.36723600000000    0.03877800000000
C        99.16504700000000   -2.94775700000000    0.02209200000000
N        98.98865600000001   -1.60955400000000    0.02299300000000
H        97.68431500000000   -4.65441900000000   -0.00444900000000
H        95.89045600000000   -2.78338400000000   -0.02637500000000
H        96.62080600000002    2.26923200000000   -1.50144500000000
H        98.53382200000000    4.10772800000000   -1.49104100000000
H        99.88806500000001    0.79135100000000    1.01558000000000
H       100.72451800000000    4.49906300000000    0.15267000000000
H       103.63160300000000    4.65105400000000   -0.12029600000000
H       105.40360300000000    2.77404100000000   -0.12417700000000
H       104.61783900000000   -2.21283700000000    1.60220300000000
H       102.69106600000001   -4.01708300000000    1.62459500000000
H       101.42283300000000   -0.79112400000000   -1.03831200000000
H       100.54654100000000   -4.47897500000000   -0.07535100000000
C       110.48294199999999   -3.59225200000000    0.00095400000000
C       109.60839300000002   -2.59734800000000   -0.00934800000000
C       110.27985600000000   -1.31856500000000    0.00384100000000
C       109.88282500000000   -0.00297900000000   -0.00093700000000
C       110.69401800000000    1.14134400000000   -0.15506400000000
C       110.21499200000000    2.19386100000000   -0.96712900000000
C       111.20207700000002    3.13661300000000   -0.95859800000000
C       112.24934800000000    2.63481900000000   -0.14579500000000
N       111.91049500000000    1.42845100000000    0.32695100000000
C       113.40972600000001    3.41280200000000    0.00855500000000
C       114.73071500000000    2.95492800000000   -0.02083800000000
C       116.04328400000000    3.58306100000000   -0.08196600000000
C       116.95739700000000    2.62799700000000   -0.08454900000000
C       116.28385000000000    1.34112400000000   -0.02536000000000
N       114.97179199999999    1.62972300000000    0.00943000000000
C       116.68613400000000   -0.00297900000000   -0.00093700000000
C       115.85398000000001   -1.11676800000000    0.18134400000000
C       116.29393800000000   -2.14842500000000    1.04465500000000
C       115.29575600000000   -3.07176600000000    1.04927600000000
C       114.27284000000002   -2.59182800000000    0.19584600000000
N       114.64001700000000   -1.41058100000000   -0.31466200000000
C       113.11593100000000   -3.36723600000000    0.03877800000000
C       111.79515600000001   -2.94775700000000    0.02209200000000
N       111.61876500000000   -1.60955400000000    0.02299300000000
H       110.31442300000001   -4.65441900000000   -0.00444900000000
H       108.52056399999999   -2.78338400000000   -0.02637500000000
H       109.25091400000001    2.26923200000000   -1.50144500000000
H       111.16392999999999    4.10772800000000   -1.49104100000000
H       112.51817400000000    0.79135100000000    1.01558000000000
H       113.35462600000000    4.49906300000000    0.15267000000000
H       116.26171100000001    4.65105400000000   -0.12029600000000
H       118.03371200000001    2.77404100000000   -0.12417700000000
H       117.24794799999999   -2.21283700000000    1.60220300000000
H       115.32117400000001   -4.01708300000000    1.62459500000000
H       114.05294100000002   -0.79112400000000   -1.03831200000000
H       113.17664900000001   -4.47897500000000   -0.07535100000000
278
 energy: -474.127355727056 gnorm: 1.568284315725 xtb: 6.4.1 (bd6e46d)
C        51.52876954562345    3.51446834988157    0.79043935624469
C        52.42697219009322    2.56899086362485    0.59062321326225
C        51.75861369974068    1.31179202906541    0.28967211505723
C        52.12313319891270    0.00955884484850    0.00267168333087
C        51.30043848649451   -1.12244632576878   -0.08165962662468
C        51.75177918317146   -2.33526703313178    0.49894645157898
C        50.77783198027285   -3.26781019355847    0.29735584350642
C        49.74327627193689   -2.60218040741930   -0.40592553942755
N        50.07916929663579   -1.31386389035826   -0.62416645819171
C        48.58382506064065   -3.32641702483925   -0.73823954244702
C        47.26922236493350   -2.87793427883757   -0.62395669615546
C        45.95737365676610   -3.48790507043537   -0.72134168670523
C        45.03304620625166   -2.53815447295634   -0.51393092778649
C        45.73588587633952   -1.29256697348817   -0.27610213351462
N        47.05616485224776   -1.56910973865794   -0.35645160980536
C        45.33196409131811    0.00716874052031   -0.00893249860808
C        46.16158278183327    1.14516650587375    0.06567324822877
C        45.72973332854919    2.35005496291357   -0.54347388334013
C        46.72604748969366    3.26680286747430   -0.35122224037102
C        47.74339307716762    2.59602622699853    0.37268025786892
N        47.37963879901594    1.32044034530840    0.61228617769053
C        48.91335533013980    3.30302835664708    0.69607379358754
C        50.22615884007061    2.89063894821021    0.62389493991152
N        50.41575488837355    1.58208129423409    0.32703597388737
H        51.69911169890356    4.54129319742154    1.02849921422529
H        53.49279217892671    2.69459046181722    0.64040178212419
H        52.70778115473139   -2.51825984549512    1.01554683298617
H        50.81274352401030   -4.32037025861180    0.62232508386492
H        49.48271909306745   -0.55556132419542   -1.16510621185853
H        48.67667776114060   -4.35921994015014   -1.11285288814646
H        45.75894228049702   -4.54354624572531   -0.92869646239084
H        43.96656080724269   -2.72850390168929   -0.53311708987522
H        44.25836150354021    0.10094865590224    0.12700645586097
H        44.78016720021507    2.53930882853737   -1.07117573087068
H        46.71345914230839    4.31303557435394   -0.69712584172103
H        47.96553825221602    0.57186318943280    1.17847427963097
H        48.84114252486192    4.35517341848246    1.04836583220960
C       124.50297688893656   -3.49405942038400    0.82683585587862
C       123.60477911951224   -2.55070661227841    0.61721600969034
C       124.27313099810334   -1.29670468043446    0.30321774240418
C       123.90868027497838    0.00247288351873    0.00278317184462
C       124.73130332814912    1.13353851266785   -0.09336597147076
C       124.27997426825604    2.35233416209548    0.47461279245675
C       125.25391069650492    3.28273383230210    0.26333758428193
C       126.28846871573323    2.60983098649734   -0.43299476425576
N       125.95257278242262    1.31932724683671   -0.63785827797424
C       127.44792178442383    3.33058267028874   -0.77280850503980
C       128.76252501042069    2.88330626740882   -0.65387470507626
C       130.07437308911375    3.49223507905266   -0.75758979422395
C       130.99870092097137    2.54469061587535   -0.54032649939689
C       130.29586488296033    1.30163660284629   -0.28957518314964
N       128.97557885582268    1.57733725475316   -0.37279141606025
C       130.69978515420362    0.00475681575995   -0.00891991953538
C       129.87016280623126   -1.13241707064828    0.07749963063592
C       130.30201331884788   -2.34355527304597   -0.51909961318631
C       129.30569282572998   -3.25826323565564   -0.31733642387473
C       128.28835947480920   -2.58000467520519    0.39955657359464
N       128.65211004180210   -1.30200141718625    0.62590622474836
C       127.11838340570354   -3.28361076256074    0.73028142478617
C       125.80559172187972   -2.87199838976634    0.65381911464004
N       125.61598731571654   -1.56658281707561    0.34338206817373
H       124.33263461302064   -4.51835710713628    1.07554663614031
H       122.53895643102224   -2.67578330705820    0.66828502507456
H       123.32396644064463    2.54068357200709    0.98927470959240
H       125.21900249882563    4.33861237321641    0.57735735384389
H       126.54902633245698    0.55544170751293   -1.17087585434677
H       127.35506862637726    4.35943862641273   -1.15812823354420
H       130.27280485205171    4.54566715547085   -0.97589777000179
H       132.06518667430635    2.73483050923517   -0.56148820176477
H       131.77338581302766   -0.08761233182205    0.12798600894148
H       131.25158012098549   -2.53828599706793   -1.04480702166778
H       129.31828768581516   -4.30803295941541   -0.65235609802895
H       128.06620895920750   -0.54758306843168    1.18428695159635
H       127.19060419099918   -4.33203943031326    1.09348043881120
C        54.51282818735323    0.00304040675710    0.00080313739180
C        55.73060491198142    0.01086790794256    0.00288352453640
C        57.11958817942640    0.01261249630506    0.00779513443098
C        58.28227621876169    0.00832930948075    0.00087682417220
C        67.23346877003340    0.00107069314693    0.00114420793735
C        68.39261056950353    0.01011955482629    0.00227205501123
C        69.74681138557435    0.01299307900121    0.00773147801975
C        70.91472493097895    0.00853754666113    0.00121571622555
C        79.86330173493485    0.00107543740105    0.00108003614459
C        81.02309793829870    0.01012519262732    0.00226610759140
C        82.37660596417155    0.01299100421507    0.00774778712754
C        83.54498547357512    0.00853095060518    0.00123281978697
C        92.49339986182453    0.00107561598810    0.00107524093803
C        93.65321387824304    0.01012468923326    0.00226644526155
C        95.00671988785390    0.01299049863775    0.00774790163511
C        96.17508492812301    0.00853075245338    0.00122878863686
C       105.12364864650758    0.00107578702869    0.00109682354253
C       106.28301689323150    0.01012110975020    0.00228147896979
C       107.63720286371367    0.01299347597928    0.00773772315069
C       108.80491397251446    0.00854401951950    0.00117582688286
C       117.75585557641348    0.00132016450487    0.00116334401665
C       118.91031897388893    0.01041455461678    0.00236490709286
C       120.29708789290999    0.01236948501933    0.00781743404759
C       121.51976231818789    0.00458215662581    0.00066698283901
C        59.96620743428973   -3.59376158658442    0.00073646359577
C        59.08246080516872   -2.59660188039808   -0.00927860805892
C        59.77564913859270   -1.32901066111855    0.00467140757494
C        59.43888903201382   -0.00474648889746   -0.00093726694691
C        60.18027755468718    1.14381402875991   -0.15654830820376
C        59.69359273038589    2.19346766624099   -0.96691291141201
C        60.68183773629725    3.13934910056445   -0.95843932852340
C        61.73004509786417    2.63925423393262   -0.14644231299698
N        61.39444071634972    1.42633955894723    0.32920019669174
C        62.89495634833820    3.41435649770458    0.00967983345459
C        64.20987890302865    2.95461111510954   -0.01971071903897
C        65.52087733820538    3.58760845596404   -0.08153717635353
C        66.44083688650298    2.62568566349846   -0.08472096701160
C        65.74775195493648    1.35092643141398   -0.02613524783079
N        64.44802749181810    1.62624876919278    0.00906041327767
C        66.08304362697496   -0.00043485811632   -0.00178560086958
C        65.32498967892830   -1.12071208201138    0.18315628008586
C        65.77484315887486   -2.14726617212228    1.04439752460589
C        64.77500281449090   -3.07494029735501    1.04936636239086
C        63.75139144827742   -2.59636733851749    0.19684098473370
N        64.11550809224703   -1.40831587781479   -0.31708557708311
C        62.59128885559946   -3.37174173579315    0.03730343872847
C        61.27582072654452   -2.94609868365485    0.02099605376206
N        61.09852019129072   -1.60794891875951    0.02328669481453
H        59.79409936811498   -4.65422515127855   -0.00445283020105
H        58.00129468300789   -2.78190104723228   -0.02631199664627
H        58.73268623726141    2.26813577225987   -1.50000431668765
H        60.64428404205532    4.10548186868788   -1.48958106619477
H        61.99392372338581    0.79541258353703    1.01027812497797
H        62.83312333182608    4.49824399089594    0.15099105878183
H        65.74046775741817    4.65039314038830   -0.12026767853770
H        67.51285827935732    2.77340564441368   -0.12421502011013
H        66.72525843599342   -2.21175803891052    1.60061429144864
H        64.79983200714480   -4.01511533333143    1.62302112354112
H        63.53627257531988   -0.79511084761727   -1.03276658781718
H        62.65758380288804   -4.47708155834728   -0.07368655117068
C        72.59638159597020   -3.59392465865141    0.00071147036559
C        71.71267039456573   -2.59662521016878   -0.00929726861400
C        72.40695153376883   -1.33009897816964    0.00448413871004
C        72.06758497191728   -0.00451959784852   -0.00079700440368
C        72.81082260332269    1.14461012062445   -0.15679674600067
C        72.32384053441980    2.19308164144412   -0.96695337957230
C        73.31222056322424    3.13948915023973   -0.95829199885652
C        74.36001981413294    2.63939810670798   -0.14651245556654
N        74.02426277690279    1.42630464830353    0.32915622155900
C        75.52525354988236    3.41430460432988    0.00963348504743
C        76.83986734527629    2.95482133763065   -0.01976763836202
C        78.15097123793961    3.58762237101479   -0.08150624316432
C        79.07091768611926    2.62569039925315   -0.08472884638037
C        78.37772309742378    1.35108221190016   -0.02605229084991
N        77.07830853916816    1.62609151656721    0.00907117548428
C        78.71336676420546   -0.00045284869808   -0.00183210711252
C        77.95499560153613   -1.12090962148896    0.18320723299525
C        78.40493805311438   -2.14710264457616    1.04438573643472
C        77.40490911205376   -3.07496007475896    1.04930066416334
C        76.38169460253405   -2.59631327278014    0.19689140562888
N        76.74572423046554   -1.40832767257566   -0.31706943839678
C        75.22083327093576   -3.37165082446016    0.03730115765178
C        73.90637040601339   -2.94684239300099    0.02111056483612
N        73.72776700609745   -1.60730353825893    0.02330729074639
H        72.42420471477436   -4.65424688710480   -0.00444528534883
H        70.63142603440016   -2.78185638613899   -0.02630445469613
H        71.36281874502643    2.26810571994389   -1.49998329259224
H        73.27439617869206    4.10551817115441   -1.48955613025677
H        74.62398973041005    0.79542145963169    1.01028593942102
H        75.46325055516473    4.49825070657464    0.15099776343703
H        78.37058018212851    4.65039377496214   -0.12026811860608
H        80.14296310328162    2.77340291663031   -0.12422054065941
H        79.35536303000723   -2.21175942183677    1.60060845205785