 Entering Gaussian System
 *********************************************
 Gaussian 98:
 frequency output generated by the xtb code
 *********************************************
                         Standard orientation:
 --------------------------------------------------------------------
  Center     Atomic     Atomic              Coordinates (Angstroms)
  Number     Number      Type              X           Y           Z
 --------------------------------------------------------------------
    1         26             0       17.601538   -0.004650   -0.010081
    2          6             0       20.103183   -3.391621    0.038770
    3          6             0       21.094846   -2.470036    0.038948
    4          6             0       20.453660   -1.191064    0.018116
    5          6             0       21.129452    0.033399    0.004958
    6          6             0       20.427716    1.243084   -0.011674
    7          6             0       21.041305    2.535535   -0.024026
    8          6             0       20.030033    3.435568   -0.028054
    9          6             0       18.806305    2.686995   -0.018777
   10          7             0       19.070630    1.342378   -0.010931
   11          6             0       17.563768    3.290300   -0.014097
   12          6             0       16.336174    2.657771   -0.010348
   13          6             0       15.092418    3.377192   -0.007300
   14          6             0       14.105331    2.453441   -0.014949
   15          6             0       14.748987    1.171797   -0.021895
   16          7             0       16.106763    1.309701   -0.016823
   17          6             0       14.091945   -0.042457   -0.035948
   18          6             0       14.775066   -1.242261   -0.038010
   19          6             0       14.159325   -2.537518   -0.050374
   20          6             0       15.166089   -3.439730   -0.038700
   21          6             0       16.393872   -2.693619   -0.019717
   22          7             0       16.135430   -1.350841   -0.021775
   23          6             0       17.634590   -3.299602    0.002062
   24          6             0       18.863723   -2.669618    0.017250
   25          7             0       19.099063   -1.319649    0.007207
   26          1             0       20.183920   -4.461389    0.051333
   27          1             0       22.156955   -2.619801    0.051543
   28          1             0       22.100098    2.708126   -0.028097
   29          1             0       20.087728    4.506926   -0.036462
   30          1             0       17.552160    4.371114   -0.014826
   31          1             0       15.010007    4.447141   -0.000623
   32          1             0       13.042878    2.602470   -0.016004
   33          1             0       13.013094   -0.054053   -0.044565
   34          1             0       13.100424   -2.709484   -0.065232
   35          1             0       15.106968   -4.511227   -0.042174
   36          1             0       17.646191   -4.380399    0.006767
   37         26             0       66.173685    0.029789   -0.008881
   38          6             0       63.679611    3.359501    0.644572
   39          6             0       62.685885    2.455763    0.475748
   40          6             0       63.324317    1.199689    0.226813
   41          6             0       62.646011   -0.001293   -0.004814
   42          6             0       63.344902   -1.190418   -0.235594
   43          6             0       62.728246   -2.458109   -0.480328
   44          6             0       63.737366   -3.344865   -0.647783
   45          6             0       64.962891   -2.612954   -0.504633
   46          7             0       64.701800   -1.291326   -0.253612
   47          6             0       66.203991   -3.209924   -0.610393
   48          6             0       67.433019   -2.591430   -0.491893
   49          6             0       68.675146   -3.302363   -0.619131
   50          6             0       69.664314   -2.395113   -0.457417
   51          6             0       69.023550   -1.132099   -0.231131
   52          7             0       67.665458   -1.265325   -0.252525
   53          6             0       69.683290    0.062669   -0.022553
   54          6             0       69.002953    1.244540    0.193100
   55          6             0       69.621747    2.518696    0.418046
   56          6             0       68.617085    3.406515    0.591564
   57          6             0       67.387483    2.672835    0.471621
   58          7             0       67.642810    1.352105    0.226103
   59          6             0       66.148126    3.268472    0.599467
   60          6             0       64.917478    2.649766    0.496753
   61          7             0       64.679203    1.324341    0.242789
   62          1             0       63.601181    4.409724    0.849593
   63          1             0       61.624018    2.603679    0.512348
   64          1             0       61.669094   -2.624750   -0.514764
   65          1             0       63.677109   -4.396907   -0.849631
   66          1             0       66.213122   -4.272668   -0.807326
   67          1             0       68.755178   -4.355802   -0.807549
   68          1             0       70.726442   -2.544114   -0.484690
   69          1             0       70.762183    0.072878   -0.027305
   70          1             0       70.681074    2.687575    0.436922
   71          1             0       68.678674    4.460579    0.783250
   72          1             0       66.139131    4.330540    0.799998
   73          6             0       22.525275    0.047656    0.006932
   74          6             0       23.744995    0.054613    0.010632
   75          6             0       25.081948    0.064206    0.006108
   76          6             0       26.306073    0.066522    0.009472
   77          6             0       27.642924    0.069136    0.005119
   78          6             0       28.862844    0.069674    0.000904
   79          6             0       38.719353    0.043726   -0.022143
   80          6             0       39.939386    0.040363   -0.021386
   81          6             0       41.276036    0.038208   -0.021670
   82          6             0       42.500376    0.036147   -0.021230
   83          6             0       43.837030    0.033525   -0.021314
   84          6             0       45.057066    0.029855   -0.021881
   85          6             0       54.912563   -0.015703   -0.011661
   86          6             0       56.132420   -0.018522   -0.010011
   87          6             0       57.469312   -0.019159   -0.009303
   88          6             0       58.693408   -0.020325   -0.005489
   89          6             0       60.030431   -0.016349   -0.006820
   90          6             0       61.250105   -0.012367   -0.005405
   91         26             0       33.791034    0.056264   -0.015469
   92          6             0       31.315950   -3.325960    0.396094
   93          6             0       30.315669   -2.419058    0.295535
   94          6             0       30.945193   -1.143876    0.138890
   95          6             0       30.258071    0.066501   -0.004143
   96          6             0       30.951040    1.272657   -0.153206
   97          6             0       30.327923    2.551065   -0.308495
   98          6             0       31.332700    3.451875   -0.418671
   99          6             0       32.561424    2.717403   -0.329333
  100          7             0       32.306844    1.380450   -0.168046
  101          6             0       33.799362    3.325714   -0.398322
  102          6             0       35.034316    2.712413   -0.322487
  103          6             0       36.266762    3.441647   -0.401577
  104          6             0       37.266836    2.535065   -0.296030
  105          6             0       36.637116    1.258346   -0.153893
  106          7             0       35.282059    1.373105   -0.169032
  107          6             0       37.324284    0.046846   -0.020760
  108          6             0       36.631235   -1.161234    0.112978
  109          6             0       37.254505   -2.441575    0.250842
  110          6             0       36.249857   -3.343099    0.356405
  111          6             0       35.021119   -2.607112    0.282270
  112          7             0       35.275608   -1.268783    0.131282
  113          6             0       33.783097   -3.213788    0.361522
  114          6             0       32.548267   -2.598391    0.300716
  115          7             0       32.300330   -1.259502    0.144354
  116          1             0       31.245197   -4.388970    0.522979
  117          1             0       29.254874   -2.576459    0.321938
  118          1             0       29.267924    2.714580   -0.328072
  119          1             0       31.267191    4.514904   -0.548150
  120          1             0       33.801838    4.399256   -0.524679
  121          1             0       36.337892    4.505401   -0.521757
  122          1             0       38.327603    2.693849   -0.310898
  123          1             0       38.314468   -2.605989    0.262915
  124          1             0       36.315520   -4.407508    0.473733
  125          1             0       33.780075   -4.287677    0.484970
  126         26             0       49.984859    0.006699   -0.017644
  127          6             0       47.501306   -3.369373    0.397587
  128          6             0       46.503467   -2.460198    0.293481
  129          6             0       47.136281   -1.187283    0.132158
  130          6             0       46.452143    0.023616   -0.020385
  131          6             0       47.148059    1.227756   -0.172442
  132          6             0       46.527493    2.506159   -0.336309
  133          6             0       47.533964    3.405852   -0.440916
  134          6             0       48.761221    2.670545   -0.339952
  135          7             0       48.503897    1.334027   -0.178019
  136          6             0       50.000613    3.276912   -0.397665
  137          6             0       51.233841    2.661177   -0.312357
  138          6             0       52.468030    3.388586   -0.380804
  139          6             0       53.465918    2.479876   -0.273148
  140          6             0       52.833109    1.203641   -0.140237
  141          7             0       51.478296    1.320910   -0.162078
  142          6             0       53.517283   -0.010122   -0.012941
  143          6             0       52.821700   -1.217385    0.111965
  144          6             0       53.441896   -2.499717    0.245449
  145          6             0       52.435056   -3.399022    0.348636
  146          6             0       51.208065   -2.659698    0.277452
  147          7             0       51.465657   -1.321729    0.129688
  148          6             0       49.968798   -3.263708    0.358567
  149          6             0       48.735497   -2.645370    0.299492
  150          7             0       48.491039   -1.306225    0.139452
  151          1             0       47.427684   -4.431723    0.528328
  152          1             0       45.442309   -2.614908    0.320226
  153          1             0       45.467770    2.669902   -0.364486
  154          1             0       47.470575    4.468565   -0.573718
  155          1             0       50.006176    4.350545   -0.523060
  156          1             0       52.541596    4.452695   -0.496278
  157          1             0       54.527117    2.636573   -0.281364
  158          1             0       54.501488   -2.666597    0.256891
  159          1             0       52.498006   -4.463956    0.462940
  160          1             0       49.963698   -4.337583    0.481940
 --------------------------------------------------------------------
     1 basis functions        1 primitive gaussians
     1 alpha electrons        1 beta electrons

 Harmonic frequencies (cm**-1), IR intensities (km*mol⁻¹),
 Raman scattering activities (A**4/amu), Raman depolarization ratios,
 reduced masses (AMU), force constants (mDyne/A) and normal coordinates:
                      1                      2                      3
                        a                      a                      a 
 Frequencies --     0.9288                 1.8366                 3.3203
 Red. masses --    17.7349                17.2830                17.2825
 Frc consts  --     0.0000                 0.0000                 0.0000
 IR Inten    --   351.9964                23.8384               281.2382
 Raman Activ --     0.0000                 0.0000                 0.0000
 Depolar     --     0.0000                 0.0000                 0.0000
 Atom AN      X      Y      Z        X      Y      Z        X      Y      Z
   1  26     0.00  -0.00   0.20     0.00  -0.19  -0.00     0.00  -0.01  -0.08
   2   6     0.00   0.00   0.05     0.04  -0.06  -0.00     0.01  -0.00   0.01
   3   6     0.00   0.00   0.04     0.03  -0.04  -0.00     0.00   0.00   0.02
   4   6     0.00   0.00   0.05     0.02  -0.05  -0.00     0.00  -0.00   0.01
   5   6     0.00   0.00   0.04     0.00  -0.04  -0.00    -0.00   0.00   0.02
   6   6    -0.00   0.00   0.05    -0.02  -0.05  -0.00    -0.00  -0.00   0.01
   7   6    -0.00   0.00   0.04    -0.03  -0.04  -0.00    -0.00   0.00   0.02
   8   6    -0.00   0.00   0.05    -0.04  -0.06  -0.00    -0.01  -0.00   0.01
   9   6    -0.00   0.00   0.07    -0.03  -0.07  -0.00    -0.00  -0.00  -0.01
  10   7    -0.00   0.00   0.07    -0.02  -0.07  -0.00    -0.00  -0.00  -0.01
  11   6    -0.00  -0.00   0.09    -0.04  -0.09  -0.00    -0.01  -0.01  -0.04
  12   6    -0.00  -0.00   0.11    -0.03  -0.10  -0.00    -0.00  -0.01  -0.06
  13   6    -0.00  -0.00   0.13    -0.04  -0.12  -0.00    -0.01  -0.01  -0.08
  14   6    -0.00  -0.00   0.15    -0.03  -0.13   0.00    -0.00  -0.01  -0.10
  15   6    -0.00  -0.00   0.14    -0.01  -0.12   0.00    -0.00  -0.01  -0.09
  16   7    -0.00  -0.00   0.12    -0.02  -0.11   0.00    -0.00  -0.01  -0.07
  17   6    -0.00  -0.00   0.15     0.00  -0.13   0.00     0.00  -0.01  -0.11
  18   6     0.00  -0.00   0.13     0.02  -0.12   0.00     0.00  -0.01  -0.09
  19   6     0.00  -0.00   0.14     0.03  -0.13   0.00     0.01  -0.01  -0.11
  20   6     0.00  -0.00   0.12     0.04  -0.12   0.00     0.01  -0.01  -0.09
  21   6     0.00  -0.00   0.11     0.03  -0.10   0.00     0.01  -0.01  -0.06
  22   7     0.00  -0.00   0.12     0.02  -0.11   0.00     0.00  -0.01  -0.07
  23   6     0.00  -0.00   0.09     0.04  -0.09   0.00     0.01  -0.01  -0.04
  24   6     0.00  -0.00   0.07     0.03  -0.07   0.00     0.00  -0.00  -0.01
  25   7     0.00  -0.00   0.07     0.02  -0.07  -0.00     0.00  -0.00  -0.01
  26   1     0.00   0.00   0.01     0.02  -0.02   0.00     0.00  -0.00   0.00
  27   1     0.00   0.00   0.01     0.01  -0.01  -0.00     0.00   0.00   0.01
  28   1    -0.00   0.00   0.01    -0.01  -0.01  -0.00    -0.00   0.00   0.01
  29   1    -0.00   0.00   0.02    -0.02  -0.02  -0.00    -0.00  -0.00   0.00
  30   1    -0.00  -0.00   0.03    -0.02  -0.03  -0.00    -0.00  -0.00  -0.01
  31   1    -0.00  -0.00   0.04    -0.02  -0.03  -0.00    -0.00  -0.00  -0.02
  32   1    -0.00  -0.00   0.05    -0.01  -0.04   0.00    -0.00  -0.00  -0.04
  33   1    -0.00  -0.00   0.05     0.00  -0.04   0.00     0.00  -0.00  -0.04
  34   1    -0.00  -0.00   0.05     0.01  -0.04   0.00     0.00  -0.00  -0.04
  35   1     0.00  -0.00   0.04     0.02  -0.03   0.00     0.00  -0.00  -0.02
  36   1     0.00  -0.00   0.02     0.02  -0.02   0.00     0.00  -0.00  -0.01
  37  26    -0.00  -0.00   0.19     0.00  -0.19  -0.00    -0.00   0.00   0.10
  38   6    -0.01  -0.00   0.07     0.04  -0.06   0.00    -0.02   0.00  -0.02
  39   6    -0.01  -0.00   0.06     0.03  -0.04   0.00    -0.01   0.00  -0.03
  40   6    -0.00  -0.00   0.06     0.02  -0.05   0.00    -0.01  -0.00  -0.01
  41   6    -0.00  -0.00   0.05    -0.00  -0.04  -0.00    -0.00  -0.00  -0.02
  42   6     0.00   0.00   0.05    -0.02  -0.05  -0.00     0.01  -0.00   0.00
  43   6     0.01   0.00   0.04    -0.03  -0.04  -0.00     0.01  -0.01  -0.00
  44   6     0.01   0.00   0.05    -0.04  -0.05  -0.00     0.02  -0.00   0.02
  45   6     0.01   0.00   0.06    -0.03  -0.07  -0.00     0.01  -0.00   0.04
  46   7     0.00   0.00   0.07    -0.02  -0.07  -0.00     0.01  -0.00   0.03
  47   6     0.01   0.00   0.08    -0.04  -0.09  -0.00     0.01  -0.00   0.06
  48   6     0.01   0.00   0.09    -0.03  -0.10  -0.00     0.01   0.00   0.08
  49   6     0.01   0.00   0.11    -0.04  -0.12  -0.00     0.02   0.00   0.11
  50   6     0.00   0.00   0.12    -0.03  -0.13  -0.00     0.01   0.00   0.12
  51   6     0.00  -0.00   0.12    -0.02  -0.12  -0.00     0.01   0.00   0.10
  52   7     0.00   0.00   0.11    -0.02  -0.11  -0.00     0.01   0.00   0.09
  53   6    -0.00  -0.00   0.13     0.00  -0.13  -0.00     0.00   0.01   0.11
  54   6    -0.00  -0.00   0.13     0.02  -0.12   0.00    -0.00   0.01   0.09
  55   6    -0.01  -0.00   0.14     0.03  -0.13   0.00    -0.01   0.01   0.09
  56   6    -0.01  -0.00   0.13     0.04  -0.12   0.00    -0.01   0.01   0.07
  57   6    -0.01  -0.00   0.11     0.03  -0.10   0.00    -0.01   0.01   0.05
  58   7    -0.00  -0.00   0.12     0.02  -0.12   0.00    -0.01   0.01   0.07
  59   6    -0.01  -0.00   0.10     0.04  -0.09   0.00    -0.02   0.01   0.02
  60   6    -0.01  -0.00   0.08     0.03  -0.07   0.00    -0.01   0.00   0.01
  61   7    -0.00  -0.00   0.08     0.02  -0.07   0.00    -0.01   0.00   0.01
  62   1    -0.00  -0.00   0.02     0.02  -0.02   0.00    -0.01   0.00  -0.01
  63   1    -0.00  -0.00   0.01     0.01  -0.01   0.00    -0.00  -0.00  -0.01
  64   1     0.00   0.00   0.01    -0.01  -0.01  -0.00     0.00  -0.00  -0.01
  65   1     0.00   0.00   0.01    -0.02  -0.02  -0.00     0.01  -0.00   0.01
  66   1     0.00   0.00   0.02    -0.02  -0.03  -0.00     0.01  -0.00   0.02
  67   1     0.00   0.00   0.03    -0.02  -0.03  -0.00     0.01   0.00   0.03
  68   1     0.00   0.00   0.04    -0.01  -0.04  -0.00     0.00   0.00   0.04
  69   1    -0.00  -0.00   0.04     0.00  -0.04  -0.00     0.00   0.00   0.04
  70   1    -0.00  -0.00   0.04     0.01  -0.04   0.00    -0.00   0.00   0.03
  71   1    -0.00  -0.00   0.04     0.02  -0.03   0.00    -0.01   0.00   0.02
  72   1    -0.00  -0.00   0.03     0.02  -0.03   0.00    -0.01   0.00   0.01
  73   6     0.00   0.00   0.02    -0.00  -0.02  -0.00    -0.00   0.00   0.04
  74   6     0.00   0.00   0.01    -0.00  -0.01  -0.00    -0.00   0.01   0.06
  75   6     0.00   0.00  -0.01    -0.00   0.00  -0.00    -0.00   0.01   0.08
  76   6     0.00   0.00  -0.02    -0.00   0.02  -0.00    -0.00   0.01   0.09
  77   6     0.00   0.00  -0.03    -0.00   0.03  -0.00    -0.00   0.01   0.10
  78   6     0.00   0.00  -0.05    -0.00   0.04  -0.00    -0.00   0.01   0.11
  79   6    -0.00   0.00  -0.10    -0.00   0.11  -0.00    -0.00   0.01   0.05
  80   6    -0.00   0.00  -0.10    -0.00   0.11  -0.00    -0.00   0.01   0.03
  81   6    -0.00   0.00  -0.10    -0.00   0.11  -0.00    -0.00   0.00   0.00
  82   6    -0.00   0.00  -0.10    -0.00   0.11  -0.00    -0.00   0.00  -0.02
  83   6    -0.00   0.00  -0.10    -0.00   0.11   0.00    -0.00  -0.00  -0.04
  84   6    -0.00   0.00  -0.10    -0.00   0.11   0.00    -0.00  -0.00  -0.06
  85   6    -0.00   0.00  -0.04    -0.00   0.04   0.00    -0.00  -0.01  -0.11
  86   6    -0.00   0.00  -0.03    -0.00   0.03   0.00    -0.00  -0.01  -0.10
  87   6    -0.00   0.00  -0.01    -0.00   0.02   0.00    -0.00  -0.01  -0.09
  88   6    -0.00   0.00   0.00    -0.00   0.01   0.00    -0.00  -0.01  -0.07
  89   6    -0.00   0.00   0.02    -0.00  -0.01  -0.00    -0.00  -0.01  -0.06
  90   6    -0.00  -0.00   0.03    -0.00  -0.02  -0.00    -0.00  -0.00  -0.04
  91  26     0.00   0.00  -0.17    -0.00   0.16  -0.00    -0.00   0.03   0.22
  92   6     0.00   0.00  -0.07     0.02   0.06  -0.00     0.00   0.01   0.12
  93   6     0.00   0.00  -0.06     0.02   0.05  -0.00     0.00   0.01   0.12
  94   6     0.00   0.00  -0.06     0.01   0.06  -0.00     0.00   0.01   0.11
  95   6     0.00   0.00  -0.06    -0.00   0.05  -0.00    -0.00   0.01   0.11
  96   6    -0.00   0.00  -0.06    -0.01   0.06  -0.00    -0.00   0.01   0.12
  97   6    -0.00   0.00  -0.06    -0.02   0.05  -0.00    -0.00   0.01   0.12
  98   6    -0.00   0.00  -0.07    -0.02   0.06  -0.00    -0.00   0.02   0.13
  99   6    -0.00   0.00  -0.08    -0.02   0.07  -0.00    -0.00   0.01   0.12
 100   7    -0.00   0.00  -0.08    -0.01   0.07  -0.00    -0.00   0.01   0.12
 101   6    -0.00   0.00  -0.09    -0.02   0.07  -0.00    -0.00   0.01   0.12
 102   6    -0.00   0.00  -0.09    -0.02   0.08  -0.00    -0.00   0.01   0.10
 103   6    -0.00   0.00  -0.10    -0.02   0.09  -0.00    -0.00   0.01   0.09
 104   6    -0.00   0.00  -0.10    -0.02   0.10  -0.00    -0.00   0.01   0.08
 105   6    -0.00   0.00  -0.10    -0.01   0.09  -0.00    -0.00   0.01   0.08
 106   7    -0.00   0.00  -0.10    -0.01   0.09  -0.00    -0.00   0.01   0.10
 107   6    -0.00   0.00  -0.10    -0.00   0.10  -0.00    -0.00   0.01   0.07
 108   6     0.00   0.00  -0.09     0.01   0.09  -0.00     0.00   0.01   0.08
 109   6     0.00   0.00  -0.10     0.02   0.10   0.00     0.00   0.01   0.07
 110   6     0.00   0.00  -0.09     0.02   0.09   0.00     0.00   0.01   0.09
 111   6     0.00   0.00  -0.09     0.02   0.08   0.00     0.00   0.01   0.10
 112   7     0.00   0.00  -0.09     0.01   0.09  -0.00     0.00   0.01   0.10
 113   6     0.00  -0.00  -0.08     0.02   0.07   0.00     0.00   0.01   0.11
 114   6     0.00  -0.00  -0.07     0.02   0.07  -0.00     0.00   0.01   0.11
 115   7     0.00  -0.00  -0.08     0.01   0.07  -0.00     0.00   0.02   0.12
 116   1     0.00   0.00  -0.02     0.01   0.02   0.00     0.00   0.00   0.04
 117   1     0.00   0.00  -0.01     0.00   0.01  -0.00     0.00   0.00   0.03
 118   1    -0.00   0.00  -0.02    -0.01   0.01  -0.00    -0.00   0.00   0.04
 119   1    -0.00   0.00  -0.02    -0.01   0.02  -0.00    -0.00   0.00   0.04
 120   1    -0.00  -0.00  -0.03    -0.01   0.02  -0.00    -0.00   0.00   0.04
 121   1    -0.00   0.00  -0.03    -0.01   0.03  -0.00    -0.00   0.00   0.03
 122   1    -0.00   0.00  -0.03    -0.01   0.03  -0.00    -0.00   0.00   0.02
 123   1     0.00   0.00  -0.03     0.00   0.03   0.00     0.00   0.00   0.02
 124   1     0.00   0.00  -0.03     0.01   0.03   0.00     0.00   0.00   0.03
 125   1     0.00  -0.00  -0.02     0.01   0.02   0.00     0.00   0.00   0.03
 126  26    -0.00   0.00  -0.17    -0.00   0.16   0.00    -0.00  -0.02  -0.23
 127   6    -0.00   0.00  -0.08    -0.02   0.09   0.00    -0.00  -0.01  -0.11
 128   6    -0.00   0.00  -0.09    -0.02   0.10   0.00    -0.00  -0.01  -0.09
 129   6    -0.00   0.00  -0.09    -0.01   0.09   0.00    -0.00  -0.01  -0.09
 130   6    -0.00   0.00  -0.09    -0.00   0.10   0.00    -0.00  -0.01  -0.08
 131   6     0.00  -0.00  -0.10     0.01   0.09   0.00     0.00  -0.01  -0.08
 132   6     0.00  -0.00  -0.10     0.02   0.10  -0.00     0.00  -0.01  -0.08
 133   6     0.00  -0.00  -0.10     0.02   0.09  -0.00     0.00  -0.01  -0.09
 134   6     0.00  -0.00  -0.09     0.02   0.08   0.00     0.00  -0.01  -0.10
 135   7     0.00  -0.00  -0.10     0.01   0.09   0.00     0.00  -0.01  -0.10
 136   6     0.00  -0.00  -0.09     0.02   0.07   0.00     0.00  -0.01  -0.11
 137   6     0.00  -0.00  -0.08     0.02   0.07   0.00     0.00  -0.01  -0.11
 138   6     0.00  -0.00  -0.07     0.02   0.06   0.00     0.00  -0.01  -0.12
 139   6     0.00  -0.00  -0.06     0.02   0.05   0.00     0.00  -0.01  -0.12
 140   6     0.00  -0.00  -0.06     0.01   0.06   0.00     0.00  -0.01  -0.11
 141   7     0.00  -0.00  -0.08     0.01   0.07   0.00     0.00  -0.01  -0.12
 142   6    -0.00  -0.00  -0.05    -0.00   0.05   0.00    -0.00  -0.01  -0.11
 143   6    -0.00   0.00  -0.05    -0.01   0.06   0.00    -0.00  -0.01  -0.12
 144   6    -0.00   0.00  -0.05    -0.02   0.05   0.00    -0.00  -0.01  -0.13
 145   6    -0.00   0.00  -0.05    -0.02   0.06   0.00    -0.00  -0.01  -0.13
 146   6    -0.00   0.00  -0.06    -0.02   0.07   0.00    -0.00  -0.01  -0.13
 147   7    -0.00  -0.00  -0.07    -0.01   0.07   0.00    -0.00  -0.01  -0.13
 148   6    -0.00   0.00  -0.07    -0.02   0.08   0.00    -0.00  -0.01  -0.13
 149   6    -0.00   0.00  -0.08    -0.02   0.08   0.00    -0.00  -0.01  -0.11
 150   7    -0.00   0.00  -0.09    -0.01   0.09   0.00    -0.00  -0.01  -0.11
 151   1    -0.00   0.00  -0.02    -0.01   0.03   0.00    -0.00  -0.00  -0.03
 152   1    -0.00   0.00  -0.03    -0.00   0.03   0.00    -0.00  -0.00  -0.02
 153   1     0.00  -0.00  -0.03     0.00   0.03  -0.00    -0.00  -0.00  -0.02
 154   1     0.00  -0.00  -0.03     0.01   0.03  -0.00     0.00  -0.00  -0.03
 155   1     0.00  -0.00  -0.03     0.01   0.02   0.00     0.00  -0.00  -0.03
 156   1     0.00  -0.00  -0.02     0.01   0.02   0.00     0.00  -0.00  -0.03
 157   1     0.00  -0.00  -0.02     0.00   0.01   0.00     0.00  -0.00  -0.03
 158   1    -0.00   0.00  -0.01    -0.01   0.01   0.00    -0.00  -0.00  -0.04
 159   1    -0.00   0.00  -0.01    -0.01   0.02   0.00    -0.00  -0.00  -0.04
 160   1    -0.00   0.00  -0.02    -0.01   0.02   0.00    -0.00  -0.00  -0.04
                      4                      5                      6
                        a                      a                      a 
 Frequencies --     4.4670                 6.3570                 7.8842
 Red. masses --    15.2596                11.2889                11.5669
 Frc consts  --     0.0000                 0.0000                 0.0000
 IR Inten    --    23.3343             10587.9260                 0.0951
 Raman Activ --     0.0000                 0.0000                 0.0000
 Depolar     --     0.0000                 0.0000                 0.0000
 Atom AN      X      Y      Z        X      Y      Z        X      Y      Z
   1  26     0.00  -0.08   0.01    -0.00  -0.00   0.02    -0.00   0.00  -0.00
   2   6     0.08   0.02  -0.00    -0.00  -0.00  -0.05    -0.08  -0.06   0.01
   3   6     0.06   0.04  -0.01    -0.00  -0.00  -0.04    -0.06  -0.08   0.01
   4   6     0.03   0.03  -0.00    -0.00  -0.00  -0.01    -0.03  -0.07   0.00
   5   6     0.00   0.04  -0.01    -0.00  -0.00   0.01     0.00  -0.08   0.00
   6   6    -0.03   0.03  -0.00    -0.00  -0.00   0.03     0.03  -0.07   0.00
   7   6    -0.05   0.04  -0.01    -0.00  -0.00   0.06     0.06  -0.08   0.00
   8   6    -0.07   0.02  -0.01    -0.00  -0.00   0.08     0.08  -0.06   0.00
   9   6    -0.06  -0.01  -0.00    -0.00  -0.00   0.06     0.06  -0.03   0.00
  10   7    -0.03  -0.00  -0.00    -0.00  -0.00   0.04     0.03  -0.04   0.00
  11   6    -0.07  -0.04   0.00    -0.00  -0.00   0.08     0.08   0.00  -0.00
  12   6    -0.06  -0.06   0.01    -0.00  -0.00   0.06     0.06   0.03  -0.00
  13   6    -0.07  -0.09   0.01    -0.00  -0.00   0.08     0.08   0.06  -0.01
  14   6    -0.05  -0.11   0.01    -0.00  -0.00   0.06     0.06   0.09  -0.01
  15   6    -0.02  -0.10   0.01     0.00  -0.00   0.03     0.03   0.07  -0.01
  16   7    -0.03  -0.07   0.01     0.00  -0.01   0.04     0.03   0.04  -0.00
  17   6     0.00  -0.11   0.01     0.00  -0.00   0.00    -0.00   0.09  -0.01
  18   6     0.03  -0.10   0.01     0.00  -0.00  -0.02    -0.03   0.07  -0.00
  19   6     0.06  -0.11   0.02     0.00  -0.00  -0.05    -0.06   0.09  -0.00
  20   6     0.08  -0.09   0.01     0.00  -0.00  -0.06    -0.08   0.06  -0.00
  21   6     0.06  -0.06   0.01     0.00  -0.00  -0.05    -0.07   0.03  -0.00
  22   7     0.03  -0.07   0.01     0.00   0.00  -0.02    -0.04   0.04  -0.00
  23   6     0.07  -0.04   0.00     0.00  -0.00  -0.05    -0.08   0.00   0.00
  24   6     0.06  -0.01   0.00    -0.00   0.00  -0.04    -0.07  -0.03   0.00
  25   7     0.03  -0.00  -0.00    -0.00   0.00  -0.02    -0.04  -0.04   0.00
  26   1     0.03   0.01  -0.00    -0.00  -0.00  -0.02    -0.03  -0.02   0.00
  27   1     0.02   0.02  -0.00    -0.00   0.00  -0.01    -0.02  -0.03   0.00
  28   1    -0.02   0.02  -0.00    -0.00  -0.00   0.02     0.02  -0.03   0.00
  29   1    -0.03   0.01  -0.00    -0.00  -0.00   0.03     0.03  -0.02   0.00
  30   1    -0.03  -0.01   0.00    -0.00  -0.00   0.03     0.03   0.00  -0.00
  31   1    -0.03  -0.03   0.00    -0.00  -0.00   0.03     0.03   0.02  -0.00
  32   1    -0.02  -0.04   0.00    -0.00  -0.00   0.02     0.02   0.03  -0.00
  33   1     0.00  -0.04   0.01    -0.00  -0.00   0.00    -0.00   0.03  -0.00
  34   1     0.02  -0.04   0.01     0.00  -0.00  -0.02    -0.02   0.03  -0.00
  35   1     0.03  -0.03   0.00     0.00  -0.00  -0.02    -0.03   0.02  -0.00
  36   1     0.03  -0.01   0.00     0.00  -0.00  -0.02    -0.03   0.00   0.00
  37  26    -0.00   0.08  -0.01     0.00  -0.00   0.00    -0.00   0.01  -0.00
  38   6    -0.07  -0.02   0.01    -0.00   0.04  -0.23    -0.08  -0.06   0.01
  39   6    -0.05  -0.04   0.01    -0.00   0.03  -0.17    -0.06  -0.08   0.01
  40   6    -0.03  -0.03   0.00    -0.00   0.01  -0.08    -0.03  -0.07   0.01
  41   6    -0.00  -0.04   0.00    -0.00  -0.00   0.00    -0.00  -0.08   0.00
  42   6     0.02  -0.03   0.00    -0.00  -0.02   0.08     0.03  -0.07   0.00
  43   6     0.05  -0.04   0.00     0.00  -0.04   0.17     0.06  -0.08   0.00
  44   6     0.07  -0.02  -0.00     0.00  -0.05   0.23     0.08  -0.06   0.00
  45   6     0.05   0.01  -0.01     0.00  -0.04   0.18     0.06  -0.03   0.00
  46   7     0.03   0.00  -0.00    -0.00  -0.02   0.10     0.03  -0.04   0.00
  47   6     0.07   0.04  -0.01     0.00  -0.04   0.23     0.08   0.00  -0.00
  48   6     0.05   0.06  -0.02     0.00  -0.04   0.19     0.06   0.03  -0.01
  49   6     0.07   0.09  -0.02     0.00  -0.04   0.24     0.08   0.07  -0.01
  50   6     0.05   0.11  -0.02     0.00  -0.03   0.17     0.06   0.09  -0.01
  51   6     0.02   0.10  -0.02     0.00  -0.02   0.08     0.03   0.07  -0.01
  52   7     0.03   0.07  -0.02     0.00  -0.02   0.10     0.03   0.04  -0.01
  53   6    -0.00   0.11  -0.02     0.00   0.00   0.00    -0.00   0.09  -0.01
  54   6    -0.03   0.10  -0.01     0.00   0.02  -0.08    -0.03   0.07  -0.01
  55   6    -0.05   0.11  -0.01    -0.00   0.03  -0.17    -0.06   0.09  -0.01
  56   6    -0.07   0.09  -0.01    -0.00   0.04  -0.24    -0.08   0.06  -0.00
  57   6    -0.06   0.06  -0.00    -0.00   0.04  -0.19    -0.07   0.03  -0.00
  58   7    -0.03   0.07  -0.01     0.00   0.02  -0.10    -0.04   0.04  -0.00
  59   6    -0.07   0.03   0.00    -0.00   0.04  -0.23    -0.08   0.00   0.00
  60   6    -0.06   0.01   0.00    -0.00   0.04  -0.18    -0.06  -0.03   0.01
  61   7    -0.03   0.00   0.00    -0.00   0.02  -0.10    -0.03  -0.04   0.00
  62   1    -0.03  -0.01   0.00    -0.00   0.02  -0.09    -0.03  -0.02   0.00
  63   1    -0.02  -0.02   0.00    -0.00   0.01  -0.05    -0.02  -0.03   0.00
  64   1     0.02  -0.02   0.00     0.00  -0.01   0.05     0.02  -0.03   0.00
  65   1     0.03  -0.01  -0.00     0.00  -0.02   0.09     0.03  -0.02   0.00
  66   1     0.03   0.01  -0.00     0.00  -0.02   0.09     0.03   0.00  -0.00
  67   1     0.03   0.03  -0.01     0.00  -0.02   0.09     0.03   0.02  -0.00
  68   1     0.02   0.04  -0.01     0.00  -0.01   0.05     0.02   0.03  -0.01
  69   1    -0.00   0.04  -0.01     0.00   0.00   0.00    -0.00   0.03  -0.01
  70   1    -0.02   0.04  -0.01    -0.00   0.01  -0.05    -0.02   0.03  -0.00
  71   1    -0.03   0.03  -0.00    -0.00   0.02  -0.09    -0.03   0.02  -0.00
  72   1    -0.03   0.01   0.00    -0.00   0.02  -0.09    -0.03   0.00   0.00
  73   6     0.00   0.07  -0.01    -0.00   0.00   0.01     0.00  -0.11   0.01
  74   6     0.00   0.09  -0.01    -0.00   0.00   0.01     0.00  -0.13   0.01
  75   6     0.00   0.11  -0.01    -0.00   0.00   0.00     0.00  -0.14   0.01
  76   6     0.00   0.12  -0.01    -0.00   0.00   0.00     0.00  -0.14   0.01
  77   6     0.00   0.12  -0.01    -0.00   0.00  -0.00     0.00  -0.12   0.01
  78   6     0.00   0.12  -0.01    -0.00   0.00  -0.01     0.00  -0.10   0.00
  79   6     0.00   0.04  -0.00     0.00   0.00  -0.01     0.00   0.12  -0.01
  80   6    -0.00   0.03  -0.00     0.00   0.00  -0.01     0.00   0.14  -0.01
  81   6    -0.00   0.01   0.00     0.00   0.00  -0.01     0.00   0.15  -0.01
  82   6    -0.00  -0.01   0.00     0.00   0.00  -0.01     0.00   0.15  -0.01
  83   6    -0.00  -0.03   0.01     0.00   0.00  -0.00     0.00   0.14  -0.01
  84   6    -0.00  -0.04   0.01     0.00   0.00  -0.00     0.00   0.12  -0.00
  85   6    -0.00  -0.12   0.01    -0.00  -0.00   0.01     0.00  -0.10   0.00
  86   6    -0.00  -0.12   0.01    -0.00  -0.00   0.01     0.00  -0.12   0.00
  87   6    -0.00  -0.12   0.01    -0.00  -0.00   0.01     0.00  -0.14   0.00
  88   6    -0.00  -0.11   0.01    -0.00  -0.00   0.00     0.00  -0.14   0.00
  89   6    -0.00  -0.09   0.01    -0.00  -0.00   0.00     0.00  -0.13   0.00
  90   6    -0.00  -0.07   0.01    -0.00  -0.00   0.00    -0.00  -0.12   0.00
  91  26     0.00   0.18  -0.02    -0.00   0.01  -0.03     0.00   0.02  -0.00
  92   6    -0.03   0.11  -0.01     0.00  -0.01  -0.09     0.08  -0.05   0.00
  93   6    -0.02   0.11  -0.01     0.00  -0.00  -0.06     0.06  -0.07   0.00
  94   6    -0.01   0.11  -0.01    -0.00  -0.00  -0.04     0.03  -0.06   0.00
  95   6     0.00   0.11  -0.01    -0.00   0.00  -0.01     0.00  -0.07   0.00
  96   6     0.01   0.11  -0.01    -0.00   0.00   0.01    -0.03  -0.06   0.00
  97   6     0.02   0.11  -0.01    -0.00   0.01   0.04    -0.06  -0.07   0.00
  98   6     0.03   0.11  -0.01    -0.00   0.01   0.06    -0.08  -0.05  -0.00
  99   6     0.02   0.09  -0.01    -0.00   0.01   0.04    -0.06  -0.02  -0.00
 100   7     0.01   0.10  -0.01    -0.00   0.01   0.01    -0.03  -0.03  -0.00
 101   6     0.03   0.08  -0.01    -0.00   0.01   0.05    -0.08   0.01  -0.00
 102   6     0.02   0.07  -0.01    -0.00   0.01   0.04    -0.06   0.04  -0.00
 103   6     0.03   0.06  -0.01    -0.00   0.01   0.05    -0.08   0.07  -0.00
 104   6     0.02   0.05  -0.01    -0.00   0.01   0.04    -0.06   0.09  -0.00
 105   6     0.01   0.06  -0.01     0.00   0.01   0.01    -0.03   0.08  -0.00
 106   7     0.01   0.08  -0.01     0.00   0.01   0.01    -0.03   0.05  -0.00
 107   6     0.00   0.05  -0.00     0.00   0.00  -0.02     0.00   0.09  -0.00
 108   6    -0.01   0.06  -0.00     0.00   0.00  -0.04     0.03   0.08  -0.00
 109   6    -0.02   0.05  -0.00     0.00  -0.00  -0.07     0.06   0.09  -0.00
 110   6    -0.03   0.06  -0.00     0.00  -0.00  -0.09     0.08   0.07  -0.00
 111   6    -0.02   0.07  -0.01     0.00  -0.00  -0.07     0.06   0.04  -0.00
 112   7    -0.01   0.08  -0.01     0.00   0.00  -0.05     0.03   0.05  -0.00
 113   6    -0.03   0.08  -0.01     0.00  -0.00  -0.09     0.08   0.01   0.00
 114   6    -0.02   0.09  -0.01     0.00  -0.00  -0.07     0.06  -0.02   0.00
 115   7    -0.01   0.10  -0.01    -0.00  -0.00  -0.05     0.03  -0.03   0.00
 116   1    -0.01   0.03  -0.00     0.00  -0.00  -0.03     0.03  -0.01   0.00
 117   1    -0.01   0.04  -0.00     0.00  -0.00  -0.02     0.02  -0.03   0.00
 118   1     0.01   0.04  -0.00    -0.00   0.00   0.01    -0.02  -0.03   0.00
 119   1     0.01   0.03  -0.00    -0.00   0.00   0.02    -0.03  -0.01  -0.00
 120   1     0.01   0.02  -0.00    -0.00   0.00   0.02    -0.03   0.00  -0.00
 121   1     0.01   0.02  -0.00    -0.00   0.00   0.02    -0.03   0.02  -0.00
 122   1     0.01   0.01  -0.00    -0.00   0.00   0.01    -0.02   0.03  -0.00
 123   1    -0.01   0.01  -0.00     0.00  -0.00  -0.02     0.02   0.03  -0.00
 124   1    -0.01   0.02  -0.00     0.00  -0.00  -0.03     0.03   0.02  -0.00
 125   1    -0.01   0.02  -0.00     0.00  -0.00  -0.03     0.03   0.00   0.00
 126  26    -0.00  -0.18   0.02     0.00  -0.00   0.01     0.00   0.02   0.00
 127   6    -0.03  -0.06   0.01    -0.00  -0.01  -0.10    -0.08   0.07   0.00
 128   6    -0.02  -0.05   0.01    -0.00  -0.01  -0.07    -0.06   0.09  -0.00
 129   6    -0.01  -0.06   0.01    -0.00  -0.00  -0.03    -0.03   0.08  -0.00
 130   6    -0.00  -0.05   0.01     0.00   0.00   0.00     0.00   0.09  -0.00
 131   6     0.01  -0.06   0.01     0.00   0.01   0.04     0.03   0.07  -0.00
 132   6     0.02  -0.05   0.01     0.00   0.01   0.08     0.06   0.09  -0.00
 133   6     0.03  -0.06   0.01     0.00   0.02   0.11     0.08   0.07  -0.00
 134   6     0.02  -0.07   0.01     0.00   0.01   0.09     0.06   0.04   0.00
 135   7     0.01  -0.08   0.01     0.00   0.01   0.05     0.03   0.05  -0.00
 136   6     0.03  -0.08   0.01     0.00   0.01   0.10     0.08   0.01   0.00
 137   6     0.02  -0.09   0.01     0.00   0.01   0.08     0.06  -0.02   0.00
 138   6     0.03  -0.11   0.01     0.00   0.01   0.10     0.08  -0.05   0.00
 139   6     0.02  -0.11   0.01     0.00   0.00   0.08     0.06  -0.07   0.00
 140   6     0.01  -0.11   0.01     0.00   0.00   0.04     0.03  -0.06   0.00
 141   7     0.01  -0.10   0.01     0.00   0.00   0.05     0.03  -0.03   0.00
 142   6    -0.00  -0.11   0.01    -0.00  -0.00   0.01     0.00  -0.07   0.00
 143   6    -0.01  -0.11   0.01    -0.00  -0.01  -0.03    -0.03  -0.06   0.00
 144   6    -0.02  -0.11   0.02    -0.00  -0.01  -0.06    -0.06  -0.07   0.00
 145   6    -0.03  -0.10   0.02    -0.00  -0.01  -0.09    -0.08  -0.05   0.00
 146   6    -0.02  -0.09   0.01    -0.00  -0.01  -0.07    -0.06  -0.02   0.00
 147   7    -0.01  -0.10   0.01    -0.00  -0.01  -0.03    -0.03  -0.03   0.00
 148   6    -0.03  -0.08   0.01    -0.00  -0.01  -0.09    -0.08   0.01   0.00
 149   6    -0.02  -0.07   0.01    -0.00  -0.01  -0.07    -0.06   0.04   0.00
 150   7    -0.01  -0.08   0.01    -0.00  -0.01  -0.04    -0.03   0.05   0.00
 151   1    -0.01  -0.02   0.00    -0.00  -0.00  -0.04    -0.03   0.02   0.00
 152   1    -0.01  -0.01   0.00    -0.00  -0.00  -0.02    -0.02   0.03  -0.00
 153   1     0.01  -0.01   0.00     0.00   0.00   0.03     0.02   0.03  -0.00
 154   1     0.01  -0.02   0.00     0.00   0.01   0.04     0.03   0.02  -0.00
 155   1     0.01  -0.02   0.00     0.00   0.00   0.04     0.03   0.00   0.00
 156   1     0.01  -0.03   0.00     0.00   0.00   0.04     0.03  -0.01   0.00
 157   1     0.01  -0.04   0.00     0.00   0.00   0.02     0.02  -0.03   0.00
 158   1    -0.01  -0.04   0.00    -0.00  -0.00  -0.02    -0.02  -0.03   0.00
 159   1    -0.01  -0.03   0.00    -0.00  -0.00  -0.03    -0.03  -0.01   0.00
 160   1    -0.01  -0.02   0.00    -0.00  -0.00  -0.03    -0.03   0.00   0.00
                      7                      8                      9
                        a                      a                      a 
 Frequencies --     8.4481                 9.7755                10.3744
 Red. masses --    11.6720                11.2526                11.3292
 Frc consts  --     0.0000                 0.0000                 0.0000
 IR Inten    --    24.1903               698.4021                79.3760
 Raman Activ --     0.0000                 0.0000                 0.0000
 Depolar     --     0.0000                 0.0000                 0.0000
 Atom AN      X      Y      Z        X      Y      Z        X      Y      Z
   1  26     0.00   0.00   0.00     0.00  -0.00  -0.01     0.00   0.00   0.01
   2   6     0.00   0.00   0.11    -0.00  -0.00  -0.18     0.00   0.00  -0.12
   3   6     0.00   0.01   0.13     0.00  -0.00  -0.14     0.00   0.00  -0.07
   4   6     0.00   0.00   0.10     0.00  -0.00  -0.07     0.00   0.00  -0.02
   5   6     0.00   0.01   0.11     0.00  -0.00  -0.01     0.00   0.00   0.04
   6   6    -0.00   0.00   0.09     0.00  -0.00   0.05    -0.00   0.00   0.09
   7   6    -0.00   0.01   0.11     0.00  -0.00   0.10    -0.00   0.00   0.16
   8   6    -0.00   0.00   0.09     0.00  -0.00   0.15    -0.00   0.00   0.20
   9   6    -0.00   0.00   0.05     0.00   0.00   0.12    -0.00   0.00   0.15
  10   7    -0.00   0.00   0.06     0.00  -0.00   0.06    -0.00   0.00   0.09
  11   6    -0.00  -0.00   0.00     0.00   0.00   0.15    -0.00   0.00   0.16
  12   6    -0.00  -0.00  -0.05     0.00   0.00   0.13    -0.00  -0.00   0.12
  13   6    -0.00  -0.00  -0.10     0.00   0.00   0.17    -0.00  -0.00   0.14
  14   6    -0.00  -0.01  -0.15     0.00   0.00   0.13    -0.00  -0.00   0.07
  15   6    -0.00  -0.00  -0.12     0.00   0.00   0.07    -0.00  -0.00   0.02
  16   7    -0.00  -0.00  -0.07     0.00   0.00   0.07    -0.00  -0.00   0.05
  17   6     0.00  -0.01  -0.15     0.00   0.00   0.01     0.00  -0.00  -0.05
  18   6     0.00  -0.00  -0.11     0.00   0.00  -0.05     0.00  -0.00  -0.10
  19   6     0.01  -0.01  -0.13    -0.00   0.00  -0.11     0.00  -0.00  -0.17
  20   6     0.01  -0.00  -0.08    -0.00   0.00  -0.16     0.00  -0.00  -0.19
  21   6     0.01  -0.00  -0.03    -0.00   0.00  -0.13     0.00  -0.00  -0.14
  22   7     0.00  -0.00  -0.06     0.00   0.00  -0.07     0.00  -0.00  -0.09
  23   6     0.01   0.00   0.03    -0.00  -0.00  -0.17     0.00  -0.00  -0.14
  24   6     0.00   0.00   0.07     0.00  -0.00  -0.14     0.00   0.00  -0.10
  25   7     0.00   0.00   0.07     0.00  -0.00  -0.08     0.00   0.00  -0.04
  26   1     0.00   0.00   0.04    -0.00  -0.00  -0.07     0.00   0.00  -0.05
  27   1     0.00   0.00   0.05     0.00  -0.00  -0.04     0.00   0.00  -0.02
  28   1    -0.00   0.00   0.04     0.00  -0.00   0.03    -0.00   0.00   0.05
  29   1    -0.00   0.00   0.03     0.00   0.00   0.06    -0.00   0.00   0.07
  30   1    -0.00  -0.00   0.00     0.00   0.00   0.06    -0.00   0.00   0.06
  31   1    -0.00  -0.00  -0.03     0.00   0.00   0.06    -0.00  -0.00   0.05
  32   1    -0.00  -0.00  -0.06     0.00   0.00   0.04    -0.00  -0.00   0.02
  33   1     0.00  -0.00  -0.06     0.00   0.00   0.01     0.00  -0.00  -0.02
  34   1     0.00  -0.00  -0.05    -0.00   0.00  -0.03     0.00  -0.00  -0.06
  35   1     0.00  -0.00  -0.02    -0.00   0.00  -0.06     0.00  -0.00  -0.07
  36   1     0.00   0.00   0.01    -0.00  -0.00  -0.06     0.00  -0.00  -0.06
  37  26    -0.00   0.00  -0.00    -0.00   0.00  -0.00    -0.00  -0.00  -0.01
  38   6     0.02  -0.00   0.10     0.00   0.00  -0.00    -0.01  -0.00  -0.03
  39   6     0.02  -0.00   0.12     0.00   0.00   0.01    -0.01  -0.00  -0.03
  40   6     0.01   0.00   0.10     0.00   0.00   0.01    -0.00  -0.00  -0.03
  41   6    -0.00   0.00   0.11    -0.00   0.00   0.02    -0.00  -0.00  -0.03
  42   6    -0.01   0.00   0.09    -0.00  -0.00   0.03     0.00  -0.00  -0.03
  43   6    -0.02   0.00   0.11    -0.00  -0.00   0.04     0.00  -0.00  -0.04
  44   6    -0.02  -0.00   0.09    -0.00  -0.00   0.04     0.01   0.00  -0.04
  45   6    -0.02  -0.00   0.05    -0.00  -0.00   0.03     0.01   0.00  -0.02
  46   7    -0.01  -0.00   0.05    -0.00  -0.00   0.02     0.00  -0.00  -0.02
  47   6    -0.02  -0.00   0.00    -0.01  -0.00   0.02     0.01   0.00  -0.01
  48   6    -0.02   0.00  -0.05    -0.00  -0.00   0.01     0.00   0.00   0.01
  49   6    -0.02   0.00  -0.10    -0.01  -0.00   0.00     0.01   0.00   0.02
  50   6    -0.01   0.01  -0.14    -0.00  -0.00  -0.01     0.00  -0.00   0.04
  51   6    -0.01   0.01  -0.12    -0.00   0.00  -0.02     0.00  -0.00   0.03
  52   7    -0.01   0.00  -0.07    -0.00  -0.00  -0.00     0.00  -0.00   0.01
  53   6    -0.00   0.01  -0.15    -0.00   0.00  -0.03    -0.00  -0.00   0.04
  54   6     0.01   0.00  -0.11    -0.00   0.00  -0.03    -0.00  -0.00   0.03
  55   6     0.01   0.00  -0.13     0.00   0.00  -0.05    -0.00  -0.00   0.04
  56   6     0.02   0.00  -0.08     0.00   0.00  -0.04    -0.01  -0.00   0.03
  57   6     0.02  -0.00  -0.03     0.00   0.00  -0.03    -0.01  -0.00   0.01
  58   7     0.01   0.00  -0.06    -0.00   0.00  -0.02    -0.00  -0.00   0.02
  59   6     0.02  -0.00   0.02     0.00   0.00  -0.02    -0.01   0.00  -0.00
  60   6     0.02  -0.00   0.06     0.00   0.00  -0.01    -0.01   0.00  -0.02
  61   7     0.01  -0.00   0.06     0.00   0.00   0.00    -0.00  -0.00  -0.02
  62   1     0.01  -0.00   0.03     0.00   0.00  -0.00    -0.00  -0.00  -0.01
  63   1     0.00  -0.00   0.05     0.00   0.00   0.00    -0.00  -0.00  -0.01
  64   1    -0.00   0.00   0.04    -0.00  -0.00   0.01     0.00  -0.00  -0.01
  65   1    -0.01  -0.00   0.03    -0.00  -0.00   0.02     0.00   0.00  -0.01
  66   1    -0.01  -0.00   0.00    -0.00  -0.00   0.01     0.00   0.00  -0.00
  67   1    -0.01   0.00  -0.03    -0.00  -0.00   0.00     0.00   0.00   0.01
  68   1    -0.00   0.00  -0.05    -0.00  -0.00  -0.01     0.00  -0.00   0.02
  69   1    -0.00   0.00  -0.06    -0.00   0.00  -0.01     0.00  -0.00   0.02
  70   1     0.00   0.00  -0.05     0.00   0.00  -0.02    -0.00  -0.00   0.02
  71   1     0.01  -0.00  -0.02     0.00   0.00  -0.01    -0.00  -0.00   0.01
  72   1     0.01  -0.00   0.01     0.00   0.00  -0.01    -0.00   0.00  -0.00
  73   6     0.00   0.01   0.14     0.00  -0.00  -0.01     0.00   0.00   0.04
  74   6     0.00   0.01   0.15     0.00  -0.00  -0.01     0.00   0.01   0.05
  75   6     0.00   0.01   0.15     0.00  -0.00  -0.01     0.00   0.01   0.04
  76   6     0.00   0.01   0.15     0.00  -0.00  -0.01     0.00   0.00   0.04
  77   6     0.00   0.01   0.13     0.00  -0.00  -0.00     0.00   0.00   0.03
  78   6     0.00   0.01   0.11     0.00  -0.00   0.00     0.00   0.00   0.02
  79   6    -0.00  -0.01  -0.12     0.00   0.00   0.00    -0.00  -0.00  -0.01
  80   6    -0.00  -0.01  -0.13     0.00   0.00  -0.00    -0.00  -0.00  -0.01
  81   6    -0.00  -0.01  -0.14     0.00  -0.00  -0.01    -0.00   0.00  -0.00
  82   6    -0.00  -0.01  -0.14     0.00  -0.00  -0.01    -0.00   0.00   0.00
  83   6    -0.00  -0.01  -0.13     0.00  -0.00  -0.01    -0.00   0.00   0.01
  84   6    -0.00  -0.01  -0.12     0.00  -0.00  -0.01    -0.00   0.00   0.01
  85   6    -0.00   0.00   0.11    -0.00   0.00   0.01    -0.00  -0.00  -0.02
  86   6    -0.00   0.01   0.13    -0.00   0.00   0.02    -0.00  -0.00  -0.02
  87   6    -0.00   0.01   0.15    -0.00   0.00   0.02    -0.00  -0.00  -0.03
  88   6    -0.00   0.01   0.15    -0.00   0.00   0.03    -0.00  -0.00  -0.04
  89   6    -0.00   0.01   0.15    -0.00   0.00   0.03    -0.00  -0.00  -0.04
  90   6    -0.00   0.00   0.13    -0.00   0.00   0.03    -0.00  -0.00  -0.04
  91  26    -0.00  -0.00  -0.03     0.00   0.00   0.02    -0.00  -0.00  -0.03
  92   6     0.01   0.00   0.05     0.00  -0.01  -0.06     0.00   0.02   0.20
  93   6     0.00   0.00   0.08     0.00  -0.01  -0.04     0.00   0.02   0.15
  94   6     0.00   0.00   0.06     0.00  -0.00  -0.02     0.00   0.01   0.07
  95   6     0.00   0.00   0.08     0.00  -0.00   0.01     0.00   0.00   0.01
  96   6    -0.00   0.00   0.06     0.00   0.00   0.03    -0.00  -0.01  -0.07
  97   6    -0.00   0.00   0.08    -0.00   0.01   0.06    -0.00  -0.02  -0.15
  98   6    -0.01   0.00   0.05    -0.00   0.01   0.08    -0.00  -0.03  -0.22
  99   6    -0.00   0.00   0.01    -0.00   0.01   0.07    -0.00  -0.02  -0.18
 100   7    -0.00   0.00   0.03     0.00   0.01   0.04    -0.00  -0.01  -0.10
 101   6    -0.01  -0.00  -0.02     0.00   0.01   0.08    -0.00  -0.03  -0.22
 102   6    -0.00  -0.00  -0.05     0.00   0.01   0.06    -0.00  -0.02  -0.19
 103   6    -0.01  -0.00  -0.08     0.00   0.01   0.08    -0.00  -0.03  -0.24
 104   6    -0.00  -0.01  -0.10     0.00   0.01   0.05    -0.00  -0.02  -0.18
 105   6    -0.00  -0.00  -0.08     0.00   0.00   0.03    -0.00  -0.01  -0.10
 106   7    -0.00  -0.00  -0.06     0.00   0.01   0.04    -0.00  -0.01  -0.11
 107   6    -0.00  -0.00  -0.10     0.00   0.00   0.01    -0.00  -0.00  -0.02
 108   6     0.00  -0.00  -0.08     0.00  -0.00  -0.01    -0.00   0.01   0.05
 109   6     0.00  -0.01  -0.10     0.00  -0.00  -0.04     0.00   0.01   0.13
 110   6     0.00  -0.00  -0.08     0.00  -0.01  -0.05     0.00   0.02   0.18
 111   6     0.00  -0.00  -0.05     0.00  -0.01  -0.04     0.00   0.02   0.14
 112   7     0.00  -0.00  -0.06     0.00  -0.00  -0.01    -0.00   0.01   0.06
 113   6     0.00  -0.00  -0.02     0.00  -0.01  -0.05     0.00   0.02   0.18
 114   6     0.00   0.00   0.02     0.00  -0.01  -0.04     0.00   0.02   0.15
 115   7     0.00   0.00   0.03     0.00  -0.00  -0.02     0.00   0.01   0.08
 116   1     0.00   0.00   0.01    -0.00  -0.00  -0.02     0.00   0.01   0.08
 117   1     0.00   0.00   0.03     0.00  -0.00  -0.01     0.00   0.01   0.05
 118   1    -0.00   0.00   0.03    -0.00   0.00   0.02    -0.00  -0.01  -0.04
 119   1    -0.00   0.00   0.01    -0.00   0.00   0.03    -0.00  -0.01  -0.08
 120   1    -0.00  -0.00  -0.01    -0.00   0.00   0.03    -0.00  -0.01  -0.09
 121   1    -0.00  -0.00  -0.02     0.00   0.00   0.03    -0.00  -0.01  -0.09
 122   1    -0.00  -0.00  -0.04     0.00   0.00   0.02    -0.00  -0.01  -0.06
 123   1     0.00  -0.00  -0.04     0.00  -0.00  -0.01     0.00   0.00   0.04
 124   1     0.00  -0.00  -0.02     0.00  -0.00  -0.02     0.00   0.01   0.07
 125   1     0.00  -0.00  -0.01     0.00  -0.00  -0.02     0.00   0.01   0.07
 126  26    -0.00  -0.00  -0.02    -0.00  -0.00  -0.01    -0.00   0.00   0.03
 127   6    -0.01  -0.01  -0.08    -0.00   0.02   0.19    -0.00  -0.00  -0.02
 128   6    -0.00  -0.01  -0.10    -0.00   0.02   0.14    -0.00  -0.00  -0.01
 129   6    -0.00  -0.01  -0.08    -0.00   0.01   0.06    -0.00   0.00   0.00
 130   6    -0.00  -0.01  -0.09     0.00  -0.00  -0.01    -0.00   0.00   0.02
 131   6     0.00  -0.01  -0.08    -0.00  -0.01  -0.09    -0.00   0.00   0.03
 132   6     0.00  -0.01  -0.09    -0.00  -0.02  -0.17    -0.00   0.01   0.05
 133   6     0.01  -0.00  -0.07    -0.00  -0.03  -0.23    -0.00   0.01   0.07
 134   6     0.00  -0.00  -0.04    -0.00  -0.02  -0.18    -0.00   0.01   0.06
 135   7     0.00  -0.00  -0.05    -0.00  -0.01  -0.10    -0.00   0.01   0.04
 136   6     0.01  -0.00  -0.01     0.00  -0.02  -0.21     0.00   0.01   0.06
 137   6     0.00   0.00   0.02    -0.00  -0.02  -0.17     0.00   0.01   0.05
 138   6     0.00   0.00   0.06     0.00  -0.02  -0.21     0.00   0.01   0.05
 139   6     0.00   0.00   0.08    -0.00  -0.02  -0.15     0.00   0.00   0.03
 140   6     0.00   0.00   0.07    -0.00  -0.01  -0.07     0.00   0.00   0.02
 141   7     0.00   0.00   0.03    -0.00  -0.01  -0.09     0.00   0.00   0.03
 142   6    -0.00   0.00   0.08    -0.00   0.00   0.01    -0.00  -0.00  -0.01
 143   6    -0.00   0.00   0.06    -0.00   0.01   0.08    -0.00  -0.00  -0.02
 144   6    -0.00   0.00   0.08    -0.00   0.02   0.16    -0.00  -0.00  -0.04
 145   6    -0.00   0.00   0.05    -0.00   0.02   0.21    -0.00  -0.00  -0.04
 146   6    -0.00  -0.00   0.02    -0.00   0.02   0.16    -0.00  -0.00  -0.02
 147   7    -0.00   0.00   0.03    -0.00   0.01   0.08    -0.00  -0.00  -0.01
 148   6    -0.01  -0.00  -0.02    -0.00   0.02   0.19    -0.00  -0.00  -0.02
 149   6    -0.00  -0.00  -0.05    -0.00   0.02   0.15    -0.00  -0.00  -0.01
 150   7    -0.00  -0.00  -0.06    -0.00   0.01   0.08    -0.00   0.00   0.00
 151   1    -0.00  -0.00  -0.03    -0.00   0.01   0.07    -0.00  -0.00  -0.01
 152   1    -0.00  -0.00  -0.04    -0.00   0.01   0.04    -0.00  -0.00  -0.00
 153   1     0.00  -0.00  -0.03     0.00  -0.01  -0.05    -0.00   0.00   0.02
 154   1     0.00  -0.00  -0.02    -0.00  -0.01  -0.09    -0.00   0.00   0.02
 155   1     0.00  -0.00  -0.00     0.00  -0.01  -0.08     0.00   0.00   0.02
 156   1     0.00   0.00   0.02     0.00  -0.01  -0.08     0.00   0.00   0.02
 157   1     0.00   0.00   0.03    -0.00  -0.00  -0.04     0.00   0.00   0.01
 158   1    -0.00   0.00   0.03    -0.00   0.00   0.05    -0.00  -0.00  -0.01
 159   1    -0.00   0.00   0.01    -0.00   0.01   0.08    -0.00  -0.00  -0.01
 160   1    -0.00  -0.00  -0.01    -0.00   0.01   0.07    -0.00  -0.00  -0.01
                     10                     11                     12
                        a                      a                      a 
 Frequencies --    10.4062                15.5743                16.5754
 Red. masses --    12.6911                12.5481                14.3930
 Frc consts  --     0.0000                 0.0000                 0.0000
 IR Inten    --    26.5921                25.5150                 4.0257
 Raman Activ --     0.0000                 0.0000                 0.0000
 Depolar     --     0.0000                 0.0000                 0.0000
 Atom AN      X      Y      Z        X      Y      Z        X      Y      Z
   1  26     0.00   0.00   0.03     0.00   0.01   0.05     0.00   0.05  -0.02
   2   6     0.01   0.01   0.14     0.02   0.02   0.11     0.08   0.08  -0.05
   3   6     0.01   0.01   0.15     0.01   0.03   0.10     0.06   0.10  -0.05
   4   6     0.00   0.01   0.12     0.01   0.02   0.08     0.03   0.09  -0.03
   5   6     0.00   0.01   0.12    -0.00   0.03   0.07     0.00   0.11  -0.03
   6   6    -0.00   0.01   0.10    -0.01   0.02   0.08    -0.03   0.09  -0.03
   7   6    -0.01   0.01   0.12    -0.02   0.03   0.10    -0.06   0.10  -0.05
   8   6    -0.01   0.01   0.09    -0.02   0.02   0.11    -0.08   0.08  -0.05
   9   6    -0.01   0.00   0.05    -0.02   0.01   0.08    -0.06   0.05  -0.04
  10   7    -0.00   0.01   0.06    -0.01   0.02   0.07    -0.03   0.06  -0.03
  11   6    -0.01   0.00   0.01    -0.02   0.01   0.06    -0.08   0.02  -0.03
  12   6    -0.01  -0.00  -0.05    -0.02  -0.00   0.00    -0.06  -0.01  -0.00
  13   6    -0.01  -0.01  -0.11    -0.02  -0.01  -0.04    -0.08  -0.04   0.02
  14   6    -0.01  -0.01  -0.16    -0.01  -0.02  -0.10    -0.06  -0.06   0.04
  15   6    -0.00  -0.01  -0.13    -0.01  -0.01  -0.08    -0.03  -0.05   0.04
  16   7    -0.00  -0.00  -0.06    -0.01  -0.00  -0.03    -0.03  -0.01   0.01
  17   6     0.00  -0.01  -0.15     0.00  -0.02  -0.12     0.00  -0.06   0.05
  18   6     0.01  -0.01  -0.11     0.01  -0.01  -0.08     0.03  -0.05   0.04
  19   6     0.01  -0.01  -0.12     0.02  -0.02  -0.10     0.06  -0.06   0.04
  20   6     0.01  -0.01  -0.05     0.02  -0.01  -0.04     0.08  -0.04   0.02
  21   6     0.01  -0.00  -0.00     0.02  -0.00   0.00     0.06  -0.01  -0.00
  22   7     0.01  -0.00  -0.04     0.01  -0.00  -0.03     0.04  -0.01   0.01
  23   6     0.01   0.00   0.06     0.02   0.01   0.06     0.08   0.02  -0.03
  24   6     0.01   0.00   0.09     0.02   0.01   0.08     0.06   0.05  -0.04
  25   7     0.00   0.01   0.09     0.01   0.02   0.07     0.03   0.06  -0.03
  26   1     0.00   0.00   0.05     0.01   0.01   0.04     0.03   0.02  -0.02
  27   1     0.00   0.00   0.05     0.00   0.01   0.03     0.02   0.04  -0.01
  28   1    -0.00   0.00   0.04    -0.00   0.01   0.03    -0.02   0.04  -0.01
  29   1    -0.00   0.00   0.03    -0.01   0.01   0.04    -0.03   0.02  -0.02
  30   1    -0.00   0.00   0.00    -0.01   0.00   0.02    -0.03   0.01  -0.01
  31   1    -0.00  -0.00  -0.03    -0.01  -0.00  -0.01    -0.03  -0.01   0.00
  32   1    -0.00  -0.00  -0.06    -0.00  -0.01  -0.04    -0.02  -0.02   0.02
  33   1     0.00  -0.00  -0.06     0.00  -0.01  -0.05     0.00  -0.03   0.02
  34   1     0.00  -0.00  -0.05     0.01  -0.01  -0.04     0.02  -0.02   0.02
  35   1     0.00  -0.00  -0.01     0.01  -0.00  -0.01     0.03  -0.01   0.00
  36   1     0.00   0.00   0.02     0.01   0.00   0.02     0.03   0.01  -0.01
  37  26    -0.00  -0.00  -0.02    -0.00  -0.02   0.06    -0.00  -0.05   0.00
  38   6    -0.02   0.00  -0.11    -0.01  -0.03   0.12    -0.08  -0.09   0.01
  39   6    -0.02  -0.00  -0.13    -0.01  -0.03   0.11    -0.06  -0.11  -0.00
  40   6    -0.01  -0.00  -0.10    -0.00  -0.03   0.08    -0.03  -0.10  -0.00
  41   6    -0.00  -0.01  -0.12     0.00  -0.03   0.08    -0.00  -0.11  -0.01
  42   6     0.01  -0.00  -0.11     0.00  -0.03   0.08     0.03  -0.09  -0.00
  43   6     0.02  -0.00  -0.14     0.01  -0.03   0.11     0.06  -0.11  -0.00
  44   6     0.02   0.00  -0.12     0.01  -0.03   0.12     0.08  -0.09   0.01
  45   6     0.02   0.00  -0.08     0.01  -0.02   0.09     0.07  -0.06   0.01
  46   7     0.01   0.00  -0.08     0.00  -0.02   0.07     0.03  -0.07   0.00
  47   6     0.02   0.00  -0.04     0.01  -0.01   0.06     0.08  -0.02   0.01
  48   6     0.02   0.00   0.02     0.01  -0.00   0.00     0.06   0.01   0.00
  49   6     0.02   0.00   0.08     0.01   0.01  -0.04     0.08   0.04   0.00
  50   6     0.02  -0.00   0.14     0.01   0.03  -0.11     0.06   0.07  -0.01
  51   6     0.01  -0.00   0.12     0.00   0.02  -0.10     0.03   0.05  -0.01
  52   7     0.01  -0.00   0.05     0.00   0.01  -0.03     0.03   0.02  -0.00
  53   6     0.00  -0.01   0.16    -0.00   0.03  -0.13    -0.00   0.07  -0.01
  54   6    -0.01  -0.01   0.12    -0.00   0.02  -0.09    -0.03   0.05  -0.01
  55   6    -0.02  -0.01   0.15    -0.01   0.03  -0.11    -0.06   0.07  -0.01
  56   6    -0.02  -0.00   0.09    -0.01   0.01  -0.04    -0.09   0.04  -0.00
  57   6    -0.02  -0.00   0.03    -0.01  -0.00   0.01    -0.07   0.01   0.00
  58   7    -0.01  -0.00   0.06    -0.00   0.01  -0.03    -0.04   0.02  -0.00
  59   6    -0.02   0.00  -0.02    -0.01  -0.02   0.07    -0.08  -0.03   0.01
  60   6    -0.02   0.00  -0.07    -0.01  -0.02   0.09    -0.07  -0.06   0.01
  61   7    -0.01  -0.00  -0.07    -0.00  -0.02   0.07    -0.04  -0.07   0.00
  62   1    -0.01   0.00  -0.04    -0.00  -0.01   0.04    -0.03  -0.03   0.00
  63   1    -0.01  -0.00  -0.05    -0.00  -0.01   0.04    -0.02  -0.04  -0.00
  64   1     0.01  -0.00  -0.05     0.00  -0.01   0.04     0.02  -0.04  -0.00
  65   1     0.01   0.00  -0.04     0.00  -0.01   0.04     0.03  -0.03   0.00
  66   1     0.01   0.00  -0.01     0.00  -0.01   0.02     0.03  -0.01   0.00
  67   1     0.01   0.00   0.02     0.00   0.00  -0.01     0.03   0.01   0.00
  68   1     0.01  -0.00   0.06     0.00   0.01  -0.05     0.02   0.03  -0.00
  69   1     0.00  -0.00   0.06    -0.00   0.01  -0.05    -0.00   0.03  -0.01
  70   1    -0.00  -0.00   0.06    -0.00   0.01  -0.05    -0.02   0.03  -0.00
  71   1    -0.01  -0.00   0.03    -0.00   0.00  -0.01    -0.03   0.01   0.00
  72   1    -0.01   0.00  -0.01    -0.00  -0.01   0.02    -0.03  -0.01   0.00
  73   6     0.00   0.01   0.13    -0.00   0.03   0.06     0.00   0.13  -0.02
  74   6     0.00   0.01   0.14    -0.00   0.03   0.03     0.00   0.12  -0.01
  75   6     0.00   0.01   0.13    -0.00   0.03   0.00     0.00   0.10   0.00
  76   6     0.00   0.01   0.11    -0.00   0.02  -0.03     0.00   0.06   0.02
  77   6     0.00   0.01   0.08    -0.00   0.01  -0.06     0.00   0.02   0.03
  78   6     0.00   0.01   0.05    -0.00  -0.00  -0.08     0.00  -0.02   0.04
  79   6    -0.00  -0.00  -0.05     0.00  -0.01   0.15    -0.00  -0.11  -0.04
  80   6    -0.00  -0.00  -0.03     0.00  -0.00   0.19    -0.00  -0.08  -0.05
  81   6    -0.00  -0.00  -0.01     0.00   0.01   0.20    -0.00  -0.04  -0.05
  82   6    -0.00   0.00   0.01     0.00   0.02   0.20     0.00   0.02  -0.06
  83   6    -0.00   0.00   0.03     0.00   0.03   0.18     0.00   0.06  -0.05
  84   6    -0.00   0.01   0.05     0.00   0.03   0.15     0.00   0.10  -0.04
  85   6    -0.00  -0.01  -0.06     0.00   0.01  -0.09    -0.00   0.02  -0.01
  86   6    -0.00  -0.01  -0.09     0.00   0.00  -0.06    -0.00  -0.02  -0.01
  87   6    -0.00  -0.01  -0.11     0.00  -0.00  -0.03    -0.00  -0.06  -0.02
  88   6    -0.00  -0.01  -0.13    -0.00  -0.01   0.00    -0.00  -0.10  -0.02
  89   6    -0.00  -0.01  -0.14     0.00  -0.02   0.03    -0.00  -0.12  -0.02
  90   6    -0.00  -0.01  -0.14     0.00  -0.03   0.06    -0.00  -0.13  -0.02
  91  26    -0.00  -0.01  -0.11    -0.00  -0.04  -0.08     0.00  -0.16   0.03
  92   6     0.00  -0.01  -0.10    -0.01  -0.02  -0.13    -0.03  -0.05   0.04
  93   6     0.00  -0.01  -0.05    -0.01  -0.02  -0.12    -0.02  -0.04   0.05
  94   6     0.00  -0.00  -0.03    -0.00  -0.02  -0.09    -0.01  -0.04   0.04
  95   6    -0.00   0.00   0.02    -0.00  -0.01  -0.09     0.00  -0.04   0.04
  96   6    -0.00   0.00   0.02     0.00  -0.02  -0.09     0.01  -0.04   0.04
  97   6    -0.00   0.01   0.05     0.01  -0.02  -0.12     0.02  -0.04   0.05
  98   6    -0.00   0.00   0.04     0.01  -0.02  -0.12     0.03  -0.05   0.04
  99   6    -0.00   0.00   0.00     0.01  -0.02  -0.09     0.02  -0.06   0.03
 100   7    -0.00  -0.00  -0.01     0.01  -0.02  -0.08     0.01  -0.06   0.03
 101   6    -0.00  -0.00  -0.01     0.01  -0.02  -0.07     0.03  -0.07   0.02
 102   6    -0.00  -0.00  -0.03     0.01  -0.02  -0.01     0.02  -0.09   0.00
 103   6    -0.00  -0.00  -0.02     0.01  -0.02   0.03     0.03  -0.10  -0.01
 104   6    -0.00  -0.00  -0.03     0.01  -0.02   0.08     0.02  -0.11  -0.02
 105   6    -0.00  -0.00  -0.04     0.00  -0.02   0.07     0.01  -0.10  -0.02
 106   7    -0.00  -0.00  -0.04     0.00  -0.02   0.01     0.01  -0.10  -0.00
 107   6    -0.00  -0.01  -0.06     0.00  -0.02   0.10    -0.00  -0.11  -0.03
 108   6    -0.00  -0.01  -0.09    -0.00  -0.02   0.07    -0.01  -0.10  -0.02
 109   6    -0.00  -0.01  -0.13    -0.01  -0.02   0.08    -0.02  -0.11  -0.02
 110   6    -0.00  -0.02  -0.16    -0.01  -0.02   0.02    -0.03  -0.10  -0.01
 111   6    -0.00  -0.01  -0.14    -0.01  -0.02  -0.02    -0.02  -0.09   0.00
 112   7    -0.00  -0.01  -0.10    -0.01  -0.02   0.01    -0.01  -0.10  -0.00
 113   6    -0.00  -0.02  -0.14    -0.01  -0.02  -0.07    -0.03  -0.07   0.02
 114   6    -0.00  -0.01  -0.10    -0.01  -0.02  -0.10    -0.02  -0.06   0.03
 115   7    -0.00  -0.01  -0.06    -0.01  -0.02  -0.08    -0.01  -0.06   0.03
 116   1     0.00  -0.00  -0.04    -0.00  -0.01  -0.04    -0.01  -0.01   0.01
 117   1     0.00  -0.00  -0.01    -0.00  -0.00  -0.04    -0.01  -0.01   0.02
 118   1    -0.00   0.00   0.02     0.00  -0.00  -0.04     0.01  -0.01   0.02
 119   1    -0.00   0.00   0.01     0.00  -0.01  -0.04     0.01  -0.01   0.01
 120   1    -0.00   0.00   0.00     0.00  -0.01  -0.02     0.01  -0.02   0.01
 121   1    -0.00  -0.00  -0.00     0.00  -0.01   0.01     0.01  -0.03  -0.00
 122   1    -0.00  -0.00  -0.01     0.00  -0.00   0.04     0.01  -0.04  -0.01
 123   1    -0.00  -0.00  -0.04    -0.00  -0.01   0.04    -0.01  -0.04  -0.01
 124   1    -0.00  -0.01  -0.06    -0.00  -0.01   0.00    -0.01  -0.03  -0.00
 125   1    -0.00  -0.01  -0.05    -0.00  -0.01  -0.03    -0.01  -0.02   0.01
 126  26    -0.00   0.01   0.11     0.00   0.04  -0.08     0.00   0.17   0.01
 127   6    -0.00   0.02   0.14     0.00   0.02   0.03    -0.03   0.10   0.00
 128   6    -0.00   0.01   0.12     0.00   0.03   0.08    -0.02   0.11  -0.02
 129   6    -0.00   0.01   0.09     0.00   0.03   0.07    -0.01   0.10  -0.02
 130   6    -0.00   0.01   0.06     0.00   0.03   0.10     0.00   0.10  -0.03
 131   6    -0.00   0.01   0.05    -0.00   0.03   0.07     0.01   0.10  -0.02
 132   6    -0.00   0.00   0.04    -0.00   0.03   0.08     0.02   0.11  -0.01
 133   6    -0.00   0.00   0.04    -0.00   0.02   0.02     0.03   0.10   0.00
 134   6    -0.00   0.00   0.04    -0.00   0.02  -0.02     0.02   0.09   0.01
 135   7    -0.00   0.01   0.05    -0.00   0.02   0.01     0.01   0.10  -0.00
 136   6     0.00   0.00   0.03    -0.00   0.01  -0.07     0.03   0.08   0.02
 137   6     0.00   0.00   0.01    -0.00   0.01  -0.10     0.02   0.07   0.02
 138   6     0.00  -0.00  -0.02    -0.00   0.01  -0.13     0.03   0.06   0.02
 139   6     0.00  -0.01  -0.04    -0.00   0.01  -0.13     0.02   0.05   0.01
 140   6     0.00  -0.00  -0.02    -0.00   0.01  -0.10     0.01   0.05   0.01
 141   7    -0.00   0.00   0.01    -0.00   0.01  -0.09     0.01   0.07   0.01
 142   6    -0.00  -0.00  -0.02     0.00   0.01  -0.10    -0.00   0.04   0.00
 143   6    -0.00   0.00   0.02     0.00   0.01  -0.10    -0.01   0.05   0.01
 144   6    -0.00   0.00   0.03     0.00   0.01  -0.12    -0.02   0.05   0.01
 145   6    -0.00   0.01   0.08     0.00   0.01  -0.12    -0.03   0.06   0.02
 146   6    -0.00   0.01   0.09     0.00   0.01  -0.09    -0.02   0.07   0.02
 147   7    -0.00   0.01   0.05     0.00   0.01  -0.09    -0.01   0.07   0.01
 148   6    -0.00   0.01   0.12     0.00   0.01  -0.07    -0.03   0.08   0.02
 149   6    -0.00   0.01   0.12     0.00   0.02  -0.01    -0.02   0.09   0.01
 150   7    -0.00   0.01   0.09     0.00   0.02   0.01    -0.01   0.10  -0.00
 151   1    -0.00   0.01   0.05     0.00   0.01   0.01    -0.01   0.03   0.00
 152   1    -0.00   0.00   0.04     0.00   0.01   0.04    -0.01   0.03  -0.01
 153   1    -0.00   0.00   0.01    -0.00   0.01   0.04     0.01   0.03  -0.01
 154   1     0.00   0.00   0.01    -0.00   0.01   0.00     0.01   0.03   0.00
 155   1     0.00   0.00   0.01    -0.00   0.00  -0.03     0.01   0.02   0.01
 156   1     0.00  -0.00  -0.01    -0.00   0.00  -0.04     0.01   0.02   0.01
 157   1     0.00  -0.00  -0.02    -0.00   0.00  -0.04     0.01   0.01   0.00
 158   1    -0.00  -0.00   0.00     0.00   0.00  -0.04    -0.01   0.01   0.00
 159   1    -0.00   0.00   0.03     0.00   0.00  -0.04    -0.01   0.02   0.01
 160   1    -0.00   0.00   0.04     0.00   0.00  -0.02    -0.01   0.02   0.01
                     13                     14                     15
                        a                      a                      a 
 Frequencies --    21.5251                22.9372                27.7105
 Red. masses --    12.1041                12.4071                11.9587
 Frc consts  --     0.0000                 0.0000                 0.0000
 IR Inten    --    20.2770                 2.6067                 0.8632
 Raman Activ --     0.0000                 0.0000                 0.0000
 Depolar     --     0.0000                 0.0000                 0.0000
 Atom AN      X      Y      Z        X      Y      Z        X      Y      Z
   1  26    -0.00   0.03   0.05    -0.00  -0.05   0.04    -0.01   0.05   0.03
   2   6     0.04   0.05   0.09    -0.07  -0.08   0.07     0.05   0.06   0.06
   3   6     0.03   0.06   0.06    -0.05  -0.10   0.04     0.04   0.08   0.02
   4   6     0.01   0.05   0.04    -0.02  -0.09   0.02     0.02   0.07   0.00
   5   6    -0.00   0.06   0.02     0.00  -0.10   0.01    -0.00   0.08  -0.02
   6   6    -0.02   0.05   0.04     0.02  -0.09   0.03    -0.02   0.07   0.00
   7   6    -0.03   0.06   0.06     0.05  -0.10   0.05    -0.04   0.08   0.02
   8   6    -0.04   0.05   0.09     0.07  -0.08   0.07    -0.06   0.06   0.06
   9   6    -0.03   0.03   0.08     0.06  -0.05   0.06    -0.05   0.04   0.05
  10   7    -0.02   0.04   0.05     0.03  -0.06   0.04    -0.03   0.05   0.02
  11   6    -0.04   0.01   0.07     0.07  -0.02   0.06    -0.06   0.02   0.06
  12   6    -0.03  -0.00   0.03     0.06   0.00   0.02    -0.05  -0.00   0.03
  13   6    -0.04  -0.02  -0.01     0.07   0.03  -0.01    -0.06  -0.02   0.01
  14   6    -0.03  -0.03  -0.07     0.05   0.05  -0.06    -0.04  -0.04  -0.04
  15   6    -0.01  -0.02  -0.07     0.02   0.04  -0.05    -0.02  -0.03  -0.04
  16   7    -0.02  -0.01  -0.01     0.03   0.01  -0.01    -0.03  -0.01  -0.00
  17   6     0.00  -0.03  -0.10    -0.00   0.05  -0.08    -0.00  -0.04  -0.07
  18   6     0.02  -0.02  -0.07    -0.03   0.04  -0.05     0.02  -0.03  -0.05
  19   6     0.03  -0.03  -0.07    -0.05   0.05  -0.06     0.04  -0.04  -0.04
  20   6     0.04  -0.02  -0.01    -0.07   0.03  -0.00     0.05  -0.02   0.01
  21   6     0.03  -0.00   0.02    -0.06   0.00   0.02     0.04   0.00   0.03
  22   7     0.02  -0.01  -0.01    -0.03   0.01  -0.01     0.02  -0.00  -0.00
  23   6     0.04   0.01   0.07    -0.07  -0.02   0.06     0.05   0.02   0.06
  24   6     0.03   0.03   0.08    -0.06  -0.05   0.06     0.04   0.04   0.05
  25   7     0.02   0.04   0.05    -0.03  -0.06   0.04     0.02   0.05   0.02
  26   1     0.02   0.01   0.03    -0.03  -0.02   0.03     0.02   0.02   0.02
  27   1     0.01   0.02   0.02    -0.02  -0.04   0.01     0.01   0.03   0.00
  28   1    -0.01   0.02   0.02     0.02  -0.03   0.01    -0.01   0.03   0.00
  29   1    -0.02   0.01   0.03     0.03  -0.02   0.03    -0.02   0.02   0.02
  30   1    -0.02   0.00   0.03     0.03  -0.01   0.02    -0.02   0.01   0.03
  31   1    -0.02  -0.01   0.00     0.03   0.01   0.00    -0.02  -0.01   0.01
  32   1    -0.01  -0.01  -0.03     0.02   0.02  -0.03    -0.01  -0.02  -0.02
  33   1     0.00  -0.01  -0.04    -0.00   0.02  -0.03    -0.00  -0.02  -0.03
  34   1     0.01  -0.01  -0.03    -0.02   0.02  -0.03     0.01  -0.02  -0.02
  35   1     0.02  -0.01   0.00    -0.03   0.01   0.00     0.02  -0.01   0.01
  36   1     0.02   0.00   0.03    -0.03  -0.01   0.02     0.02   0.01   0.03
  37  26     0.00   0.02  -0.06     0.00  -0.06  -0.01     0.00  -0.02   0.03
  38   6     0.02   0.04  -0.11    -0.08  -0.08  -0.02    -0.02  -0.04   0.06
  39   6     0.01   0.04  -0.07    -0.06  -0.10  -0.02    -0.01  -0.03   0.02
  40   6     0.01   0.03  -0.04    -0.03  -0.09  -0.02    -0.01  -0.03  -0.00
  41   6    -0.00   0.03  -0.02     0.00  -0.11  -0.02     0.00  -0.02  -0.03
  42   6    -0.01   0.03  -0.04     0.03  -0.09  -0.02     0.01  -0.03  -0.00
  43   6    -0.01   0.04  -0.07     0.06  -0.10  -0.02     0.02  -0.03   0.02
  44   6    -0.02   0.04  -0.11     0.08  -0.08  -0.02     0.02  -0.04   0.06
  45   6    -0.01   0.03  -0.09     0.06  -0.05  -0.01     0.02  -0.03   0.06
  46   7    -0.01   0.03  -0.06     0.03  -0.06  -0.01     0.01  -0.02   0.02
  47   6    -0.02   0.02  -0.09     0.08  -0.02  -0.01     0.02  -0.02   0.07
  48   6    -0.02   0.00  -0.03     0.06   0.00   0.00     0.02  -0.01   0.03
  49   6    -0.02  -0.01   0.01     0.08   0.03   0.01     0.02   0.01   0.01
  50   6    -0.01  -0.03   0.09     0.06   0.05   0.01     0.02   0.02  -0.04
  51   6    -0.01  -0.03   0.09     0.03   0.04   0.01     0.01   0.02  -0.05
  52   7    -0.01  -0.01   0.02     0.03   0.01   0.00     0.01   0.00  -0.00
  53   6     0.00  -0.04   0.13    -0.00   0.05   0.01     0.00   0.03  -0.08
  54   6     0.01  -0.03   0.09    -0.03   0.04   0.01    -0.01   0.02  -0.05
  55   6     0.02  -0.03   0.09    -0.06   0.05   0.01    -0.01   0.02  -0.04
  56   6     0.02  -0.01   0.01    -0.08   0.03   0.01    -0.02   0.01   0.01
  57   6     0.02   0.01  -0.03    -0.06   0.00  -0.00    -0.02  -0.01   0.03
  58   7     0.01  -0.00   0.02    -0.03   0.01   0.00    -0.01   0.00  -0.00
  59   6     0.02   0.02  -0.09    -0.08  -0.03  -0.01    -0.02  -0.02   0.07
  60   6     0.01   0.03  -0.09    -0.06  -0.05  -0.01    -0.01  -0.03   0.06
  61   7     0.01   0.03  -0.06    -0.03  -0.06  -0.01    -0.01  -0.02   0.02
  62   1     0.01   0.01  -0.04    -0.03  -0.02  -0.01    -0.01  -0.01   0.02
  63   1     0.00   0.01  -0.02    -0.02  -0.04  -0.01    -0.00  -0.01   0.00
  64   1    -0.00   0.01  -0.02     0.02  -0.04  -0.01     0.01  -0.01   0.00
  65   1    -0.01   0.01  -0.04     0.03  -0.02  -0.01     0.01  -0.01   0.02
  66   1    -0.01   0.01  -0.04     0.03  -0.01  -0.00     0.01  -0.01   0.03
  67   1    -0.01  -0.00  -0.00     0.03   0.01   0.00     0.01   0.00   0.01
  68   1    -0.00  -0.01   0.04     0.02   0.02   0.01     0.01   0.01  -0.02
  69   1     0.00  -0.02   0.05    -0.00   0.02   0.01     0.00   0.01  -0.03
  70   1     0.01  -0.01   0.04    -0.02   0.02   0.00    -0.00   0.01  -0.02
  71   1     0.01  -0.00  -0.00    -0.03   0.01   0.00    -0.01   0.00   0.01
  72   1     0.01   0.01  -0.04    -0.03  -0.01  -0.00    -0.01  -0.01   0.03
  73   6    -0.00   0.07  -0.02     0.00  -0.12  -0.02    -0.00   0.08  -0.06
  74   6    -0.00   0.05  -0.06     0.00  -0.08  -0.06    -0.00   0.04  -0.09
  75   6    -0.00   0.03  -0.09    -0.00  -0.04  -0.09    -0.00  -0.01  -0.11
  76   6    -0.00  -0.01  -0.12    -0.00   0.03  -0.11    -0.00  -0.07  -0.12
  77   6    -0.00  -0.03  -0.14    -0.00   0.07  -0.11    -0.00  -0.11  -0.11
  78   6    -0.00  -0.06  -0.14    -0.00   0.11  -0.11    -0.00  -0.14  -0.09
  79   6     0.00   0.01   0.09    -0.00  -0.07   0.01     0.00   0.12  -0.07
  80   6     0.00   0.02   0.07    -0.00  -0.09  -0.01     0.00   0.09  -0.10
  81   6     0.00   0.04   0.03    -0.00  -0.10  -0.03     0.00   0.04  -0.12
  82   6     0.00   0.05  -0.01    -0.00  -0.10  -0.06     0.00  -0.03  -0.12
  83   6     0.00   0.06  -0.05    -0.00  -0.09  -0.07     0.00  -0.07  -0.11
  84   6     0.00   0.06  -0.08    -0.00  -0.07  -0.07     0.00  -0.11  -0.08
  85   6    -0.00  -0.05   0.16     0.00   0.12   0.04     0.00   0.07  -0.08
  86   6    -0.00  -0.04   0.17     0.00   0.08   0.03     0.00   0.07  -0.11
  87   6    -0.00  -0.03   0.15     0.00   0.03   0.01     0.00   0.05  -0.12
  88   6    -0.00  -0.01   0.12     0.00  -0.04  -0.00     0.00   0.03  -0.12
  89   6    -0.00   0.01   0.08     0.00  -0.08  -0.01     0.00   0.00  -0.10
  90   6    -0.00   0.03   0.03     0.00  -0.12  -0.02     0.00  -0.02  -0.07
  91  26     0.00  -0.06   0.03    -0.00   0.07   0.03    -0.00   0.01   0.04
  92   6     0.01  -0.05  -0.07    -0.07   0.08  -0.02     0.10  -0.07   0.03
  93   6     0.01  -0.05  -0.11    -0.05   0.10  -0.06     0.07  -0.10  -0.02
  94   6     0.00  -0.05  -0.09    -0.02   0.09  -0.05     0.03  -0.09  -0.03
  95   6    -0.00  -0.05  -0.11    -0.00   0.10  -0.08    -0.00  -0.11  -0.06
  96   6    -0.00  -0.05  -0.09     0.02   0.09  -0.05    -0.04  -0.09  -0.03
  97   6    -0.01  -0.05  -0.11     0.05   0.10  -0.06    -0.07  -0.10  -0.02
  98   6    -0.01  -0.05  -0.07     0.07   0.08  -0.02    -0.10  -0.07   0.03
  99   6    -0.01  -0.04  -0.02     0.06   0.06   0.01    -0.08  -0.03   0.04
 100   7    -0.00  -0.04  -0.04     0.03   0.07  -0.02    -0.04  -0.05   0.01
 101   6    -0.01  -0.02   0.03     0.07   0.04   0.04    -0.10   0.01   0.07
 102   6    -0.01  -0.02   0.07     0.06   0.01   0.05    -0.08   0.05   0.06
 103   6    -0.01  -0.01   0.11     0.07  -0.01   0.07    -0.10   0.08   0.06
 104   6    -0.01  -0.00   0.12     0.05  -0.04   0.06    -0.07   0.11   0.01
 105   6    -0.00  -0.01   0.09     0.03  -0.03   0.04    -0.03   0.09  -0.01
 106   7    -0.01  -0.02   0.07     0.03   0.00   0.04    -0.04   0.05   0.02
 107   6     0.00  -0.00   0.10    -0.00  -0.04   0.03     0.00   0.10  -0.03
 108   6     0.01  -0.01   0.09    -0.03  -0.03   0.04     0.03   0.09  -0.01
 109   6     0.01  -0.00   0.12    -0.05  -0.04   0.06     0.07   0.11   0.01
 110   6     0.01  -0.01   0.11    -0.07  -0.01   0.07     0.10   0.08   0.05
 111   6     0.01  -0.02   0.07    -0.06   0.01   0.05     0.08   0.05   0.06
 112   7     0.01  -0.02   0.07    -0.03   0.00   0.04     0.04   0.05   0.02
 113   6     0.01  -0.02   0.03    -0.07   0.04   0.04     0.10   0.01   0.08
 114   6     0.01  -0.04  -0.02    -0.06   0.06   0.01     0.08  -0.03   0.04
 115   7     0.00  -0.04  -0.04    -0.03   0.07  -0.02     0.04  -0.05   0.01
 116   1     0.00  -0.01  -0.02    -0.03   0.02  -0.00     0.04  -0.02   0.02
 117   1     0.00  -0.02  -0.04    -0.02   0.03  -0.03     0.02  -0.04  -0.01
 118   1    -0.00  -0.02  -0.04     0.02   0.03  -0.03    -0.02  -0.04  -0.01
 119   1    -0.00  -0.01  -0.02     0.03   0.02  -0.00    -0.04  -0.02   0.01
 120   1    -0.00  -0.01   0.01     0.03   0.01   0.02    -0.04   0.00   0.03
 121   1    -0.01  -0.00   0.04     0.03  -0.00   0.02    -0.04   0.03   0.02
 122   1    -0.00   0.00   0.04     0.02  -0.02   0.02    -0.02   0.04  -0.00
 123   1     0.00   0.00   0.04    -0.02  -0.02   0.02     0.02   0.04  -0.00
 124   1     0.01  -0.00   0.03    -0.03  -0.00   0.02     0.04   0.03   0.02
 125   1     0.00  -0.01   0.01    -0.03   0.01   0.02     0.04   0.00   0.03
 126  26     0.00  -0.01  -0.04     0.00   0.08   0.01     0.00  -0.03   0.05
 127   6    -0.05   0.02  -0.12     0.06  -0.02  -0.04     0.07  -0.07   0.04
 128   6    -0.04   0.04  -0.12     0.05  -0.04  -0.06     0.05  -0.09  -0.01
 129   6    -0.02   0.03  -0.09     0.02  -0.02  -0.05     0.02  -0.08  -0.02
 130   6     0.00   0.04  -0.09     0.00  -0.04  -0.06     0.00  -0.10  -0.04
 131   6     0.02   0.03  -0.09    -0.02  -0.02  -0.05    -0.02  -0.08  -0.02
 132   6     0.04   0.04  -0.12    -0.05  -0.04  -0.06    -0.05  -0.09  -0.00
 133   6     0.05   0.02  -0.12    -0.06  -0.02  -0.04    -0.07  -0.06   0.04
 134   6     0.04   0.01  -0.08    -0.05   0.01  -0.02    -0.05  -0.04   0.05
 135   7     0.02   0.01  -0.07    -0.03   0.00  -0.03    -0.03  -0.05   0.02
 136   6     0.05  -0.01  -0.05    -0.06   0.04   0.01    -0.07  -0.01   0.08
 137   6     0.04  -0.02   0.01    -0.05   0.06   0.03    -0.05   0.02   0.05
 138   6     0.05  -0.03   0.06    -0.06   0.09   0.05    -0.07   0.04   0.05
 139   6     0.04  -0.04   0.11    -0.05   0.11   0.06    -0.05   0.06  -0.00
 140   6     0.02  -0.03   0.10    -0.02   0.09   0.04    -0.02   0.04  -0.01
 141   7     0.02  -0.02   0.04    -0.03   0.07   0.03    -0.03   0.02   0.02
 142   6    -0.00  -0.04   0.13     0.00   0.11   0.04     0.00   0.05  -0.04
 143   6    -0.02  -0.03   0.10     0.02   0.09   0.04     0.03   0.04  -0.01
 144   6    -0.04  -0.04   0.11     0.05   0.11   0.06     0.05   0.06   0.00
 145   6    -0.05  -0.03   0.06     0.06   0.09   0.05     0.07   0.04   0.05
 146   6    -0.04  -0.02   0.01     0.05   0.06   0.03     0.06   0.02   0.06
 147   7    -0.02  -0.02   0.04     0.03   0.07   0.03     0.03   0.02   0.02
 148   6    -0.05  -0.01  -0.05     0.06   0.04   0.01     0.07  -0.01   0.08
 149   6    -0.04   0.01  -0.08     0.05   0.01  -0.01     0.06  -0.04   0.05
 150   7    -0.02   0.01  -0.07     0.03   0.00  -0.03     0.03  -0.05   0.02
 151   1    -0.02   0.01  -0.04     0.02  -0.01  -0.01     0.03  -0.02   0.02
 152   1    -0.01   0.01  -0.04     0.01  -0.02  -0.02     0.02  -0.03  -0.01
 153   1     0.01   0.01  -0.04    -0.01  -0.02  -0.02    -0.02  -0.03  -0.01
 154   1     0.02   0.01  -0.04    -0.02  -0.00  -0.01    -0.03  -0.02   0.02
 155   1     0.02  -0.00  -0.02    -0.02   0.01   0.01    -0.03  -0.00   0.03
 156   1     0.02  -0.01   0.01    -0.02   0.03   0.02    -0.03   0.01   0.02
 157   1     0.01  -0.01   0.05    -0.01   0.04   0.02    -0.02   0.02  -0.01
 158   1    -0.01  -0.01   0.05     0.01   0.04   0.02     0.02   0.02  -0.01
 159   1    -0.02  -0.01   0.02     0.02   0.03   0.02     0.03   0.01   0.02
 160   1    -0.02  -0.00  -0.02     0.02   0.01   0.01     0.03  -0.00   0.03
                     16                     17                     18
                        a                      a                      a 
 Frequencies --    28.5770                30.5359                30.9413
 Red. masses --    12.0184                10.9353                10.9382
 Frc consts  --     0.0000                 0.0000                 0.0000
 IR Inten    --     5.1916               482.5554                47.0026
 Raman Activ --     0.0000                 0.0000                 0.0000
 Depolar     --     0.0000                 0.0000                 0.0000
 Atom AN      X      Y      Z        X      Y      Z        X      Y      Z
   1  26    -0.00  -0.02   0.04     0.01   0.00   0.00    -0.01   0.00  -0.00
   2   6    -0.02  -0.02   0.07     0.00  -0.00  -0.02    -0.00   0.00  -0.04
   3   6    -0.01  -0.03   0.02     0.00   0.00  -0.03    -0.00   0.00  -0.04
   4   6    -0.01  -0.02  -0.00     0.00   0.00  -0.01    -0.00   0.00  -0.02
   5   6    -0.00  -0.03  -0.03     0.00   0.00   0.00    -0.00   0.00   0.00
   6   6     0.01  -0.02  -0.00     0.00   0.00   0.01    -0.00   0.00   0.02
   7   6     0.01  -0.03   0.02     0.00   0.00   0.03    -0.01   0.00   0.04
   8   6     0.02  -0.02   0.07     0.00   0.00   0.03    -0.01   0.00   0.04
   9   6     0.01  -0.01   0.07     0.00   0.00   0.01    -0.01   0.00   0.02
  10   7     0.01  -0.02   0.03     0.00   0.00   0.01    -0.01   0.00   0.01
  11   6     0.02  -0.01   0.09     0.00   0.00  -0.00    -0.01  -0.00  -0.00
  12   6     0.01   0.00   0.04     0.00   0.00  -0.01    -0.01  -0.00  -0.02
  13   6     0.02   0.01   0.01     0.00   0.00  -0.03    -0.01  -0.00  -0.04
  14   6     0.01   0.01  -0.05     0.00   0.00  -0.03    -0.01  -0.00  -0.04
  15   6     0.01   0.01  -0.06     0.00   0.00  -0.01    -0.01  -0.00  -0.02
  16   7     0.01   0.00  -0.00     0.00   0.00  -0.01    -0.01  -0.00  -0.01
  17   6     0.00   0.01  -0.10     0.00  -0.00  -0.00    -0.01  -0.00   0.00
  18   6    -0.01   0.01  -0.06     0.00  -0.00   0.01    -0.01  -0.00   0.02
[...]
  74   6     0.00   0.00  -0.00    -0.00   0.00  -0.00    -0.00  -0.00   0.00
  75   6     0.00   0.00   0.00     0.00  -0.00   0.00     0.00  -0.00  -0.00
  76   6    -0.00   0.00  -0.00    -0.00   0.00  -0.00     0.00   0.00  -0.00
  77   6     0.00   0.00  -0.00     0.00   0.00  -0.00    -0.00   0.00  -0.00
  78   6    -0.00  -0.00   0.00    -0.00  -0.00   0.00     0.00   0.00  -0.00
  79   6     0.00   0.00  -0.00     0.00  -0.00   0.00    -0.00  -0.00   0.00
  80   6    -0.00  -0.00   0.00    -0.00   0.00  -0.00    -0.00   0.00  -0.00
  81   6     0.00   0.00  -0.00    -0.00   0.00  -0.00     0.00   0.00  -0.00
  82   6    -0.00  -0.00   0.00     0.00   0.00  -0.00    -0.00   0.00  -0.00
  83   6     0.00  -0.00   0.00    -0.00   0.00  -0.00     0.00   0.00  -0.00
  84   6     0.00   0.00  -0.00     0.00  -0.00   0.00    -0.00  -0.00   0.00
  85   6     0.00   0.00  -0.00    -0.00  -0.00   0.00    -0.00  -0.00   0.00
  86   6     0.00  -0.00   0.00    -0.00   0.00  -0.00     0.00   0.00  -0.00
  87   6    -0.00  -0.00   0.00     0.00   0.00  -0.00    -0.00   0.00  -0.00
  88   6     0.00  -0.00  -0.00    -0.00   0.00   0.00     0.00   0.00   0.00
  89   6    -0.00  -0.00  -0.00    -0.00   0.00   0.00    -0.00   0.00   0.00
  90   6     0.00   0.00   0.00     0.00  -0.00  -0.00    -0.00  -0.00  -0.00
  91  26    -0.00   0.00  -0.00    -0.00   0.00  -0.00     0.00   0.00  -0.00
  92   6     0.00   0.03  -0.00    -0.00  -0.03   0.00    -0.00  -0.03   0.00
  93   6     0.05   0.01  -0.00    -0.04  -0.00   0.00    -0.04  -0.00   0.00
  94   6     0.00  -0.00   0.00    -0.00   0.00  -0.00    -0.00   0.00  -0.00
  95   6     0.00  -0.00   0.00     0.00  -0.00   0.00    -0.00  -0.00   0.00
  96   6     0.00   0.00  -0.00     0.00   0.00  -0.00    -0.00  -0.00   0.00
  97   6     0.13  -0.02   0.00     0.11  -0.01   0.00    -0.04   0.00  -0.00
  98   6     0.00  -0.08   0.01     0.00  -0.08   0.01    -0.00   0.03  -0.00
  99   6    -0.00  -0.00   0.00    -0.00  -0.00   0.00     0.00   0.00  -0.00
 100   7    -0.00   0.00  -0.00    -0.00   0.00  -0.00     0.00  -0.00   0.00
 101   6     0.00  -0.00   0.00    -0.00  -0.00   0.00    -0.00  -0.00   0.00
 102   6     0.00   0.00  -0.00     0.00  -0.00   0.00     0.00  -0.00   0.00
 103   6    -0.00  -0.02   0.00    -0.00  -0.10   0.01    -0.00  -0.03   0.00
 104   6    -0.03  -0.00   0.00    -0.15  -0.02   0.00    -0.05  -0.01   0.00
 105   6    -0.00   0.00  -0.00    -0.00   0.00  -0.00    -0.00   0.00  -0.00
 106   7     0.00   0.00  -0.00     0.00   0.00  -0.00     0.00   0.00  -0.00
 107   6    -0.00   0.00  -0.00    -0.00  -0.00   0.00    -0.00  -0.00   0.00
 108   6    -0.00  -0.00   0.00     0.00   0.00  -0.00    -0.00  -0.00  -0.00
 109   6    -0.04   0.00  -0.00     0.12  -0.01   0.00     0.00  -0.00  -0.00
 110   6    -0.00   0.03  -0.00     0.00  -0.08   0.01     0.00  -0.00   0.00
 111   6     0.00   0.00  -0.00    -0.00  -0.00   0.00    -0.00   0.00  -0.00
 112   7     0.00  -0.00   0.00    -0.00   0.00  -0.00    -0.00   0.00  -0.00
 113   6     0.00   0.00  -0.00     0.00  -0.00   0.00    -0.00  -0.00   0.00
 114   6    -0.00   0.00  -0.00     0.00  -0.00   0.00     0.00  -0.00   0.00
 115   7    -0.00  -0.00   0.00     0.00   0.00  -0.00     0.00   0.00  -0.00
 116   1    -0.01  -0.10   0.01     0.01   0.09  -0.01     0.01   0.08  -0.01
 117   1    -0.16  -0.02   0.00     0.13   0.02  -0.00     0.13   0.02  -0.00
 118   1    -0.41   0.06  -0.01    -0.36   0.06  -0.01     0.13  -0.02   0.00
 119   1    -0.02   0.26  -0.03    -0.01   0.24  -0.03     0.00  -0.08   0.01
 120   1     0.00   0.01  -0.00    -0.00   0.01  -0.00    -0.00   0.00  -0.00
 121   1     0.00   0.06  -0.01     0.02   0.31  -0.03     0.01   0.11  -0.01
 122   1     0.09   0.01  -0.00     0.48   0.07  -0.01     0.18   0.03  -0.00
 123   1     0.13  -0.02   0.00    -0.40   0.06  -0.00    -0.00   0.00  -0.00
 124   1     0.00  -0.08   0.01    -0.02   0.26  -0.03    -0.00   0.00  -0.00
 125   1     0.00  -0.00   0.00     0.00   0.01  -0.00    -0.00   0.00  -0.00
 126  26    -0.00  -0.00   0.00     0.00   0.00  -0.00    -0.00   0.00  -0.00
 127   6     0.00   0.08  -0.01    -0.00  -0.05   0.01    -0.00  -0.02   0.00
 128   6     0.13   0.01  -0.00    -0.08  -0.01   0.00    -0.02  -0.00   0.00
 129   6     0.00  -0.00   0.00    -0.00   0.00  -0.00    -0.00   0.00  -0.00
 130   6     0.00   0.00  -0.00    -0.00  -0.00   0.00     0.00  -0.00   0.00
 131   6    -0.00  -0.00   0.00    -0.00  -0.00   0.00     0.00   0.00  -0.00
 132   6    -0.05   0.01  -0.00    -0.02   0.00  -0.00     0.06  -0.01   0.00
 133   6    -0.00   0.04  -0.00    -0.00   0.02  -0.00     0.00  -0.04   0.00
 134   6     0.00   0.00  -0.00     0.00   0.00  -0.00    -0.00  -0.00   0.00
 135   7     0.00  -0.00   0.00     0.00  -0.00   0.00    -0.00   0.00  -0.00
 136   6     0.00   0.00  -0.00    -0.00  -0.00   0.00     0.00   0.00  -0.00
 137   6    -0.00   0.00  -0.00     0.00  -0.00   0.00    -0.00   0.00  -0.00
 138   6     0.00   0.07  -0.01    -0.00  -0.03   0.00     0.00   0.06  -0.01
 139   6     0.10   0.01  -0.00    -0.04  -0.00   0.00     0.09   0.01  -0.00
 140   6     0.00  -0.00   0.00    -0.00   0.00  -0.00     0.00  -0.00   0.00
 141   7    -0.00  -0.00   0.00     0.00   0.00  -0.00    -0.00  -0.00   0.00
 142   6     0.00   0.00  -0.00    -0.00  -0.00   0.00     0.00  -0.00   0.00
 143   6     0.00   0.00  -0.00    -0.00  -0.00   0.00     0.00   0.00  -0.00
 144   6     0.01  -0.00   0.00    -0.02   0.00  -0.00     0.14  -0.02   0.00
 145   6    -0.00  -0.00   0.00     0.00   0.01  -0.00     0.00  -0.09   0.01
 146   6    -0.00  -0.00   0.00     0.00   0.00  -0.00    -0.00  -0.00   0.00
 147   7    -0.00   0.00   0.00     0.00  -0.00   0.00    -0.00   0.00  -0.00
 148   6     0.00   0.00  -0.00    -0.00  -0.00   0.00     0.00  -0.00   0.00
 149   6    -0.00   0.00  -0.00     0.00  -0.00   0.00     0.00  -0.00  -0.00
 150   7    -0.00  -0.00   0.00     0.00   0.00  -0.00     0.00   0.00  -0.00
 151   1    -0.02  -0.25   0.03     0.01   0.16  -0.02     0.00   0.05  -0.01
 152   1    -0.41  -0.06   0.01     0.26   0.04  -0.01     0.06   0.01  -0.00
 153   1     0.18  -0.03   0.00     0.08  -0.01   0.00    -0.20   0.03  -0.01
 154   1     0.01  -0.12   0.01     0.00  -0.05   0.01    -0.01   0.12  -0.01
 155   1     0.00  -0.01   0.00    -0.00   0.00  -0.00     0.00  -0.00   0.00
 156   1    -0.01  -0.21   0.02     0.01   0.09  -0.01    -0.01  -0.19   0.02
 157   1    -0.32  -0.05   0.00     0.14   0.02  -0.00    -0.30  -0.04   0.00
 158   1    -0.03   0.00  -0.00     0.05  -0.01   0.00    -0.46   0.07  -0.00
 159   1    -0.00   0.01  -0.00     0.00  -0.03   0.00    -0.02   0.29  -0.03
 160   1     0.00  -0.01   0.00    -0.00   0.00  -0.00     0.00   0.01  -0.00
                    472                    473                    474
                        a                      a                      a 
 Frequencies --  3165.9535              3166.0313              3166.3257
 Red. masses --     1.9665                 1.9663                 1.9671
 Frc consts  --     0.0000                 0.0000                 0.0000
 IR Inten    --   867.1429              5319.1993              8291.7426
 Raman Activ --     0.0000                 0.0000                 0.0000
 Depolar     --     0.0000                 0.0000                 0.0000
 Atom AN      X      Y      Z        X      Y      Z        X      Y      Z
   1  26     0.00  -0.00   0.00     0.00  -0.00   0.00    -0.00   0.00  -0.00
   2   6    -0.00   0.03  -0.00    -0.00   0.12  -0.00     0.00  -0.05   0.00
   3   6    -0.05   0.01  -0.00    -0.18   0.02  -0.00     0.07  -0.01   0.00
   4   6    -0.00  -0.00   0.00    -0.00  -0.01   0.00     0.00   0.00  -0.00
   5   6    -0.00   0.00  -0.00    -0.00   0.00  -0.00     0.00  -0.00   0.00
   6   6    -0.00   0.00  -0.00    -0.00   0.00  -0.00     0.00  -0.00   0.00
   7   6    -0.01  -0.00   0.00    -0.05  -0.01   0.00     0.03   0.00  -0.00
   8   6     0.00  -0.01   0.00     0.00  -0.03   0.00    -0.00   0.02  -0.00
   9   6     0.00  -0.00  -0.00     0.00  -0.00  -0.00    -0.00   0.00   0.00
  10   7     0.00   0.00  -0.00     0.00   0.00  -0.00    -0.00  -0.00   0.00
  11   6    -0.00  -0.00  -0.00    -0.00  -0.00   0.00     0.00   0.00  -0.00
  12   6    -0.00  -0.00  -0.00    -0.00   0.00  -0.00     0.00   0.00   0.00
  13   6     0.00  -0.00  -0.00     0.00  -0.00  -0.00    -0.00   0.01   0.00
  14   6     0.00  -0.00   0.00     0.00  -0.00   0.00    -0.01   0.00  -0.00
  15   6     0.00   0.00   0.00    -0.00   0.00  -0.00    -0.00  -0.00  -0.00
  16   7    -0.00   0.00  -0.00     0.00   0.00  -0.00     0.00  -0.00  -0.00
  17   6     0.00   0.00   0.00     0.00   0.00   0.00    -0.00  -0.00  -0.00
  18   6     0.00  -0.00   0.00     0.00  -0.00  -0.00    -0.00   0.00   0.00
  19   6     0.00   0.00   0.00     0.01   0.00   0.00    -0.01  -0.00  -0.00
  20   6     0.00   0.00   0.00     0.00   0.01   0.00    -0.00  -0.01  -0.00
  21   6    -0.00  -0.00  -0.00    -0.00  -0.00  -0.00     0.00   0.00   0.00
  22   7    -0.00  -0.00   0.00    -0.00  -0.00   0.00     0.00   0.00  -0.00
  23   6    -0.00   0.00  -0.00    -0.00   0.00  -0.00     0.00  -0.00   0.00
  24   6     0.00   0.00   0.00     0.00   0.00   0.00    -0.00  -0.00  -0.00
  25   7     0.00  -0.00   0.00     0.00  -0.00   0.00    -0.00   0.00   0.00
  26   1     0.01  -0.11   0.00     0.03  -0.38   0.00    -0.01   0.14  -0.00
  27   1     0.17  -0.02   0.00     0.59  -0.08   0.01    -0.23   0.03  -0.00
  28   1     0.03   0.00  -0.00     0.15   0.02  -0.00    -0.10  -0.02   0.00
  29   1     0.00   0.02  -0.00     0.00   0.10  -0.00    -0.00  -0.06   0.00
  30   1    -0.00   0.00  -0.00    -0.00   0.00  -0.00     0.00  -0.00   0.00
  31   1    -0.00   0.01   0.00    -0.00   0.01   0.00     0.00  -0.02  -0.00
  32   1    -0.01   0.00  -0.00    -0.01   0.00  -0.00     0.02  -0.00   0.00
  33   1    -0.00  -0.00  -0.00    -0.00   0.00  -0.00     0.00   0.00   0.00
  34   1    -0.02  -0.00  -0.00    -0.02  -0.00  -0.00     0.02   0.00   0.00
  35   1    -0.00  -0.02  -0.00    -0.00  -0.02  -0.00     0.00   0.02   0.00
  36   1    -0.00  -0.00   0.00    -0.00  -0.01   0.00     0.00   0.00  -0.00
  37  26     0.00  -0.00   0.00     0.00  -0.00  -0.00     0.00  -0.00  -0.00
  38   6    -0.00   0.01   0.00    -0.00   0.01   0.00    -0.00   0.03   0.01
  39   6    -0.02   0.00   0.00    -0.01   0.00   0.00    -0.04   0.00   0.00
  40   6    -0.00  -0.00  -0.00    -0.00  -0.00  -0.00    -0.00  -0.00  -0.00
  41   6     0.00   0.00   0.00     0.00   0.00   0.00    -0.00   0.00   0.00
  42   6    -0.00   0.00   0.00    -0.00   0.00   0.00    -0.00   0.00   0.00
  43   6    -0.01  -0.00  -0.00    -0.01  -0.00  -0.00    -0.04  -0.01  -0.00
  44   6     0.00  -0.01  -0.00     0.00  -0.01  -0.00    -0.00  -0.03  -0.01
  45   6     0.00  -0.00  -0.00     0.00  -0.00  -0.00     0.00  -0.00  -0.00
  46   7     0.00   0.00   0.00     0.00  -0.00  -0.00     0.00   0.00   0.00
  47   6    -0.00  -0.00  -0.00    -0.00  -0.00  -0.00    -0.00  -0.00  -0.00
  48   6    -0.00  -0.00  -0.00     0.00  -0.00  -0.00    -0.00  -0.00  -0.00
  49   6     0.00  -0.00  -0.00    -0.00   0.00   0.00     0.00  -0.01  -0.00
  50   6     0.00  -0.00  -0.00    -0.00   0.00   0.00     0.01  -0.00  -0.00
  51   6     0.00   0.00   0.00     0.00  -0.00  -0.00     0.00   0.00   0.00
  52   7     0.00  -0.00  -0.00     0.00  -0.00  -0.00     0.00   0.00   0.00
  53   6     0.00   0.00   0.00     0.00   0.00   0.00     0.00   0.00  -0.00
  54   6     0.00  -0.00  -0.00     0.00   0.00  -0.00     0.00  -0.00  -0.00
  55   6     0.00   0.00   0.00    -0.00  -0.00  -0.00     0.01   0.00   0.00
  56   6     0.00   0.00   0.00     0.00  -0.00  -0.00     0.00   0.01   0.00
  57   6    -0.00   0.00   0.00     0.00   0.00   0.00    -0.00   0.00   0.00
  58   7     0.00   0.00   0.00     0.00   0.00   0.00     0.00  -0.00  -0.00
  59   6    -0.00   0.00   0.00    -0.00   0.00   0.00    -0.00   0.00   0.00
  60   6     0.00   0.00   0.00     0.00   0.00   0.00     0.00   0.00   0.00
  61   7     0.00  -0.00  -0.00     0.00   0.00   0.00     0.00  -0.00  -0.00
  62   1     0.00  -0.03  -0.01     0.00  -0.03  -0.01     0.01  -0.09  -0.02
  63   1     0.05  -0.01  -0.00     0.05  -0.01  -0.00     0.14  -0.02  -0.00
  64   1     0.03   0.00   0.00     0.04   0.01   0.00     0.13   0.02   0.00
  65   1     0.00   0.02   0.00     0.00   0.02   0.00     0.00   0.08   0.02
  66   1    -0.00   0.00   0.00    -0.00   0.00   0.00    -0.00   0.00   0.00
  67   1    -0.00   0.00   0.00     0.00  -0.00  -0.00    -0.00   0.02   0.00
  68   1    -0.00   0.00   0.00     0.00  -0.00  -0.00    -0.02   0.00   0.00
  69   1    -0.00  -0.00   0.00    -0.00  -0.00   0.00    -0.00  -0.00   0.00
  70   1    -0.01  -0.00  -0.00     0.00   0.00   0.00    -0.02  -0.00  -0.00
  71   1    -0.00  -0.00  -0.00     0.00   0.00   0.00    -0.00  -0.02  -0.00
  72   1    -0.00  -0.00  -0.00    -0.00  -0.00  -0.00    -0.00  -0.00  -0.00
  73   6     0.00   0.00  -0.00     0.00   0.00  -0.00    -0.00  -0.00   0.00
  74   6    -0.00  -0.00   0.00    -0.00  -0.00   0.00     0.00   0.00  -0.00
  75   6     0.00  -0.00   0.00     0.00  -0.00  -0.00    -0.00   0.00  -0.00
  76   6     0.00  -0.00   0.00    -0.00   0.00   0.00     0.00  -0.00   0.00
  77   6    -0.00  -0.00   0.00     0.00  -0.00   0.00    -0.00  -0.00   0.00
  78   6     0.00   0.00  -0.00     0.00   0.00  -0.00     0.00   0.00  -0.00
  79   6     0.00   0.00  -0.00    -0.00   0.00  -0.00     0.00   0.00  -0.00
  80   6    -0.00  -0.00   0.00     0.00  -0.00   0.00     0.00  -0.00   0.00
  81   6     0.00   0.00  -0.00    -0.00  -0.00   0.00    -0.00  -0.00   0.00
  82   6    -0.00  -0.00   0.00     0.00  -0.00   0.00     0.00  -0.00   0.00
  83   6    -0.00  -0.00   0.00    -0.00  -0.00   0.00    -0.00  -0.00   0.00
  84   6     0.00   0.00  -0.00     0.00   0.00  -0.00    -0.00   0.00  -0.00
  85   6    -0.00   0.00  -0.00    -0.00   0.00  -0.00     0.00   0.00  -0.00
  86   6    -0.00  -0.00   0.00    -0.00  -0.00   0.00     0.00  -0.00   0.00
  87   6     0.00  -0.00   0.00     0.00  -0.00   0.00    -0.00  -0.00   0.00
  88   6    -0.00  -0.00  -0.00     0.00  -0.00  -0.00     0.00  -0.00  -0.00
  89   6    -0.00  -0.00  -0.00    -0.00  -0.00  -0.00    -0.00  -0.00  -0.00
  90   6    -0.00   0.00   0.00    -0.00   0.00   0.00    -0.00  -0.00   0.00
  91  26     0.00  -0.00   0.00    -0.00  -0.00   0.00    -0.00  -0.00   0.00
  92   6    -0.00  -0.02   0.00     0.00   0.06  -0.01    -0.00  -0.02   0.00
  93   6    -0.03  -0.00   0.00     0.09   0.01  -0.00    -0.03  -0.00   0.00
  94   6    -0.00   0.00  -0.00     0.00  -0.00   0.00    -0.00   0.00  -0.00
  95   6    -0.00   0.00  -0.00     0.00   0.00  -0.00    -0.00   0.00  -0.00
  96   6    -0.00  -0.00   0.00     0.00   0.00  -0.00    -0.00  -0.00   0.00
  97   6    -0.06   0.01  -0.00     0.07  -0.01   0.00    -0.03   0.00  -0.00
  98   6    -0.00   0.04  -0.01     0.00  -0.05   0.01    -0.00   0.02  -0.00
  99   6     0.00   0.00  -0.00    -0.00  -0.00   0.00     0.00   0.00  -0.00
 100   7     0.00  -0.00   0.00    -0.00   0.00  -0.00     0.00  -0.00   0.00
 101   6    -0.00  -0.00   0.00     0.00  -0.00   0.00     0.00   0.00  -0.00
 102   6     0.00  -0.00   0.00    -0.00   0.00  -0.00    -0.00   0.00  -0.00
 103   6    -0.00  -0.07   0.01     0.00   0.05  -0.01     0.00   0.06  -0.01
 104   6    -0.11  -0.01   0.00     0.07   0.01  -0.00     0.10   0.01  -0.00
 105   6    -0.00   0.00  -0.00     0.00  -0.00   0.00     0.00  -0.00   0.00
 106   7     0.00   0.00  -0.00    -0.00  -0.00   0.00    -0.00  -0.00   0.00
 107   6    -0.00   0.00  -0.00     0.00   0.00  -0.00     0.00   0.00  -0.00
 108   6    -0.00  -0.00   0.00     0.00   0.00  -0.00     0.00   0.00  -0.00
 109   6    -0.13   0.02  -0.00     0.03  -0.00   0.00     0.07  -0.01   0.00
 110   6    -0.00   0.09  -0.01     0.00  -0.02   0.00     0.00  -0.05   0.01
 111   6     0.00   0.00  -0.00    -0.00  -0.00   0.00    -0.00  -0.00   0.00
 112   7     0.00  -0.00   0.00    -0.00   0.00  -0.00    -0.00   0.00  -0.00
 113   6    -0.00   0.00  -0.00     0.00   0.00  -0.00     0.00  -0.00   0.00
 114   6     0.00  -0.00   0.00    -0.00   0.00  -0.00     0.00  -0.00  -0.00
 115   7     0.00   0.00  -0.00    -0.00  -0.00   0.00     0.00   0.00  -0.00
 116   1     0.00   0.06  -0.01    -0.01  -0.19   0.02     0.00   0.06  -0.01
 117   1     0.11   0.02  -0.00    -0.30  -0.04   0.01     0.09   0.01  -0.00
 118   1     0.21  -0.03   0.00    -0.24   0.04  -0.00     0.11  -0.02   0.00
 119   1     0.01  -0.13   0.02    -0.01   0.15  -0.02     0.00  -0.08   0.01
 120   1    -0.00   0.00  -0.00     0.00   0.00  -0.00     0.00  -0.01   0.00
 121   1     0.01   0.23  -0.03    -0.01  -0.15   0.02    -0.01  -0.20   0.02
 122   1     0.36   0.05  -0.01    -0.24  -0.04   0.00    -0.32  -0.05   0.00
 123   1     0.43  -0.07   0.00    -0.10   0.02  -0.00    -0.24   0.04  -0.00
 124   1     0.02  -0.28   0.03    -0.00   0.06  -0.01    -0.01   0.16  -0.02
 125   1    -0.00  -0.00   0.00     0.00  -0.00   0.00     0.00   0.00  -0.00
 126  26     0.00  -0.00   0.00     0.00  -0.00   0.00     0.00  -0.00   0.00
 127   6    -0.00  -0.01   0.00    -0.00  -0.00   0.00    -0.00  -0.05   0.01
 128   6    -0.02  -0.00   0.00    -0.01  -0.00   0.00    -0.08  -0.01   0.00
 129   6    -0.00   0.00  -0.00    -0.00   0.00  -0.00    -0.00   0.00  -0.00
 130   6    -0.00   0.00  -0.00    -0.00   0.00  -0.00    -0.00   0.00  -0.00
 131   6    -0.00  -0.00   0.00    -0.00  -0.00   0.00    -0.00  -0.01   0.00
 132   6    -0.14   0.02  -0.00    -0.06   0.01  -0.00    -0.15   0.02  -0.00
 133   6    -0.00   0.09  -0.01    -0.00   0.04  -0.00    -0.00   0.10  -0.01
 134   6     0.00   0.00  -0.00     0.00   0.00  -0.00     0.00   0.00  -0.00
 135   7     0.00  -0.00   0.00     0.00  -0.00   0.00     0.00  -0.00   0.00
 136   6    -0.00   0.00  -0.00    -0.00   0.00  -0.00    -0.00   0.00  -0.00
 137   6     0.00  -0.00   0.00     0.00  -0.00   0.00    -0.00   0.00  -0.00
 138   6     0.00  -0.01   0.00    -0.00  -0.00   0.00     0.00   0.03  -0.00
 139   6    -0.01  -0.00   0.00    -0.01  -0.00   0.00     0.04   0.00  -0.00
 140   6    -0.00   0.00  -0.00    -0.00   0.00  -0.00     0.00  -0.00   0.00
 141   7     0.00  -0.00   0.00     0.00  -0.00  -0.00    -0.00  -0.00   0.00
 142   6    -0.00   0.00  -0.00    -0.00   0.00  -0.00     0.00   0.00  -0.00
 143   6    -0.00  -0.00   0.00    -0.00  -0.00   0.00     0.00   0.00  -0.00
 144   6    -0.05   0.01  -0.00    -0.02   0.00  -0.00     0.03  -0.00   0.00
 145   6    -0.00   0.03  -0.00    -0.00   0.02  -0.00     0.00  -0.02   0.00
 146   6     0.00   0.00  -0.00     0.00   0.00  -0.00    -0.00  -0.00   0.00
 147   7     0.00  -0.00   0.00     0.00  -0.00   0.00    -0.00   0.00  -0.00
 148   6    -0.00   0.00  -0.00    -0.00   0.00  -0.00    -0.00  -0.00   0.00
 149   6     0.00  -0.00   0.00     0.00  -0.00   0.00     0.00  -0.00   0.00
 150   7     0.00   0.00  -0.00     0.00   0.00  -0.00     0.00   0.00  -0.00
 151   1     0.00   0.03  -0.00     0.00   0.02  -0.00     0.01   0.17  -0.02
 152   1     0.05   0.01  -0.00     0.03   0.00  -0.00     0.27   0.04  -0.01
 153   1     0.45  -0.07   0.01     0.20  -0.03   0.01     0.51  -0.08   0.01
 154   1     0.02  -0.28   0.04     0.01  -0.12   0.02     0.02  -0.32   0.04
 155   1    -0.00  -0.00   0.00    -0.00  -0.00   0.00    -0.00  -0.01   0.00
 156   1     0.00   0.02  -0.00     0.00   0.01  -0.00    -0.01  -0.10   0.01
 157   1     0.04   0.01  -0.00     0.03   0.00  -0.00    -0.14  -0.02   0.00
 158   1     0.17  -0.03   0.00     0.08  -0.01   0.00    -0.11   0.02  -0.00
 159   1     0.01  -0.10   0.01     0.00  -0.05   0.01    -0.00   0.08  -0.01
 160   1    -0.00  -0.00   0.00    -0.00  -0.00   0.00    -0.00   0.01  -0.00
