      -----------------------------------------------------------      
     |                   =====================                   |     
     |                           x T B                           |     
     |                   =====================                   |     
     |                         S. Grimme                         |     
     |          Mulliken Center for Theoretical Chemistry        |     
     |                    University of Bonn                     |     
      -----------------------------------------------------------      

   * xtb version 6.4.1 (bd6e46d) compiled by 'conda@4901f00b25ba' on 2021-06-10

   xtb is free software: you can redistribute it and/or modify it under
   the terms of the GNU Lesser General Public License as published by
   the Free Software Foundation, either version 3 of the License, or
   (at your option) any later version.
   
   xtb is distributed in the hope that it will be useful,
   but WITHOUT ANY WARRANTY; without even the implied warranty of
   MERCHANTABILITY or FITNESS FOR A PARTICULAR PURPOSE.  See the
   GNU Lesser General Public License for more details.
   
   Cite this work as:
   * C. Bannwarth, E. Caldeweyher, S. Ehlert, A. Hansen, P. Pracht,
     J. Seibert, S. Spicher, S. Grimme, WIREs Comput. Mol. Sci., 2020, 11,
     e01493. DOI: 10.1002/wcms.1493
   
   for GFN2-xTB:
   * C. Bannwarth, S. Ehlert and S. Grimme., J. Chem. Theory Comput., 2019,
     15, 1652-1671. DOI: 10.1021/acs.jctc.8b01176
   for GFN1-xTB:
   * S. Grimme, C. Bannwarth, P. Shushkov, J. Chem. Theory Comput., 2017,
     13, 1989-2009. DOI: 10.1021/acs.jctc.7b00118
   for GFN0-xTB:
   * P. Pracht, E. Caldeweyher, S. Ehlert, S. Grimme, ChemRxiv, 2019, preprint.
     DOI: 10.26434/chemrxiv.8326202.v1
   for GFN-FF:
   * S. Spicher and S. Grimme, Angew. Chem. Int. Ed., 2020, 59, 15665-15673.
     DOI: 10.1002/anie.202004239
   
   for DFT-D4:
   * E. Caldeweyher, C. Bannwarth and S. Grimme, J. Chem. Phys., 2017,
     147, 034112. DOI: 10.1063/1.4993215
   * E. Caldeweyher, S. Ehlert, A. Hansen, H. Neugebauer, S. Spicher,
     C. Bannwarth and S. Grimme, J. Chem. Phys., 2019, 150, 154122.
     DOI: 10.1063/1.5090222
   * E. Caldeweyher, J.-M. Mewes, S. Ehlert and S. Grimme, Phys. Chem. Chem. Phys.
     2020, 22, 8499-8512. DOI: 10.1039/D0CP00502A
   
   for sTDA-xTB:
   * S. Grimme and C. Bannwarth, J. Chem. Phys., 2016, 145, 054103.
     DOI: 10.1063/1.4959605
   
   in the mass-spec context:
   * V. Asgeirsson, C. Bauer and S. Grimme, Chem. Sci., 2017, 8, 4879.
     DOI: 10.1039/c7sc00601b
   * J. Koopman and S. Grimme, ACS Omega 2019, 4, 12, 15120-15133.
     DOI: 10.1021/acsomega.9b02011
   
   for metadynamics refer to:
   * S. Grimme, J. Chem. Theory Comput., 2019, 155, 2847-2862
     DOI: 10.1021/acs.jctc.9b00143
   
   for SPH calculations refer to:
   * S. Spicher and S. Grimme, J. Chem. Theory Comput., 2021, 17, 1701-1714
     DOI: 10.1021/acs.jctc.0c01306
   
   with help from (in alphabetical order)
   P. Atkinson, C. Bannwarth, F. Bohle, G. Brandenburg, E. Caldeweyher
   M. Checinski, S. Dohm, S. Ehlert, S. Ehrlich, I. Gerasimov, J. Koopman
   C. Lavigne, S. Lehtola, F. März, M. Müller, F. Musil, H. Neugebauer
   J. Pisarek, C. Plett, P. Pracht, J. Seibert, P. Shushkov, S. Spicher
   M. Stahn, M. Steiner, T. Strunk, J. Stückrath, T. Rose, and J. Unsleber
   
 * started run on 2021/11/19 at 13:56:25.161     

           -------------------------------------------------
          |                Calculation Setup                |
           -------------------------------------------------

          program call               : /home/jeff/miniconda3/bin/xtb input_structure_1.xyz --gfn 2 --ohess normal --parallel 1 --etemp 300 --chrg 0 --uhf 0 -I det_control.in
          hostname                   : jelfscompute1
          coordinate file            : input_structure_1.xyz
          omp threads                :                     1
          number of atoms            :                   160
          number of electrons        :                   546
          charge                     :                     0
          spin                       :                   0.0
          first test random number   :      0.06830567234822

   ID    Z sym.   atoms
    1   26 Fe     1, 37, 91, 126
    2    6 C      2-9, 11-15, 17-21, 23, 24, 38-45, 47-51, 53-57, 59, 60,
                  73-90, 92-99, 101-105, 107-111, 113, 114, 127-134, 136-140,
                  142-146, 148, 149
    3    7 N      10, 16, 22, 25, 46, 52, 58, 61, 100, 106, 112, 115, 135,
                  141, 147, 150
    4    1 H      26-36, 62-72, 116-125, 151-160

molecular fragmentation (1/2 indicates fragments):
111111111111111111111111111111111111222222222222222222222222222222222222
222222222222222222222222222222222222222222222222222222222222222222222222
2222222222222222
# atoms in fragment 1/2:    36   124
 fragment masses (1/2) :      363.17     1303.70
CMA distance (Bohr)    :  61.010
constraining FC (au)   :  0.0500

           -------------------------------------------------
          |                 G F N 2 - x T B                 |
           -------------------------------------------------

        Reference                      10.1021/acs.jctc.8b01176
      * Hamiltonian:
        H0-scaling (s, p, d)           1.850000    2.230000    2.230000
        zeta-weighting                 0.500000
      * Dispersion:
        s8                             2.700000
        a1                             0.520000
        a2                             5.000000
        s9                             5.000000
      * Repulsion:
        kExp                           1.500000    1.000000
        rExp                           1.000000
      * Coulomb:
        alpha                          2.000000
        third order                    shell-resolved
        anisotropic                    true
        a3                             3.000000
        a5                             4.000000
        cn-shift                       1.200000
        cn-exp                         4.000000
        max-rad                        5.000000


          ...................................................
          :                      SETUP                      :
          :.................................................:
          :  # basis functions                 538          :
          :  # atomic orbitals                 534          :
          :  # shells                          282          :
          :  # electrons                       546          :
          :  max. iterations                   250          :
          :  Hamiltonian                  GFN2-xTB          :
          :  restarted?                      false          :
          :  GBSA solvation                  false          :
          :  PC potential                    false          :
          :  electronic temp.          300.0000000     K    :
          :  accuracy                    1.0000000          :
          :  -> integral cutoff          0.2500000E+02      :
          :  -> integral neglect         0.1000000E-07      :
          :  -> SCF convergence          0.1000000E-05 Eh   :
          :  -> wf. convergence          0.1000000E-03 e    :
          :  Broyden damping             0.4000000          :
          ...................................................

 iter      E             dE          RMSdq      gap      omega  full diag
   1   -291.0379072 -0.291038E+03  0.873E+00    0.07       0.0  T
   2   -271.9067085  0.191312E+02  0.117E+01    0.17       1.0  T
   3   -270.2877166  0.161899E+01  0.882E+00    0.00       1.0  T
   4   -272.4579546 -0.217024E+01  0.761E+00    0.04       1.0  T
   5   -224.6411355  0.478168E+02  0.863E+00    0.04       1.0  T
   6   -263.7712748 -0.391301E+02  0.900E+00    0.10       1.0  T
   7   -246.7009317  0.170703E+02  0.779E+00    0.02       1.0  T
   8   -266.9799515 -0.202790E+02  0.738E+00    0.11       1.0  T
   9   -271.9614459 -0.498149E+01  0.743E+00    0.16       1.0  T
  10   -290.2656991 -0.183043E+02  0.478E+00    0.03       1.0  T
  11   -290.4666942 -0.200995E+00  0.456E+00    0.03       1.0  T
  12   -288.5100754  0.195662E+01  0.473E+00    0.01       1.0  T
  13   -280.4292366  0.808084E+01  0.643E+00    0.10       1.0  T
  14   -274.3274717  0.610176E+01  0.660E+00    0.10       1.0  T
  15   -285.1134390 -0.107860E+02  0.521E+00    0.05       1.0  T
  16   -289.5048068 -0.439137E+01  0.446E+00    0.01       1.0  T
  17   -286.4909128  0.301389E+01  0.494E+00    0.02       1.0  T
  18   -290.8073556 -0.431644E+01  0.521E+00    0.04       1.0  T
  19   -289.5330003  0.127436E+01  0.476E+00    0.01       1.0  T
  20   -284.9825427  0.455046E+01  0.636E+00    0.04       1.0  T
  21   -276.4892328  0.849331E+01  0.703E+00    0.08       1.0  T
  22   -276.9581660 -0.468933E+00  0.689E+00    0.01       1.0  T
  23   -278.0520012 -0.109384E+01  0.687E+00    0.11       1.0  T
  24   -283.1384606 -0.508646E+01  0.633E+00    0.07       1.0  T
  25   -283.2020026 -0.635421E-01  0.657E+00    0.06       1.0  T
  26   -287.1252071 -0.392320E+01  0.610E+00    0.08       1.0  T
  27   -286.6557691  0.469438E+00  0.631E+00    0.09       1.0  T
  28   -286.2041909  0.451578E+00  0.628E+00    0.06       1.0  T
  29   -285.6349233  0.569268E+00  0.654E+00    0.05       1.0  T
  30   -286.0392270 -0.404304E+00  0.721E+00    0.05       1.0  T
  31   -286.8684304 -0.829203E+00  0.716E+00    0.00       1.0  T
  32   -286.9806554 -0.112225E+00  0.718E+00    0.02       1.0  T
  33   -286.3483643  0.632291E+00  0.718E+00    0.03       1.0  T
  34   -285.2982876  0.105008E+01  0.738E+00    0.04       1.0  T
  35   -286.4884390 -0.119015E+01  0.712E+00    0.00       1.0  T
  36   -285.8810631  0.607376E+00  0.720E+00    0.04       1.0  T
  37   -290.6367350 -0.475567E+01  0.687E+00    0.02       1.0  T
  38   -290.5014099  0.135325E+00  0.690E+00    0.05       1.0  T
  39   -290.3894083  0.112002E+00  0.690E+00    0.04       1.0  T
  40   -291.9935182 -0.160411E+01  0.623E+00    0.00       1.0  T
  41   -288.5096246  0.348389E+01  0.720E+00    0.06       1.0  T
  42   -288.4295267  0.800980E-01  0.705E+00    0.04       1.0  T
  43   -288.3856012  0.439255E-01  0.690E+00    0.01       1.0  T
  44   -289.6571574 -0.127156E+01  0.637E+00    0.00       1.0  T
  45   -289.8073621 -0.150205E+00  0.634E+00    0.04       1.0  T
  46   -289.8059500  0.141208E-02  0.634E+00    0.04       1.0  T
  47   -290.0606211 -0.254671E+00  0.628E+00    0.05       1.0  T
  48   -289.0826528  0.977968E+00  0.655E+00    0.02       1.0  T
  49   -289.0816122  0.104060E-02  0.655E+00    0.02       1.0  T
  50   -289.8768657 -0.795253E+00  0.637E+00    0.02       1.0  T
  51   -290.8356779 -0.958812E+00  0.680E+00    0.03       1.0  T
  52   -291.5325215 -0.696844E+00  0.653E+00    0.00       1.0  T
  53   -291.5787532 -0.462317E-01  0.674E+00    0.02       1.0  T
  54   -290.5924185  0.986335E+00  0.755E+00    0.04       1.0  T
  55   -290.6581412 -0.657227E-01  0.760E+00    0.01       1.0  T
  56   -291.0775333 -0.419392E+00  0.794E+00    0.01       1.0  T
  57   -291.4374228 -0.359890E+00  0.830E+00    0.00       1.0  T
  58   -291.2570620  0.180361E+00  0.821E+00    0.02       1.0  T
  59   -290.2721632  0.984899E+00  0.838E+00    0.01       1.0  T
  60   -290.1089184  0.163245E+00  0.840E+00    0.02       1.0  T
  61   -289.9159218  0.192997E+00  0.855E+00    0.00       1.0  T
  62   -289.4739528  0.441969E+00  0.835E+00    0.04       1.0  T
  63   -291.8554275 -0.238147E+01  0.692E+00    0.01       1.0  T
  64   -292.4386378 -0.583210E+00  0.694E+00    0.04       1.0  T
  65   -292.4452251 -0.658726E-02  0.687E+00    0.03       1.0  T
  66   -293.9138602 -0.146864E+01  0.642E+00    0.04       1.0  T
  67   -293.7129660  0.200894E+00  0.567E+00    0.06       1.0  T
  68   -293.7800058 -0.670398E-01  0.561E+00    0.05       1.0  T
  69   -293.4987734  0.281232E+00  0.511E+00    0.01       1.0  T
  70   -293.4766403  0.221331E-01  0.504E+00    0.01       1.0  T
  71   -292.3542297  0.112241E+01  0.420E+00    0.03       1.0  T
  72   -293.1135427 -0.759313E+00  0.503E+00    0.04       1.0  T
  73   -291.4107104  0.170283E+01  0.467E+00    0.05       1.0  T
  74   -292.4771717 -0.106646E+01  0.319E+00    0.01       1.0  T
  75   -291.8911559  0.586016E+00  0.481E+00    0.01       1.0  T
  76   -289.3025158  0.258864E+01  0.485E+00    0.00       1.0  T
  77   -289.7546843 -0.452168E+00  0.542E+00    0.02       1.0  T
  78   -290.4748045 -0.720120E+00  0.472E+00    0.01       1.0  T
  79   -291.2330079 -0.758203E+00  0.497E+00    0.00       1.0  T
  80   -292.3306369 -0.109763E+01  0.443E+00    0.03       1.0  T
  81   -293.0319637 -0.701327E+00  0.346E+00    0.03       1.0  T
  82   -292.9355365  0.964271E-01  0.363E+00    0.01       1.0  T
  83   -293.5080811 -0.572545E+00  0.331E+00    0.04       1.0  T
  84   -292.7839663  0.724115E+00  0.381E+00    0.01       1.0  T
  85   -291.9246814  0.859285E+00  0.393E+00    0.02       1.0  T
  86   -292.5021325 -0.577451E+00  0.383E+00    0.01       1.0  T
  87   -292.9812088 -0.479076E+00  0.314E+00    0.02       1.0  T
  88   -293.0418815 -0.606728E-01  0.281E+00    0.01       1.0  T
  89   -292.8193812  0.222500E+00  0.293E+00    0.00       1.0  T
  90   -293.3338891 -0.514508E+00  0.254E+00    0.02       1.0  T
  91   -293.9819992 -0.648110E+00  0.234E+00    0.01       1.0  T
  92   -294.2625899 -0.280591E+00  0.233E+00    0.00       1.0  T
  93   -293.9474011  0.315189E+00  0.251E+00    0.00       1.0  T
  94   -294.1182919 -0.170891E+00  0.233E+00    0.00       1.0  T
  95   -294.1101867  0.810514E-02  0.219E+00    0.01       1.0  T
  96   -294.3810738 -0.270887E+00  0.181E+00    0.01       1.0  T
  97   -294.3163764  0.646974E-01  0.178E+00    0.01       1.0  T
  98   -294.4435061 -0.127130E+00  0.146E+00    0.01       1.0  T
  99   -294.7048621 -0.261356E+00  0.920E-01    0.01       1.0  T
 100   -294.5670566  0.137805E+00  0.115E+00    0.01       1.0  T
 101   -294.4842080  0.828487E-01  0.143E+00    0.00       1.0  T
 102   -294.4259826  0.582254E-01  0.176E+00    0.01       1.0  T
 103   -294.6302460 -0.204263E+00  0.158E+00    0.00       1.0  T
 104   -294.4836112  0.146635E+00  0.173E+00    0.00       1.0  T
 105   -294.6525557 -0.168944E+00  0.158E+00    0.01       1.0  T
 106   -294.7215772 -0.690215E-01  0.146E+00    0.01       1.0  T
 107   -294.7491580 -0.275809E-01  0.130E+00    0.00       1.0  T
 108   -294.7675297 -0.183717E-01  0.109E+00    0.01       1.0  T
 109   -294.7736359 -0.610617E-02  0.102E+00    0.01       1.0  T
 110   -294.7361163  0.375196E-01  0.114E+00    0.01       1.0  T
 111   -294.7974103 -0.612940E-01  0.803E-01    0.00       1.0  T
 112   -294.7494749  0.479354E-01  0.100E+00    0.01       1.0  T
 113   -294.8014734 -0.519985E-01  0.597E-01    0.00       1.0  T
 114   -294.7593240  0.421494E-01  0.700E-01    0.01       1.0  T
 115   -294.6874664  0.718575E-01  0.896E-01    0.00       1.0  T
 116   -294.6702076  0.172588E-01  0.917E-01    0.00       1.0  T
 117   -294.7181941 -0.479865E-01  0.752E-01    0.00       1.0  T
 118   -294.7167065  0.148758E-02  0.724E-01    0.01       1.0  T
 119   -294.7273889 -0.106825E-01  0.638E-01    0.01       1.0  T
 120   -294.7457528 -0.183639E-01  0.521E-01    0.00       1.0  T
 121   -294.7479466 -0.219379E-02  0.487E-01    0.00       1.0  T
 122   -294.7965589 -0.486123E-01  0.209E-01    0.00       1.0  T
 123   -294.8051031 -0.854428E-02  0.132E-01    0.00       1.0  T
 124   -294.8029786  0.212456E-02  0.153E-01    0.00       1.0  T
 125   -294.8056460 -0.266747E-02  0.131E-01    0.00       1.0  T
 126   -294.8045387  0.110732E-02  0.109E-01    0.00       1.0  T
 127   -294.8055804 -0.104169E-02  0.748E-02    0.00       1.0  T
 128   -294.8054425  0.137958E-03  0.768E-02    0.00       1.0  T
 129   -294.8052179  0.224573E-03  0.762E-02    0.00       1.0  T
 130   -294.8056640 -0.446106E-03  0.669E-02    0.00       1.0  T
 131   -294.8062034 -0.539414E-03  0.384E-02    0.00       1.0  T
 132   -294.8061376  0.657924E-04  0.450E-02    0.00       1.0  T
 133   -294.8061328  0.481012E-05  0.408E-02    0.00       1.0  T
 134   -294.8060744  0.584462E-04  0.450E-02    0.00       1.0  T
 135   -294.8060929 -0.185154E-04  0.414E-02    0.00       1.0  T
 136   -294.8063078 -0.214883E-03  0.191E-02    0.00       1.0  T
 137   -294.8063232 -0.154377E-04  0.171E-02    0.00       1.0  T
 138   -294.8063300 -0.675674E-05  0.150E-02    0.00       1.0  T
 139   -294.8063403 -0.103779E-04  0.129E-02    0.00       1.0  T
 140   -294.8063352  0.515164E-05  0.137E-02    0.00       1.0  T
 141   -294.8063045  0.306516E-04  0.176E-02    0.00       1.0  T
 142   -294.8063425 -0.379735E-04  0.105E-02    0.00       1.0  T
 143   -294.8063355  0.699166E-05  0.115E-02    0.00       1.0  T
 144   -294.8063613 -0.258162E-04  0.407E-03    0.00       1.9  T
 145   -294.8063638 -0.242349E-05  0.214E-03    0.00       3.7  T
 146   -294.8063633  0.443603E-06  0.218E-03    0.00       3.6  T
 147   -294.8063633  0.332880E-07  0.181E-03    0.00       4.4  T
 148   -294.8063636 -0.317066E-06  0.151E-03    0.00       5.2  T
 149   -294.8063638 -0.250007E-06  0.111E-03    0.00       7.1  T
 150   -294.8063638  0.910100E-07  0.116E-03    0.00       6.8  T
 151   -294.8063636  0.195086E-06  0.142E-03    0.00       5.6  T
 152   -294.8063638 -0.254913E-06  0.757E-04    0.00      10.4  T
 153   -294.8063638  0.157755E-07  0.688E-04    0.00      11.5  T

   *** convergence criteria satisfied after 153 iterations ***

         #    Occupation            Energy/Eh            Energy/eV
      -------------------------------------------------------------
         1        2.0000           -0.6821101             -18.5612
       ...           ...                  ...                  ...
       267        1.9056           -0.3398802              -9.2486
       268        1.8807           -0.3396454              -9.2422
       269        1.8801           -0.3396404              -9.2421
       270        1.4633           -0.3379784              -9.1969
       271        1.4604           -0.3379713              -9.1967
       272        1.1240           -0.3372623              -9.1774
       273        1.0024           -0.3370300              -9.1711 (HOMO)
       274        0.9554           -0.3369407              -9.1686 (LUMO)
       275        0.9511           -0.3369325              -9.1684
       276        0.9047           -0.3368438              -9.1660
       277        0.6812           -0.3363979              -9.1539
       278        0.0002           -0.3283891              -8.9359
       ...           ...                  ...                  ...
       534                          2.2703267              61.7787
      -------------------------------------------------------------
                  HL-Gap            0.0000894 Eh            0.0024 eV
             Fermi-level           -0.3370255 Eh           -9.1709 eV

 SCC (total)                   0 d,  0 h,  0 min, 10.824 sec
 SCC setup                      ...        0 min,  0.005 sec (  0.044%)
 Dispersion                     ...        0 min,  0.010 sec (  0.096%)
 classical contributions        ...        0 min,  0.001 sec (  0.010%)
 integral evaluation            ...        0 min,  0.087 sec (  0.805%)
 iterations                     ...        0 min, 10.482 sec ( 96.839%)
 molecular gradient             ...        0 min,  0.231 sec (  2.130%)
 printout                       ...        0 min,  0.008 sec (  0.077%)

         :::::::::::::::::::::::::::::::::::::::::::::::::::::
         ::                     SUMMARY                     ::
         :::::::::::::::::::::::::::::::::::::::::::::::::::::
         :: total energy            -288.851014977158 Eh    ::
         :: gradient norm              1.466323099794 Eh/a0 ::
         :: HOMO-LUMO gap              0.002431492446 eV    ::
         ::.................................................::
         :: SCC energy              -294.806363794113 Eh    ::
         :: -> isotropic ES            0.014897825829 Eh    ::
         :: -> anisotropic ES          0.038692721617 Eh    ::
         :: -> anisotropic XC          0.203185830170 Eh    ::
         :: -> dispersion             -0.212986733320 Eh    ::
         :: repulsion energy           5.955241827371 Eh    ::
         :: add. restraining           0.000000000000 Eh    ::
         :: total charge               0.000000000001 e     ::
         :::::::::::::::::::::::::::::::::::::::::::::::::::::

      ----------------------------------------------------------- 
     |                   =====================                   |
     |                        A N C O P T                        |
     |                   =====================                   |
     |               Approximate Normal Coordinate               |
     |                Rational Function Optimizer                |
      ----------------------------------------------------------- 

          ...................................................
          :                      SETUP                      :
          :.................................................:
          :   optimization level            normal          :
          :   max. optcycles                   480          :
          :   ANC micro-cycles                  20          :
          :   degrees of freedom               474          :
          :.................................................:
          :   RF solver                   davidson          :
          :   write xtbopt.log                true          :
          :   linear?                        false          :
          :   energy convergence         0.5000000E-05 Eh   :
          :   grad. convergence          0.1000000E-02 Eh/α :
          :   maximium RF displ.         1.0000000          :
          :   Hlow (freq-cutoff)         0.1000000E-01      :
          :   Hmax (freq-cutoff)         5.0000000          :
          :   S6 in model hess.         20.0000000          :
          ...................................................

generating ANC from model Hessian ...
Using Lindh-Hessian (1995)
 Shifting diagonal of input Hessian by    1.0134276708835517E-002
 Lowest  eigenvalues of input Hessian
    0.010000    0.010034    0.010100    0.010101    0.010110    0.010112
    0.010114    0.010119    0.010124    0.010127    0.010129    0.000000
    0.000000    0.000000    0.000000    0.000000    0.000000    0.010144
 Highest eigenvalues
    2.682207    2.687821    3.325869    3.327672    3.495154    3.495768


........................................................................
.............................. CYCLE    1 ..............................
........................................................................
   1   -294.8063638 -0.294806E+03  0.579E-04    0.00       0.0  T
   2   -294.8051754  0.118847E-02  0.709E-02    0.00       1.0  T
   3   -294.8063540 -0.117859E-02  0.647E-03    0.00       1.2  T
   4   -294.8054097  0.944288E-03  0.606E-02    0.00       1.0  T
   5   -294.8063560 -0.946368E-03  0.581E-03    0.00       1.4  T
   6   -294.8060773  0.278732E-03  0.332E-02    0.00       1.0  T
   7   -294.8062543 -0.176967E-03  0.201E-02    0.00       1.0  T
   8   -294.8063363 -0.820716E-04  0.103E-02    0.00       1.0  T
   9   -294.8063243  0.120874E-04  0.125E-02    0.00       1.0  T
  10   -294.8063408 -0.165919E-04  0.940E-03    0.00       1.0  T
  11   -294.8063635 -0.226559E-04  0.132E-03    0.00       6.0  T
  12   -294.8063632  0.295768E-06  0.163E-03    0.00       4.8  T
  13   -294.8063634 -0.156038E-06  0.154E-03    0.00       5.1  T
  14   -294.8063638 -0.485629E-06  0.476E-04    0.00      16.6  T
  15   -294.8063639 -0.280546E-07  0.281E-04    0.00      28.1  T
     SCC iter.                  ...        0 min,  1.022 sec
     gradient                   ...        0 min,  0.229 sec
 * total energy  :  -288.8510151 Eh     change       -0.8083578E-07 Eh
   gradient norm :     1.4663237 Eh/α   predicted     0.0000000E+00 (-100.00%)
   displ. norm   :     0.5729796 α      lambda       -0.7594973E+00
   maximum displ.:     0.1476065 α      in ANC's #378, #379, #474, ...

........................................................................
.............................. CYCLE    2 ..............................
........................................................................
   1   -294.7838743 -0.294784E+03  0.647E-01    0.01       0.0  T
   2   -290.8173380  0.396654E+01  0.385E+00    0.06       1.0  T
   3   -291.7338136 -0.916476E+00  0.328E+00    0.05       1.0  T
   4   -287.9250971  0.380872E+01  0.580E+00    0.14       1.0  T
   5   -287.8464799  0.786173E-01  0.582E+00    0.16       1.0  T
   6   -292.8413153 -0.499484E+01  0.279E+00    0.06       1.0  T
   7   -294.0307804 -0.118947E+01  0.179E+00    0.02       1.0  T
   8   -288.0289999  0.600178E+01  0.547E+00    0.07       1.0  T
   9   -293.7068050 -0.567781E+01  0.215E+00    0.04       1.0  T
  10   -293.4185447  0.288260E+00  0.250E+00    0.07       1.0  T
  11   -293.0742091  0.344336E+00  0.272E+00    0.06       1.0  T
  12   -294.3803974 -0.130619E+01  0.129E+00    0.02       1.0  T
  13   -293.6529134  0.727484E+00  0.234E+00    0.00       1.0  T
  14   -293.5355081  0.117405E+00  0.240E+00    0.02       1.0  T
  15   -293.7068564 -0.171348E+00  0.230E+00    0.01       1.0  T
  16   -293.2190426  0.487814E+00  0.277E+00    0.00       1.0  T
  17   -293.6951268 -0.476084E+00  0.229E+00    0.00       1.0  T
  18   -294.4381500 -0.743023E+00  0.140E+00    0.02       1.0  T
  19   -294.6945941 -0.256444E+00  0.770E-01    0.01       1.0  T
  20   -294.4817911  0.212803E+00  0.121E+00    0.01       1.0  T
  21   -294.7459786 -0.264188E+00  0.674E-01    0.01       1.0  T
  22   -294.7835696 -0.375910E-01  0.515E-01    0.00       1.0  T
  23   -294.8006158 -0.170463E-01  0.400E-01    0.01       1.0  T
  24   -294.7821546  0.184613E-01  0.485E-01    0.00       1.0  T
  25   -294.6608691  0.121285E+00  0.820E-01    0.00       1.0  T
  26   -294.7796685 -0.118799E+00  0.478E-01    0.00       1.0  T
  27   -294.8156889 -0.360205E-01  0.300E-01    0.00       1.0  T
  28   -294.8235139 -0.782494E-02  0.248E-01    0.00       1.0  T
  29   -294.8162033  0.731063E-02  0.305E-01    0.00       1.0  T
  30   -294.8221572 -0.595394E-02  0.269E-01    0.00       1.0  T
  31   -294.8330382 -0.108810E-01  0.175E-01    0.00       1.0  T
  32   -294.8299235  0.311463E-02  0.211E-01    0.00       1.0  T
  33   -294.8369399 -0.701641E-02  0.110E-01    0.00       1.0  T
  34   -294.8364971  0.442858E-03  0.116E-01    0.00       1.0  T
  35   -294.8389168 -0.241976E-02  0.418E-02    0.00       1.0  T
  36   -294.8373536  0.156322E-02  0.857E-02    0.00       1.0  T
  37   -294.8369412  0.412398E-03  0.978E-02    0.00       1.0  T
  38   -294.8388158 -0.187457E-02  0.387E-02    0.00       1.0  T
  39   -294.8390285 -0.212717E-03  0.224E-02    0.00       1.0  T
  40   -294.8390562 -0.276407E-04  0.212E-02    0.00       1.0  T
  41   -294.8391417 -0.855699E-04  0.751E-03    0.00       1.1  T
  42   -294.8390697  0.720673E-04  0.186E-02    0.00       1.0  T
  43   -294.8391100 -0.403035E-04  0.126E-02    0.00       1.0  T
  44   -294.8390776  0.323092E-04  0.172E-02    0.00       1.0  T
  45   -294.8391323 -0.546830E-04  0.729E-03    0.00       1.1  T
  46   -294.8391406 -0.831805E-05  0.405E-03    0.00       2.0  T
  47   -294.8391410 -0.381081E-06  0.337E-03    0.00       2.3  T
  48   -294.8391426 -0.157220E-05  0.165E-03    0.00       4.8  T
  49   -294.8391432 -0.638776E-06  0.628E-04    0.00      12.6  T
  50   -294.8391431  0.123643E-06  0.789E-04    0.00      10.0  T
     SCC iter.                  ...        0 min,  3.390 sec
     gradient                   ...        0 min,  0.229 sec
 * total energy  :  -289.3553600 Eh     change       -0.5043449E+00 Eh
   gradient norm :     0.5622937 Eh/α   predicted    -0.5044304E+00 (   0.02%)
   displ. norm   :     0.5776564 α      lambda       -0.2602446E+00
   maximum displ.:     0.1680958 α      in ANC's #166, #163, #164, ...

........................................................................
.............................. CYCLE    3 ..............................
........................................................................
   1   -294.8194519 -0.294819E+03  0.106E+00    0.02       0.0  T
   2   -286.3720649  0.844739E+01  0.480E+00    0.00       1.0  T
   3   -293.2427784 -0.687071E+01  0.409E+00    0.05       1.0  T
   4   -286.8906098  0.635217E+01  0.544E+00    0.01       1.0  T
   5   -291.0515561 -0.416095E+01  0.410E+00    0.06       1.0  T
   6   -291.2294874 -0.177931E+00  0.396E+00    0.03       1.0  T
   7   -290.2150654  0.101442E+01  0.455E+00    0.03       1.0  T
   8   -291.1293200 -0.914255E+00  0.399E+00    0.06       1.0  T
   9   -292.6306290 -0.150131E+01  0.289E+00    0.03       1.0  T
  10   -287.6956133  0.493502E+01  0.589E+00    0.22       1.0  T
  11   -292.0977933 -0.440218E+01  0.356E+00    0.01       1.0  T
  12   -292.4451010 -0.347308E+00  0.335E+00    0.02       1.0  T
  13   -292.7861742 -0.341073E+00  0.309E+00    0.05       1.0  T
  14   -292.7649276  0.212466E-01  0.310E+00    0.05       1.0  T
  15   -292.9944375 -0.229510E+00  0.292E+00    0.08       1.0  T
  16   -294.6852576 -0.169082E+01  0.133E+00    0.00       1.0  T
  17   -291.3992126  0.328605E+01  0.381E+00    0.03       1.0  T
  18   -292.7694051 -0.137019E+01  0.305E+00    0.03       1.0  T
  19   -293.2485720 -0.479167E+00  0.270E+00    0.05       1.0  T
  20   -292.8324898  0.416082E+00  0.304E+00    0.00       1.0  T
  21   -293.0190005 -0.186511E+00  0.292E+00    0.01       1.0  T
  22   -293.0925754 -0.735749E-01  0.287E+00    0.01       1.0  T
  23   -294.1932121 -0.110064E+01  0.182E+00    0.00       1.0  T
  24   -294.5534898 -0.360278E+00  0.129E+00    0.01       1.0  T
  25   -293.8706045  0.682885E+00  0.214E+00    0.04       1.0  T
  26   -294.3401647 -0.469560E+00  0.162E+00    0.02       1.0  T
  27   -294.3019430  0.382217E-01  0.165E+00    0.01       1.0  T
  28   -294.6706510 -0.368708E+00  0.102E+00    0.00       1.0  T
  29   -294.6283978  0.422532E-01  0.107E+00    0.01       1.0  T
  30   -294.8596187 -0.231221E+00  0.627E-01    0.01       1.0  T
  31   -294.8507641  0.885464E-02  0.587E-01    0.00       1.0  T
  32   -294.8060157  0.447484E-01  0.636E-01    0.01       1.0  T
  33   -294.8038007  0.221497E-02  0.624E-01    0.01       1.0  T
  34   -294.8433390 -0.395383E-01  0.557E-01    0.00       1.0  T
  35   -294.8320536  0.112855E-01  0.631E-01    0.01       1.0  T
  36   -294.8229714  0.908222E-02  0.488E-01    0.01       1.0  T
  37   -294.8306483 -0.767694E-02  0.454E-01    0.00       1.0  T
  38   -294.8392499 -0.860162E-02  0.409E-01    0.00       1.0  T
  39   -294.8287988  0.104511E-01  0.450E-01    0.00       1.0  T
  40   -294.8379186 -0.911980E-02  0.430E-01    0.01       1.0  T
  41   -294.8524592 -0.145406E-01  0.366E-01    0.01       1.0  T
  42   -294.8490245  0.343472E-02  0.359E-01    0.01       1.0  T
  43   -294.8515881 -0.256359E-02  0.326E-01    0.01       1.0  T
  44   -294.8581012 -0.651311E-02  0.256E-01    0.00       1.0  T
  45   -294.8493261  0.877514E-02  0.326E-01    0.01       1.0  T
  46   -294.8595642 -0.102381E-01  0.203E-01    0.01       1.0  T
  47   -294.8594680  0.962217E-04  0.195E-01    0.01       1.0  T
  48   -294.8638313 -0.436337E-02  0.121E-01    0.01       1.0  T
  49   -294.8657114 -0.188004E-02  0.703E-02    0.01       1.0  T
  50   -294.8663707 -0.659357E-03  0.342E-02    0.01       1.0  T
  51   -294.8664502 -0.794382E-04  0.344E-02    0.01       1.0  T
  52   -294.8664825 -0.322901E-04  0.241E-02    0.01       1.0  T
  53   -294.8665043 -0.217946E-04  0.236E-02    0.01       1.0  T
  54   -294.8665153 -0.110638E-04  0.227E-02    0.01       1.0  T
  55   -294.8665871 -0.717193E-04  0.138E-02    0.01       1.0  T
  56   -294.8666060 -0.189882E-04  0.992E-03    0.01       1.0  T
  57   -294.8666226 -0.166087E-04  0.497E-03    0.01       1.6  T
  58   -294.8666268 -0.415482E-05  0.281E-03    0.01       2.8  T
  59   -294.8666276 -0.773428E-06  0.187E-03    0.01       4.2  T
  60   -294.8666282 -0.600848E-06  0.903E-04    0.01       8.8  T
  61   -294.8666283 -0.108674E-06  0.525E-04    0.01      15.1  T
     SCC iter.                  ...        0 min,  4.143 sec
     gradient                   ...        0 min,  0.229 sec
 * total energy  :  -289.5514012 Eh     change       -0.1960413E+00 Eh
   gradient norm :     0.2624006 Eh/α   predicted    -0.1735425E+00 ( -11.48%)
   displ. norm   :     0.6731181 α      lambda       -0.1353655E+00
   maximum displ.:     0.2394716 α      in ANC's #166, #163, #164, ...

........................................................................
.............................. CYCLE    4 ..............................
........................................................................
   1   -294.8605912 -0.294861E+03  0.173E+00    0.04       0.0  T
   2   -284.0222829  0.108383E+02  0.561E+00    0.21       1.0  T
   3   -292.3478905 -0.832561E+01  0.438E+00    0.02       1.0  T
   4   -291.9998198  0.348071E+00  0.353E+00    0.04       1.0  T
   5   -290.8734582  0.112636E+01  0.409E+00    0.06       1.0  T
   6   -290.7872405  0.862177E-01  0.462E+00    0.04       1.0  T
   7   -294.5156539 -0.372841E+01  0.160E+00    0.02       1.0  T
   8   -293.9302297  0.585424E+00  0.213E+00    0.01       1.0  T
   9   -289.5568411  0.437339E+01  0.509E+00    0.06       1.0  T
  10   -293.3809970 -0.382416E+01  0.271E+00    0.03       1.0  T
  11   -294.5158868 -0.113489E+01  0.134E+00    0.00       1.0  T
  12   -293.2243905  0.129150E+01  0.292E+00    0.04       1.0  T
  13   -294.2097633 -0.985373E+00  0.195E+00    0.01       1.0  T
  14   -293.5434696  0.666294E+00  0.258E+00    0.03       1.0  T
  15   -293.9444144 -0.400945E+00  0.213E+00    0.03       1.0  T
  16   -293.0880949  0.856319E+00  0.279E+00    0.02       1.0  T
  17   -294.4656998 -0.137760E+01  0.178E+00    0.00       1.0  T
  18   -294.3544599  0.111240E+00  0.178E+00    0.01       1.0  T
  19   -294.6540311 -0.299571E+00  0.139E+00    0.01       1.0  T
  20   -294.6497552  0.427595E-02  0.122E+00    0.01       1.0  T
  21   -294.8427938 -0.193039E+00  0.651E-01    0.01       1.0  T
  22   -294.2255143  0.617279E+00  0.179E+00    0.02       1.0  T
  23   -294.4667928 -0.241279E+00  0.140E+00    0.02       1.0  T
  24   -294.7753657 -0.308573E+00  0.825E-01    0.01       1.0  T
  25   -294.7308497  0.445161E-01  0.882E-01    0.00       1.0  T
  26   -294.8765855 -0.145736E+00  0.561E-01    0.00       1.0  T
  27   -294.8660110  0.105745E-01  0.553E-01    0.00       1.0  T
  28   -294.9129001 -0.468891E-01  0.339E-01    0.01       1.0  T
  29   -294.9089684  0.393171E-02  0.407E-01    0.01       1.0  T
  30   -294.9229437 -0.139753E-01  0.278E-01    0.02       1.0  T
  31   -294.9182917  0.465197E-02  0.265E-01    0.02       1.0  T
  32   -294.9296596 -0.113679E-01  0.164E-01    0.02       1.0  T
  33   -294.9294241  0.235529E-03  0.171E-01    0.01       1.0  T
  34   -294.9332011 -0.377696E-02  0.115E-01    0.02       1.0  T
  35   -294.9352756 -0.207448E-02  0.600E-02    0.02       1.0  T
  36   -294.9347675  0.508050E-03  0.745E-02    0.02       1.0  T
  37   -294.9350754 -0.307863E-03  0.657E-02    0.02       1.0  T
  38   -294.9350981 -0.226969E-04  0.656E-02    0.02       1.0  T
  39   -294.9356529 -0.554787E-03  0.399E-02    0.02       1.0  T
  40   -294.9357295 -0.766351E-04  0.380E-02    0.02       1.0  T
  41   -294.9359940 -0.264488E-03  0.140E-02    0.02       1.0  T
  42   -294.9359959 -0.188237E-05  0.128E-02    0.02       1.0  T
  43   -294.9360165 -0.206391E-04  0.867E-03    0.02       1.0  T
  44   -294.9360262 -0.974606E-05  0.376E-03    0.02       2.1  T
  45   -294.9360285 -0.220676E-05  0.194E-03    0.02       4.1  T
  46   -294.9360287 -0.260358E-06  0.164E-03    0.02       4.8  T
  47   -294.9360289 -0.177722E-06  0.149E-03    0.02       5.3  T
  48   -294.9360291 -0.176899E-06  0.927E-04    0.02       8.5  T
  49   -294.9360291  0.149033E-07  0.808E-04    0.02       9.8  T
     SCC iter.                  ...        0 min,  3.333 sec
     gradient                   ...        0 min,  0.231 sec
 * total energy  :  -289.6553569 Eh     change       -0.1039557E+00 Eh
   gradient norm :     0.1182217 Eh/α   predicted    -0.9834912E-01 (  -5.39%)
   displ. norm   :     0.7568587 α      lambda       -0.8017351E-01
   maximum displ.:     0.2682301 α      in ANC's #166, #163, #89, ...

........................................................................
.............................. CYCLE    5 ..............................
........................................................................
   1   -294.8837133 -0.294884E+03  0.200E+00    0.07       0.0  T
   2   -283.8119112  0.110718E+02  0.615E+00    0.43       1.0  T
   3   -281.9355070  0.187640E+01  0.754E+00    0.11       1.0  T
   4   -282.5024653 -0.566958E+00  0.778E+00    0.34       1.0  T
   5   -294.3790184 -0.118766E+02  0.262E+00    0.02       1.0  T
   6   -291.1982413  0.318078E+01  0.426E+00    0.09       1.0  T
   7   -292.1791828 -0.980942E+00  0.357E+00    0.00       1.0  T
   8   -290.5814383  0.159774E+01  0.467E+00    0.05       1.0  T
   9   -294.7774109 -0.419597E+01  0.101E+00    0.03       1.0  T
  10   -288.2573909  0.652002E+01  0.589E+00    0.17       1.0  T
  11   -293.5852519 -0.532786E+01  0.277E+00    0.03       1.0  T
  12   -293.3239073  0.261345E+00  0.303E+00    0.07       1.0  T
  13   -293.3336078 -0.970051E-02  0.304E+00    0.08       1.0  T
  14   -293.3526199 -0.190120E-01  0.301E+00    0.08       1.0  T
  15   -293.9260636 -0.573444E+00  0.235E+00    0.03       1.0  T
  16   -294.0981116 -0.172048E+00  0.196E+00    0.00       1.0  T
  17   -292.0456100  0.205250E+01  0.367E+00    0.04       1.0  T
  18   -292.4425453 -0.396935E+00  0.356E+00    0.00       1.0  T
  19   -292.3988895  0.436558E-01  0.345E+00    0.04       1.0  T
  20   -292.6104342 -0.211545E+00  0.341E+00    0.03       1.0  T
  21   -294.6516586 -0.204122E+01  0.182E+00    0.03       1.0  T
  22   -293.5699895  0.108167E+01  0.285E+00    0.07       1.0  T
  23   -294.0746901 -0.504701E+00  0.226E+00    0.00       1.0  T
  24   -294.5375447 -0.462855E+00  0.153E+00    0.00       1.0  T
  25   -294.6900675 -0.152523E+00  0.119E+00    0.00       1.0  T
  26   -294.8521393 -0.162072E+00  0.827E-01    0.00       1.0  T
  27   -294.6865839  0.165555E+00  0.126E+00    0.01       1.0  T
  28   -294.7624143 -0.758304E-01  0.105E+00    0.02       1.0  T
  29   -294.8033797 -0.409654E-01  0.103E+00    0.01       1.0  T
  30   -294.6885292  0.114851E+00  0.133E+00    0.02       1.0  T
  31   -294.8887109 -0.200182E+00  0.979E-01    0.01       1.0  T
  32   -294.9694258 -0.807150E-01  0.414E-01    0.02       1.0  T
  33   -294.9560863  0.133395E-01  0.456E-01    0.01       1.0  T
  34   -294.9611508 -0.506452E-02  0.401E-01    0.02       1.0  T
  35   -294.9795417 -0.183908E-01  0.275E-01    0.02       1.0  T
  36   -294.9800783 -0.536678E-03  0.217E-01    0.04       1.0  T
  37   -294.9848438 -0.476543E-02  0.168E-01    0.03       1.0  T
  38   -294.9875307 -0.268695E-02  0.125E-01    0.03       1.0  T
  39   -294.9858084  0.172235E-02  0.169E-01    0.03       1.0  T
  40   -294.9857084  0.999328E-04  0.174E-01    0.03       1.0  T
  41   -294.9864031 -0.694643E-03  0.954E-02    0.03       1.0  T
  42   -294.9860972  0.305895E-03  0.962E-02    0.03       1.0  T
  43   -294.9871412 -0.104402E-02  0.535E-02    0.03       1.0  T
  44   -294.9855214  0.161983E-02  0.118E-01    0.03       1.0  T
  45   -294.9860502 -0.528804E-03  0.987E-02    0.03       1.0  T
  46   -294.9875784 -0.152819E-02  0.260E-02    0.03       1.0  T
  47   -294.9875568  0.216015E-04  0.360E-02    0.03       1.0  T
  48   -294.9877374 -0.180606E-03  0.148E-02    0.03       1.0  T
  49   -294.9877458 -0.840857E-05  0.126E-02    0.03       1.0  T
  50   -294.9877405  0.528737E-05  0.119E-02    0.03       1.0  T
  51   -294.9877418 -0.127361E-05  0.973E-03    0.03       1.0  T
  52   -294.9877505 -0.872364E-05  0.382E-03    0.03       2.1  T
  53   -294.9877504  0.497623E-07  0.348E-03    0.03       2.3  T
  54   -294.9877509 -0.501534E-06  0.267E-03    0.03       3.0  T
  55   -294.9877507  0.207340E-06  0.267E-03    0.03       3.0  T
  56   -294.9877516 -0.870211E-06  0.111E-03    0.03       7.2  T
  57   -294.9877517 -0.950449E-07  0.585E-04    0.03      13.5  T
  58   -294.9877517 -0.233688E-07  0.448E-04    0.03      17.6  T
     SCC iter.                  ...        0 min,  3.942 sec
     gradient                   ...        0 min,  0.230 sec
 * total energy  :  -289.7233108 Eh     change       -0.6795391E-01 Eh
   gradient norm :     0.0922310 Eh/α   predicted    -0.6304987E-01 (  -7.22%)
   displ. norm   :     0.8215781 α      lambda       -0.6389046E-01
   maximum displ.:     0.2750358 α      in ANC's #166, #89, #163, ...

........................................................................
.............................. CYCLE    6 ..............................
........................................................................
   1   -294.8910544 -0.294891E+03  0.190E+00    0.10       0.0  T
   2   -283.8562315  0.110348E+02  0.655E+00    0.28       1.0  T
   3   -282.5886722  0.126756E+01  0.747E+00    0.09       1.0  T
   4   -289.8595823 -0.727091E+01  0.536E+00    0.08       1.0  T
   5   -292.5390873 -0.267950E+01  0.382E+00    0.13       1.0  T
   6   -294.1384910 -0.159940E+01  0.244E+00    0.01       1.0  T
   7   -293.5105042  0.627987E+00  0.314E+00    0.07       1.0  T
   8   -290.8697936  0.264071E+01  0.459E+00    0.01       1.0  T
   9   -293.5863682 -0.271657E+01  0.286E+00    0.02       1.0  T
  10   -293.4899531  0.964151E-01  0.299E+00    0.04       1.0  T
  11   -294.1296511 -0.639698E+00  0.226E+00    0.00       1.0  T
  12   -293.7336856  0.395966E+00  0.264E+00    0.01       1.0  T
  13   -293.2813786  0.452307E+00  0.239E+00    0.00       1.0  T
  14   -294.6466843 -0.136531E+01  0.158E+00    0.03       1.0  T
  15   -292.6919218  0.195476E+01  0.304E+00    0.04       1.0  T
  16   -293.1246867 -0.432765E+00  0.314E+00    0.02       1.0  T
  17   -293.3113190 -0.186632E+00  0.299E+00    0.03       1.0  T
  18   -293.0809949  0.230324E+00  0.307E+00    0.02       1.0  T
  19   -293.9089908 -0.827996E+00  0.245E+00    0.03       1.0  T
  20   -294.3613038 -0.452313E+00  0.202E+00    0.02       1.0  T
  21   -294.5727285 -0.211425E+00  0.177E+00    0.03       1.0  T
  22   -294.5164156  0.563129E-01  0.180E+00    0.02       1.0  T
  23   -294.5721756 -0.557600E-01  0.171E+00    0.03       1.0  T
  24   -294.7547759 -0.182600E+00  0.145E+00    0.03       1.0  T
  25   -294.6782768  0.764991E-01  0.173E+00    0.02       1.0  T
  26   -294.6556962  0.225806E-01  0.169E+00    0.03       1.0  T
  27   -294.5593382  0.963580E-01  0.193E+00    0.02       1.0  T
  28   -294.8343928 -0.275055E+00  0.161E+00    0.03       1.0  T
  29   -294.8493144 -0.149216E-01  0.165E+00    0.04       1.0  T
  30   -294.3738075  0.475507E+00  0.272E+00    0.01       1.0  T
  31   -294.3923533 -0.185458E-01  0.223E+00    0.01       1.0  T
  32   -294.9989938 -0.606640E+00  0.630E-01    0.04       1.0  T
  33   -294.9427058  0.562880E-01  0.654E-01    0.02       1.0  T
  34   -294.9944758 -0.517701E-01  0.494E-01    0.04       1.0  T
  35   -294.9737832  0.206926E-01  0.484E-01    0.03       1.0  T
  36   -294.9946050 -0.208218E-01  0.427E-01    0.04       1.0  T
  37   -295.0063819 -0.117769E-01  0.433E-01    0.04       1.0  T
  38   -294.9869836  0.193983E-01  0.497E-01    0.03       1.0  T
  39   -294.9826716  0.431194E-02  0.528E-01    0.03       1.0  T
  40   -295.0006517 -0.179801E-01  0.429E-01    0.04       1.0  T
  41   -295.0067765 -0.612481E-02  0.401E-01    0.04       1.0  T
  42   -295.0161831 -0.940658E-02  0.332E-01    0.04       1.0  T
  43   -295.0192226 -0.303950E-02  0.289E-01    0.04       1.0  T
  44   -295.0258589 -0.663624E-02  0.198E-01    0.05       1.0  T
  45   -295.0283937 -0.253479E-02  0.138E-01    0.05       1.0  T
  46   -295.0282832  0.110454E-03  0.956E-02    0.05       1.0  T
  47   -295.0288337 -0.550540E-03  0.907E-02    0.05       1.0  T
  48   -295.0288692 -0.354890E-04  0.583E-02    0.05       1.0  T
  49   -295.0289841 -0.114902E-03  0.492E-02    0.05       1.0  T
  50   -295.0289752  0.897059E-05  0.361E-02    0.05       1.0  T
  51   -295.0290796 -0.104462E-03  0.174E-02    0.05       1.0  T
  52   -295.0290885 -0.891254E-05  0.123E-02    0.05       1.0  T
  53   -295.0290894 -0.859496E-06  0.106E-02    0.05       1.0  T
  54   -295.0290887  0.722846E-06  0.814E-03    0.05       1.0  T
  55   -295.0290934 -0.471077E-05  0.693E-03    0.05       1.1  T
  56   -295.0290931  0.301596E-06  0.521E-03    0.05       1.5  T
  57   -295.0290927  0.335218E-06  0.401E-03    0.05       2.0  T
  58   -295.0290932 -0.426709E-06  0.314E-03    0.05       2.5  T
  59   -295.0290937 -0.489262E-06  0.284E-03    0.05       2.8  T
  60   -295.0290941 -0.444154E-06  0.195E-03    0.05       4.0  T
  61   -295.0290941  0.285670E-07  0.170E-03    0.05       4.7  T
  62   -295.0290940  0.282796E-07  0.112E-03    0.05       7.1  T
  63   -295.0290942 -0.202995E-06  0.962E-04    0.05       8.2  T
  64   -295.0290943 -0.547283E-08  0.829E-04    0.05       9.5  T
     SCC iter.                  ...        0 min,  4.347 sec
     gradient                   ...        0 min,  0.230 sec
 * total energy  :  -289.7794916 Eh     change       -0.5618074E-01 Eh
   gradient norm :     0.0823866 Eh/α   predicted    -0.5350797E-01 (  -4.76%)
   displ. norm   :     0.8452981 α      lambda       -0.5266400E-01
   maximum displ.:     0.3139456 α      in ANC's #89, #166, #88, ...

........................................................................
.............................. CYCLE    7 ..............................
........................................................................
   1   -294.9271938 -0.294927E+03  0.151E+00    0.13       0.0  T
   2   -285.5014911  0.942570E+01  0.646E+00    0.04       1.0  T
   3   -285.3035129  0.197978E+00  0.667E+00    0.10       1.0  T
   4   -293.1921272 -0.788861E+01  0.337E+00    0.03       1.0  T
   5   -291.6661644  0.152596E+01  0.450E+00    0.08       1.0  T
   6   -293.9409825 -0.227482E+01  0.293E+00    0.03       1.0  T
   7   -290.7662076  0.317477E+01  0.509E+00    0.02       1.0  T
   8   -292.2138410 -0.144763E+01  0.439E+00    0.04       1.0  T
   9   -292.6051171 -0.391276E+00  0.421E+00    0.09       1.0  T
  10   -292.3271489  0.277968E+00  0.425E+00    0.06       1.0  T
  11   -292.9099322 -0.582783E+00  0.400E+00    0.10       1.0  T
  12   -293.6287542 -0.718822E+00  0.276E+00    0.00       1.0  T
  13   -294.1922416 -0.563487E+00  0.233E+00    0.02       1.0  T
  14   -293.8462416  0.346000E+00  0.256E+00    0.04       1.0  T
  15   -292.7844598  0.106178E+01  0.290E+00    0.02       1.0  T
  16   -291.9042247  0.880235E+00  0.303E+00    0.02       1.0  T
  17   -294.5067279 -0.260250E+01  0.176E+00    0.02       1.0  T
  18   -293.9757036  0.531024E+00  0.202E+00    0.01       1.0  T
  19   -294.6297377 -0.654034E+00  0.148E+00    0.03       1.0  T
  20   -294.4624545  0.167283E+00  0.220E+00    0.00       1.0  T
  21   -294.4556710  0.678356E-02  0.191E+00    0.02       1.0  T
  22   -294.8258982 -0.370227E+00  0.160E+00    0.01       1.0  T
  23   -294.9855949 -0.159697E+00  0.140E+00    0.10       1.0  T
  24   -294.9790772  0.651771E-02  0.101E+00    0.04       1.0  T
  25   -294.9871534 -0.807627E-02  0.103E+00    0.05       1.0  T
  26   -294.9867639  0.389533E-03  0.102E+00    0.05       1.0  T
  27   -294.8928204  0.939435E-01  0.132E+00    0.02       1.0  T
  28   -294.8704612  0.223593E-01  0.141E+00    0.01       1.0  T
  29   -294.7013870  0.169074E+00  0.165E+00    0.03       1.0  T
  30   -295.0296054 -0.328218E+00  0.984E-01    0.07       1.0  T
  31   -295.0104582  0.191472E-01  0.881E-01    0.04       1.0  T
  32   -294.9684582  0.420000E-01  0.856E-01    0.02       1.0  T
  33   -295.0059917 -0.375335E-01  0.819E-01    0.04       1.0  T
  34   -294.9794835  0.265082E-01  0.774E-01    0.03       1.0  T
  35   -295.0084025 -0.289190E-01  0.785E-01    0.04       1.0  T
  36   -295.0089486 -0.546103E-03  0.756E-01    0.04       1.0  T
  37   -295.0314712 -0.225226E-01  0.654E-01    0.05       1.0  T
  38   -295.0329701 -0.149890E-02  0.672E-01    0.05       1.0  T
  39   -295.0508694 -0.178993E-01  0.594E-01    0.06       1.0  T
  40   -295.0507816  0.877879E-04  0.561E-01    0.06       1.0  T
  41   -295.0529622 -0.218055E-02  0.486E-01    0.06       1.0  T
  42   -295.0497858  0.317644E-02  0.461E-01    0.06       1.0  T
  43   -295.0529533 -0.316756E-02  0.409E-01    0.06       1.0  T
  44   -295.0527170  0.236356E-03  0.369E-01    0.06       1.0  T
  45   -295.0581105 -0.539356E-02  0.300E-01    0.06       1.0  T
  46   -295.0572853  0.825239E-03  0.297E-01    0.06       1.0  T
  47   -295.0652029 -0.791763E-02  0.154E-01    0.07       1.0  T
  48   -295.0663003 -0.109742E-02  0.144E-01    0.07       1.0  T
  49   -295.0671151 -0.814754E-03  0.134E-01    0.07       1.0  T
  50   -295.0669381  0.176986E-03  0.141E-01    0.07       1.0  T
  51   -295.0670049 -0.668433E-04  0.132E-01    0.07       1.0  T
  52   -295.0674698 -0.464887E-03  0.124E-01    0.07       1.0  T
  53   -295.0675184 -0.485634E-04  0.122E-01    0.07       1.0  T
  54   -295.0673963  0.122095E-03  0.132E-01    0.07       1.0  T
  55   -295.0679478 -0.551523E-03  0.918E-02    0.07       1.0  T
  56   -295.0679731 -0.252477E-04  0.977E-02    0.07       1.0  T
  57   -295.0681564 -0.183306E-03  0.761E-02    0.07       1.0  T
  58   -295.0681922 -0.358268E-04  0.696E-02    0.07       1.0  T
  59   -295.0682869 -0.947443E-04  0.558E-02    0.07       1.0  T
  60   -295.0684352 -0.148254E-03  0.293E-02    0.07       1.0  T
  61   -295.0684661 -0.309296E-04  0.200E-02    0.07       1.0  T
  62   -295.0684699 -0.373868E-05  0.178E-02    0.07       1.0  T
  63   -295.0684779 -0.805864E-05  0.152E-02    0.07       1.0  T
  64   -295.0684737  0.419338E-05  0.115E-02    0.07       1.0  T
  65   -295.0684680  0.573456E-05  0.118E-02    0.07       1.0  T
  66   -295.0684804 -0.124221E-04  0.687E-03    0.07       1.2  T
  67   -295.0684805 -0.123797E-06  0.687E-03    0.07       1.2  T
  68   -295.0684860 -0.542404E-05  0.511E-03    0.07       1.5  T
  69   -295.0684874 -0.143102E-05  0.450E-03    0.07       1.8  T
  70   -295.0684880 -0.609191E-06  0.383E-03    0.07       2.1  T
  71   -295.0684886 -0.589626E-06  0.301E-03    0.07       2.6  T
  72   -295.0684889 -0.322646E-06  0.225E-03    0.07       3.5  T
  73   -295.0684892 -0.277952E-06  0.167E-03    0.07       4.7  T
  74   -295.0684894 -0.200803E-06  0.109E-03    0.07       7.3  T
  75   -295.0684895 -0.913524E-07  0.932E-04    0.07       8.5  T
  76   -295.0684895  0.308160E-08  0.120E-03    0.07       6.6  T
  77   -295.0684895 -0.283551E-07  0.916E-04    0.07       8.6  T
     SCC iter.                  ...        0 min,  5.241 sec
     gradient                   ...        0 min,  0.230 sec
 * total energy  :  -289.8256353 Eh     change       -0.4614371E-01 Eh
   gradient norm :     0.0660541 Eh/α   predicted    -0.4514699E-01 (  -2.16%)
   displ. norm   :     0.8348689 α      lambda       -0.4067735E-01
   maximum displ.:     0.3215339 α      in ANC's #89, #88, #87, ...

........................................................................
.............................. CYCLE    8 ..............................
........................................................................
   1   -295.0061538 -0.295006E+03  0.110E+00    0.14       0.0  T
   2   -289.8661143  0.514004E+01  0.518E+00    0.04       1.0  T
   3   -293.9302808 -0.406417E+01  0.334E+00    0.07       1.0  T
   4   -293.8752006  0.550802E-01  0.312E+00    0.04       1.0  T
   5   -292.0013539  0.187385E+01  0.424E+00    0.05       1.0  T
   6   -294.1230105 -0.212166E+01  0.302E+00    0.06       1.0  T
   7   -294.1521069 -0.290964E-01  0.286E+00    0.01       1.0  T
   8   -294.6114267 -0.459320E+00  0.216E+00    0.01       1.0  T
   9   -294.1378358  0.473591E+00  0.307E+00    0.08       1.0  T
  10   -294.5549488 -0.417113E+00  0.189E+00    0.02       1.0  T
  11   -294.1103917  0.444557E+00  0.254E+00    0.03       1.0  T
  12   -294.1724460 -0.620543E-01  0.252E+00    0.02       1.0  T
  13   -294.6831484 -0.510702E+00  0.154E+00    0.01       1.0  T
  14   -294.6908369 -0.768853E-02  0.164E+00    0.01       1.0  T
  15   -294.3046822  0.386155E+00  0.227E+00    0.06       1.0  T
  16   -294.5330523 -0.228370E+00  0.223E+00    0.02       1.0  T
  17   -295.0080872 -0.475035E+00  0.120E+00    0.11       1.0  T
  18   -294.9810958  0.269915E-01  0.136E+00    0.17       1.0  T
  19   -295.0021151 -0.210193E-01  0.128E+00    0.13       1.0  T
  20   -295.0272823 -0.251672E-01  0.126E+00    0.16       1.0  T
  21   -295.0183933  0.888899E-02  0.129E+00    0.16       1.0  T
  22   -294.9996842  0.187091E-01  0.138E+00    0.15       1.0  T
  23   -295.0174454 -0.177612E-01  0.129E+00    0.16       1.0  T
  24   -295.0179953 -0.549861E-03  0.128E+00    0.16       1.0  T
  25   -295.0373442 -0.193489E-01  0.906E-01    0.04       1.0  T
  26   -295.0914768 -0.541327E-01  0.451E-01    0.08       1.0  T
  27   -295.0683977  0.230792E-01  0.485E-01    0.05       1.0  T
  28   -295.0745516 -0.615394E-02  0.443E-01    0.06       1.0  T
  29   -295.0879823 -0.134307E-01  0.477E-01    0.07       1.0  T
  30   -295.0946881 -0.670584E-02  0.423E-01    0.09       1.0  T
  31   -295.0754706  0.192175E-01  0.505E-01    0.05       1.0  T
  32   -295.0896458 -0.141752E-01  0.333E-01    0.07       1.0  T
  33   -295.0918885 -0.224272E-02  0.407E-01    0.08       1.0  T
  34   -295.0901168  0.177163E-02  0.426E-01    0.07       1.0  T
  35   -295.0901048  0.120316E-04  0.425E-01    0.07       1.0  T
  36   -295.0901514 -0.465738E-04  0.475E-01    0.07       1.0  T
  37   -295.0909544 -0.803034E-03  0.474E-01    0.07       1.0  T
  38   -295.0989313 -0.797691E-02  0.334E-01    0.08       1.0  T
  39   -295.1020595 -0.312816E-02  0.264E-01    0.09       1.0  T
  40   -295.1035820 -0.152247E-02  0.141E-01    0.08       1.0  T
  41   -295.1046352 -0.105322E-02  0.127E-01    0.09       1.0  T
  42   -295.1043423  0.292887E-03  0.129E-01    0.09       1.0  T
  43   -295.1044413 -0.989998E-04  0.137E-01    0.08       1.0  T
  44   -295.1052334 -0.792067E-03  0.963E-02    0.09       1.0  T
  45   -295.1057593 -0.525934E-03  0.696E-02    0.09       1.0  T
  46   -295.1056879  0.713603E-04  0.653E-02    0.08       1.0  T
  47   -295.1059171 -0.229148E-03  0.385E-02    0.08       1.0  T
  48   -295.1059652 -0.481588E-04  0.136E-02    0.09       1.0  T
  49   -295.1059792 -0.139647E-04  0.186E-02    0.09       1.0  T
  50   -295.1059916 -0.123613E-04  0.123E-02    0.09       1.0  T
  51   -295.1059972 -0.558882E-05  0.952E-03    0.09       1.0  T
  52   -295.1060053 -0.810925E-05  0.669E-03    0.09       1.2  T
  53   -295.1060068 -0.148084E-05  0.486E-03    0.09       1.6  T
  54   -295.1060064  0.343463E-06  0.462E-03    0.09       1.7  T
  55   -295.1060082 -0.182894E-05  0.292E-03    0.09       2.7  T
  56   -295.1060090 -0.766094E-06  0.215E-03    0.09       3.7  T
  57   -295.1060090 -0.176401E-07  0.214E-03    0.09       3.7  T
  58   -295.1060093 -0.308350E-06  0.128E-03    0.09       6.2  T
  59   -295.1060095 -0.188055E-06  0.653E-04    0.09      12.1  T
  60   -295.1060096 -0.418684E-07  0.231E-04    0.09      34.2  T
     SCC iter.                  ...        0 min,  4.078 sec
     gradient                   ...        0 min,  0.230 sec
 * total energy  :  -289.8602655 Eh     change       -0.3463022E-01 Eh
   gradient norm :     0.0486827 Eh/α   predicted    -0.3451489E-01 (  -0.33%)
   displ. norm   :     0.8023053 α      lambda       -0.2834593E-01
   maximum displ.:     0.2961256 α      in ANC's #32, #89, #88, ...

........................................................................
.............................. CYCLE    9 ..............................
........................................................................
   1   -295.0922433 -0.295092E+03  0.791E-01    0.14       0.0  T
   2   -291.5464521  0.354579E+01  0.547E+00    0.10       1.0  T
   3   -292.9961498 -0.144970E+01  0.413E+00    0.02       1.0  T
   4   -294.7856600 -0.178951E+01  0.191E+00    0.02       1.0  T
   5   -294.1114365  0.674223E+00  0.325E+00    0.05       1.0  T
   6   -293.9932971  0.118139E+00  0.331E+00    0.06       1.0  T
   7   -294.0354870 -0.421899E-01  0.326E+00    0.04       1.0  T
   8   -294.0663411 -0.308540E-01  0.324E+00    0.02       1.0  T
   9   -293.8541907  0.212150E+00  0.349E+00    0.01       1.0  T
  10   -294.0844531 -0.230262E+00  0.329E+00    0.02       1.0  T
  11   -294.8050056 -0.720552E+00  0.131E+00    0.06       1.0  T
  12   -294.9546327 -0.149627E+00  0.118E+00    0.12       1.0  T
  13   -295.0231381 -0.685054E-01  0.107E+00    0.11       1.0  T
  14   -294.9608157  0.623223E-01  0.123E+00    0.07       1.0  T
  15   -295.0486901 -0.878743E-01  0.120E+00    0.18       1.0  T
  16   -295.0986448 -0.499547E-01  0.821E-01    0.10       1.0  T
  17   -295.1176248 -0.189800E-01  0.575E-01    0.10       1.0  T
  18   -295.0474649  0.701598E-01  0.752E-01    0.06       1.0  T
  19   -295.0727285 -0.252636E-01  0.889E-01    0.05       1.0  T
  20   -295.1215787 -0.488502E-01  0.820E-01    0.13       1.0  T
  21   -295.1223663 -0.787580E-03  0.686E-01    0.07       1.0  T
  22   -295.1019196  0.204467E-01  0.833E-01    0.05       1.0  T
  23   -295.1018485  0.710848E-04  0.796E-01    0.06       1.0  T
  24   -295.0935170  0.833155E-02  0.844E-01    0.05       1.0  T
  25   -295.0916195  0.189742E-02  0.850E-01    0.05       1.0  T
  26   -295.0908471  0.772492E-03  0.854E-01    0.05       1.0  T
  27   -295.1019338 -0.110867E-01  0.760E-01    0.06       1.0  T
  28   -295.0962957  0.563807E-02  0.797E-01    0.06       1.0  T
  29   -295.1174899 -0.211942E-01  0.507E-01    0.07       1.0  T
  30   -295.1340491 -0.165591E-01  0.230E-01    0.10       1.0  T
  31   -295.1355869 -0.153781E-02  0.118E-01    0.10       1.0  T
  32   -295.1355922 -0.531446E-05  0.111E-01    0.10       1.0  T
  33   -295.1351554  0.436835E-03  0.133E-01    0.10       1.0  T
  34   -295.1356140 -0.458617E-03  0.817E-02    0.10       1.0  T
  35   -295.1356327 -0.187405E-04  0.796E-02    0.10       1.0  T
  36   -295.1354295  0.203202E-03  0.895E-02    0.10       1.0  T
  37   -295.1355419 -0.112379E-03  0.741E-02    0.10       1.0  T
  38   -295.1356876 -0.145699E-03  0.472E-02    0.10       1.0  T
  39   -295.1357495 -0.618667E-04  0.265E-02    0.10       1.0  T
  40   -295.1357805 -0.310864E-04  0.101E-02    0.10       1.0  T
  41   -295.1357814 -0.804567E-06  0.117E-02    0.10       1.0  T
  42   -295.1357859 -0.452942E-05  0.316E-03    0.10       2.5  T
  43   -295.1357856  0.302249E-06  0.271E-03    0.10       2.9  T
  44   -295.1357857 -0.126811E-06  0.229E-03    0.10       3.5  T
  45   -295.1357859 -0.142351E-06  0.224E-03    0.10       3.5  T
  46   -295.1357859 -0.578340E-07  0.193E-03    0.10       4.1  T
  47   -295.1357861 -0.160732E-06  0.156E-03    0.10       5.1  T
  48   -295.1357862 -0.129042E-06  0.119E-03    0.10       6.6  T
  49   -295.1357863 -0.954769E-07  0.824E-04    0.10       9.6  T
  50   -295.1357863 -0.473852E-07  0.521E-04    0.10      15.2  T
     SCC iter.                  ...        0 min,  3.393 sec
     gradient                   ...        0 min,  0.231 sec
 * total energy  :  -289.8837664 Eh     change       -0.2350091E-01 Eh
   gradient norm :     0.0358701 Eh/α   predicted    -0.2329603E-01 (  -0.87%)
   displ. norm   :     0.7877304 α      lambda       -0.1895360E-01
   maximum displ.:     0.4137723 α      in ANC's #32, #30, #89, ...

........................................................................
.............................. CYCLE   10 ..............................
........................................................................
   1   -295.1458123 -0.295146E+03  0.584E-01    0.13       0.0  T
   2   -292.3644129  0.278140E+01  0.548E+00    0.19       1.0  T
   3   -293.0868575 -0.722445E+00  0.397E+00    0.06       1.0  T
   4   -293.8245087 -0.737651E+00  0.381E+00    0.05       1.0  T
   5   -293.8390888 -0.145802E-01  0.354E+00    0.09       1.0  T
   6   -293.9147469 -0.756581E-01  0.303E+00    0.01       1.0  T
   7   -294.0125896 -0.978426E-01  0.324E+00    0.10       1.0  T
   8   -295.0490050 -0.103642E+01  0.951E-01    0.10       1.0  T
   9   -295.0480319  0.973070E-03  0.103E+00    0.11       1.0  T
  10   -295.0747986 -0.267666E-01  0.115E+00    0.17       1.0  T
  11   -295.1086491 -0.338505E-01  0.112E+00    0.20       1.0  T
  12   -295.1076075  0.104164E-02  0.107E+00    0.17       1.0  T
  13   -295.1014450  0.616242E-02  0.102E+00    0.18       1.0  T
  14   -295.1047779 -0.333289E-02  0.612E-01    0.10       1.0  T
  15   -295.1319775 -0.271996E-01  0.525E-01    0.11       1.0  T
  16   -295.1052645  0.267130E-01  0.594E-01    0.07       1.0  T
  17   -295.1171310 -0.118665E-01  0.497E-01    0.08       1.0  T
  18   -295.1249184 -0.778734E-02  0.476E-01    0.06       1.0  T
  19   -295.1457693 -0.208509E-01  0.338E-01    0.08       1.0  T
  20   -295.1526442 -0.687496E-02  0.154E-01    0.09       1.0  T
  21   -295.1557960 -0.315180E-02  0.128E-01    0.10       1.0  T
  22   -295.1554853  0.310767E-03  0.107E-01    0.11       1.0  T
  23   -295.1553006  0.184669E-03  0.920E-02    0.09       1.0  T
  24   -295.1557905 -0.489917E-03  0.476E-02    0.10       1.0  T
  25   -295.1561381 -0.347556E-03  0.335E-02    0.10       1.0  T
  26   -295.1561302  0.786699E-05  0.359E-02    0.10       1.0  T
  27   -295.1561293  0.925216E-06  0.309E-02    0.10       1.0  T
  28   -295.1561461 -0.168778E-04  0.218E-02    0.10       1.0  T
  29   -295.1561698 -0.236685E-04  0.218E-02    0.10       1.0  T
  30   -295.1561714 -0.162445E-05  0.196E-02    0.10       1.0  T
  31   -295.1561732 -0.180443E-05  0.970E-03    0.10       1.0  T
  32   -295.1561750 -0.171327E-05  0.455E-03    0.10       1.7  T
  33   -295.1561746  0.387541E-06  0.374E-03    0.10       2.1  T
  34   -295.1561750 -0.437847E-06  0.264E-03    0.10       3.0  T
  35   -295.1561751 -0.120888E-06  0.201E-03    0.10       3.9  T
  36   -295.1561752 -0.448492E-07  0.175E-03    0.10       4.5  T
  37   -295.1561754 -0.195878E-06  0.109E-03    0.10       7.3  T
  38   -295.1561754 -0.441065E-07  0.843E-04    0.10       9.4  T
  39   -295.1561754 -0.304125E-07  0.508E-04    0.10      15.6  T
     SCC iter.                  ...        0 min,  2.646 sec
     gradient                   ...        0 min,  0.231 sec
 * total energy  :  -289.8998073 Eh     change       -0.1604089E-01 Eh
   gradient norm :     0.0286008 Eh/α   predicted    -0.1535736E-01 (  -4.26%)
   displ. norm   :     0.8408124 α      lambda       -0.1519165E-01
   maximum displ.:     0.5216543 α      in ANC's #32, #30, #16, ...

........................................................................
.............................. CYCLE   11 ..............................
........................................................................
   1   -295.1642296 -0.295164E+03  0.600E-01    0.12       0.0  T
   2   -293.6278357  0.153639E+01  0.481E+00    0.07       1.0  T
   3   -294.4613631 -0.833527E+00  0.216E+00    0.02       1.0  T
   4   -291.4181473  0.304322E+01  0.546E+00    0.02       1.0  T
   5   -292.6343083 -0.121616E+01  0.518E+00    0.19       1.0  T
   6   -291.2012460  0.143306E+01  0.518E+00    0.03       1.0  T
   7   -292.6166148 -0.141537E+01  0.511E+00    0.18       1.0  T
   8   -293.7152241 -0.109861E+01  0.375E+00    0.01       1.0  T
   9   -293.5784387  0.136785E+00  0.403E+00    0.06       1.0  T
  10   -294.3240170 -0.745578E+00  0.270E+00    0.05       1.0  T
  11   -294.3333196 -0.930267E-02  0.288E+00    0.06       1.0  T
  12   -294.7160202 -0.382701E+00  0.219E+00    0.02       1.0  T
  13   -294.5103508  0.205669E+00  0.261E+00    0.04       1.0  T
  14   -294.6008957 -0.905449E-01  0.248E+00    0.03       1.0  T
  15   -294.5388237  0.620720E-01  0.261E+00    0.05       1.0  T
  16   -294.4271441  0.111680E+00  0.275E+00    0.00       1.0  T
  17   -294.3332442  0.938999E-01  0.280E+00    0.03       1.0  T
  18   -294.4072462 -0.740020E-01  0.254E+00    0.01       1.0  T
  19   -294.9878571 -0.580611E+00  0.155E+00    0.03       1.0  T
  20   -295.0669782 -0.791210E-01  0.156E+00    0.05       1.0  T
  21   -295.0502654  0.167128E-01  0.135E+00    0.05       1.0  T
  22   -295.0619604 -0.116949E-01  0.146E+00    0.08       1.0  T
  23   -294.8115437  0.250417E+00  0.144E+00    0.02       1.0  T
  24   -294.4559677  0.355576E+00  0.219E+00    0.03       1.0  T
  25   -294.9703617 -0.514394E+00  0.125E+00    0.05       1.0  T
  26   -295.0826140 -0.112252E+00  0.757E-01    0.08       1.0  T
  27   -295.1418065 -0.591926E-01  0.842E-01    0.09       1.0  T
  28   -294.7755853  0.366221E+00  0.236E+00    0.02       1.0  T
  29   -295.0771323 -0.301547E+00  0.104E+00    0.04       1.0  T
  30   -295.1578211 -0.806888E-01  0.530E-01    0.10       1.0  T
  31   -295.1616564 -0.383536E-02  0.460E-01    0.11       1.0  T
  32   -295.1557501  0.590634E-02  0.536E-01    0.08       1.0  T
  33   -295.1611442 -0.539410E-02  0.456E-01    0.08       1.0  T
  34   -295.1681018 -0.695759E-02  0.197E-01    0.10       1.0  T
  35   -295.1688973 -0.795570E-03  0.198E-01    0.10       1.0  T
  36   -295.1685710  0.326314E-03  0.225E-01    0.10       1.0  T
  37   -295.1693564 -0.785416E-03  0.192E-01    0.10       1.0  T
  38   -295.1698828 -0.526330E-03  0.222E-01    0.10       1.0  T
  39   -295.1702856 -0.402787E-03  0.214E-01    0.11       1.0  T
  40   -295.1706260 -0.340449E-03  0.214E-01    0.11       1.0  T
  41   -295.1707449 -0.118921E-03  0.203E-01    0.11       1.0  T
  42   -295.1707859 -0.409547E-04  0.195E-01    0.11       1.0  T
  43   -295.1707224  0.634417E-04  0.190E-01    0.12       1.0  T
  44   -295.1707358 -0.133967E-04  0.188E-01    0.11       1.0  T
  45   -295.1707973 -0.614793E-04  0.177E-01    0.11       1.0  T
  46   -295.1707920  0.536777E-05  0.164E-01    0.11       1.0  T
  47   -295.1708038 -0.118419E-04  0.155E-01    0.11       1.0  T
  48   -295.1708627 -0.589242E-04  0.127E-01    0.11       1.0  T
  49   -295.1709420 -0.792719E-04  0.866E-02    0.11       1.0  T
  50   -295.1709614 -0.194042E-04  0.670E-02    0.11       1.0  T
  51   -295.1709983 -0.368591E-04  0.497E-02    0.11       1.0  T
  52   -295.1710222 -0.239586E-04  0.270E-02    0.11       1.0  T
  53   -295.1710361 -0.138925E-04  0.948E-03    0.11       1.0  T
  54   -295.1710361 -0.373234E-08  0.758E-03    0.11       1.0  T
  55   -295.1710373 -0.119977E-05  0.572E-03    0.11       1.4  T
  56   -295.1710377 -0.435139E-06  0.456E-03    0.11       1.7  T
  57   -295.1710378 -0.763757E-07  0.361E-03    0.11       2.2  T
  58   -295.1710379 -0.831311E-07  0.253E-03    0.11       3.1  T
  59   -295.1710381 -0.148913E-06  0.154E-03    0.11       5.1  T
  60   -295.1710382 -0.124424E-06  0.656E-04    0.11      12.1  T
  61   -295.1710382 -0.162008E-07  0.352E-04    0.11      22.4  T
     SCC iter.                  ...        0 min,  4.144 sec
     gradient                   ...        0 min,  0.231 sec
 * total energy  :  -289.9140269 Eh     change       -0.1421964E-01 Eh
   gradient norm :     0.0271178 Eh/α   predicted    -0.1296585E-01 (  -8.82%)
   displ. norm   :     0.9374768 α      lambda       -0.1650896E-01
   maximum displ.:     0.5987171 α      in ANC's #32, #16, #30, ...

........................................................................
.............................. CYCLE   12 ..............................
........................................................................
   1   -295.1637984 -0.295164E+03  0.878E-01    0.14       0.0  T
   2   -293.7418207  0.142198E+01  0.292E+00    0.03       1.0  T
   3   -290.9466535  0.279517E+01  0.567E+00    0.04       1.0  T
   4   -292.0642806 -0.111763E+01  0.410E+00    0.14       1.0  T
   5   -292.0149610  0.493195E-01  0.413E+00    0.15       1.0  T
   6   -293.6614095 -0.164645E+01  0.369E+00    0.10       1.0  T
   7   -291.3741308  0.228728E+01  0.526E+00    0.05       1.0  T
   8   -292.3227042 -0.948573E+00  0.457E+00    0.01       1.0  T
   9   -290.4035774  0.191913E+01  0.503E+00    0.05       1.0  T
  10   -291.8425379 -0.143896E+01  0.549E+00    0.03       1.0  T
  11   -291.7686320  0.739059E-01  0.584E+00    0.13       1.0  T
  12   -291.5176326  0.250999E+00  0.588E+00    0.02       1.0  T
  13   -291.4687668  0.488658E-01  0.590E+00    0.02       1.0  T
  14   -292.1015711 -0.632804E+00  0.569E+00    0.03       1.0  T
  15   -291.9332320  0.168339E+00  0.652E+00    0.08       1.0  T
  16   -292.9162635 -0.983032E+00  0.839E+00    0.03       1.0  T
  17   -292.4816047  0.434659E+00  0.756E+00    0.02       1.0  T
  18   -292.3851950  0.964097E-01  0.754E+00    0.03       1.0  T
  19   -292.3823498  0.284515E-02  0.755E+00    0.03       1.0  T
  20   -288.9101672  0.347218E+01  0.648E+00    0.01       1.0  T
  21   -291.9737525 -0.306359E+01  0.473E+00    0.03       1.0  T
  22   -292.0931422 -0.119390E+00  0.375E+00    0.00       1.0  T
  23   -291.8435858  0.249556E+00  0.475E+00    0.00       1.0  T
  24   -295.0643404 -0.322075E+01  0.231E+00    0.10       1.0  T
  25   -295.1420529 -0.777125E-01  0.209E+00    0.18       1.0  T
  26   -295.1426248 -0.571882E-03  0.188E+00    0.16       1.0  T
  27   -294.0151136  0.112751E+01  0.318E+00    0.07       1.0  T
  28   -295.1284122 -0.111330E+01  0.140E+00    0.06       1.0  T
  29   -294.8864893  0.241923E+00  0.209E+00    0.00       1.0  T
  30   -294.8810335  0.545576E-02  0.210E+00    0.00       1.0  T
  31   -294.9311482 -0.501146E-01  0.188E+00    0.01       1.0  T
  32   -294.9444395 -0.132914E-01  0.172E+00    0.02       1.0  T
  33   -295.1265297 -0.182090E+00  0.817E-01    0.07       1.0  T
  34   -295.1654886 -0.389589E-01  0.521E-01    0.12       1.0  T
  35   -295.1683498 -0.286120E-02  0.445E-01    0.10       1.0  T
  36   -295.1696522 -0.130234E-02  0.384E-01    0.10       1.0  T
  37   -295.1657379  0.391427E-02  0.449E-01    0.09       1.0  T
  38   -295.1759417 -0.102038E-01  0.582E-01    0.15       1.0  T
  39   -295.1792325 -0.329078E-02  0.449E-01    0.14       1.0  T
  40   -295.1825184 -0.328592E-02  0.308E-01    0.12       1.0  T
  41   -295.1831026 -0.584136E-03  0.246E-01    0.12       1.0  T
  42   -295.1832813 -0.178758E-03  0.214E-01    0.11       1.0  T
  43   -295.1835462 -0.264824E-03  0.159E-01    0.11       1.0  T
  44   -295.1837764 -0.230280E-03  0.120E-01    0.11       1.0  T
  45   -295.1838117 -0.352280E-04  0.127E-01    0.11       1.0  T
  46   -295.1837925  0.191896E-04  0.121E-01    0.11       1.0  T
  47   -295.1836990  0.934560E-04  0.979E-02    0.11       1.0  T
  48   -295.1838274 -0.128348E-03  0.769E-02    0.11       1.0  T
  49   -295.1839401 -0.112756E-03  0.449E-02    0.11       1.0  T
  50   -295.1839766 -0.365182E-04  0.367E-02    0.11       1.0  T
  51   -295.1839360  0.406711E-04  0.337E-02    0.11       1.0  T
  52   -295.1839959 -0.598902E-04  0.312E-02    0.11       1.0  T
  53   -295.1840170 -0.210914E-04  0.265E-02    0.11       1.0  T
  54   -295.1840256 -0.864903E-05  0.193E-02    0.11       1.0  T
  55   -295.1840424 -0.168137E-04  0.130E-02    0.11       1.0  T
  56   -295.1840582 -0.157572E-04  0.107E-02    0.12       1.0  T
  57   -295.1840657 -0.757214E-05  0.816E-03    0.12       1.0  T
  58   -295.1840703 -0.451610E-05  0.703E-03    0.12       1.1  T
  59   -295.1840725 -0.221307E-05  0.632E-03    0.12       1.3  T
  60   -295.1840738 -0.133802E-05  0.643E-03    0.12       1.2  T
  61   -295.1840744 -0.556981E-06  0.623E-03    0.12       1.3  T
  62   -295.1840749 -0.564973E-06  0.473E-03    0.12       1.7  T
  63   -295.1840753 -0.360897E-06  0.349E-03    0.12       2.3  T
  64   -295.1840751  0.189562E-06  0.245E-03    0.12       3.2  T
  65   -295.1840754 -0.252548E-06  0.216E-03    0.12       3.7  T
  66   -295.1840754 -0.477928E-07  0.228E-03    0.12       3.5  T
  67   -295.1840755 -0.650459E-07  0.214E-03    0.12       3.7  T
  68   -295.1840759 -0.430000E-06  0.203E-03    0.12       3.9  T
  69   -295.1840760 -0.149322E-06  0.173E-03    0.12       4.6  T
  70   -295.1840762 -0.139541E-06  0.149E-03    0.12       5.3  T
  71   -295.1840763 -0.148597E-06  0.113E-03    0.12       7.0  T
  72   -295.1840765 -0.115204E-06  0.828E-04    0.12       9.6  T
  73   -295.1840765 -0.320276E-07  0.636E-04    0.12      12.4  T
     SCC iter.                  ...        0 min,  4.959 sec
     gradient                   ...        0 min,  0.232 sec
 * total energy  :  -289.9307610 Eh     change       -0.1673405E-01 Eh
   gradient norm :     0.0305730 Eh/α   predicted    -0.1550904E-01 (  -7.32%)
   displ. norm   :     0.9149956 α      lambda       -0.1768359E-01
   maximum displ.:     0.5863689 α      in ANC's #32, #16, #56, ...

........................................................................
.............................. CYCLE   13 ..............................
........................................................................
   1   -295.1613747 -0.295161E+03  0.791E-01    0.12       0.0  T
   2   -293.1373631  0.202401E+01  0.334E+00    0.06       1.0  T
   3   -291.5780395  0.155932E+01  0.551E+00    0.01       1.0  T
   4   -291.8364561 -0.258417E+00  0.420E+00    0.09       1.0  T
   5   -291.8987074 -0.622513E-01  0.418E+00    0.12       1.0  T
   6   -291.5142703  0.384437E+00  0.514E+00    0.01       1.0  T
   7   -292.3009213 -0.786651E+00  0.513E+00    0.19       1.0  T
   8   -292.2688100  0.321113E-01  0.503E+00    0.08       1.0  T
   9   -292.1405099  0.128300E+00  0.509E+00    0.26       1.0  T
  10   -293.5147696 -0.137426E+01  0.360E+00    0.01       1.0  T
  11   -292.1136894  0.140108E+01  0.413E+00    0.12       1.0  T
  12   -293.8588215 -0.174513E+01  0.506E+00    0.04       1.0  T
  13   -293.5541863  0.304635E+00  0.495E+00    0.01       1.0  T
  14   -294.9790129 -0.142483E+01  0.112E+00    0.04       1.0  T
  15   -293.9734350  0.100558E+01  0.298E+00    0.00       1.0  T
  16   -294.3908336 -0.417399E+00  0.230E+00    0.01       1.0  T
  17   -293.9471481  0.443686E+00  0.312E+00    0.01       1.0  T
  18   -295.1428850 -0.119574E+01  0.118E+00    0.10       1.0  T
  19   -295.1426575  0.227529E-03  0.137E+00    0.10       1.0  T
  20   -295.1363004  0.635715E-02  0.139E+00    0.09       1.0  T
  21   -295.0996474  0.366529E-01  0.137E+00    0.06       1.0  T
  22   -295.1543648 -0.547173E-01  0.128E+00    0.11       1.0  T
  23   -295.1611999 -0.683519E-02  0.120E+00    0.15       1.0  T
  24   -295.1623889 -0.118896E-02  0.953E-01    0.14       1.0  T
  25   -295.1383848  0.240041E-01  0.648E-01    0.12       1.0  T
  26   -295.1584024 -0.200177E-01  0.623E-01    0.12       1.0  T
  27   -295.1641774 -0.577501E-02  0.404E-01    0.12       1.0  T
  28   -295.1689936 -0.481618E-02  0.297E-01    0.11       1.0  T
  29   -295.1725061 -0.351253E-02  0.336E-01    0.10       1.0  T
  30   -295.1725255 -0.193724E-04  0.260E-01    0.10       1.0  T
  31   -295.1748608 -0.233525E-02  0.212E-01    0.10       1.0  T
  32   -295.1769796 -0.211886E-02  0.164E-01    0.11       1.0  T
  33   -295.1777076 -0.727982E-03  0.160E-01    0.11       1.0  T
  34   -295.1773010  0.406620E-03  0.156E-01    0.11       1.0  T
  35   -295.1779345 -0.633522E-03  0.145E-01    0.11       1.0  T
  36   -295.1784100 -0.475482E-03  0.125E-01    0.11       1.0  T
  37   -295.1788655 -0.455565E-03  0.957E-02    0.11       1.0  T
  38   -295.1796470 -0.781458E-03  0.616E-02    0.11       1.0  T
  39   -295.1797581 -0.111115E-03  0.584E-02    0.11       1.0  T
  40   -295.1797358  0.222738E-04  0.516E-02    0.11       1.0  T
  41   -295.1797826 -0.467909E-04  0.476E-02    0.11       1.0  T
  42   -295.1798048 -0.221978E-04  0.446E-02    0.11       1.0  T
  43   -295.1797813  0.235389E-04  0.382E-02    0.11       1.0  T
  44   -295.1798720 -0.907079E-04  0.240E-02    0.11       1.0  T
  45   -295.1799154 -0.433894E-04  0.154E-02    0.11       1.0  T
  46   -295.1799168 -0.141178E-05  0.109E-02    0.11       1.0  T
  47   -295.1799223 -0.550672E-05  0.753E-03    0.11       1.1  T
  48   -295.1799249 -0.257293E-05  0.649E-03    0.11       1.2  T
  49   -295.1799254 -0.464076E-06  0.607E-03    0.11       1.3  T
  50   -295.1799261 -0.726026E-06  0.496E-03    0.11       1.6  T
  51   -295.1799265 -0.387007E-06  0.399E-03    0.11       2.0  T
  52   -295.1799265 -0.334202E-07  0.275E-03    0.11       2.9  T
  53   -295.1799267 -0.169348E-06  0.205E-03    0.11       3.9  T
  54   -295.1799268 -0.954361E-07  0.119E-03    0.11       6.7  T
  55   -295.1799268 -0.186232E-07  0.566E-04    0.11      14.0  T
  56   -295.1799268 -0.170988E-07  0.317E-04    0.11      24.9  T
     SCC iter.                  ...        0 min,  3.798 sec
     gradient                   ...        0 min,  0.232 sec
 * total energy  :  -289.9498551 Eh     change       -0.1909410E-01 Eh
   gradient norm :     0.0422859 Eh/α   predicted    -0.1624433E-01 ( -14.92%)
   displ. norm   :     0.8744593 α      lambda       -0.2168334E-01
   maximum displ.:     0.5623987 α      in ANC's #32, #16, #56, ...

........................................................................
.............................. CYCLE   14 ..............................
........................................................................
   1   -295.1642015 -0.295164E+03  0.823E-01    0.10       0.0  T
   2   -293.8506591  0.131354E+01  0.276E+00    0.08       1.0  T
   3   -292.9962512  0.854408E+00  0.407E+00    0.03       1.0  T
   4   -293.8037298 -0.807479E+00  0.357E+00    0.11       1.0  T
   5   -290.2821038  0.352163E+01  0.572E+00    0.02       1.0  T
   6   -293.6011874 -0.331908E+01  0.360E+00    0.13       1.0  T
   7   -293.6242368 -0.230494E-01  0.363E+00    0.16       1.0  T
   8   -288.1992877  0.542495E+01  0.671E+00    0.31       1.0  T
   9   -288.1756838  0.236040E-01  0.671E+00    0.30       1.0  T
  10   -288.1569121  0.187717E-01  0.672E+00    0.32       1.0  T
  11   -288.1608926 -0.398052E-02  0.671E+00    0.28       1.0  T
  12   -288.0208978  0.139995E+00  0.667E+00    0.22       1.0  T
  13   -287.9471364  0.737614E-01  0.670E+00    0.25       1.0  T
  14   -287.5499544  0.397182E+00  0.662E+00    0.09       1.0  T
  15   -288.0114476 -0.461493E+00  0.660E+00    0.17       1.0  T
  16   -288.0721619 -0.607143E-01  0.634E+00    0.15       1.0  T
  17   -288.0082561  0.639058E-01  0.633E+00    0.16       1.0  T
  18   -288.1355796 -0.127324E+00  0.633E+00    0.14       1.0  T
  19   -289.1341565 -0.998577E+00  0.596E+00    0.10       1.0  T
  20   -294.9657398 -0.583158E+01  0.272E+00    0.05       1.0  T
  21   -295.0366379 -0.708981E-01  0.226E+00    0.06       1.0  T
  22   -294.2288890  0.807749E+00  0.217E+00    0.02       1.0  T
  23   -292.7175479  0.151134E+01  0.377E+00    0.00       1.0  T
  24   -292.7059831  0.115647E-01  0.377E+00    0.00       1.0  T
  25   -293.3755003 -0.669517E+00  0.339E+00    0.06       1.0  T
  26   -294.0532716 -0.677771E+00  0.279E+00    0.07       1.0  T
  27   -294.7795884 -0.726317E+00  0.167E+00    0.01       1.0  T
[...]
 153:  0.82 154:  0.11 155:****** 156: 23.56 157:  1.64 158:  7.68 159:****** 160:  2.15
 161:  2.99 162:  0.45 163:  1.90 164:678.77 165:360.46 166:579.07 167:553.69 168:285.61
 169: 39.18 170:491.22 171:851.48 172: 23.65 173:151.01 174: 23.46 175:  5.47 176: 10.76
 177:  6.10 178:302.43 179:221.21 180: 53.02 181:  3.62 182: 12.81 183: 17.06 184:******
 185:****** 186:****** 187:727.91 188:215.78 189:422.77 190: 39.16 191: 21.71 192: 20.71
 193: 24.65 194: 41.74 195: 17.71 196:160.41 197:161.93 198: 66.86 199:114.78 200:  4.98
 201:  1.84 202: 42.98 203:  0.04 204:  3.00 205:  4.40 206:  4.99 207:  2.02 208:  9.63
 209:****** 210:786.61 211:219.54 212:  0.91 213:****** 214:  9.01 215: 17.71 216:  4.76
 217:520.11 218:574.54 219:  1.33 220: 17.91 221:  1.36 222: 21.00 223:  2.26 224:  0.07
 225: 25.86 226:164.48 227: 14.51 228: 71.03 229:****** 230:****** 231:****** 232:******
 233: 11.09 234:176.90 235: 10.18 236:  0.50 237: 18.30 238: 16.30 239: 13.80 240:******
 241:  6.22 242:184.48 243:****** 244:****** 245:  3.21 246:136.21 247:142.92 248:  6.62
 249:****** 250:****** 251:****** 252:****** 253: 13.27 254: 13.41 255: 30.47 256:  0.72
 257: 12.99 258:395.52 259:****** 260:****** 261:402.80 262:****** 263:****** 264:******
 265:  8.10 266:142.26 267: 27.50 268:212.27 269:****** 270:  5.44 271:****** 272:346.56
 273:135.72 274:****** 275: 65.09 276: 34.84 277: 22.61 278: 51.70 279:537.50 280: 61.81
 281:****** 282:****** 283: 79.86 284:  1.62 285:  2.09 286:  1.03 287: 53.07 288:  0.17
 289:****** 290:  2.51 291:  0.35 292:  0.29 293: 18.90 294: 17.74 295:601.66 296:******
 297:  8.71 298: 27.05 299:166.08 300: 19.87 301:****** 302:****** 303:****** 304:348.02
 305: 42.06 306: 29.33 307:****** 308:305.22 309: 32.26 310: 31.37 311:617.38 312:  1.98
 313: 67.11 314:  3.16 315:****** 316:204.94 317:****** 318:  7.93 319:198.11 320:595.53
 321:122.16 322:739.38 323:414.03 324:****** 325:  3.16 326:  0.78 327:****** 328:  0.53
 329:218.12 330:****** 331:****** 332: 10.85 333:  9.17 334:255.59 335: 24.36 336:******
 337:****** 338:125.18 339:****** 340:  2.66 341:  2.13 342:  3.77 343:739.31 344: 27.83
 345:210.39 346: 18.70 347:  9.68 348: 38.62 349:  7.11 350: 30.90 351: 81.35 352: 87.96
 353:  0.29 354:  0.41 355:  1.21 356:  0.62 357:678.08 358: 15.00 359: 16.87 360:292.47
 361:  2.83 362: 13.19 363:351.33 364:843.53 365:  6.35 366:270.11 367:832.44 368: 29.67
 369:913.97 370: 13.46 371:  0.76 372: 88.24 373:  0.75 374:368.03 375:****** 376:704.91
 377:****** 378:****** 379:712.51 380: 37.87 381:519.33 382:  9.65 383: 38.17 384: 49.28
 385:  3.32 386:224.83 387:158.51 388:160.46 389:  6.86 390:188.57 391:  2.57 392:  0.09
 393: 32.20 394:****** 395:****** 396:  2.96 397: 12.78 398: 84.13 399:541.82 400:911.94
 401:277.12 402: 12.64 403: 43.81 404: 26.56 405: 24.38 406:  0.03 407:  3.05 408:207.06
 409: 98.12 410: 38.65 411: 22.63 412: 30.66 413: 27.08 414:****** 415:****** 416:  8.77
 417: 26.48 418: 76.92 419:888.39 420: 51.99 421:  2.37 422:****** 423:921.51 424:******
 425:****** 426:  1.20 427: 12.58 428: 14.07 429:  1.80 430:  0.38 431: 29.73 432: 65.19
 433:  2.25 434:103.34 435:243.84 436: 16.81 437:  3.47 438:130.01 439:642.46 440:797.92
 441: 13.27 442: 41.11 443:  1.33 444: 45.82 445:  7.22 446:111.07 447:512.80 448:******
 449:180.58 450:160.82 451:****** 452:****** 453: 32.12 454:182.46 455:182.65 456:******
 457: 18.94 458: 46.86 459:436.70 460:181.56 461:****** 462:307.56 463: 13.19 464:******
 465:876.80 466:127.95 467:****** 468:761.12 469:****** 470: 93.41 471:****** 472:157.22
 473:216.79 474:237.95 475:115.71 476:152.84 477:****** 478:867.14 479:****** 480:******
 Raman intensities (amu)
   1:  0.00   2:  0.00   3:  0.00   4:  0.00   5:  0.00   6:  0.00   7:  0.00   8:  0.00
   9:  0.00  10:  0.00  11:  0.00  12:  0.00  13:  0.00  14:  0.00  15:  0.00  16:  0.00
  17:  0.00  18:  0.00  19:  0.00  20:  0.00  21:  0.00  22:  0.00  23:  0.00  24:  0.00
  25:  0.00  26:  0.00  27:  0.00  28:  0.00  29:  0.00  30:  0.00  31:  0.00  32:  0.00
  33:  0.00  34:  0.00  35:  0.00  36:  0.00  37:  0.00  38:  0.00  39:  0.00  40:  0.00
  41:  0.00  42:  0.00  43:  0.00  44:  0.00  45:  0.00  46:  0.00  47:  0.00  48:  0.00
  49:  0.00  50:  0.00  51:  0.00  52:  0.00  53:  0.00  54:  0.00  55:  0.00  56:  0.00
  57:  0.00  58:  0.00  59:  0.00  60:  0.00  61:  0.00  62:  0.00  63:  0.00  64:  0.00
  65:  0.00  66:  0.00  67:  0.00  68:  0.00  69:  0.00  70:  0.00  71:  0.00  72:  0.00
  73:  0.00  74:  0.00  75:  0.00  76:  0.00  77:  0.00  78:  0.00  79:  0.00  80:  0.00
  81:  0.00  82:  0.00  83:  0.00  84:  0.00  85:  0.00  86:  0.00  87:  0.00  88:  0.00
  89:  0.00  90:  0.00  91:  0.00  92:  0.00  93:  0.00  94:  0.00  95:  0.00  96:  0.00
  97:  0.00  98:  0.00  99:  0.00 100:  0.00 101:  0.00 102:  0.00 103:  0.00 104:  0.00
 105:  0.00 106:  0.00 107:  0.00 108:  0.00 109:  0.00 110:  0.00 111:  0.00 112:  0.00
 113:  0.00 114:  0.00 115:  0.00 116:  0.00 117:  0.00 118:  0.00 119:  0.00 120:  0.00
 121:  0.00 122:  0.00 123:  0.00 124:  0.00 125:  0.00 126:  0.00 127:  0.00 128:  0.00
 129:  0.00 130:  0.00 131:  0.00 132:  0.00 133:  0.00 134:  0.00 135:  0.00 136:  0.00
 137:  0.00 138:  0.00 139:  0.00 140:  0.00 141:  0.00 142:  0.00 143:  0.00 144:  0.00
 145:  0.00 146:  0.00 147:  0.00 148:  0.00 149:  0.00 150:  0.00 151:  0.00 152:  0.00
 153:  0.00 154:  0.00 155:  0.00 156:  0.00 157:  0.00 158:  0.00 159:  0.00 160:  0.00
 161:  0.00 162:  0.00 163:  0.00 164:  0.00 165:  0.00 166:  0.00 167:  0.00 168:  0.00
 169:  0.00 170:  0.00 171:  0.00 172:  0.00 173:  0.00 174:  0.00 175:  0.00 176:  0.00
 177:  0.00 178:  0.00 179:  0.00 180:  0.00 181:  0.00 182:  0.00 183:  0.00 184:  0.00
 185:  0.00 186:  0.00 187:  0.00 188:  0.00 189:  0.00 190:  0.00 191:  0.00 192:  0.00
 193:  0.00 194:  0.00 195:  0.00 196:  0.00 197:  0.00 198:  0.00 199:  0.00 200:  0.00
 201:  0.00 202:  0.00 203:  0.00 204:  0.00 205:  0.00 206:  0.00 207:  0.00 208:  0.00
 209:  0.00 210:  0.00 211:  0.00 212:  0.00 213:  0.00 214:  0.00 215:  0.00 216:  0.00
 217:  0.00 218:  0.00 219:  0.00 220:  0.00 221:  0.00 222:  0.00 223:  0.00 224:  0.00
 225:  0.00 226:  0.00 227:  0.00 228:  0.00 229:  0.00 230:  0.00 231:  0.00 232:  0.00
 233:  0.00 234:  0.00 235:  0.00 236:  0.00 237:  0.00 238:  0.00 239:  0.00 240:  0.00
 241:  0.00 242:  0.00 243:  0.00 244:  0.00 245:  0.00 246:  0.00 247:  0.00 248:  0.00
 249:  0.00 250:  0.00 251:  0.00 252:  0.00 253:  0.00 254:  0.00 255:  0.00 256:  0.00
 257:  0.00 258:  0.00 259:  0.00 260:  0.00 261:  0.00 262:  0.00 263:  0.00 264:  0.00
 265:  0.00 266:  0.00 267:  0.00 268:  0.00 269:  0.00 270:  0.00 271:  0.00 272:  0.00
 273:  0.00 274:  0.00 275:  0.00 276:  0.00 277:  0.00 278:  0.00 279:  0.00 280:  0.00
 281:  0.00 282:  0.00 283:  0.00 284:  0.00 285:  0.00 286:  0.00 287:  0.00 288:  0.00
 289:  0.00 290:  0.00 291:  0.00 292:  0.00 293:  0.00 294:  0.00 295:  0.00 296:  0.00
 297:  0.00 298:  0.00 299:  0.00 300:  0.00 301:  0.00 302:  0.00 303:  0.00 304:  0.00
 305:  0.00 306:  0.00 307:  0.00 308:  0.00 309:  0.00 310:  0.00 311:  0.00 312:  0.00
 313:  0.00 314:  0.00 315:  0.00 316:  0.00 317:  0.00 318:  0.00 319:  0.00 320:  0.00
 321:  0.00 322:  0.00 323:  0.00 324:  0.00 325:  0.00 326:  0.00 327:  0.00 328:  0.00
 329:  0.00 330:  0.00 331:  0.00 332:  0.00 333:  0.00 334:  0.00 335:  0.00 336:  0.00
 337:  0.00 338:  0.00 339:  0.00 340:  0.00 341:  0.00 342:  0.00 343:  0.00 344:  0.00
 345:  0.00 346:  0.00 347:  0.00 348:  0.00 349:  0.00 350:  0.00 351:  0.00 352:  0.00
 353:  0.00 354:  0.00 355:  0.00 356:  0.00 357:  0.00 358:  0.00 359:  0.00 360:  0.00
 361:  0.00 362:  0.00 363:  0.00 364:  0.00 365:  0.00 366:  0.00 367:  0.00 368:  0.00
Refinement of some symmetry elements was terminated before convergence was reached.
Some symmetry elements may remain unidentified.
Molecule has no symmetry elements
It seems to be the C1 point group
 369:  0.00 370:  0.00 371:  0.00 372:  0.00 373:  0.00 374:  0.00 375:  0.00 376:  0.00
 377:  0.00 378:  0.00 379:  0.00 380:  0.00 381:  0.00 382:  0.00 383:  0.00 384:  0.00
 385:  0.00 386:  0.00 387:  0.00 388:  0.00 389:  0.00 390:  0.00 391:  0.00 392:  0.00
 393:  0.00 394:  0.00 395:  0.00 396:  0.00 397:  0.00 398:  0.00 399:  0.00 400:  0.00
 401:  0.00 402:  0.00 403:  0.00 404:  0.00 405:  0.00 406:  0.00 407:  0.00 408:  0.00
 409:  0.00 410:  0.00 411:  0.00 412:  0.00 413:  0.00 414:  0.00 415:  0.00 416:  0.00
 417:  0.00 418:  0.00 419:  0.00 420:  0.00 421:  0.00 422:  0.00 423:  0.00 424:  0.00
 425:  0.00 426:  0.00 427:  0.00 428:  0.00 429:  0.00 430:  0.00 431:  0.00 432:  0.00
 433:  0.00 434:  0.00 435:  0.00 436:  0.00 437:  0.00 438:  0.00 439:  0.00 440:  0.00
 441:  0.00 442:  0.00 443:  0.00 444:  0.00 445:  0.00 446:  0.00 447:  0.00 448:  0.00
 449:  0.00 450:  0.00 451:  0.00 452:  0.00 453:  0.00 454:  0.00 455:  0.00 456:  0.00
 457:  0.00 458:  0.00 459:  0.00 460:  0.00 461:  0.00 462:  0.00 463:  0.00 464:  0.00
 465:  0.00 466:  0.00 467:  0.00 468:  0.00 469:  0.00 470:  0.00 471:  0.00 472:  0.00
 473:  0.00 474:  0.00 475:  0.00 476:  0.00 477:  0.00 478:  0.00 479:  0.00 480:  0.00
 output can be read by thermo (or use thermo option).
 writing <g98.out> molden fake output.
 recommended (thermochemical) frequency scaling factor: 1.0
           -------------------------------------------------
          |             Thermodynamic Functions             |
           -------------------------------------------------

c1  symmetry found (for desy threshold:  0.10E+00) used in thermo

          ...................................................
          :                      SETUP                      :
          :.................................................:
          :  # frequencies                         473      :
          :  # imaginary freq.                       0      :
          :  linear?                             false      :
          :  only rotor calc.                    false      :
          :  symmetry                               c1      :
          :  rotational number                       1      :
          :  scaling factor                  1.0000000      :
          :  rotor cutoff                   50.0000000 cm⁻¹ :
          :  imag. cutoff                  -20.0000000 cm⁻¹ :
          :.................................................:

    mode    ω/cm⁻¹     T·S(HO)/kcal·mol⁻¹    T·S(FR)/kcal·mol⁻¹   T·S(vib)
   ------------------------------------------------------------------------
       1      1.84    -3.39249 (  0.00%)    -2.03535 (100.00%)    -2.03536
       2      3.32    -3.04167 (  0.00%)    -1.85994 (100.00%)    -1.85997
       3      4.47    -2.86591 (  0.01%)    -1.77207 ( 99.99%)    -1.77214
       4      6.36    -2.65687 (  0.03%)    -1.66754 ( 99.97%)    -1.66780
       5      7.88    -2.52932 (  0.06%)    -1.60376 ( 99.94%)    -1.60433
       6      8.45    -2.48840 (  0.08%)    -1.58329 ( 99.92%)    -1.58403
       7      9.78    -2.40194 (  0.15%)    -1.54006 ( 99.85%)    -1.54132
       8     10.37    -2.36672 (  0.18%)    -1.52244 ( 99.82%)    -1.52401
       9     10.41    -2.36490 (  0.19%)    -1.52154 ( 99.81%)    -1.52312
      10     15.57    -2.12608 (  0.93%)    -1.40209 ( 99.07%)    -1.40884
      11     16.58    -2.08919 (  1.19%)    -1.38363 ( 98.81%)    -1.39205
      12     21.53    -1.93448 (  3.32%)    -1.30622 ( 96.68%)    -1.32709
      13     22.94    -1.89687 (  4.24%)    -1.28740 ( 95.76%)    -1.31325
      14     27.71    -1.78500 (  8.62%)    -1.23140 ( 91.38%)    -1.27912
      15     28.58    -1.76678 (  9.64%)    -1.22227 ( 90.36%)    -1.27477
      16     30.54    -1.72757 ( 12.21%)    -1.20263 ( 87.79%)    -1.26674
      17     30.94    -1.71977 ( 12.79%)    -1.19873 ( 87.21%)    -1.26536
      18     31.59    -1.70743 ( 13.75%)    -1.19255 ( 86.25%)    -1.26334
      19     31.89    -1.70183 ( 14.21%)    -1.18974 ( 85.79%)    -1.26248
      20     36.39    -1.62394 ( 21.90%)    -1.15071 ( 78.10%)    -1.25436
      21     36.56    -1.62115 ( 22.23%)    -1.14931 ( 77.77%)    -1.25419
      22     45.01    -1.49831 ( 39.64%)    -1.08769 ( 60.36%)    -1.25046
      23     53.25    -1.39921 ( 56.26%)    -1.03791 ( 43.74%)    -1.24118
      24     67.00    -1.26401 ( 76.33%)    -0.96983 ( 23.67%)    -1.19438
      25     72.11    -1.22092 ( 81.22%)    -0.94809 ( 18.78%)    -1.16969
      26     77.22    -1.18074 ( 85.05%)    -0.92778 ( 14.95%)    -1.14293
      27     84.04    -1.13126 ( 88.87%)    -0.90272 ( 11.13%)    -1.10581
      28     85.40    -1.12185 ( 89.49%)    -0.89795 ( 10.51%)    -1.09831
      29     88.22    -1.10293 ( 90.65%)    -0.88836 (  9.35%)    -1.08286
      30     92.06    -1.07805 ( 92.00%)    -0.87572 (  8.00%)    -1.06185
      31     93.54    -1.06877 ( 92.45%)    -0.87100 (  7.55%)    -1.05384
      32     93.63    -1.06819 ( 92.48%)    -0.87071 (  7.52%)    -1.05334
      33     94.53    -1.06263 ( 92.74%)    -0.86788 (  7.26%)    -1.04849
      34     98.25    -1.04015 ( 93.71%)    -0.85644 (  6.29%)    -1.02861
      35    105.86    -0.99686 ( 95.26%)    -0.83435 (  4.74%)    -0.98915
      36    109.29    -0.97835 ( 95.80%)    -0.82488 (  4.20%)    -0.97191
      37    119.97    -0.92454 ( 97.07%)    -0.79728 (  2.93%)    -0.92081
      38    124.98    -0.90097 ( 97.50%)    -0.78515 (  2.50%)    -0.89808
      39    125.03    -0.90074 ( 97.51%)    -0.78503 (  2.49%)    -0.89785
      40    126.17    -0.89554 ( 97.59%)    -0.78235 (  2.41%)    -0.89281
      41    126.30    -0.89492 ( 97.60%)    -0.78203 (  2.40%)    -0.89221
      42    130.23    -0.87734 ( 97.87%)    -0.77296 (  2.13%)    -0.87512
      43    136.94    -0.84859 ( 98.25%)    -0.75808 (  1.75%)    -0.84700
      44    161.64    -0.75446 ( 99.09%)    -0.70895 (  0.91%)    -0.75405
      45    168.13    -0.73233 ( 99.22%)    -0.69729 (  0.78%)    -0.73206
      46    173.76    -0.71389 ( 99.32%)    -0.68753 (  0.68%)    -0.71371
      47    177.18    -0.70300 ( 99.37%)    -0.68175 (  0.63%)    -0.70287
      48    177.85    -0.70090 ( 99.38%)    -0.68064 (  0.62%)    -0.70078
      49    179.27    -0.69647 ( 99.40%)    -0.67828 (  0.60%)    -0.69636
      50    180.38    -0.69305 ( 99.41%)    -0.67646 (  0.59%)    -0.69295
      51    184.50    -0.68051 ( 99.46%)    -0.66978 (  0.54%)    -0.68045
      52    184.99    -0.67903 ( 99.47%)    -0.66899 (  0.53%)    -0.67898
      53    186.12    -0.67564 ( 99.48%)    -0.66718 (  0.52%)    -0.67560
      54    187.63    -0.67116 ( 99.50%)    -0.66478 (  0.50%)    -0.67113
      55    188.38    -0.66897 ( 99.51%)    -0.66361 (  0.49%)    -0.66894
      56    206.40    -0.61873 ( 99.66%)    -0.63653 (  0.34%)    -0.61879
      57    208.15    -0.61413 ( 99.67%)    -0.63403 (  0.33%)    -0.61420
      58    210.05    -0.60918 ( 99.68%)    -0.63134 (  0.32%)    -0.60925
      59    210.21    -0.60879 ( 99.68%)    -0.63113 (  0.32%)    -0.60886
      60    220.09    -0.58387 ( 99.73%)    -0.61751 (  0.27%)    -0.58396
      61    220.31    -0.58335 ( 99.74%)    -0.61722 (  0.26%)    -0.58344
      62    221.71    -0.57992 ( 99.74%)    -0.61534 (  0.26%)    -0.58001
      63    223.97    -0.57447 ( 99.75%)    -0.61234 (  0.25%)    -0.57457
      64    224.01    -0.57438 ( 99.75%)    -0.61229 (  0.25%)    -0.57447
      65    224.29    -0.57370 ( 99.75%)    -0.61192 (  0.25%)    -0.57380
      66    224.36    -0.57353 ( 99.75%)    -0.61182 (  0.25%)    -0.57362
      67    224.70    -0.57270 ( 99.76%)    -0.61137 (  0.24%)    -0.57280
      68    225.77    -0.57016 ( 99.76%)    -0.60997 (  0.24%)    -0.57026
      69    225.82    -0.57003 ( 99.76%)    -0.60990 (  0.24%)    -0.57013
      70    227.25    -0.56665 ( 99.77%)    -0.60803 (  0.23%)    -0.56674
      71    231.96    -0.55567 ( 99.78%)    -0.60195 (  0.22%)    -0.55577
      72    237.07    -0.54405 ( 99.80%)    -0.59550 (  0.20%)    -0.54415
      73    246.94    -0.52245 ( 99.83%)    -0.58341 (  0.17%)    -0.52255
      74    246.97    -0.52238 ( 99.83%)    -0.58338 (  0.17%)    -0.52249
      75    247.86    -0.52049 ( 99.83%)    -0.58231 (  0.17%)    -0.52060
      76    248.01    -0.52018 ( 99.84%)    -0.58213 (  0.16%)    -0.52028
      77    248.92    -0.51824 ( 99.84%)    -0.58104 (  0.16%)    -0.51834
      78    254.25    -0.50712 ( 99.85%)    -0.57477 (  0.15%)    -0.50722
      79    254.48    -0.50666 ( 99.85%)    -0.57451 (  0.15%)    -0.50676
      80    255.83    -0.50388 ( 99.85%)    -0.57293 (  0.15%)    -0.50398
      81    256.02    -0.50350 ( 99.85%)    -0.57272 (  0.15%)    -0.50360
      82    270.67    -0.47464 ( 99.88%)    -0.55624 (  0.12%)    -0.47473
      83    274.44    -0.46752 ( 99.89%)    -0.55213 (  0.11%)    -0.46761
      84    277.81    -0.46127 ( 99.90%)    -0.54852 (  0.10%)    -0.46136
      85    279.65    -0.45790 ( 99.90%)    -0.54656 (  0.10%)    -0.45799
      86    279.90    -0.45744 ( 99.90%)    -0.54630 (  0.10%)    -0.45754
      87    282.56    -0.45262 ( 99.90%)    -0.54349 (  0.10%)    -0.45271
      88    293.10    -0.43411 ( 99.92%)    -0.53265 (  0.08%)    -0.43419
   ------------------------------------------------------------------------

   temp. (K)  partition function   enthalpy   heat capacity  entropy
                                   cal/mol     cal/K/mol   cal/K/mol   J/K/mol
 298.15  VIB  0.259E+50            58623.743    374.614    369.507
         ROT  0.340E+10              888.752      2.981     46.593
         INT  0.878E+59            59512.495    377.595    416.099
         TR   0.658E+29             1481.254      4.968     48.083
         TOT                       60993.7492   382.5627   464.1821  1942.1378

       T/K    H(0)-H(T)+PV         H(T)/Eh          T*S/Eh         G(T)/Eh
   ------------------------------------------------------------------------
    298.15    0.971997E-01    0.118144E+01    0.220548E+00    0.960894E+00
   ------------------------------------------------------------------------

         :::::::::::::::::::::::::::::::::::::::::::::::::::::
         ::                  THERMODYNAMIC                  ::
         :::::::::::::::::::::::::::::::::::::::::::::::::::::
         :: total free energy        -289.472361121637 Eh   ::
         ::.................................................::
         :: total energy             -290.433255385594 Eh   ::
         :: zero point energy           1.084242419327 Eh   ::
         :: G(RRHO) w/o ZPVE           -0.123348155370 Eh   ::
         :: G(RRHO) contrib.            0.960894263957 Eh   ::
         :::::::::::::::::::::::::::::::::::::::::::::::::::::

optimized geometry written to: xtbopt.xyz


           -------------------------------------------------
          | TOTAL ENERGY             -290.433255385594 Eh   |
          | TOTAL ENTHALPY           -289.251813239926 Eh   |
          | TOTAL FREE ENERGY        -289.472361121637 Eh   |
          | GRADIENT NORM               0.000879039547 Eh/α |
          | HOMO-LUMO GAP               0.240070578877 eV   |
           -------------------------------------------------

------------------------------------------------------------------------
 * finished run on 2021/11/19 at 14:11:32.407     
------------------------------------------------------------------------
 total:
 * wall-time:     0 d,  0 h, 15 min,  7.246 sec
 *  cpu-time:     0 d,  0 h, 15 min,  7.257 sec
 * ratio c/w:     1.000 speedup
 SCF:
 * wall-time:     0 d,  0 h,  0 min, 10.826 sec
 *  cpu-time:     0 d,  0 h,  0 min, 10.826 sec
 * ratio c/w:     1.000 speedup
 ANC optimizer:
 * wall-time:     0 d,  0 h,  2 min,  0.955 sec
 *  cpu-time:     0 d,  0 h,  2 min,  0.956 sec
 * ratio c/w:     1.000 speedup
 analytical hessian:
 * wall-time:     0 d,  0 h, 12 min, 55.102 sec
 *  cpu-time:     0 d,  0 h, 12 min, 55.111 sec
 * ratio c/w:     1.000 speedup

