160
 energy: -288.851015057993 gnorm: 1.466323713957 xtb: 6.4.1 (bd6e46d)
Fe       16.63705400000000    0.03435800000000   -0.01039200000000
C        18.96604500000000   -3.11243500000000    1.31229700000000
C        19.88215200000000   -2.16822700000000    1.26201500000000
C        19.47097200000000   -1.11432300000000    0.34072300000000
C        20.08984300000000    0.01002300000000   -0.00568700000000
C        19.38580100000000    1.22997100000000   -0.36979200000000
C        19.71391100000000    2.19002600000000   -1.21726600000000
C        18.67913100000000    3.20631100000000   -1.23416400000000
C        17.74286300000000    2.82984900000000   -0.38727200000000
N        18.14485400000000    1.59683800000000    0.17654500000000
C        16.48178900000000    3.47484800000000   -0.00812000000000
C        15.38657200000000    2.84006600000000    0.34264000000000
C        14.31294600000000    3.15802200000000    1.31166800000000
C        13.47538300000000    2.16126800000000    1.23450200000000
C        13.91368100000000    1.15758500000000    0.25405000000000
N        15.01861900000000    1.59643800000000   -0.23024200000000
C        13.30284600000000   -0.09568600000000   -0.15949800000000
C        13.96700700000000   -1.20019200000000   -0.41392300000000
C        13.59315800000000   -2.26313400000000   -1.37145000000000
C        14.54190500000000   -3.15689000000000   -1.28243100000000
C        15.52762900000000   -2.71944000000000   -0.29955300000000
N        15.17458300000000   -1.57363500000000    0.19724400000000
C        16.75851700000000   -3.37551000000000    0.14616800000000
C        17.88155800000000   -2.72964900000000    0.41328900000000
N        18.21015800000000   -1.48220800000000   -0.18511500000000
H        19.02630600000000   -4.02221600000000    1.92984300000000
H        20.79847900000000   -2.20817700000000    1.84006300000000
H        20.64127600000000    2.20682100000000   -1.81840900000000
H        18.69603000000000    4.11100000000000   -1.84678500000000
H        16.43406600000000    4.56965100000000   -0.01189800000000
H        14.26012500000000    4.03674700000000    1.93666000000000
H        12.56375300000000    2.12559800000000    1.85182600000000
H        12.20459600000000   -0.09277500000000   -0.25876900000000
H        12.72430200000000   -2.31559900000000   -2.02040000000000
H        14.53905900000000   -4.07319800000000   -1.88119000000000
H        16.72303500000000   -4.47131200000000    0.25809300000000
Fe       67.11619399999999   -0.01301800000000   -0.01482500000000
C        64.78720300000001    2.83377400000000    1.86868000000000
C        63.87109600000000    1.91528500000000    1.64410600000000
C        64.28227500000000    1.05058800000000    0.54329200000000
C        63.66340500000000    0.01002300000000   -0.00568700000000
C        64.36744700000000   -1.12120200000000   -0.58979000000000
C        64.03933600000001   -1.90737400000000   -1.60065700000000
C        65.07411600000000   -2.90288300000000   -1.80579700000000
C        66.01038400000000   -2.69006700000000   -0.90376700000000
N        65.60839400000000   -1.58305500000000   -0.12099500000000
C        67.27145899999999   -3.39420800000000   -0.65085300000000
C        68.36667600000001   -2.83551500000000   -0.18842000000000
C        69.44030100000001   -3.32772000000000    0.70480200000000
C        70.27786399999999   -2.33395300000000    0.81388700000000
C        69.83956700000000   -1.16580500000000    0.03665200000000
N        68.73462900000000   -1.50719700000000   -0.52064700000000
C        70.45040200000000    0.14243100000000   -0.13721800000000
C        69.78624100000000    1.27496400000000   -0.18232400000000
C        70.16009000000000    2.49709000000000   -0.92603900000000
C        69.21134200000000    3.35881700000000   -0.67276100000000
C        68.22561899999999    2.74662200000000    0.21190300000000
N        68.57866400000000    1.52854400000000    0.48751300000000
C        66.99473100000000    3.30861700000000    0.77159700000000
C        65.87168900000000    2.62441200000000    0.91426500000000
N        65.54308899999999    1.50963700000000    0.09483000000000
H        64.72694100000000    3.61319900000000    2.64428400000000
H        62.95476800000001    1.84730400000000    2.21953200000000
H        63.11197100000000   -1.81235700000000   -2.19448100000000
H        65.05721699999999   -3.67821800000000   -2.57561700000000
H        67.31918100000000   -4.46930600000000   -0.85766700000000
H        69.49312300000000   -4.30713700000000    1.15592900000000
H        71.18949500000001   -2.41342500000000    1.42711300000000
H        71.54865200000000    0.15798600000000   -0.23530500000000
H        71.02894499999999    2.66903300000000   -1.55399200000000
H        69.21418799999999    4.37029800000000   -1.09113800000000
H        67.03021300000000    4.36463300000000    1.08486600000000
C        23.06185400000000    0.02115400000000   -0.00164500000000
C        24.27738700000000   -0.00419000000000   -0.01212500000000
C        25.69890400000000   -0.02561300000000   -0.01630100000000
C        26.90746600000000   -0.02782400000000   -0.01619600000000
C        28.32854100000000   -0.00886400000000   -0.01682300000000
C        29.53968300000000    0.02115400000000   -0.00164500000000
C        38.63703000000000    0.02115400000000   -0.00164500000000
C        39.85256300000000   -0.00419000000000   -0.01212500000000
C        41.27408000000000   -0.02561300000000   -0.01630100000000
C        42.48264100000001   -0.02782400000000   -0.01619600000000
C        43.90371700000000   -0.00886400000000   -0.01682300000000
C        45.11485900000001    0.02115400000000   -0.00164500000000
C        54.21220500000000    0.02115400000000   -0.00164500000000
C        55.42773800000001   -0.00419000000000   -0.01212500000000
C        56.84925500000000   -0.02561300000000   -0.01630100000000
C        58.05781700000001   -0.02782400000000   -0.01619600000000
C        59.47889200000000   -0.00886400000000   -0.01682300000000
C        60.69003400000000    0.02115400000000   -0.00164500000000
Fe       34.12827300000000    0.03277100000000    0.00318300000000
C        31.84846300000000   -3.22867600000000   -0.90648300000000
C        30.89225300000000   -2.32932600000000   -1.00851000000000
C        31.28462800000000   -1.16702100000000   -0.20599400000000
C        30.64951100000000   -0.01574900000000    0.00627300000000
C        31.33496800000000    1.25885100000000    0.23250200000000
C        30.99967800000000    2.33745100000000    0.93674200000000
C        32.02421900000000    3.35676800000000    0.84616100000000
C        32.97481700000000    2.85984300000000    0.07279600000000
N        32.59782200000000    1.54323800000000   -0.34334700000000
C        34.22195600000000    3.47154500000000   -0.34407000000000
C        35.32350800000000    2.80428800000000   -0.67584100000000
C        36.31705400000000    3.05627200000000   -1.71001100000000
C        37.21093700000000    2.09541300000000   -1.60852700000000
C        36.83123900000000    1.18352900000000   -0.50455000000000
N        35.73632400000000    1.63284800000000    0.00281700000000
C        37.48844600000000   -0.01574900000000    0.00627300000000
C        36.86503500000000   -1.08493100000000    0.46778900000000
C        37.24374700000000   -2.01704600000000    1.54326500000000
C        36.30307900000000   -2.93119200000000    1.62913100000000
C        35.29477700000001   -2.63541300000000    0.63170400000000
N        35.63255200000000   -1.58203600000000   -0.01759100000000
C        34.04238400000000   -3.34242000000000    0.30051100000000
C        32.92850800000000   -2.74572400000000   -0.04683100000000
N        32.54639500000000   -1.46296700000000    0.37085200000000
H        31.84880700000000   -4.21975000000000   -1.39771800000000
H        29.98371900000000   -2.45102000000000   -1.58965800000000
H        30.07482600000000    2.45580200000000    1.51366800000000
H        32.05151400000000    4.34593200000000    1.30281100000000
H        34.30789600000000    4.56892200000000   -0.40609300000000
H        36.34972700000000    3.86248800000000   -2.43683500000000
H        38.10399900000000    1.98244500000000   -2.24230100000000
H        38.15849800000000   -1.94264000000000    2.15343500000000
H        36.32212500000000   -3.74480000000000    2.33739800000000
H        34.08086900000000   -4.44238000000000    0.35954700000000
Fe       49.70344900000000    0.03277100000000    0.00318300000000
C        47.42363800000000   -3.22867600000000   -0.90648300000000
C        46.46742900000000   -2.32932600000000   -1.00851000000000
C        46.85980300000000   -1.16702100000000   -0.20599400000000
C        46.22468700000000   -0.01574900000000    0.00627300000000
C        46.91014400000000    1.25885100000000    0.23250200000000
C        46.57485300000000    2.33745100000000    0.93674200000000
C        47.59939500000000    3.35676800000000    0.84616100000000
C        48.54999200000000    2.85984300000000    0.07279600000000
N        48.17299800000000    1.54323800000000   -0.34334700000000
C        49.79713200000000    3.47154500000000   -0.34407000000000
C        50.89868300000000    2.80428800000000   -0.67584100000000
C        51.89223000000000    3.05627200000000   -1.71001100000000
C        52.78611300000000    2.09541300000000   -1.60852700000000
C        52.40641500000000    1.18352900000000   -0.50455000000000
N        51.31150000000001    1.63284800000000    0.00281700000000
C        53.06362200000000   -0.01574900000000    0.00627300000000
C        52.44021000000000   -1.08493100000000    0.46778900000000
C        52.81892300000000   -2.01704600000000    1.54326500000000
C        51.87825400000001   -2.93119200000000    1.62913100000000
C        50.86995300000001   -2.63541300000000    0.63170400000000
N        51.20772800000000   -1.58203600000000   -0.01759100000000
C        49.61756000000000   -3.34242000000000    0.30051100000000
C        48.50368300000001   -2.74572400000000   -0.04683100000000
N        48.12157100000000   -1.46296700000000    0.37085200000000
H        47.42398300000001   -4.21975000000000   -1.39771800000000
H        45.55889500000000   -2.45102000000000   -1.58965800000000
H        45.65000100000000    2.45580200000000    1.51366800000000
H        47.62669000000001    4.34593200000000    1.30281100000000
H        49.88307200000000    4.56892200000000   -0.40609300000000
H        51.92490200000001    3.86248800000000   -2.43683500000000
H        53.67917400000000    1.98244500000000   -2.24230100000000
H        53.73367300000001   -1.94264000000000    2.15343500000000
H        51.89730100000000   -3.74480000000000    2.33739800000000
H        49.65604400000000   -4.44238000000000    0.35954700000000
160
 energy: -289.355359961581 gnorm: 0.562293663195 xtb: 6.4.1 (bd6e46d)
Fe       16.64373512292244    0.03390299880257   -0.01005880351398
C        18.96510408470531   -3.11962258471905    1.30852584713427
C        19.89263406851237   -2.16706628155356    1.26122472775684
C        19.46792023256695   -1.11836381406976    0.34417070889187
C        20.07489993668452    0.02528997760962   -0.00709230472873
C        19.37742221622716    1.22343352462127   -0.36187995200316
C        19.72252701229220    2.21199627569776   -1.23306679887300
C        18.70299130812301    3.20841677889545   -1.24644593088972
C        17.73620785069885    2.81369198439893   -0.37934905513970
N        18.12895568143600    1.58462379840303    0.18025736494007
C        16.49651525795687    3.47656706958791   -0.00966286136455
C        15.37575303097089    2.82892709276971    0.34400338278824
C        14.31643516625553    3.16447729361609    1.30182321375065
C        13.45605149369436    2.15455369194056    1.23801304447436
C        13.90694633305192    1.15864366629725    0.26515575176876
N        15.04142810773308    1.58738969980890   -0.22332338266206
C        13.29307664589556   -0.07845013979919   -0.15420195554743
C        13.97048421330245   -1.20584523700441   -0.41814324088974
C        13.58665972750275   -2.26061584995277   -1.36374832603527
C        14.54833334909545   -3.17288987507505   -1.28199306158254
C        15.53493055899673   -2.72966257512017   -0.30456501450713
N        15.17892256034010   -1.55900962578201    0.18503190427047
C        16.74330014143961   -3.38167360638621    0.14017586527335
C        17.88867707613164   -2.71729901805423    0.41470108276354
N        18.20596521266724   -1.48126136456171   -0.16937090268423
H        19.02165940467092   -4.01840875394592    1.92507688724115
H        20.80066324233280   -2.20285696591045    1.83844981874179
H        20.63871758610479    2.21144031916885   -1.81872131536394
H        18.69954801623343    4.10869057773500   -1.84731621515218
H        16.44249282141540    4.56758080991345   -0.00851658433824
H        14.26381257554493    4.03580987961268    1.93370037199895
H        12.56225970661214    2.12047615286958    1.85063231376821
H        12.20623954088584   -0.08877665722226   -0.26143729189181
H        12.72567503645165   -2.31026968778186   -2.01627787750475
H        14.54502864576648   -4.07469624361081   -1.87894206354975
H        16.72075194853265   -4.46836954724178    0.25809113562041
Fe       67.10951532507532   -0.01262559784404   -0.01441739440192
C        64.78815001651959    2.84153436070342    1.86630927762334
C        63.86062276006034    1.91429095240945    1.64310269216137
C        64.28536670723383    1.05393972905058    0.54742503236911
C        63.67832525111595   -0.00463559805419   -0.00990391626554
C        64.37582632810998   -1.11622911402539   -0.58080466445144
C        64.03072561071427   -1.92602985673635   -1.62024493352762
C        65.05025660783484   -2.90267270838085   -1.81824962028169
C        66.01704068609374   -2.67565968511264   -0.89298079904301
N        65.62427429259625   -1.57174549494860   -0.11508281166376
C        67.25672921403508   -3.39561373863285   -0.65268940830912
C        68.37749500108427   -2.82481731652392   -0.18501165701445
C        69.43680919398166   -3.33223429112207    0.69393084945252
C        70.29719738104288   -2.32800451049000    0.81858009657952
C        69.84630620785327   -1.16890397129985    0.04736792485080
N        68.71182019546033   -1.49959494648413   -0.51217389216115
C        70.46017186524593    0.12450775169190   -0.13520904929246
C        69.78276050427417    1.28130425089731   -0.18542504261354
C        70.16658698600590    2.49318429534625   -0.91893869811364
C        69.20491138331175    3.37445780526180   -0.66936118272298
C        68.21831833689623    2.75759912979078    0.20887477988216
N        68.57432972496038    1.51643927392380    0.47280350807500
C        67.00994822634321    3.31579199502253    0.76685153431063
C        65.86457440608628    2.61201753634701    0.91336349494145
N        65.54730848248150    1.50578328577011    0.11014054908475
H        64.73158842564629    3.61034360693625    2.63889577358324
H        62.95258484912934    1.84237662005312    2.21695565093177
H        63.11453159841920   -1.81683353318011   -2.19565513055327
H        65.05370110076905   -3.67585078223167   -2.57571482091582
H        67.31075634271171   -4.46790162830111   -0.85396564333080
H        69.48943569369521   -4.30566802882073    1.15319440496943
H        71.19098946620862   -2.40817101246850    1.42689054609243
H        71.54700933655511    0.15455185666945   -0.23866606542733
H        71.02757240685401    2.66303133584138   -1.55093003017320
H        69.20821830046074    4.37135420259795   -1.08865076247727
H        67.03249681190931    4.36174655479540    1.08431879240298
C        23.06123934184895    0.02086923223818   -0.00146233417047
C        24.28645033179149   -0.00453354575631   -0.01200427971995
C        25.68313862021264   -0.02505315999335   -0.01630065340363
C        26.90765689213874   -0.02715306037154   -0.01618372186567
C        28.26603176661264   -0.00875970033726   -0.01656791999407
C        29.45848774419015    0.03117379043646   -0.00381829006024
C        38.70917795767279    0.02887396239863   -0.00133981214357
C        39.90577930981121   -0.00445213456141   -0.01145847655663
C        41.26613539262396   -0.02490404199913   -0.01707793431612
C        42.48734111464751   -0.02712892272954   -0.01620418308548
C        43.84229036331404   -0.00877545926121   -0.01654368266244
C        45.03392836708067    0.03113072683464   -0.00415073958743
C        54.28487444410947    0.02897678646313   -0.00101576845195
C        55.48208259183302   -0.00423810625384   -0.01122551969611
C        56.84685072757301   -0.02485428427478   -0.01710601058925
C        58.07172054916661   -0.02726190721879   -0.01648188058638
C        59.46855015300316   -0.00936247763467   -0.01652609495990
C        60.69228546043529    0.02071340993135   -0.00142968143069
Fe       34.12373388134230    0.03402965144822    0.00096672256508
C        31.85102404539795   -3.24386869616177   -0.90373572587587
C        30.88867785363933   -2.32715566148689   -1.00424736337112
C        31.32560759296106   -1.18939860752424   -0.20981414316929
C        30.72179150438226   -0.00321881555415    0.00678561872575
C        31.37169532470981    1.26635166430069    0.23035677314098
C        30.99372696596670    2.35803692877979    0.94699352012412
C        32.00556202448053    3.35946692614301    0.85363555831143
C        32.98428594519266    2.84677363378620    0.06722998708148
N        32.61604084427510    1.53899337863630   -0.33872275736519
C        34.21095005588705    3.47442029713695   -0.34421652943651
C        35.33141423290476    2.79778251170392   -0.67700444741810
C        36.31924199609833    3.06321745933426   -1.70326588216853
C        37.22520304990046    2.08567099237065   -1.60859299444843
C        36.82002261348777    1.18914049302002   -0.51898043286598
N        35.71046084070384    1.62928642654041   -0.00333998387194
C        37.43948572032389   -0.00314906053755   -0.00061533849406
C        36.83343939851962   -1.10430090555932    0.47896820169714
C        37.25195651214804   -2.01259381162064    1.53753314528371
C        36.29823027754527   -2.94453312667950    1.62995813600599
C        35.28584170273446   -2.64749026391295    0.63970139431246
N        35.62132136048566   -1.56350290244754   -0.01456181227587
C        34.05942243129169   -3.35034537001646    0.30827669112965
C        32.91703424797124   -2.73808723611804   -0.05231898334175
N        32.55635895565088   -1.46055192908705    0.35548659330961
H        31.85137044449166   -4.21698213340361   -1.39533159578915
H        29.98463657653697   -2.44463794676120   -1.58683201959055
H        30.07527501254773    2.45717787002563    1.51378840234412
H        32.04554336826813    4.34250200525367    1.30405534466449
H        34.29847803967067    4.56570266835840   -0.40935073748654
H        36.34561570276917    3.86154186139999   -2.43260288505109
H        38.10298973985597    1.97870463106941   -2.23970586087595
H        38.15430748895590   -1.93921428169160    2.14798070985581
H        36.31811107692211   -3.74836274928732    2.33789119534547
H        34.08388483463708   -4.44071722908751    0.35787590793713
Fe       49.69874399570313    0.03399476636456    0.00128673827763
C        47.42571838997695   -3.24388302184225   -0.90377108870331
C        46.46381929827456   -2.32761606191885   -1.00418413337985
C        46.90069474671617   -1.18905061738801   -0.20899022401642
C        46.29734848308363   -0.00346610379347    0.00662454314921
C        46.94682352265139    1.26650490389447    0.23003977939360
C        46.56899102645720    2.35811590428212    0.94704626528278
C        47.58056889907978    3.35945809461569    0.85363343118302
C        48.55959570227019    2.84683374788041    0.06700990874463
N        48.19113563045710    1.53897306567295   -0.33879559942768
C        49.78587437869339    3.47433649533854   -0.34399910258133
C        50.90680149317520    2.79772019939519   -0.67700555357292
C        51.89427664377571    3.06324032349369   -1.70327663067591
C        52.80038617994403    2.08559182310464   -1.60865457940147
C        52.39483616073264    1.18904867152778   -0.51971632293068
N        51.28588553171437    1.62922747056690   -0.00357415923544
C        53.01493299458285   -0.00361144613305   -0.00049557691865
C        52.40895409401219   -1.10415901076904    0.47924803607580
C        52.82730863767669   -2.01256434057593    1.53740339039125
C        51.87327024323979   -2.94431889437842    1.63008723529430
C        50.86150289239570   -2.64686808983573    0.63994336915203
N        51.19641045272832   -1.56380590389992   -0.01436291113222
C        49.63387554001485   -3.35045490453801    0.30776179955061
C        48.49273562452279   -2.73825495343066   -0.05200200549998
N        48.13175080161151   -1.46024766620699    0.35548592388977
H        47.42648066089767   -4.21698476259906   -1.39537706307458
H        45.55982460834735   -2.44466722779821   -1.58691206962106
H        45.65047077755600    2.45717885672682    1.51383738042331
H        47.62068350165279    4.34251595763396    1.30405457557097
H        49.87362944070968    4.56568322142375   -0.40926993858379
H        51.92078522851072    3.86156115194334   -2.43258493722775
H        53.67816593065072    1.97871234150077   -2.23967809330458
H        53.72951615581769   -1.93925112580663    2.14796001688295
H        51.89324008234517   -3.74831257784081    2.33788357844813
H        49.65904951877121   -4.44075255930017    0.35747872438758
160
 energy: -289.551401212069 gnorm: 0.262400600098 xtb: 6.4.1 (bd6e46d)
Fe       16.65475187225525    0.03319849092847   -0.00831868874314
C        18.96627019812220   -3.12585787158811    1.29822030029952
C        19.90647809063579   -2.16686440621023    1.25619641691320
C        19.46116037139739   -1.11951555416999    0.35308199067512
C        20.04184888695623    0.04994416477513   -0.00715787196620
C        19.36230422199127    1.22036276774068   -0.35816640636529
C        19.73008407395367    2.23910891063934   -1.24509952102762
C        18.73356695957316    3.20744052838871   -1.25240163230826
C        17.73206160297515    2.79003147568881   -0.37342062916134
N        18.10347630969827    1.56504060184410    0.17348919513768
C        16.51767169809634    3.46936199846879   -0.00980123725875
C        15.37143255112107    2.81031806919364    0.34760088751935
C        14.31758679818721    3.16774324326291    1.28132888573202
C        13.43247455198238    2.15137605454030    1.23519283129648
C        13.90167355707870    1.15869375774196    0.28317001589119
N        15.07664002416659    1.56579071861771   -0.19635732138923
C        13.28543162829208   -0.05794200249636   -0.14603814821951
C        13.97543653780659   -1.20489686038855   -0.42710167549076
C        13.58218672546995   -2.26124875511390   -1.34729496997147
C        14.55170772589633   -3.19261891985153   -1.27480790468912
C        15.54351213570060   -2.73898715753670   -0.31471007535160
N        15.19099815110005   -1.53342534052217    0.15188610582059
C        16.72773705043092   -3.38412024051746    0.13192380588582
C        17.89059964923779   -2.70137362981624    0.41972141703299
N        18.19566351906057   -1.47673720608168   -0.13771774833976
H        19.01211370628965   -4.01335002564300    1.91457694182924
H        20.80818073633739   -2.19175319585277    1.83437399293821
H        20.63712560272153    2.22077555738966   -1.82019592886689
H        18.70649636998535    4.10445004157215   -1.84678470010898
H        16.46175731479273    4.55846913534990   -0.00491966916043
H        14.27122626337877    4.03211145453842    1.92343720917880
H        12.55492874324134    2.11037798099251    1.84873554984185
H        12.20784404274765   -0.08042829668340   -0.26362457872916
H        12.72879559223895   -2.30026738949680   -2.00552166436628
H        14.55687350405500   -4.08165246653012   -1.87420371569849
H        16.71823116929871   -4.46322561920588    0.25514323906788
Fe       67.09850166668035   -0.01225140002934   -0.01257942390757
C        64.78699202080134    2.84958109907988    1.85734864513817
C        63.84679264136554    1.91503765797471    1.63812724941730
C        64.29216426776478    1.05346467120208    0.55638610421911
C        63.71136021601745   -0.02871999347138   -0.01458719639643
C        64.39091109273605   -1.11386590117665   -0.57658129976867
C        64.02315969553510   -1.95042987732635   -1.63708301928148
C        65.01967985717370   -2.90060873806867   -1.82390418261875
C        66.02117839388173   -2.65350337706100   -0.88274810320111
N        65.64971696200435   -1.55123407823154   -0.11808233513371
C        67.23556824324889   -3.38850633717125   -0.65147820016113
C        68.38181287646688   -2.80719567213721   -0.17801432374660
C        69.43565465014395   -3.33163846862826    0.67319681138626
C        70.32077528643065   -2.32435697217741    0.81640316597200
C        69.85158125130731   -1.17229477287340    0.06506360222570
N        68.67660802934375   -1.48337540391699   -0.48166255587273
C        70.46781580421660    0.10283980715125   -0.13098634094470
C        69.77780650766468    1.28203330527328   -0.19440433095295
C        70.17105919338226    2.49075076470746   -0.90265626601699
C        69.20153902319062    3.39251101382350   -0.65864237433816
C        68.20974006084384    2.76864599382297    0.20063559632716
N        68.56225305362665    1.49744988710551    0.43548608751280
C        67.02551665127646    3.31973584654023    0.75919743422866
C        65.86266611199346    2.59544694993978    0.91535246386999
N        65.55765663580777    1.49545811824273    0.14042860336580
H        64.74113324969889    3.60733149352387    2.62763765017733
H        62.94507019392679    1.83223257258035    2.21087021298212
H        63.11613120364198   -1.82572985061382   -2.19884596167280
H        65.04675565245202   -3.67178106490226   -2.57439517192254
H        67.29149259759869   -4.45961449706048   -0.84873681636732
H        69.48202177773062   -4.30012740094684    1.14380628964567
H        71.19832012290776   -2.39789450005723    1.42690675723831
H        71.54540448528549    0.14675430806194   -0.24235703710177
H        71.02445186009459    2.65120397705084   -1.54221736242651
H        69.19637388903362    4.37730802231905   -1.08270766339831
H        67.03501867893426    4.35724761190364    1.08046155947163
C        23.06334311743389    0.02033026612460   -0.00140090082678
C        24.29329704468696   -0.00486629388026   -0.01178691710248
C        25.65981288202657   -0.02386729797804   -0.01629061419573
C        26.89021356405900   -0.02615127604046   -0.01645731362435
C        28.21539325657479   -0.00987908687214   -0.01503668808601
C        29.43315606091218    0.04438569993800   -0.00706414858269
C        38.74157242488801    0.03556788349687    0.00083412841685
C        39.95239135240590   -0.00646996674550   -0.00977401095237
C        41.26649761028342   -0.02390582311040   -0.01812104342247
C        42.48715058293322   -0.02614601816312   -0.01655447870458
C        43.80119614443776   -0.00984671186757   -0.01517677406818
C        45.01411751932858    0.04446595608251   -0.00824235802222
C        54.32286210053531    0.03580378140633    0.00140866212324
C        55.53853401532447   -0.00606368125533   -0.00916937642106
C        56.86448509225624   -0.02355067064302   -0.01801999579220
C        58.09448053271122   -0.02590948703980   -0.01678426510190
C        59.46120851895279   -0.01030555935130   -0.01616261257275
C        60.69083329447138    0.01929538178704   -0.00139262321641
Fe       34.11815206180053    0.03635743288434   -0.00459677412288
C        31.85380572210293   -3.26207162169380   -0.89460713639025
C        30.88716996181989   -2.32670316606880   -0.99387949027997
C        31.35402965764848   -1.20136218482795   -0.21554182706908
C        30.75026238603848    0.02012049951136    0.00494702101549
C        31.40842666820595    1.27350978743640    0.22905680877330
C        30.98895763824281    2.38454097447735    0.95481165471698
C        31.98156303855542    3.36031584195653    0.85596367386323
C        32.99499079629310    2.83141573488078    0.06487591583651
N        32.64738797226985    1.53007307947246   -0.31491518232499
C        34.19388094972218    3.47475798931837   -0.34683767092268
C        35.33422286121086    2.78822005015551   -0.68111185722856
C        36.32625119517936    3.06955272858233   -1.68750945289477
C        37.24164464920369    2.07626766212077   -1.60339364971597
C        36.81130184853055    1.18851824546383   -0.53995241731631
N        35.66791364867958    1.61420290448020   -0.02860858944305
C        37.42017249831407    0.01323805083162   -0.01085856405918
C        36.80897862864660   -1.11473475320710    0.48967929094079
C        37.25622824546416   -2.01213751140789    1.52560790563939
C        36.29546776551348   -2.96226121461982    1.62410079074011
C        35.27263761294934   -2.65891715773050    0.65199795194073
N        35.59848921244230   -1.53151743817653    0.00825225625995
C        34.07715339660665   -3.35785066428857    0.31856933991965
C        32.91341626904563   -2.73370278553576   -0.06215425586573
N        32.57634701002830   -1.45491989142856    0.31700729468086
H        31.85695632916043   -4.21724043860764   -1.39012886095054
H        29.98718893216708   -2.43190199299594   -1.57857643583360
H        30.07455736699321    2.46081867975052    1.51384734541063
H        32.03291041960104    4.33679716879607    1.30550561666192
H        34.27668475183510    4.55972564355131   -0.41363248078628
H        36.33840495089580    3.86016662156680   -2.42110043401991
H        38.10475104713813    1.97018267330497   -2.23462404995586
H        38.14625859427402   -1.93339711919210    2.13594369030686
H        36.31006522016838   -3.75777319588787    2.33745563825029