160
 energy: -290.433255387975 gnorm: 0.000879015169 xtb: 6.4.1 (bd6e46d)
Fe       17.60153774353918   -0.00464969484482   -0.01008101291388
C        20.10318301012784   -3.39162078194356    0.03877042550603
C        21.09484613906141   -2.47003615240418    0.03894830055226
C        20.45365951404204   -1.19106373316582    0.01811606889577
C        21.12945177543002    0.03339859987844    0.00495822249354
C        20.42771567402345    1.24308378799867   -0.01167438640075
C        21.04130538008802    2.53553461977946   -0.02402647075710
C        20.03003289158619    3.43556840876048   -0.02805409726542
C        18.80630451826767    2.68699549374593   -0.01877676200009
N        19.07062954290115    1.34237836385211   -0.01093140922748
C        17.56376839422339    3.29030002654780   -0.01409692536704
C        16.33617383363125    2.65777074184619   -0.01034826030772
C        15.09241809906676    3.37719248534128   -0.00729992027928
C        14.10533065707712    2.45344055858124   -0.01494923166187
C        14.74898723712610    1.17179692693197   -0.02189529787749
N        16.10676262089504    1.30970069649891   -0.01682278778464
C        14.09194453432114   -0.04245674715704   -0.03594804619024
C        14.77506604767024   -1.24226105556076   -0.03800989261167
C        14.15932473324917   -2.53751802494222   -0.05037372189862
C        15.16608926959798   -3.43972969757354   -0.03870019119092
C        16.39387231321860   -2.69361881858551   -0.01971650884122
N        16.13543030596589   -1.35084141029718   -0.02177519751801
C        17.63458952969231   -3.29960153056186    0.00206233044630
C        18.86372309923005   -2.66961774355967    0.01725016904300
N        19.09906333983985   -1.31964934326743    0.00720715606960
H        20.18391978144555   -4.46138853818836    0.05133301433613
H        22.15695521874106   -2.61980111252463    0.05154289741872
H        22.10009787386986    2.70812568974600   -0.02809657293497
H        20.08772792791841    4.50692588451837   -0.03646182804931
H        17.55216045955100    4.37111375632980   -0.01482585290848
H        15.01000743893965    4.44714052948148   -0.00062255141842
H        13.04287796028381    2.60247001045076   -0.01600404062177
H        13.01309429469342   -0.05405250653420   -0.04456481568261
H        13.10042369766446   -2.70948379024380   -0.06523219133102
H        15.10696754338518   -4.51122749678234   -0.04217434483984
H        17.64619095258139   -4.38039949935221    0.00676651579744
Fe       66.17368477115230    0.02978904930081   -0.00888062914332
C        63.67961142950885    3.35950093811421    0.64457227190561
C        62.68588462098796    2.45576284239402    0.47574832865786
C        63.32431709226666    1.19968862680179    0.22681332637968
C        62.64601058328055   -0.00129273100707   -0.00481359939139
C        63.34490222589447   -1.19041843501417   -0.23559418504463
C        62.72824593484987   -2.45810879395645   -0.48032808899726
C        63.73736609890610   -3.34486479436805   -0.64778302853953
C        64.96289060093795   -2.61295365273699   -0.50463328824315
N        64.70179970604806   -1.29132622981371   -0.25361245939090
C        66.20399147042443   -3.20992365105644   -0.61039321495302
C        67.43301908768301   -2.59142955351869   -0.49189317747033
C        68.67514649353329   -3.30236307494631   -0.61913097121411
C        69.66431401667253   -2.39511267704333   -0.45741744400891
C        69.02354988686696   -1.13209850898872   -0.23113106162629
N        67.66545769127082   -1.26532489765184   -0.25252476716330
C        69.68329019630893    0.06266855328528   -0.02255312765462
C        69.00295313519652    1.24454033689788    0.19310002853990
C        69.62174678696407    2.51869551783866    0.41804576923286
C        68.61708546157715    3.40651477575876    0.59156397877654
C        67.38748306346027    2.67283490309023    0.47162145527265
N        67.64281005657718    1.35210454442807    0.22610262990006
C        66.14812600073793    3.26847151858786    0.59946732379950
C        64.91747837073811    2.64976562055897    0.49675252539321
N        64.67920297407893    1.32434134695085    0.24278929039709
H        63.60118056858934    4.40972440996960    0.84959271488599
H        61.62401803054446    2.60367934341292    0.51234755959291
H        61.66909362710073   -2.62474989612833   -0.51476431335754
H        63.67710908712112   -4.39690702394401   -0.84963095788490
H        66.21312205408671   -4.27266805227395   -0.80732602053769
H        68.75517796896254   -4.35580155031917   -0.80754913761112
H        70.72644231779415   -2.54411410828157   -0.48468983775696
H        70.76218297900000    0.07287750867436   -0.02730516218251
H        70.68107428701724    2.68757540563851    0.43692201455855
H        68.67867382099247    4.46057916836973    0.78325047670036
H        66.13913081908126    4.33054033783007    0.79999799203473
C        22.52527536243747    0.04765564316724    0.00693177140355
C        23.74499456594142    0.05461252687427    0.01063231423922
C        25.08194824393371    0.06420559785778    0.00610788726529
C        26.30607346567806    0.06652170006264    0.00947163121036
C        27.64292353668066    0.06913586360215    0.00511949386622
C        28.86284374622181    0.06967360349575    0.00090376826477
C        38.71935282803612    0.04372565823395   -0.02214271423361
C        39.93938610468570    0.04036281795763   -0.02138639391397
C        41.27603557566890    0.03820759626023   -0.02167024568153
C        42.50037627993310    0.03614651955084   -0.02123033624725
C        43.83702987697614    0.03352512304245   -0.02131429152962
C        45.05706572925970    0.02985503723402   -0.02188132840873
C        54.91256286123945   -0.01570279892564   -0.01166134147060
C        56.13241982534727   -0.01852187653000   -0.01001095782283
C        57.46931173222817   -0.01915873340459   -0.00930250578338
C        58.69340814526281   -0.02032527496647   -0.00548858468039
C        60.03043051611940   -0.01634875857953   -0.00682026953031
C        61.25010543517803   -0.01236696568925   -0.00540471968311
Fe       33.79103418246043    0.05626407693804   -0.01546916423758
C        31.31595030377434   -3.32595969761680    0.39609423188307
C        30.31566902161252   -2.41905818520285    0.29553548114017
C        30.94519255412265   -1.14387596832478    0.13889046190399
C        30.25807100052504    0.06650145122130   -0.00414270918207
C        30.95103990513227    1.27265687298855   -0.15320621933769
C        30.32792309285491    2.55106534619551   -0.30849465143067
C        31.33269974500365    3.45187494167846   -0.41867137881819
C        32.56142395984880    2.71740305551368   -0.32933337885372
N        32.30684365938718    1.38044974661389   -0.16804648112215
C        33.79936242816598    3.32571405201754   -0.39832199515812
C        35.03431578548093    2.71241256793110   -0.32248740096766
C        36.26676189023622    3.44164653204395   -0.40157671463863
C        37.26683576958473    2.53506546170032   -0.29602986881220
C        36.63711620380651    1.25834601553115   -0.15389325907413
N        35.28205934516907    1.37310493139631   -0.16903177921438
C        37.32428447795947    0.04684640778451   -0.02076033025572
C        36.63123455549411   -1.16123448939941    0.11297750193618
C        37.25450454422349   -2.44157521253541    0.25084246687229
C        36.24985677385104   -3.34309916859431    0.35640471870161
C        35.02111871239610   -2.60711188580292    0.28227013045572
N        35.27560790166974   -1.26878324780690    0.13128167478816
C        33.78309687275942   -3.21378844047267    0.36152181357490
C        32.54826706257885   -2.59839073386511    0.30071614767795
N        32.30032964417890   -1.25950229513295    0.14435396679135
H        31.24519731023057   -4.38896992935427    0.52297875861719
H        29.25487434044787   -2.57645933541467    0.32193836864958
H        29.26792401947626    2.71458007893595   -0.32807185222488
H        31.26719143517175    4.51490426435011   -0.54815024247724
H        33.80183847696615    4.39925630432708   -0.52467879685591
H        36.33789161852793    4.50540103058391   -0.52175682773859
H        38.32760300905960    2.69384886903705   -0.31089793688900
H        38.31446807623232   -2.60598885601505    0.26291533318220
H        36.31551981901617   -4.40750797042608    0.47373252644659
H        33.78007509776125   -4.28767683563753    0.48497046185416
Fe       49.98485915740748    0.00669854392104   -0.01764387943425
C        47.50130627561322   -3.36937286835015    0.39758725332818
C        46.50346739962465   -2.46019783661881    0.29348125449070
C        47.13628119376992   -1.18728255274714    0.13215836505238
C        46.45214258566710    0.02361592344057   -0.02038524316739
C        47.14805929274496    1.22775571947558   -0.17244204965519
C        46.52749313803820    2.50615900731426   -0.33630869887044
C        47.53396357518098    3.40585171831097   -0.44091615384336
C        48.76122090105298    2.67054524129410   -0.33995248907606
N        48.50389732388616    1.33402705986445   -0.17801893016580
C        50.00061314657145    3.27691231254688   -0.39766534918466
C        51.23384148527599    2.66117704471335   -0.31235680166117
C        52.46802994022293    3.38858599988677   -0.38080418417787
C        53.46591840423908    2.47987638161053   -0.27314801277617
C        52.83310909856434    1.20364079351762   -0.14023685891615
N        51.47829578974370    1.32091045490024   -0.16207827037110
C        53.51728294643454   -0.01012191222865   -0.01294143254323
C        52.82170022706081   -1.21738522943562    0.11196512077942
C        53.44189596944565   -2.49971717964862    0.24544883352045
C        52.43505594258758   -3.39902207798716    0.34863640750265
C        51.20806482326841   -2.65969776893422    0.27745190260437
N        51.46565657953084   -1.32172881750346    0.12968777869928
C        49.96879841434497   -3.26370832313867    0.35856673424925
C        48.73549716734475   -2.64537031732370    0.29949221212469
N        48.49103854356024   -1.30622460409611    0.13945186254735
H        47.42768446275132   -4.43172268960325    0.52832774049083
H        45.44230894656736   -2.61490846965790    0.32022555226696
H        45.46777031044344    2.66990240530136   -0.36448624710649
H        47.47057452515538    4.46856460491385   -0.57371777012035
H        50.00617554244257    4.35054456433935   -0.52305969543075
H        52.54159560909800    4.45269463304771   -0.49627806163198
H        54.52711736425043    2.63657344518988   -0.28136369528753
H        54.50148795379329   -2.66659675271427    0.25689144149257
H        52.49800636962767   -4.46395571435791    0.46294048752986
H        49.96369817787321   -4.33758322675103    0.48193975306378
