      -----------------------------------------------------------      
     |                   =====================                   |     
     |                           x T B                           |     
     |                   =====================                   |     
     |                         S. Grimme                         |     
     |          Mulliken Center for Theoretical Chemistry        |     
     |                    University of Bonn                     |     
      -----------------------------------------------------------      

   * xtb version 6.4.1 (bd6e46d) compiled by 'conda@4901f00b25ba' on 2021-06-10

   xtb is free software: you can redistribute it and/or modify it under
   the terms of the GNU Lesser General Public License as published by
   the Free Software Foundation, either version 3 of the License, or
   (at your option) any later version.
   
   xtb is distributed in the hope that it will be useful,
   but WITHOUT ANY WARRANTY; without even the implied warranty of
   MERCHANTABILITY or FITNESS FOR A PARTICULAR PURPOSE.  See the
   GNU Lesser General Public License for more details.
   
   Cite this work as:
   * C. Bannwarth, E. Caldeweyher, S. Ehlert, A. Hansen, P. Pracht,
     J. Seibert, S. Spicher, S. Grimme, WIREs Comput. Mol. Sci., 2020, 11,
     e01493. DOI: 10.1002/wcms.1493
   
   for GFN2-xTB:
   * C. Bannwarth, S. Ehlert and S. Grimme., J. Chem. Theory Comput., 2019,
     15, 1652-1671. DOI: 10.1021/acs.jctc.8b01176
   for GFN1-xTB:
   * S. Grimme, C. Bannwarth, P. Shushkov, J. Chem. Theory Comput., 2017,
     13, 1989-2009. DOI: 10.1021/acs.jctc.7b00118
   for GFN0-xTB:
   * P. Pracht, E. Caldeweyher, S. Ehlert, S. Grimme, ChemRxiv, 2019, preprint.
     DOI: 10.26434/chemrxiv.8326202.v1
   for GFN-FF:
   * S. Spicher and S. Grimme, Angew. Chem. Int. Ed., 2020, 59, 15665-15673.
     DOI: 10.1002/anie.202004239
   
   for DFT-D4:
   * E. Caldeweyher, C. Bannwarth and S. Grimme, J. Chem. Phys., 2017,
     147, 034112. DOI: 10.1063/1.4993215
   * E. Caldeweyher, S. Ehlert, A. Hansen, H. Neugebauer, S. Spicher,
     C. Bannwarth and S. Grimme, J. Chem. Phys., 2019, 150, 154122.
     DOI: 10.1063/1.5090222
   * E. Caldeweyher, J.-M. Mewes, S. Ehlert and S. Grimme, Phys. Chem. Chem. Phys.
     2020, 22, 8499-8512. DOI: 10.1039/D0CP00502A
   
   for sTDA-xTB:
   * S. Grimme and C. Bannwarth, J. Chem. Phys., 2016, 145, 054103.
     DOI: 10.1063/1.4959605
   
   in the mass-spec context:
   * V. Asgeirsson, C. Bauer and S. Grimme, Chem. Sci., 2017, 8, 4879.
     DOI: 10.1039/c7sc00601b
   * J. Koopman and S. Grimme, ACS Omega 2019, 4, 12, 15120-15133.
     DOI: 10.1021/acsomega.9b02011
   
   for metadynamics refer to:
   * S. Grimme, J. Chem. Theory Comput., 2019, 155, 2847-2862
     DOI: 10.1021/acs.jctc.9b00143
   
   for SPH calculations refer to:
   * S. Spicher and S. Grimme, J. Chem. Theory Comput., 2021, 17, 1701-1714
     DOI: 10.1021/acs.jctc.0c01306
   
   with help from (in alphabetical order)
   P. Atkinson, C. Bannwarth, F. Bohle, G. Brandenburg, E. Caldeweyher
   M. Checinski, S. Dohm, S. Ehlert, S. Ehrlich, I. Gerasimov, J. Koopman
   C. Lavigne, S. Lehtola, F. März, M. Müller, F. Musil, H. Neugebauer
   J. Pisarek, C. Plett, P. Pracht, J. Seibert, P. Shushkov, S. Spicher
   M. Stahn, M. Steiner, T. Strunk, J. Stückrath, T. Rose, and J. Unsleber
   
 * started run on 2021/11/21 at 14:45:38.417     

           -------------------------------------------------
          |                Calculation Setup                |
           -------------------------------------------------

          program call               : /home/jeff/miniconda3/bin/xtb input_structure_1.xyz --gfn 2 --ohess normal --parallel 1 --etemp 300 --chrg 0 --uhf 0 -I det_control.in
          hostname                   : jelfscompute1
          coordinate file            : input_structure_1.xyz
          omp threads                :                     1
          number of atoms            :                   310
          number of electrons        :                  1082
          charge                     :                     0
          spin                       :                   0.0
          first test random number   :      0.54921822697690

   ID    Z sym.   atoms
    1   29 Cu     1, 37, 101, 136, 171, 206, 241, 276
    2    6 C      2-9, 11-15, 17-21, 23, 24, 38-45, 47-51, 53-57, 59, 60,
                  73-100, 102-109, 111-115, 117-121, 123, 124, 137-144,
                  146-150, 152-156, 158, 159, 172-179, 181-185, 187-191, 193,
                  194, 207-214, 216-220, 222-226, 228, 229, 242-249, 251-255,
                  257-261, 263, 264, 277-284, 286-290, 292-296, 298, 299
    3    7 N      10, 16, 22, 25, 46, 52, 58, 61, 110, 116, 122, 125, 145,
                  151, 157, 160, 180, 186, 192, 195, 215, 221, 227, 230, 250,
                  256, 262, 265, 285, 291, 297, 300
    4    1 H      26-36, 62-72, 126-135, 161-170, 196-205, 231-240, 266-275,
                  301-310

molecular fragmentation (1/2 indicates fragments):
111111111111111111111111111111111111222222222222222222222222222222222222
222222222222222222222222222222222222222222222222222222222222222222222222
222222222222222222222222222222222222222222222222222222222222222222222222
222222222222222222222222222222222222222222222222222222222222222222222222
2222222222222222222222
# atoms in fragment 1/2:    36   274
 fragment masses (1/2) :      370.87     2926.38
CMA distance (Bohr)    : 102.911
constraining FC (au)   :  0.0500

           -------------------------------------------------
          |                 G F N 2 - x T B                 |
           -------------------------------------------------

        Reference                      10.1021/acs.jctc.8b01176
      * Hamiltonian:
        H0-scaling (s, p, d)           1.850000    2.230000    2.230000
        zeta-weighting                 0.500000
      * Dispersion:
        s8                             2.700000
        a1                             0.520000
        a2                             5.000000
        s9                             5.000000
      * Repulsion:
        kExp                           1.500000    1.000000
        rExp                           1.000000
      * Coulomb:
        alpha                          2.000000
        third order                    shell-resolved
        anisotropic                    true
        a3                             3.000000
        a5                             4.000000
        cn-shift                       1.200000
        cn-exp                         4.000000
        max-rad                        5.000000


          ...................................................
          :                      SETUP                      :
          :.................................................:
          :  # basis functions                1042          :
          :  # atomic orbitals                1034          :
          :  # shells                          546          :
          :  # electrons                      1082          :
          :  max. iterations                   250          :
          :  Hamiltonian                  GFN2-xTB          :
          :  restarted?                      false          :
          :  GBSA solvation                  false          :
          :  PC potential                    false          :
          :  electronic temp.          300.0000000     K    :
          :  accuracy                    1.0000000          :
          :  -> integral cutoff          0.2500000E+02      :
          :  -> integral neglect         0.1000000E-07      :
          :  -> SCF convergence          0.1000000E-05 Eh   :
          :  -> wf. convergence          0.1000000E-03 e    :
          :  Broyden damping             0.4000000          :
          ...................................................

 iter      E             dE          RMSdq      gap      omega  full diag
   1   -576.9630942 -0.576963E+03  0.607E+00    0.06       0.0  T
   2   -559.0065741  0.179565E+02  0.460E+00    0.04       1.0  T
   3   -132.8976272  0.426109E+03  0.148E+01    0.04       1.0  T
   4   -385.7345353 -0.252837E+03  0.107E+01    0.02       1.0  T
   5   -524.1151998 -0.138381E+03  0.609E+00    0.05       1.0  T
   6   -554.6863675 -0.305712E+02  0.470E+00    0.01       1.0  T
   7   -523.0239611  0.316624E+02  0.514E+00    0.03       1.0  T
   8   -509.7478050  0.132762E+02  0.707E+00    0.02       1.0  T
   9   -519.7187656 -0.997096E+01  0.634E+00    0.03       1.0  T
  10   -539.5734572 -0.198547E+02  0.397E+00    0.01       1.0  T
  11   -556.4668735 -0.168934E+02  0.521E+00    0.03       1.0  T
  12   -574.7769201 -0.183100E+02  0.188E+00    0.03       1.0  T
  13   -573.0927817  0.168414E+01  0.212E+00    0.01       1.0  T
  14   -575.8273714 -0.273459E+01  0.146E+00    0.09       1.0  T
  15   -575.9275772 -0.100206E+00  0.142E+00    0.08       1.0  T
  16   -576.5053018 -0.577725E+00  0.114E+00    0.07       1.0  T
  17   -576.4414858  0.638160E-01  0.106E+00    0.01       1.0  T
  18   -576.7041076 -0.262622E+00  0.951E-01    0.06       1.0  T
  19   -576.6434142  0.606935E-01  0.908E-01    0.08       1.0  T
  20   -576.9163687 -0.272955E+00  0.771E-01    0.02       1.0  T
  21   -577.0297578 -0.113389E+00  0.721E-01    0.05       1.0  T
  22   -577.1494625 -0.119705E+00  0.622E-01    0.04       1.0  T
  23   -576.8102977  0.339165E+00  0.729E-01    0.02       1.0  T
  24   -577.2563299 -0.446032E+00  0.534E-01    0.03       1.0  T
  25   -577.2694415 -0.131116E-01  0.493E-01    0.05       1.0  T
  26   -577.3674054 -0.979639E-01  0.441E-01    0.01       1.0  T
  27   -577.3274402  0.399652E-01  0.450E-01    0.01       1.0  T
  28   -577.1838399  0.143600E+00  0.471E-01    0.03       1.0  T
  29   -577.3576035 -0.173764E+00  0.408E-01    0.01       1.0  T
  30   -577.4330675 -0.754640E-01  0.331E-01    0.04       1.0  T
  31   -577.4250591  0.800848E-02  0.386E-01    0.01       1.0  T
  32   -577.4138065  0.112526E-01  0.354E-01    0.04       1.0  T
  33   -577.4862173 -0.724109E-01  0.238E-01    0.02       1.0  T
  34   -577.4728141  0.134033E-01  0.354E-01    0.00       1.0  T
  35   -577.4768448 -0.403071E-02  0.342E-01    0.01       1.0  T
  36   -577.3435053  0.133339E+00  0.457E-01    0.01       1.0  T
  37   -577.3893810 -0.458757E-01  0.407E-01    0.00       1.0  T
  38   -577.4443993 -0.550184E-01  0.330E-01    0.02       1.0  T
  39   -577.5282625 -0.838631E-01  0.169E-01    0.01       1.0  T
  40   -577.5183400  0.992251E-02  0.170E-01    0.03       1.0  T
  41   -577.5272788 -0.893887E-02  0.151E-01    0.02       1.0  T
  42   -577.5392374 -0.119585E-01  0.115E-01    0.01       1.0  T
  43   -577.5439071 -0.466976E-02  0.954E-02    0.01       1.0  T
  44   -577.5422979  0.160922E-02  0.970E-02    0.01       1.0  T
  45   -577.5469637 -0.466584E-02  0.732E-02    0.01       1.0  T
  46   -577.5502940 -0.333026E-02  0.546E-02    0.00       1.0  T
  47   -577.5504375 -0.143473E-03  0.516E-02    0.00       1.0  T
  48   -577.5510622 -0.624738E-03  0.424E-02    0.00       1.0  T
  49   -577.5502281  0.834122E-03  0.449E-02    0.01       1.0  T
  50   -577.5514944 -0.126628E-02  0.328E-02    0.00       1.0  T
  51   -577.5504797  0.101465E-02  0.386E-02    0.01       1.0  T
  52   -577.5507937 -0.313978E-03  0.350E-02    0.00       1.0  T
  53   -577.5510122 -0.218523E-03  0.316E-02    0.00       1.0  T
  54   -577.5516225 -0.610252E-03  0.224E-02    0.00       1.0  T
  55   -577.5519095 -0.287052E-03  0.172E-02    0.00       1.0  T
  56   -577.5519262 -0.166298E-04  0.163E-02    0.00       1.0  T
  57   -577.5520813 -0.155152E-03  0.126E-02    0.00       1.0  T
  58   -577.5520893 -0.798899E-05  0.117E-02    0.00       1.0  T
  59   -577.5521181 -0.288260E-04  0.988E-03    0.00       1.0  T
  60   -577.5521400 -0.218617E-04  0.864E-03    0.00       1.0  T
  61   -577.5521522 -0.122243E-04  0.770E-03    0.00       1.0  T
  62   -577.5521680 -0.157482E-04  0.629E-03    0.00       1.0  T
  63   -577.5521672  0.760832E-06  0.543E-03    0.00       1.0  T
  64   -577.5521741 -0.689598E-05  0.395E-03    0.00       1.4  T
  65   -577.5521828 -0.871045E-05  0.268E-03    0.00       2.1  T
  66   -577.5521849 -0.210655E-05  0.234E-03    0.00       2.4  T
  67   -577.5521874 -0.244456E-05  0.161E-03    0.00       3.5  T
  68   -577.5521903 -0.291642E-05  0.705E-04    0.00       8.1  T
  69   -577.5521904 -0.835278E-07  0.499E-04    0.00      11.4  T
  70   -577.5521905 -0.114459E-06  0.373E-04    0.00      15.2  T

   *** convergence criteria satisfied after 70 iterations ***

         #    Occupation            Energy/Eh            Energy/eV
      -------------------------------------------------------------
         1        2.0000           -0.6855338             -18.6543
       ...           ...                  ...                  ...
       535        2.0000           -0.3561321              -9.6908
       536        2.0000           -0.3559690              -9.6864
       537        2.0000           -0.3557878              -9.6815
       538        1.7286           -0.3381605              -9.2018
       539        1.6020           -0.3377243              -9.1899
       540        1.3632           -0.3371245              -9.1736
       541        1.3050           -0.3370000              -9.1702 (HOMO)
       542        1.2512           -0.3368891              -9.1672 (LUMO)
       543        0.6113           -0.3356219              -9.1327
       544        0.1163           -0.3337556              -9.0820
       545        0.0097           -0.3313393              -9.0162
       546        0.0068           -0.3310088              -9.0072
       ...           ...                  ...                  ...
      1034                          1.6120456              43.8660
      -------------------------------------------------------------
                  HL-Gap            0.0001109 Eh            0.0030 eV
             Fermi-level           -0.3364014 Eh           -9.1539 eV

 SCC (total)                   0 d,  0 h,  0 min, 27.226 sec
 SCC setup                      ...        0 min,  0.017 sec (  0.064%)
 Dispersion                     ...        0 min,  0.033 sec (  0.120%)
 classical contributions        ...        0 min,  0.003 sec (  0.010%)
 integral evaluation            ...        0 min,  0.267 sec (  0.980%)
 iterations                     ...        0 min, 26.218 sec ( 96.297%)
 molecular gradient             ...        0 min,  0.637 sec (  2.341%)
 printout                       ...        0 min,  0.051 sec (  0.187%)

         :::::::::::::::::::::::::::::::::::::::::::::::::::::
         ::                     SUMMARY                     ::
         :::::::::::::::::::::::::::::::::::::::::::::::::::::
         :: total energy            -567.046338061350 Eh    ::
         :: gradient norm              1.079488427506 Eh/a0 ::
         :: HOMO-LUMO gap              0.003016959573 eV    ::
         ::.................................................::
         :: SCC energy              -577.552190467023 Eh    ::
         :: -> isotropic ES            0.307971038567 Eh    ::
         :: -> anisotropic ES          0.069820578477 Eh    ::
         :: -> anisotropic XC          0.302349610646 Eh    ::
         :: -> dispersion             -0.494507190506 Eh    ::
         :: repulsion energy          10.506605990125 Eh    ::
         :: add. restraining           0.000000000000 Eh    ::
         :: total charge               0.000000000197 e     ::
         :::::::::::::::::::::::::::::::::::::::::::::::::::::

      ----------------------------------------------------------- 
     |                   =====================                   |
     |                        A N C O P T                        |
     |                   =====================                   |
     |               Approximate Normal Coordinate               |
     |                Rational Function Optimizer                |
      ----------------------------------------------------------- 

          ...................................................
          :                      SETUP                      :
          :.................................................:
          :   optimization level            normal          :
          :   max. optcycles                   930          :
          :   ANC micro-cycles                  20          :
          :   degrees of freedom               924          :
          :.................................................:
          :   RF solver                   davidson          :
          :   write xtbopt.log                true          :
          :   linear?                        false          :
          :   energy convergence         0.5000000E-05 Eh   :
          :   grad. convergence          0.1000000E-02 Eh/α :
          :   maximium RF displ.         1.0000000          :
          :   Hlow (freq-cutoff)         0.1000000E-01      :
          :   Hmax (freq-cutoff)         5.0000000          :
          :   S6 in model hess.         20.0000000          :
          ...................................................

generating ANC from model Hessian ...
Using Lindh-Hessian (1995)
 Shifting diagonal of input Hessian by    1.0124459906771873E-002
 Lowest  eigenvalues of input Hessian
    0.010000    0.010039    0.010094    0.010096    0.010097    0.010097
    0.010097    0.010097    0.010097    0.010102    0.010106    0.010108
    0.010110    0.010112    0.010113    0.010115    0.010117    0.010117
 Highest eigenvalues
    2.844620    2.909723    2.909723    2.909723    2.909725    2.909725


........................................................................
.............................. CYCLE    1 ..............................
........................................................................
   1   -577.5521906 -0.577552E+03  0.210E-04    0.00       0.0  T
   2   -577.5521548  0.357755E-04  0.439E-03    0.00       1.3  T
   3   -577.5521888 -0.339168E-04  0.101E-03    0.00       5.6  T
   4   -577.5521886  0.188084E-06  0.108E-03    0.00       5.3  T
   5   -577.5521899 -0.135824E-05  0.636E-04    0.00       8.9  T
   6   -577.5521906 -0.630124E-06  0.276E-04    0.00      20.6  T
   7   -577.5521902  0.319091E-06  0.494E-04    0.00      11.5  T
     SCC iter.                  ...        0 min,  2.640 sec
     gradient                   ...        0 min,  0.639 sec
 * total energy  :  -567.0463378 Eh     change        0.2204926E-06 Eh
   gradient norm :     1.0794945 Eh/α   predicted     0.0000000E+00 (-100.00%)
   displ. norm   :     0.6041554 α      lambda       -0.5716935E+00
   maximum displ.:     0.1784011 α      in ANC's #315, #901, #746, ...

........................................................................
.............................. CYCLE    2 ..............................
........................................................................
   1   -577.4910324 -0.577491E+03  0.361E-01    0.01       0.0  T
   2   -575.6099536  0.188108E+01  0.120E+00    0.04       1.0  T
   3   -576.0706568 -0.460703E+00  0.894E-01    0.04       1.0  T
   4   -576.8348683 -0.764211E+00  0.749E-01    0.06       1.0  T
   5   -577.0590755 -0.224207E+00  0.481E-01    0.01       1.0  T
   6   -576.6086325  0.450443E+00  0.679E-01    0.01       1.0  T
   7   -577.1161097 -0.507477E+00  0.547E-01    0.04       1.0  T
   8   -577.1662810 -0.501713E-01  0.425E-01    0.03       1.0  T
   9   -577.0838592  0.824218E-01  0.520E-01    0.01       1.0  T
  10   -577.2965896 -0.212730E+00  0.381E-01    0.05       1.0  T
  11   -577.4347488 -0.138159E+00  0.274E-01    0.04       1.0  T
  12   -577.4645130 -0.297642E-01  0.214E-01    0.03       1.0  T
  13   -577.4614773  0.303568E-02  0.219E-01    0.02       1.0  T
  14   -577.4522298  0.924748E-02  0.257E-01    0.05       1.0  T
  15   -577.4647153 -0.124855E-01  0.210E-01    0.01       1.0  T
  16   -577.4884328 -0.237175E-01  0.173E-01    0.01       1.0  T
  17   -577.5012989 -0.128661E-01  0.160E-01    0.02       1.0  T
  18   -577.4894308  0.118682E-01  0.152E-01    0.03       1.0  T
  19   -577.5108726 -0.214418E-01  0.134E-01    0.01       1.0  T
  20   -577.5260596 -0.151870E-01  0.686E-02    0.01       1.0  T
  21   -577.5276092 -0.154968E-02  0.548E-02    0.00       1.0  T
  22   -577.5297649 -0.215561E-02  0.384E-02    0.00       1.0  T
  23   -577.5309181 -0.115324E-02  0.274E-02    0.00       1.0  T
  24   -577.5307958  0.122261E-03  0.276E-02    0.00       1.0  T
  25   -577.5313868 -0.590968E-03  0.195E-02    0.01       1.0  T
  26   -577.5313807  0.610416E-05  0.196E-02    0.00       1.0  T
  27   -577.5317559 -0.375198E-03  0.115E-02    0.01       1.0  T
  28   -577.5316720  0.839390E-04  0.132E-02    0.01       1.0  T
  29   -577.5318273 -0.155367E-03  0.889E-03    0.00       1.0  T
  30   -577.5317799  0.474053E-04  0.938E-03    0.00       1.0  T
  31   -577.5318249 -0.450135E-04  0.764E-03    0.00       1.0  T
  32   -577.5318295 -0.452499E-05  0.708E-03    0.00       1.0  T
  33   -577.5318743 -0.448434E-04  0.466E-03    0.00       1.2  T
  34   -577.5318764 -0.207407E-05  0.394E-03    0.00       1.4  T
  35   -577.5318972 -0.208183E-04  0.184E-03    0.00       3.1  T
  36   -577.5318997 -0.247320E-05  0.120E-03    0.00       4.7  T
  37   -577.5319002 -0.510560E-06  0.858E-04    0.00       6.6  T
  38   -577.5319009 -0.683250E-06  0.491E-04    0.00      11.6  T
     SCC iter.                  ...        0 min, 14.241 sec
     gradient                   ...        0 min,  0.636 sec
 * total energy  :  -567.5060047 Eh     change       -0.4596669E+00 Eh
   gradient norm :     0.6380890 Eh/α   predicted    -0.3902110E+00 ( -15.11%)
   displ. norm   :     0.6720151 α      lambda       -0.3744922E+00
   maximum displ.:     0.2385782 α      in ANC's #315, #901, #307, ...

........................................................................
.............................. CYCLE    3 ..............................
........................................................................
   1   -577.4853730 -0.577485E+03  0.456E-01    0.01       0.0  T
   2   -569.4103912  0.807498E+01  0.235E+00    0.03       1.0  T
   3   -576.6098457 -0.719945E+01  0.741E-01    0.04       1.0  T
   4   -574.9946643  0.161518E+01  0.184E+00    0.06       1.0  T
   5   -577.0249744 -0.203031E+01  0.737E-01    0.05       1.0  T
   6   -577.2615720 -0.236598E+00  0.480E-01    0.04       1.0  T
   7   -577.1046833  0.156889E+00  0.547E-01    0.02       1.0  T
   8   -576.5480093  0.556674E+00  0.801E-01    0.11       1.0  T
   9   -577.1643742 -0.616365E+00  0.485E-01    0.03       1.0  T
  10   -576.9635835  0.200791E+00  0.569E-01    0.01       1.0  T
  11   -577.1155417 -0.151958E+00  0.505E-01    0.05       1.0  T
  12   -577.3215730 -0.206031E+00  0.390E-01    0.01       1.0  T
  13   -577.1265723  0.195001E+00  0.463E-01    0.00       1.0  T
  14   -577.5034462 -0.376874E+00  0.250E-01    0.03       1.0  T
  15   -577.5468002 -0.433540E-01  0.167E-01    0.01       1.0  T
  16   -577.5424800  0.432029E-02  0.161E-01    0.01       1.0  T
  17   -577.5415067  0.973258E-03  0.154E-01    0.00       1.0  T
  18   -577.5498890 -0.838229E-02  0.156E-01    0.01       1.0  T
  19   -577.5605061 -0.106171E-01  0.125E-01    0.02       1.0  T
  20   -577.4857730  0.747331E-01  0.228E-01    0.01       1.0  T
  21   -577.5373184 -0.515454E-01  0.143E-01    0.01       1.0  T
  22   -577.5690121 -0.316937E-01  0.695E-02    0.00       1.0  T
  23   -577.5738343 -0.482221E-02  0.424E-02    0.00       1.0  T
  24   -577.5705211  0.331317E-02  0.562E-02    0.00       1.0  T
  25   -577.5680422  0.247889E-02  0.631E-02    0.00       1.0  T
  26   -577.5750167 -0.697446E-02  0.328E-02    0.01       1.0  T
  27   -577.5752252 -0.208508E-03  0.276E-02    0.00       1.0  T
  28   -577.5755824 -0.357179E-03  0.224E-02    0.00       1.0  T
  29   -577.5752839  0.298447E-03  0.231E-02    0.01       1.0  T
  30   -577.5754777 -0.193764E-03  0.203E-02    0.00       1.0  T
  31   -577.5756824 -0.204720E-03  0.165E-02    0.00       1.0  T
  32   -577.5760140 -0.331593E-03  0.919E-03    0.00       1.0  T
  33   -577.5760158 -0.179476E-05  0.906E-03    0.00       1.0  T
  34   -577.5760681 -0.523318E-04  0.579E-03    0.00       1.0  T
  35   -577.5760596  0.848881E-05  0.570E-03    0.00       1.0  T
  36   -577.5760788 -0.192089E-04  0.377E-03    0.00       1.5  T
  37   -577.5760649  0.139661E-04  0.438E-03    0.00       1.3  T
  38   -577.5760848 -0.199163E-04  0.280E-03    0.00       2.0  T
  39   -577.5760900 -0.517571E-05  0.217E-03    0.00       2.6  T
  40   -577.5760939 -0.393097E-05  0.166E-03    0.00       3.4  T
  41   -577.5760958 -0.189949E-05  0.137E-03    0.00       4.2  T
  42   -577.5760965 -0.715105E-06  0.124E-03    0.00       4.6  T
  43   -577.5760967 -0.195977E-06  0.118E-03    0.00       4.8  T
  44   -577.5760968 -0.824052E-07  0.115E-03    0.00       4.9  T
  45   -577.5760971 -0.321731E-06  0.106E-03    0.00       5.4  T
  46   -577.5760973 -0.191494E-06  0.979E-04    0.00       5.8  T
  47   -577.5760973  0.762577E-08  0.947E-04    0.00       6.0  T
     SCC iter.                  ...        0 min, 17.672 sec
     gradient                   ...        0 min,  0.634 sec
 * total energy  :  -567.7861775 Eh     change       -0.2801728E+00 Eh
   gradient norm :     0.2908334 Eh/α   predicted    -0.2718071E+00 (  -2.99%)
   displ. norm   :     0.7462400 α      lambda       -0.1840956E+00
   maximum displ.:     0.3258179 α      in ANC's #315, #307, #166, ...

........................................................................
.............................. CYCLE    4 ..............................
........................................................................
   1   -577.4257237 -0.577426E+03  0.610E-01    0.01       0.0  T
   2   -558.2421637  0.191836E+02  0.325E+00    0.04       1.0  T
   3   -576.6062980 -0.183641E+02  0.115E+00    0.10       1.0  T
   4   -576.9738339 -0.367536E+00  0.798E-01    0.06       1.0  T
   5   -577.0429832 -0.691493E-01  0.602E-01    0.06       1.0  T
   6   -577.0532094 -0.102263E-01  0.592E-01    0.02       1.0  T
   7   -577.1561212 -0.102912E+00  0.552E-01    0.01       1.0  T
   8   -576.8014614  0.354660E+00  0.688E-01    0.03       1.0  T
   9   -577.3971544 -0.595693E+00  0.415E-01    0.04       1.0  T
  10   -577.2659895  0.131165E+00  0.473E-01    0.02       1.0  T
  11   -577.4915457 -0.225556E+00  0.357E-01    0.03       1.0  T
  12   -577.6026807 -0.111135E+00  0.243E-01    0.01       1.0  T
  13   -577.6810085 -0.783278E-01  0.124E-01    0.01       1.0  T
  14   -577.6724010  0.860751E-02  0.135E-01    0.00       1.0  T
  15   -577.6658334  0.656762E-02  0.170E-01    0.02       1.0  T
  16   -577.6898444 -0.240111E-01  0.111E-01    0.00       1.0  T
  17   -577.6886608  0.118362E-02  0.954E-02    0.00       1.0  T
  18   -577.5908564  0.978044E-01  0.229E-01    0.03       1.0  T
  19   -577.6788537 -0.879973E-01  0.146E-01    0.01       1.0  T
  20   -577.6924490 -0.135953E-01  0.757E-02    0.00       1.0  T
  21   -577.6891211  0.332782E-02  0.830E-02    0.00       1.0  T
  22   -577.6988010 -0.967990E-02  0.539E-02    0.00       1.0  T
  23   -577.6937281  0.507294E-02  0.681E-02    0.01       1.0  T
  24   -577.6978787 -0.415063E-02  0.505E-02    0.00       1.0  T
  25   -577.6969396  0.939103E-03  0.478E-02    0.00       1.0  T
  26   -577.6967538  0.185777E-03  0.485E-02    0.00       1.0  T
  27   -577.7000378 -0.328394E-02  0.284E-02    0.00       1.0  T
  28   -577.6994056  0.632203E-03  0.308E-02    0.00       1.0  T
  29   -577.7008312 -0.142564E-02  0.177E-02    0.00       1.0  T
  30   -577.7008753 -0.441084E-04  0.161E-02    0.00       1.0  T
  31   -577.7010008 -0.125490E-03  0.135E-02    0.00       1.0  T
  32   -577.7012162 -0.215359E-03  0.809E-03    0.00       1.0  T
  33   -577.7011795  0.366692E-04  0.884E-03    0.00       1.0  T
  34   -577.7012272 -0.477082E-04  0.667E-03    0.00       1.0  T
  35   -577.7012460 -0.187359E-04  0.593E-03    0.00       1.0  T
  36   -577.7012831 -0.371549E-04  0.328E-03    0.00       1.7  T
  37   -577.7012989 -0.157772E-04  0.157E-03    0.00       3.6  T
  38   -577.7012942  0.471568E-05  0.195E-03    0.00       2.9  T
  39   -577.7013007 -0.648555E-05  0.970E-04    0.00       5.9  T
  40   -577.7013008 -0.113565E-06  0.954E-04    0.00       6.0  T
  41   -577.7013016 -0.804153E-06  0.725E-04    0.00       7.8  T
     SCC iter.                  ...        0 min, 15.436 sec
     gradient                   ...        0 min,  0.637 sec
 * total energy  :  -567.9352275 Eh     change       -0.1490500E+00 Eh
   gradient norm :     0.1613875 Eh/α   predicted    -0.1433068E+00 (  -3.85%)
   displ. norm   :     0.8099970 α      lambda       -0.1230361E+00
   maximum displ.:     0.3440689 α      in ANC's #315, #166, #307, ...

........................................................................
.............................. CYCLE    5 ..............................
........................................................................
   1   -577.5089152 -0.577509E+03  0.659E-01    0.00       0.0  T
   2   -557.0056945  0.205032E+02  0.333E+00    0.05       1.0  T
   3   -576.5450965 -0.195394E+02  0.124E+00    0.10       1.0  T
   4   -576.9812994 -0.436203E+00  0.878E-01    0.11       1.0  T
   5   -577.1075130 -0.126214E+00  0.623E-01    0.06       1.0  T
   6   -577.0424625  0.650505E-01  0.631E-01    0.00       1.0  T
   7   -577.5247703 -0.482308E+00  0.435E-01    0.00       1.0  T
   8   -577.3158070  0.208963E+00  0.548E-01    0.02       1.0  T
   9   -576.7351194  0.580688E+00  0.731E-01    0.10       1.0  T
  10   -577.4821439 -0.747024E+00  0.450E-01    0.03       1.0  T
  11   -577.7268215 -0.244678E+00  0.258E-01    0.03       1.0  T
  12   -577.6886879  0.381335E-01  0.271E-01    0.02       1.0  T
  13   -577.5579720  0.130716E+00  0.368E-01    0.00       1.0  T
  14   -577.7821973 -0.224225E+00  0.197E-01    0.02       1.0  T
  15   -577.7649155  0.172818E-01  0.207E-01    0.01       1.0  T
  16   -577.7965859 -0.316704E-01  0.152E-01    0.01       1.0  T
  17   -577.8062202 -0.963430E-02  0.121E-01    0.00       1.0  T
  18   -577.7792998  0.269203E-01  0.164E-01    0.01       1.0  T
  19   -577.8109867 -0.316868E-01  0.128E-01    0.00       1.0  T
  20   -577.8267339 -0.157473E-01  0.659E-02    0.00       1.0  T
  21   -577.8289151 -0.218123E-02  0.551E-02    0.01       1.0  T
  22   -577.8278913  0.102388E-02  0.495E-02    0.00       1.0  T
  23   -577.8278878  0.350117E-05  0.533E-02    0.01       1.0  T
  24   -577.8294369 -0.154917E-02  0.423E-02    0.00       1.0  T
  25   -577.8297917 -0.354717E-03  0.366E-02    0.00       1.0  T
  26   -577.8306215 -0.829838E-03  0.297E-02    0.00       1.0  T
  27   -577.8314503 -0.828829E-03  0.176E-02    0.00       1.0  T
  28   -577.8315760 -0.125689E-03  0.149E-02    0.00       1.0  T
  29   -577.8315575  0.184913E-04  0.157E-02    0.00       1.0  T
  30   -577.8316606 -0.103040E-03  0.128E-02    0.00       1.0  T
  31   -577.8318371 -0.176512E-03  0.862E-03    0.00       1.0  T
  32   -577.8318980 -0.609268E-04  0.688E-03    0.00       1.0  T
  33   -577.8317988  0.992033E-04  0.102E-02    0.00       1.0  T
  34   -577.8319341 -0.135324E-03  0.500E-03    0.00       1.1  T
  35   -577.8319397 -0.558885E-05  0.390E-03    0.00       1.5  T
  36   -577.8319523 -0.125544E-04  0.241E-03    0.00       2.4  T
  37   -577.8319569 -0.467846E-05  0.174E-03    0.00       3.3  T
  38   -577.8319592 -0.225231E-05  0.141E-03    0.00       4.0  T
  39   -577.8319614 -0.221245E-05  0.911E-04    0.00       6.2  T
  40   -577.8319630 -0.158126E-05  0.279E-04    0.00      20.3  T
  41   -577.8319631 -0.715579E-07  0.183E-04    0.00      31.0  T
  42   -577.8319631 -0.380933E-07  0.624E-05    0.00      91.1  T
     SCC iter.                  ...        0 min, 15.789 sec
     gradient                   ...        0 min,  0.640 sec
 * total energy  :  -568.0408265 Eh     change       -0.1055990E+00 Eh
   gradient norm :     0.1198991 Eh/α   predicted    -0.1018809E+00 (  -3.52%)
   displ. norm   :     0.8385289 α      lambda       -0.9344188E-01
   maximum displ.:     0.3236508 α      in ANC's #315, #166, #307, ...

........................................................................
.............................. CYCLE    6 ..............................
........................................................................
   1   -577.6723436 -0.577672E+03  0.649E-01    0.00       0.0  T
   2   -558.4659064  0.192064E+02  0.328E+00    0.00       1.0  T
   3   -576.8880635 -0.184222E+02  0.122E+00    0.13       1.0  T
   4   -576.8228562  0.652073E-01  0.823E-01    0.18       1.0  T
   5   -576.7257373  0.971189E-01  0.771E-01    0.05       1.0  T
   6   -577.1965166 -0.470779E+00  0.754E-01    0.05       1.0  T
   7   -577.4142128 -0.217696E+00  0.526E-01    0.03       1.0  T
   8   -577.3713396  0.428732E-01  0.615E-01    0.07       1.0  T
   9   -577.4658285 -0.944889E-01  0.537E-01    0.02       1.0  T
  10   -577.2458759  0.219953E+00  0.566E-01    0.00       1.0  T
  11   -577.6380918 -0.392216E+00  0.411E-01    0.00       1.0  T
  12   -577.7972770 -0.159185E+00  0.334E-01    0.02       1.0  T
  13   -577.7555136  0.417633E-01  0.356E-01    0.03       1.0  T
  14   -577.9208412 -0.165328E+00  0.155E-01    0.01       1.0  T
  15   -577.8953290  0.255122E-01  0.201E-01    0.01       1.0  T
  16   -577.9259417 -0.306126E-01  0.158E-01    0.02       1.0  T
  17   -577.8879184  0.380232E-01  0.187E-01    0.01       1.0  T
  18   -577.9071292 -0.192108E-01  0.173E-01    0.00       1.0  T
  19   -577.9446894 -0.375602E-01  0.892E-02    0.00       1.0  T
  20   -577.9167232  0.279661E-01  0.146E-01    0.01       1.0  T
  21   -577.9369863 -0.202631E-01  0.109E-01    0.00       1.0  T
  22   -577.9517711 -0.147848E-01  0.730E-02    0.00       1.0  T
  23   -577.9540963 -0.232522E-02  0.560E-02    0.00       1.0  T
  24   -577.9415031  0.125933E-01  0.986E-02    0.01       1.0  T
  25   -577.9516494 -0.101464E-01  0.557E-02    0.00       1.0  T
  26   -577.9565250 -0.487560E-02  0.266E-02    0.00       1.0  T
  27   -577.9568029 -0.277902E-03  0.136E-02    0.00       1.0  T
  28   -577.9563682  0.434731E-03  0.196E-02    0.00       1.0  T
  29   -577.9569812 -0.612985E-03  0.758E-03    0.00       1.0  T
  30   -577.9570385 -0.573346E-04  0.556E-03    0.00       1.0  T
  31   -577.9570115  0.269976E-04  0.656E-03    0.00       1.0  T
  32   -577.9570667 -0.551577E-04  0.357E-03    0.00       1.6  T
  33   -577.9570560  0.107015E-04  0.410E-03    0.00       1.4  T
  34   -577.9570566 -0.596797E-06  0.466E-03    0.00       1.2  T
  35   -577.9570714 -0.148733E-04  0.346E-03    0.00       1.6  T
  36   -577.9570800 -0.855218E-05  0.254E-03    0.00       2.2  T
  37   -577.9570828 -0.277187E-05  0.184E-03    0.00       3.1  T
  38   -577.9570840 -0.119263E-05  0.109E-03    0.00       5.2  T
  39   -577.9570858 -0.187032E-05  0.502E-04    0.00      11.3  T
  40   -577.9570858  0.135246E-07  0.395E-04    0.00      14.4  T
  41   -577.9570860 -0.169224E-06  0.271E-04    0.00      21.0  T
     SCC iter.                  ...        0 min, 15.429 sec
     gradient                   ...        0 min,  0.640 sec
 * total energy  :  -568.1223906 Eh     change       -0.8156410E-01 Eh
   gradient norm :     0.0950483 Eh/α   predicted    -0.7957189E-01 (  -2.44%)
   displ. norm   :     0.8480538 α      lambda       -0.7204663E-01
   maximum displ.:     0.3700990 α      in ANC's #166, #315, #164, ...

........................................................................
.............................. CYCLE    7 ..............................
........................................................................
   1   -577.8306182 -0.577831E+03  0.611E-01    0.01       0.0  T
   2   -559.2181334  0.186125E+02  0.326E+00    0.02       1.0  T
   3   -576.9313488 -0.177132E+02  0.107E+00    0.03       1.0  T
   4   -576.8268837  0.104465E+00  0.925E-01    0.20       1.0  T
   5   -577.5402954 -0.713412E+00  0.554E-01    0.03       1.0  T
   6   -577.0010197  0.539276E+00  0.771E-01    0.04       1.0  T
   7   -577.4821188 -0.481099E+00  0.627E-01    0.01       1.0  T
   8   -577.2165026  0.265616E+00  0.662E-01    0.06       1.0  T
   9   -577.1113228  0.105180E+00  0.662E-01    0.05       1.0  T
  10   -577.8053506 -0.694028E+00  0.392E-01    0.03       1.0  T
  11   -577.8777902 -0.724396E-01  0.363E-01    0.03       1.0  T
  12   -577.9639080 -0.861178E-01  0.259E-01    0.02       1.0  T
  13   -577.8986405  0.652675E-01  0.313E-01    0.00       1.0  T
  14   -578.0123665 -0.113726E+00  0.207E-01    0.01       1.0  T
  15   -577.9743645  0.380020E-01  0.239E-01    0.02       1.0  T
  16   -578.0357340 -0.613695E-01  0.151E-01    0.01       1.0  T
  17   -578.0435652 -0.783119E-02  0.132E-01    0.01       1.0  T
  18   -578.0447934 -0.122827E-02  0.125E-01    0.01       1.0  T
  19   -578.0670542 -0.222608E-01  0.597E-02    0.01       1.0  T
  20   -578.0265863  0.404680E-01  0.147E-01    0.00       1.0  T
  21   -578.0631047 -0.365184E-01  0.743E-02    0.00       1.0  T
  22   -578.0599666  0.313814E-02  0.959E-02    0.00       1.0  T
  23   -578.0668748 -0.690825E-02  0.723E-02    0.00       1.0  T
  24   -578.0651993  0.167555E-02  0.735E-02    0.00       1.0  T
  25   -578.0683560 -0.315676E-02  0.519E-02    0.00       1.0  T
  26   -578.0701646 -0.180858E-02  0.345E-02    0.01       1.0  T
  27   -578.0709943 -0.829715E-03  0.200E-02    0.01       1.0  T
  28   -578.0711950 -0.200634E-03  0.142E-02    0.01       1.0  T
  29   -578.0712786 -0.836332E-04  0.113E-02    0.01       1.0  T
  30   -578.0713253 -0.467134E-04  0.871E-03    0.01       1.0  T
  31   -578.0713976 -0.722548E-04  0.517E-03    0.01       1.1  T
  32   -578.0714037 -0.616283E-05  0.404E-03    0.01       1.4  T
  33   -578.0714276 -0.238518E-04  0.235E-03    0.01       2.4  T
  34   -578.0714330 -0.540013E-05  0.171E-03    0.01       3.3  T
  35   -578.0714354 -0.247281E-05  0.121E-03    0.01       4.7  T
  36   -578.0714368 -0.134942E-05  0.114E-03    0.01       5.0  T
  37   -578.0714367  0.110950E-06  0.921E-04    0.01       6.2  T
  38   -578.0714368 -0.118962E-06  0.849E-04    0.01       6.7  T
     SCC iter.                  ...        0 min, 14.317 sec
     gradient                   ...        0 min,  0.641 sec
 * total energy  :  -568.1855438 Eh     change       -0.6315325E-01 Eh
   gradient norm :     0.0729822 Eh/α   predicted    -0.6193115E-01 (  -1.94%)
   displ. norm   :     0.8500211 α      lambda       -0.5516645E-01
   maximum displ.:     0.4014917 α      in ANC's #166, #315, #51, ...

........................................................................
.............................. CYCLE    8 ..............................
........................................................................
   1   -577.9660541 -0.577966E+03  0.557E-01    0.01       0.0  T
   2   -559.8559350  0.181101E+02  0.323E+00    0.03       1.0  T
   3   -576.9368712 -0.170809E+02  0.906E-01    0.00       1.0  T
   4   -576.8062384  0.130633E+00  0.106E+00    0.19       1.0  T
   5   -577.7036013 -0.897363E+00  0.573E-01    0.01       1.0  T
   6   -577.2461463  0.457455E+00  0.771E-01    0.04       1.0  T
   7   -577.3739544 -0.127808E+00  0.695E-01    0.01       1.0  T
   8   -577.7163793 -0.342425E+00  0.555E-01    0.03       1.0  T
   9   -577.7808107 -0.644314E-01  0.520E-01    0.01       1.0  T
  10   -577.3830656  0.397745E+00  0.718E-01    0.03       1.0  T
  11   -577.2674671  0.115598E+00  0.613E-01    0.03       1.0  T
  12   -577.4496024 -0.182135E+00  0.572E-01    0.01       1.0  T
  13   -577.8793190 -0.429717E+00  0.418E-01    0.01       1.0  T
  14   -578.0443608 -0.165042E+00  0.258E-01    0.00       1.0  T
  15   -578.0385023  0.585857E-02  0.285E-01    0.01       1.0  T
  16   -578.1265861 -0.880839E-01  0.179E-01    0.02       1.0  T
  17   -578.1297980 -0.321183E-02  0.156E-01    0.01       1.0  T
  18   -578.1514398 -0.216418E-01  0.107E-01    0.01       1.0  T
  19   -578.1569959 -0.555610E-02  0.934E-02    0.01       1.0  T
  20   -578.1506396  0.635633E-02  0.981E-02    0.01       1.0  T
  21   -578.1593388 -0.869919E-02  0.719E-02    0.00       1.0  T
  22   -578.1303955  0.289433E-01  0.165E-01    0.01       1.0  T
  23   -578.1449822 -0.145868E-01  0.118E-01    0.00       1.0  T
  24   -578.1418257  0.315650E-02  0.129E-01    0.00       1.0  T
  25   -578.1551489 -0.133232E-01  0.761E-02    0.00       1.0  T
  26   -578.1601896 -0.504069E-02  0.612E-02    0.01       1.0  T
  27   -578.1629945 -0.280490E-02  0.436E-02    0.00       1.0  T
  28   -578.1640254 -0.103097E-02  0.353E-02    0.01       1.0  T
  29   -578.1647361 -0.710666E-03  0.290E-02    0.00       1.0  T
  30   -578.1656387 -0.902588E-03  0.190E-02    0.00       1.0  T
  31   -578.1657462 -0.107527E-03  0.153E-02    0.01       1.0  T
  32   -578.1659753 -0.229031E-03  0.109E-02    0.01       1.0  T
  33   -578.1660972 -0.121983E-03  0.607E-03    0.01       1.0  T
  34   -578.1661203 -0.230282E-04  0.436E-03    0.01       1.3  T
  35   -578.1661216 -0.137716E-05  0.368E-03    0.01       1.5  T
  36   -578.1661346 -0.129075E-04  0.197E-03    0.01       2.9  T
  37   -578.1661397 -0.519111E-05  0.103E-03    0.01       5.5  T
  38   -578.1661412 -0.144843E-05  0.590E-04    0.01       9.6  T
  39   -578.1661396  0.157375E-05  0.986E-04    0.01       5.8  T
  40   -578.1661412 -0.156281E-05  0.545E-04    0.01      10.4  T
  41   -578.1661411  0.457577E-07  0.525E-04    0.01      10.8  T
  42   -578.1661415 -0.336050E-06  0.301E-04    0.01      18.9  T
     SCC iter.                  ...        0 min, 15.835 sec
     gradient                   ...        0 min,  0.638 sec
 * total energy  :  -568.2337913 Eh     change       -0.4824744E-01 Eh
   gradient norm :     0.0539959 Eh/α   predicted    -0.4751313E-01 (  -1.52%)
   displ. norm   :     0.8460842 α      lambda       -0.4142678E-01
   maximum displ.:     0.4039717 α      in ANC's #166, #51, #164, ...

........................................................................
.............................. CYCLE    9 ..............................
........................................................................
   1   -578.0786719 -0.578079E+03  0.493E-01    0.01       0.0  T
   2   -560.6927506  0.173859E+02  0.318E+00    0.02       1.0  T
   3   -576.9889251 -0.162962E+02  0.867E-01    0.01       1.0  T
   4   -576.8136345  0.175291E+00  0.111E+00    0.18       1.0  T
   5   -577.6357701 -0.822136E+00  0.636E-01    0.01       1.0  T
   6   -577.2817327  0.354037E+00  0.798E-01    0.05       1.0  T
   7   -577.5371394 -0.255407E+00  0.670E-01    0.01       1.0  T
   8   -577.7719790 -0.234840E+00  0.531E-01    0.01       1.0  T
   9   -577.6820129  0.899661E-01  0.566E-01    0.00       1.0  T
  10   -577.2881746  0.393838E+00  0.696E-01    0.01       1.0  T
  11   -577.2415013  0.466733E-01  0.648E-01    0.03       1.0  T
  12   -577.9505991 -0.709098E+00  0.429E-01    0.01       1.0  T
  13   -577.7983478  0.152251E+00  0.495E-01    0.06       1.0  T
  14   -577.9141012 -0.115753E+00  0.413E-01    0.01       1.0  T
  15   -578.1159660 -0.201865E+00  0.287E-01    0.01       1.0  T
  16   -578.0637319  0.522341E-01  0.316E-01    0.02       1.0  T
  17   -578.2039071 -0.140175E+00  0.181E-01    0.00       1.0  T
  18   -578.2138675 -0.996037E-02  0.138E-01    0.01       1.0  T
  19   -578.2114479  0.241962E-02  0.144E-01    0.01       1.0  T
  20   -578.2217157 -0.102679E-01  0.112E-01    0.01       1.0  T
  21   -578.2313792 -0.966344E-02  0.646E-02    0.01       1.0  T
  22   -578.2212963  0.100829E-01  0.110E-01    0.00       1.0  T
  23   -578.2295699 -0.827366E-02  0.702E-02    0.00       1.0  T
  24   -578.2314301 -0.186014E-02  0.571E-02    0.00       1.0  T
  25   -578.2251573  0.627277E-02  0.869E-02    0.00       1.0  T
  26   -578.2355312 -0.103739E-01  0.349E-02    0.00       1.0  T
  27   -578.2362253 -0.694133E-03  0.314E-02    0.00       1.0  T
  28   -578.2364926 -0.267291E-03  0.271E-02    0.00       1.0  T
  29   -578.2360743  0.418370E-03  0.315E-02    0.00       1.0  T
  30   -578.2361825 -0.108213E-03  0.288E-02    0.00       1.0  T
  31   -578.2371135 -0.931047E-03  0.194E-02    0.00       1.0  T
  32   -578.2371583 -0.447480E-04  0.158E-02    0.00       1.0  T
  33   -578.2374043 -0.246037E-03  0.992E-03    0.00       1.0  T
  34   -578.2374816 -0.772870E-04  0.556E-03    0.00       1.0  T
  35   -578.2375018 -0.202072E-04  0.438E-03    0.00       1.3  T
  36   -578.2374883  0.135266E-04  0.474E-03    0.00       1.2  T
  37   -578.2375159 -0.276283E-04  0.276E-03    0.00       2.1  T
  38   -578.2375268 -0.108975E-04  0.107E-03    0.00       5.3  T
  39   -578.2375248  0.199551E-05  0.167E-03    0.00       3.4  T
  40   -578.2375271 -0.225549E-05  0.106E-03    0.00       5.3  T
  41   -578.2375274 -0.321929E-06  0.873E-04    0.00       6.5  T
  42   -578.2375282 -0.777094E-06  0.531E-04    0.00      10.7  T
     SCC iter.                  ...        0 min, 15.841 sec
     gradient                   ...        0 min,  0.639 sec
 * total energy  :  -568.2698276 Eh     change       -0.3603629E-01 Eh
   gradient norm :     0.0400303 Eh/α   predicted    -0.3554129E-01 (  -1.37%)
   displ. norm   :     0.8405560 α      lambda       -0.3060521E-01
   maximum displ.:     0.3725882 α      in ANC's #166, #51, #164, ...

........................................................................
.............................. CYCLE   10 ..............................
........................................................................
   1   -578.1746403 -0.578175E+03  0.418E-01    0.01       0.0  T
   2   -561.9293561  0.162453E+02  0.310E+00    0.01       1.0  T
   3   -577.1416309 -0.152123E+02  0.816E-01    0.02       1.0  T
   4   -576.8665125  0.275118E+00  0.110E+00    0.15       1.0  T
   5   -577.6887606 -0.822248E+00  0.631E-01    0.00       1.0  T
   6   -577.3790985  0.309662E+00  0.783E-01    0.04       1.0  T
   7   -577.5144110 -0.135312E+00  0.714E-01    0.02       1.0  T
   8   -577.8447503 -0.330339E+00  0.498E-01    0.03       1.0  T
   9   -577.9183306 -0.735803E-01  0.523E-01    0.02       1.0  T
  10   -577.7586780  0.159653E+00  0.558E-01    0.04       1.0  T
  11   -577.7510470  0.763100E-02  0.527E-01    0.03       1.0  T
  12   -577.9836470 -0.232600E+00  0.409E-01    0.01       1.0  T
  13   -577.8631907  0.120456E+00  0.472E-01    0.00       1.0  T
  14   -578.1078457 -0.244655E+00  0.334E-01    0.02       1.0  T
  15   -578.0223722  0.854735E-01  0.403E-01    0.04       1.0  T
  16   -578.1952654 -0.172893E+00  0.237E-01    0.02       1.0  T
  17   -578.2700714 -0.748060E-01  0.124E-01    0.00       1.0  T
  18   -578.2742458 -0.417437E-02  0.126E-01    0.00       1.0  T
  19   -578.2759719 -0.172619E-02  0.115E-01    0.00       1.0  T
  20   -578.2725606  0.341134E-02  0.129E-01    0.00       1.0  T
  21   -578.2728162 -0.255624E-03  0.125E-01    0.00       1.0  T
  22   -578.2795028 -0.668654E-02  0.105E-01    0.00       1.0  T
  23   -578.2585492  0.209535E-01  0.138E-01    0.00       1.0  T
  24   -578.2721249 -0.135757E-01  0.109E-01    0.00       1.0  T
  25   -578.2824373 -0.103124E-01  0.795E-02    0.00       1.0  T
  26   -578.2816391  0.798229E-03  0.790E-02    0.00       1.0  T
  27   -578.2880519 -0.641280E-02  0.487E-02    0.00       1.0  T
  28   -578.2878665  0.185367E-03  0.453E-02    0.00       1.0  T
  29   -578.2856540  0.221250E-02  0.562E-02    0.00       1.0  T
  30   -578.2902577 -0.460369E-02  0.249E-02    0.00       1.0  T
  31   -578.2908353 -0.577552E-03  0.185E-02    0.00       1.0  T
  32   -578.2913218 -0.486543E-03  0.824E-03    0.00       1.0  T
  33   -578.2913590 -0.372393E-04  0.608E-03    0.00       1.0  T
  34   -578.2913808 -0.217461E-04  0.492E-03    0.00       1.2  T
  35   -578.2913586  0.221857E-04  0.521E-03    0.00       1.1  T
  36   -578.2914022 -0.436226E-04  0.311E-03    0.00       1.8  T
  37   -578.2914080 -0.573822E-05  0.196E-03    0.00       2.9  T
  38   -578.2914111 -0.316389E-05  0.171E-03    0.00       3.3  T
  39   -578.2914115 -0.367811E-06  0.148E-03    0.00       3.8  T
  40   -578.2914137 -0.224127E-05  0.876E-04    0.00       6.5  T
  41   -578.2914142 -0.418077E-06  0.700E-04    0.00       8.1  T
  42   -578.2914149 -0.728882E-06  0.453E-04    0.00      12.5  T
     SCC iter.                  ...        0 min, 15.833 sec
     gradient                   ...        0 min,  0.642 sec
 * total energy  :  -568.2963814 Eh     change       -0.2655386E-01 Eh
   gradient norm :     0.0310506 Eh/α   predicted    -0.2611444E-01 (  -1.65%)
   displ. norm   :     0.8428813 α      lambda       -0.2281145E-01
   maximum displ.:     0.4354029 α      in ANC's #51, #166, #45, ...

........................................................................
.............................. CYCLE   11 ..............................
........................................................................
   1   -578.2670389 -0.578267E+03  0.324E-01    0.01       0.0  T
   2   -564.0807985  0.141862E+02  0.295E+00    0.08       1.0  T
   3   -577.3628177 -0.132820E+02  0.729E-01    0.03       1.0  T
   4   -577.0453049  0.317513E+00  0.102E+00    0.08       1.0  T
   5   -577.7298691 -0.684564E+00  0.616E-01    0.01       1.0  T
   6   -577.3760701  0.353799E+00  0.811E-01    0.06       1.0  T
   7   -577.6135225 -0.237452E+00  0.662E-01    0.02       1.0  T
   8   -577.7348939 -0.121371E+00  0.563E-01    0.05       1.0  T
   9   -577.7506827 -0.157888E-01  0.531E-01    0.04       1.0  T
  10   -578.0134974 -0.262815E+00  0.475E-01    0.02       1.0  T
  11   -578.0049621  0.853524E-02  0.480E-01    0.05       1.0  T
  12   -578.1684453 -0.163483E+00  0.346E-01    0.01       1.0  T
  13   -577.8229455  0.345500E+00  0.486E-01    0.08       1.0  T
  14   -578.1110078 -0.288062E+00  0.378E-01    0.03       1.0  T
  15   -578.2445830 -0.133575E+00  0.241E-01    0.01       1.0  T
  16   -578.2814827 -0.368997E-01  0.185E-01    0.00       1.0  T
  17   -578.3096354 -0.281527E-01  0.130E-01    0.01       1.0  T
  18   -578.3271932 -0.175578E-01  0.926E-02    0.01       1.0  T
  19   -578.3221947  0.499856E-02  0.107E-01    0.00       1.0  T
  20   -578.3276300 -0.543529E-02  0.849E-02    0.00       1.0  T
  21   -578.3227059  0.492404E-02  0.888E-02    0.00       1.0  T
  22   -578.3326452 -0.993924E-02  0.471E-02    0.00       1.0  T
  23   -578.3332907 -0.645532E-03  0.430E-02    0.00       1.0  T
  24   -578.3352554 -0.196466E-02  0.260E-02    0.00       1.0  T
  25   -578.3316086  0.364671E-02  0.474E-02    0.00       1.0  T
  26   -578.3352486 -0.363998E-02  0.238E-02    0.00       1.0  T
  27   -578.3348845  0.364126E-03  0.261E-02    0.00       1.0  T
  28   -578.3354333 -0.548763E-03  0.211E-02    0.00       1.0  T
  29   -578.3356007 -0.167415E-03  0.174E-02    0.00       1.0  T
  30   -578.3354867  0.113955E-03  0.190E-02    0.00       1.0  T
  31   -578.3358093 -0.322571E-03  0.103E-02    0.00       1.0  T
  32   -578.3358672 -0.579485E-04  0.772E-03    0.00       1.0  T
  33   -578.3358928 -0.255299E-04  0.582E-03    0.00       1.0  T
  34   -578.3359247 -0.318748E-04  0.336E-03    0.00       1.7  T
  35   -578.3359159  0.875878E-05  0.319E-03    0.00       1.8  T
  36   -578.3359287 -0.127848E-04  0.196E-03    0.00       2.9  T
  37   -578.3359333 -0.462554E-05  0.109E-03    0.00       5.2  T
  38   -578.3359334 -0.106844E-06  0.103E-03    0.00       5.5  T
  39   -578.3359329  0.528722E-06  0.126E-03    0.00       4.5  T
  40   -578.3359350 -0.216649E-05  0.579E-04    0.00       9.8  T
  41   -578.3359353 -0.257844E-06  0.405E-04    0.00      14.0  T
  42   -578.3359352  0.129927E-06  0.477E-04    0.00      11.9  T
     SCC iter.                  ...        0 min, 15.813 sec
     gradient                   ...        0 min,  0.638 sec
 * total energy  :  -568.3163872 Eh     change       -0.2000580E-01 Eh
   gradient norm :     0.0260163 Eh/α   predicted    -0.1950893E-01 (  -2.48%)
   displ. norm   :     0.8605645 α      lambda       -0.1803318E-01
   maximum displ.:     0.5148076 α      in ANC's #51, #45, #166, ...

........................................................................
.............................. CYCLE   12 ..............................
........................................................................
   1   -578.3574283 -0.578357E+03  0.205E-01    0.01       0.0  T
   2   -571.9721581  0.638527E+01  0.206E+00    0.07       1.0  T
   3   -577.0310416 -0.505888E+01  0.825E-01    0.04       1.0  T
   4   -577.6618590 -0.630817E+00  0.714E-01    0.02       1.0  T
   5   -577.9081489 -0.246290E+00  0.488E-01    0.02       1.0  T
   6   -577.5173935  0.390755E+00  0.653E-01    0.05       1.0  T
   7   -578.0819259 -0.564532E+00  0.431E-01    0.01       1.0  T
   8   -577.9936369  0.882890E-01  0.424E-01    0.02       1.0  T
   9   -577.5164759  0.477161E+00  0.707E-01    0.08       1.0  T
  10   -577.5980291 -0.815532E-01  0.574E-01    0.01       1.0  T
  11   -578.2158792 -0.617850E+00  0.305E-01    0.02       1.0  T
  12   -578.0098909  0.205988E+00  0.413E-01    0.01       1.0  T
  13   -577.9595664  0.503245E-01  0.511E-01    0.01       1.0  T
  14   -578.1703520 -0.210786E+00  0.366E-01    0.02       1.0  T
  15   -578.2116147 -0.412627E-01  0.308E-01    0.01       1.0  T
  16   -578.2898469 -0.782323E-01  0.192E-01    0.02       1.0  T
  17   -578.3397909 -0.499440E-01  0.158E-01    0.01       1.0  T
  18   -578.3646569 -0.248660E-01  0.997E-02    0.01       1.0  T
  19   -578.3679194 -0.326246E-02  0.899E-02    0.00       1.0  T
  20   -578.3690086 -0.108923E-02  0.831E-02    0.01       1.0  T
  21   -578.3674686  0.154001E-02  0.849E-02    0.00       1.0  T
  22   -578.3703246 -0.285601E-02  0.745E-02    0.00       1.0  T
  23   -578.3699589  0.365692E-03  0.677E-02    0.00       1.0  T
  24   -578.3707183 -0.759395E-03  0.630E-02    0.00       1.0  T
  25   -578.3700941  0.624214E-03  0.590E-02    0.00       1.0  T
  26   -578.3749130 -0.481889E-02  0.234E-02    0.00       1.0  T
  27   -578.3741938  0.719197E-03  0.283E-02    0.00       1.0  T
  28   -578.3740242  0.169661E-03  0.291E-02    0.00       1.0  T
  29   -578.3740490 -0.248690E-04  0.287E-02    0.00       1.0  T
  30   -578.3748133 -0.764249E-03  0.214E-02    0.00       1.0  T
  31   -578.3750667 -0.253429E-03  0.192E-02    0.00       1.0  T
  32   -578.3752420 -0.175258E-03  0.148E-02    0.00       1.0  T
  33   -578.3754085 -0.166583E-03  0.108E-02    0.00       1.0  T
  34   -578.3755727 -0.164189E-03  0.649E-03    0.00       1.0  T
  35   -578.3756014 -0.286599E-04  0.429E-03    0.00       1.3  T
  36   -578.3756164 -0.150136E-04  0.263E-03    0.00       2.2  T
  37   -578.3756204 -0.394618E-05  0.186E-03    0.00       3.1  T
  38   -578.3756247 -0.434552E-05  0.131E-03    0.00       4.3  T
  39   -578.3756269 -0.218488E-05  0.904E-04    0.00       6.3  T
  40   -578.3756273 -0.408415E-06  0.757E-04    0.00       7.5  T
  41   -578.3756277 -0.403973E-06  0.632E-04    0.00       9.0  T
     SCC iter.                  ...        0 min, 15.456 sec
     gradient                   ...        0 min,  0.638 sec
 * total energy  :  -568.3326575 Eh     change       -0.1627027E-01 Eh
   gradient norm :     0.0239735 Eh/α   predicted    -0.1569402E-01 (  -3.54%)
   displ. norm   :     0.8908813 α      lambda       -0.1570833E-01
   maximum displ.:     0.5771301 α      in ANC's #51, #45, #47, ...

........................................................................
.............................. CYCLE   13 ..............................
........................................................................
   1   -578.4052553 -0.578405E+03  0.143E-01    0.00       0.0  T
   2   -576.8761480  0.152911E+01  0.857E-01    0.08       1.0  T
   3   -577.7606730 -0.884525E+00  0.640E-01    0.03       1.0  T
   4   -578.0350224 -0.274349E+00  0.475E-01    0.03       1.0  T
   5   -577.9589850  0.760374E-01  0.523E-01    0.02       1.0  T
   6   -577.3465886  0.612396E+00  0.810E-01    0.02       1.0  T
   7   -577.8727322 -0.526144E+00  0.573E-01    0.03       1.0  T
   8   -577.8841014 -0.113691E-01  0.511E-01    0.00       1.0  T
   9   -578.0647960 -0.180695E+00  0.441E-01    0.03       1.0  T
  10   -578.2136960 -0.148900E+00  0.356E-01    0.01       1.0  T
  11   -578.2201123 -0.641630E-02  0.329E-01    0.01       1.0  T
  12   -578.1195928  0.100520E+00  0.382E-01    0.02       1.0  T
  13   -578.3867626 -0.267170E+00  0.145E-01    0.00       1.0  T
  14   -578.3546897  0.320730E-01  0.190E-01    0.01       1.0  T
  15   -578.3919048 -0.372151E-01  0.129E-01    0.01       1.0  T
  16   -578.3990376 -0.713281E-02  0.105E-01    0.01       1.0  T
  17   -578.4005480 -0.151039E-02  0.102E-01    0.00       1.0  T
  18   -578.3946376  0.591036E-02  0.106E-01    0.01       1.0  T
  19   -578.4089445 -0.143068E-01  0.549E-02    0.00       1.0  T
  20   -578.4093107 -0.366249E-03  0.427E-02    0.00       1.0  T
  21   -578.4117800 -0.246926E-02  0.221E-02    0.00       1.0  T
  22   -578.4120538 -0.273784E-03  0.156E-02    0.00       1.0  T
  23   -578.4119499  0.103902E-03  0.183E-02    0.00       1.0  T
  24   -578.4123880 -0.438167E-03  0.926E-03    0.00       1.0  T
  25   -578.4124624 -0.743762E-04  0.746E-03    0.00       1.0  T
  26   -578.4124428  0.195749E-04  0.832E-03    0.00       1.0  T
  27   -578.4125380 -0.952076E-04  0.445E-03    0.00       1.3  T
  28   -578.4125031  0.349166E-04  0.572E-03    0.00       1.0  T
  29   -578.4125428 -0.396951E-04  0.352E-03    0.00       1.6  T
  30   -578.4125539 -0.111231E-04  0.263E-03    0.00       2.2  T
  31   -578.4125639 -0.100080E-04  0.908E-04    0.00       6.3  T
  32   -578.4125640 -0.828094E-07  0.752E-04    0.00       7.5  T
  33   -578.4125642 -0.147707E-06  0.626E-04    0.00       9.1  T
     SCC iter.                  ...        0 min, 12.421 sec
     gradient                   ...        0 min,  0.638 sec
 * total energy  :  -568.3473257 Eh     change       -0.1466818E-01 Eh
   gradient norm :     0.0230836 Eh/α   predicted    -0.1408778E-01 (  -3.96%)
   displ. norm   :     0.9149600 α      lambda       -0.1475170E-01
   maximum displ.:     0.6023178 α      in ANC's #51, #45, #47, ...

........................................................................
.............................. CYCLE   14 ..............................
........................................................................
   1   -578.3769978 -0.578377E+03  0.262E-01    0.00       0.0  T
   2   -575.9617607  0.241524E+01  0.125E+00    0.25       1.0  T
   3   -577.9372930 -0.197553E+01  0.662E-01    0.02       1.0  T
   4   -577.1266971  0.810596E+00  0.772E-01    0.03       1.0  T
   5   -577.5650389 -0.438342E+00  0.674E-01    0.03       1.0  T
   6   -577.6595673 -0.945283E-01  0.640E-01    0.03       1.0  T
   7   -577.7656071 -0.106040E+00  0.651E-01    0.02       1.0  T
   8   -577.7642138  0.139325E-02  0.612E-01    0.04       1.0  T
   9   -577.8951340 -0.130920E+00  0.585E-01    0.04       1.0  T
  10   -578.1540935 -0.258959E+00  0.484E-01    0.05       1.0  T
  11   -577.5995877  0.554506E+00  0.631E-01    0.06       1.0  T
  12   -578.3679924 -0.768405E+00  0.250E-01    0.01       1.0  T
  13   -578.3017719  0.662205E-01  0.299E-01    0.01       1.0  T
  14   -578.2178246  0.839473E-01  0.361E-01    0.02       1.0  T
  15   -578.3157530 -0.979285E-01  0.275E-01    0.00       1.0  T
  16   -578.3222530 -0.649999E-02  0.255E-01    0.01       1.0  T
  17   -578.3338651 -0.116121E-01  0.242E-01    0.00       1.0  T
  18   -578.4079687 -0.741036E-01  0.146E-01    0.00       1.0  T
  19   -578.4427085 -0.347397E-01  0.596E-02    0.00       1.0  T
  20   -578.4411920  0.151644E-02  0.654E-02    0.00       1.0  T
  21   -578.4349036  0.628839E-02  0.790E-02    0.00       1.0  T
  22   -578.4450621 -0.101584E-01  0.305E-02    0.00       1.0  T
  23   -578.4431832  0.187886E-02  0.421E-02    0.00       1.0  T
  24   -578.4459197 -0.273647E-02  0.193E-02    0.00       1.0  T
  25   -578.4464417 -0.522007E-03  0.138E-02    0.00       1.0  T
  26   -578.4466836 -0.241930E-03  0.634E-03    0.00       1.0  T
  27   -578.4467127 -0.290762E-04  0.466E-03    0.00       1.2  T
  28   -578.4466732  0.394669E-04  0.658E-03    0.00       1.0  T
  29   -578.4467190 -0.458133E-04  0.387E-03    0.00       1.5  T
  30   -578.4467162  0.286499E-05  0.391E-03    0.00       1.5  T
  31   -578.4467350 -0.188502E-04  0.215E-03    0.00       2.6  T
  32   -578.4467347  0.294885E-06  0.188E-03    0.00       3.0  T
  33   -578.4467394 -0.468992E-05  0.898E-04    0.00       6.3  T
  34   -578.4467390  0.436803E-06  0.102E-03    0.00       5.5  T
  35   -578.4467406 -0.164675E-05  0.451E-04    0.00      12.6  T
  36   -578.4467406  0.578549E-07  0.499E-04    0.00      11.4  T
  37   -578.4467409 -0.313597E-06  0.236E-04    0.00      24.1  T
     SCC iter.                  ...        0 min, 13.930 sec
     gradient                   ...        0 min,  0.641 sec
 * total energy  :  -568.3614909 Eh     change       -0.1416525E-01 Eh
   gradient norm :     0.0216118 Eh/α   predicted    -0.1355055E-01 (  -4.34%)
   displ. norm   :     0.9419817 α      lambda       -0.1465356E-01
   maximum displ.:     0.6239068 α      in ANC's #51, #45, #47, ...

........................................................................
.............................. CYCLE   15 ..............................
........................................................................
   1   -578.3248642 -0.578325E+03  0.388E-01    0.00       0.0  T
   2   -575.4642225  0.286064E+01  0.150E+00    0.11       1.0  T
   3   -577.8248900 -0.236067E+01  0.814E-01    0.00       1.0  T
   4   -577.6203581  0.204532E+00  0.767E-01    0.09       1.0  T
   5   -577.5712839  0.490741E-01  0.729E-01    0.03       1.0  T
   6   -577.6138720 -0.425880E-01  0.675E-01    0.04       1.0  T
   7   -577.6782061 -0.643341E-01  0.666E-01    0.03       1.0  T
   8   -577.7374771 -0.592709E-01  0.627E-01    0.00       1.0  T
   9   -577.8662611 -0.128784E+00  0.631E-01    0.05       1.0  T
  10   -577.5744627  0.291798E+00  0.636E-01    0.01       1.0  T
  11   -577.9776721 -0.403209E+00  0.498E-01    0.01       1.0  T
  12   -578.0277660 -0.500939E-01  0.458E-01    0.03       1.0  T
  13   -578.2083367 -0.180571E+00  0.410E-01    0.00       1.0  T
  14   -578.4037574 -0.195421E+00  0.218E-01    0.01       1.0  T
  15   -578.4191832 -0.154258E-01  0.193E-01    0.01       1.0  T
  16   -578.3548047  0.643785E-01  0.239E-01    0.01       1.0  T
  17   -578.4393383 -0.845335E-01  0.157E-01    0.00       1.0  T
  18   -578.3718617  0.674765E-01  0.231E-01    0.00       1.0  T
  19   -578.3922172 -0.203554E-01  0.194E-01    0.00       1.0  T
  20   -578.4652584 -0.730413E-01  0.721E-02    0.01       1.0  T
  21   -578.4741860 -0.892753E-02  0.224E-02    0.00       1.0  T
  22   -578.4737302  0.455752E-03  0.257E-02    0.00       1.0  T
  23   -578.4739575 -0.227343E-03  0.232E-02    0.00       1.0  T
  24   -578.4735829  0.374665E-03  0.252E-02    0.00       1.0  T
  25   -578.4744372 -0.854326E-03  0.145E-02    0.00       1.0  T
  26   -578.4745110 -0.737741E-04  0.119E-02    0.00       1.0  T
  27   -578.4746926 -0.181640E-03  0.714E-03    0.00       1.0  T
  28   -578.4747150 -0.223957E-04  0.535E-03    0.00       1.1  T
  29   -578.4747445 -0.295306E-04  0.426E-03    0.00       1.3  T
  30   -578.4747625 -0.179185E-04  0.248E-03    0.00       2.3  T
  31   -578.4747721 -0.963542E-05  0.110E-03    0.00       5.2  T
  32   -578.4747717  0.369285E-06  0.102E-03    0.00       5.6  T
  33   -578.4747732 -0.151372E-05  0.704E-04    0.00       8.1  T
  34   -578.4747734 -0.137766E-06  0.603E-04    0.00       9.4  T
  35   -578.4747739 -0.552738E-06  0.149E-04    0.00      38.2  T
     SCC iter.                  ...        0 min, 13.157 sec
     gradient                   ...        0 min,  0.639 sec
 * total energy  :  -568.3758187 Eh     change       -0.1432779E-01 Eh
   gradient norm :     0.0199010 Eh/α   predicted    -0.1382807E-01 (  -3.49%)
   displ. norm   :     0.9681343 α      lambda       -0.1496067E-01
   maximum displ.:     0.6271003 α      in ANC's #51, #45, #47, ...

........................................................................
.............................. CYCLE   16 ..............................
........................................................................
   1   -578.2962162 -0.578296E+03  0.460E-01    0.00       0.0  T
   2   -574.4519007  0.384432E+01  0.174E+00    0.08       1.0  T
   3   -577.4485336 -0.299663E+01  0.994E-01    0.03       1.0  T
   4   -577.3851365  0.633971E-01  0.913E-01    0.00       1.0  T
   5   -577.4440410 -0.589044E-01  0.852E-01    0.06       1.0  T
   6   -577.5697711 -0.125730E+00  0.724E-01    0.04       1.0  T
   7   -577.8272982 -0.257527E+00  0.605E-01    0.02       1.0  T
   8   -577.8648231 -0.375249E-01  0.619E-01    0.01       1.0  T
   9   -577.7466341  0.118189E+00  0.623E-01    0.05       1.0  T
  10   -577.8555107 -0.108877E+00  0.565E-01    0.01       1.0  T
  11   -577.8060124  0.494984E-01  0.651E-01    0.00       1.0  T
  12   -578.2915267 -0.485514E+00  0.371E-01    0.01       1.0  T
  13   -578.0886216  0.202905E+00  0.470E-01    0.02       1.0  T
  14   -578.3435375 -0.254916E+00  0.274E-01    0.00       1.0  T
  15   -578.1661515  0.177386E+00  0.422E-01    0.00       1.0  T
  16   -578.2401005 -0.739490E-01  0.382E-01    0.01       1.0  T
  17   -578.2984927 -0.583922E-01  0.297E-01    0.01       1.0  T
  18   -578.4220242 -0.123532E+00  0.201E-01    0.00       1.0  T
  19   -578.3627958  0.592284E-01  0.247E-01    0.01       1.0  T
  20   -578.4726516 -0.109856E+00  0.117E-01    0.00       1.0  T
  21   -578.4834791 -0.108275E-01  0.911E-02    0.01       1.0  T
  22   -578.4914627 -0.798360E-02  0.499E-02    0.00       1.0  T
  23   -578.4911856  0.277088E-03  0.455E-02    0.00       1.0  T
  24   -578.4906038  0.581856E-03  0.524E-02    0.00       1.0  T
  25   -578.4946876 -0.408380E-02  0.237E-02    0.00       1.0  T
  26   -578.4954750 -0.787383E-03  0.108E-02    0.00       1.0  T
  27   -578.4950002  0.474724E-03  0.174E-02    0.00       1.0  T
  28   -578.4954745 -0.474209E-03  0.793E-03    0.00       1.0  T
  29   -578.4954335  0.409723E-04  0.893E-03    0.00       1.0  T
  30   -578.4955816 -0.148086E-03  0.295E-03    0.00       1.9  T
  31   -578.4955793  0.230114E-05  0.327E-03    0.00       1.7  T
  32   -578.4955760  0.326173E-05  0.311E-03    0.00       1.8  T
  33   -578.4955890 -0.130058E-04  0.194E-03    0.00       2.9  T
  34   -578.4955930 -0.400883E-05  0.114E-03    0.00       5.0  T
  35   -578.4955947 -0.167736E-05  0.551E-04    0.00      10.3  T
  36   -578.4955945  0.237892E-06  0.691E-04    0.00       8.2  T
  37   -578.4955947 -0.252064E-06  0.577E-04    0.00       9.8  T
     SCC iter.                  ...        0 min, 13.932 sec
     gradient                   ...        0 min,  0.636 sec
 * total energy  :  -568.3905867 Eh     change       -0.1476798E-01 Eh
   gradient norm :     0.0190354 Eh/α   predicted    -0.1449155E-01 (  -1.87%)
   displ. norm   :     0.9837420 α      lambda       -0.1541516E-01
   maximum displ.:     0.6244153 α      in ANC's #51, #45, #47, ...

........................................................................
.............................. CYCLE   17 ..............................
........................................................................
   1   -578.3002979 -0.578300E+03  0.481E-01    0.00       0.0  T
   2   -576.2004056  0.209989E+01  0.161E+00    0.01       1.0  T
   3   -577.3540805 -0.115367E+01  0.918E-01    0.04       1.0  T
   4   -577.1934329  0.160648E+00  0.998E-01    0.08       1.0  T
   5   -577.2967813 -0.103348E+00  0.899E-01    0.06       1.0  T
   6   -578.0882323 -0.791451E+00  0.595E-01    0.01       1.0  T
   7   -577.8140039  0.274228E+00  0.672E-01    0.02       1.0  T
   8   -577.7749225  0.390814E-01  0.605E-01    0.04       1.0  T
   9   -577.7845517 -0.962926E-02  0.552E-01    0.03       1.0  T
  10   -578.0703017 -0.285750E+00  0.513E-01    0.02       1.0  T
  11   -578.2112628 -0.140961E+00  0.455E-01    0.01       1.0  T
  12   -577.7995352  0.411728E+00  0.575E-01    0.00       1.0  T
  13   -578.1116610 -0.312126E+00  0.482E-01    0.03       1.0  T
  14   -578.3177522 -0.206091E+00  0.324E-01    0.00       1.0  T
  15   -578.1741223  0.143630E+00  0.413E-01    0.01       1.0  T
  16   -578.2242937 -0.501713E-01  0.354E-01    0.01       1.0  T
  17   -578.3494372 -0.125144E+00  0.308E-01    0.00       1.0  T
  18   -578.4004580 -0.510208E-01  0.242E-01    0.01       1.0  T
  19   -578.4476950 -0.472370E-01  0.187E-01    0.00       1.0  T
  20   -578.4651643 -0.174693E-01  0.148E-01    0.01       1.0  T
  21   -578.4932512 -0.280869E-01  0.879E-02    0.00       1.0  T
  22   -578.5018806 -0.862943E-02  0.650E-02    0.00       1.0  T
  23   -578.5025029 -0.622326E-03  0.558E-02    0.00       1.0  T
  24   -578.5030161 -0.513123E-03  0.532E-02    0.00       1.0  T
  25   -578.5084094 -0.539330E-02  0.166E-02    0.00       1.0  T
  26   -578.5087103 -0.300973E-03  0.117E-02    0.00       1.0  T
  27   -578.5088869 -0.176591E-03  0.645E-03    0.00       1.0  T
  28   -578.5089084 -0.214432E-04  0.517E-03    0.00       1.1  T
  29   -578.5089620 -0.536462E-04  0.224E-03    0.00       2.5  T
  30   -578.5089656 -0.355887E-05  0.150E-03    0.00       3.8  T
  31   -578.5089669 -0.136626E-05  0.104E-03    0.00       5.5  T
  32   -578.5089669  0.432124E-09  0.988E-04    0.00       5.8  T
  33   -578.5089688 -0.186908E-05  0.362E-04    0.00      15.7  T
  34   -578.5089689 -0.126796E-06  0.221E-04    0.00      25.7  T
     SCC iter.                  ...        0 min, 12.800 sec
     gradient                   ...        0 min,  0.637 sec
 * total energy  :  -568.4059476 Eh     change       -0.1536087E-01 Eh
   gradient norm :     0.0205477 Eh/α   predicted    -0.1516657E-01 (  -1.26%)
   displ. norm   :     0.9891775 α      lambda       -0.1590217E-01
   maximum displ.:     0.5997127 α      in ANC's #51, #45, #47, ...

........................................................................
.............................. CYCLE   18 ..............................
........................................................................
   1   -578.2885947 -0.578289E+03  0.493E-01    0.00       0.0  T
   2   -563.6447068  0.146439E+02  0.469E+00    0.09       1.0  T
   3   -577.1141857 -0.134695E+02  0.123E+00    0.02       1.0  T
   4   -577.5070715 -0.392886E+00  0.819E-01    0.04       1.0  T
   5   -577.2768272  0.230244E+00  0.928E-01    0.07       1.0  T
   6   -576.8299197  0.446908E+00  0.849E-01    0.01       1.0  T
   7   -577.3024626 -0.472543E+00  0.756E-01    0.03       1.0  T
   8   -577.6136778 -0.311215E+00  0.717E-01    0.02       1.0  T
   9   -577.7569010 -0.143223E+00  0.672E-01    0.04       1.0  T
  10   -578.0949069 -0.338006E+00  0.527E-01    0.00       1.0  T
  11   -578.0943718  0.535098E-03  0.543E-01    0.03       1.0  T
  12   -578.0592906  0.350811E-01  0.508E-01    0.01       1.0  T
  13   -578.2706973 -0.211407E+00  0.341E-01    0.01       1.0  T
  14   -577.6778051  0.592892E+00  0.622E-01    0.05       1.0  T
  15   -578.2759756 -0.598171E+00  0.387E-01    0.01       1.0  T
  16   -578.3646165 -0.886409E-01  0.279E-01    0.01       1.0  T
  17   -578.4638585 -0.992421E-01  0.170E-01    0.00       1.0  T
  18   -578.2931659  0.170693E+00  0.325E-01    0.00       1.0  T
  19   -578.4814140 -0.188248E+00  0.156E-01    0.00       1.0  T
  20   -578.4719516  0.946241E-02  0.149E-01    0.01       1.0  T
  21   -578.3509759  0.120976E+00  0.271E-01    0.00       1.0  T
  22   -578.4754718 -0.124496E+00  0.130E-01    0.00       1.0  T
  23   -578.5063168 -0.308450E-01  0.607E-02    0.00       1.0  T
  24   -578.5077078 -0.139109E-02  0.501E-02    0.00       1.0  T
  25   -578.5045097  0.319816E-02  0.569E-02    0.00       1.0  T
  26   -578.5111045 -0.659483E-02  0.256E-02    0.00       1.0  T
  27   -578.5122515 -0.114695E-02  0.109E-02    0.00       1.0  T
  28   -578.5121088  0.142621E-03  0.118E-02    0.00       1.0  T
  29   -578.5121963 -0.874280E-04  0.959E-03    0.00       1.0  T
  30   -578.5122615 -0.652449E-04  0.758E-03    0.00       1.0  T
  31   -578.5122912 -0.296554E-04  0.620E-03    0.00       1.0  T
  32   -578.5123176 -0.264518E-04  0.549E-03    0.00       1.0  T
  33   -578.5122994  0.182041E-04  0.556E-03    0.00       1.0  T
  34   -578.5123112 -0.118117E-04  0.521E-03    0.00       1.1  T
  35   -578.5123359 -0.246762E-04  0.408E-03    0.00       1.4  T
  36   -578.5123544 -0.185122E-04  0.299E-03    0.00       1.9  T
  37   -578.5123555 -0.109210E-05  0.299E-03    0.00       1.9  T
  38   -578.5123625 -0.700763E-05  0.213E-03    0.00       2.7  T
  39   -578.5123683 -0.578730E-05  0.137E-03    0.00       4.2  T
  40   -578.5123689 -0.556417E-06  0.108E-03    0.00       5.2  T
  41   -578.5123708 -0.191687E-05  0.773E-04    0.00       7.3  T
  42   -578.5123712 -0.439085E-06  0.630E-04    0.00       9.0  T
  43   -578.5123719 -0.668749E-06  0.287E-04    0.00      19.8  T
     SCC iter.                  ...        0 min, 16.178 sec
     gradient                   ...        0 min,  0.637 sec
 * total energy  :  -568.4219964 Eh     change       -0.1604880E-01 Eh
   gradient norm :     0.0289087 Eh/α   predicted    -0.1573100E-01 (  -1.98%)
   displ. norm   :     0.9862870 α      lambda       -0.1641604E-01
   maximum displ.:     0.5925726 α      in ANC's #51, #45, #47, ...

........................................................................
.............................. CYCLE   19 ..............................
........................................................................
   1   -578.3319891 -0.578332E+03  0.439E-01    0.00       0.0  T
   2   -559.8891781  0.184428E+02  0.491E+00    0.03       1.0  T
   3   -577.1296503 -0.172405E+02  0.120E+00    0.02       1.0  T
   4   -577.5418565 -0.412206E+00  0.805E-01    0.06       1.0  T
   5   -577.4776693  0.641872E-01  0.800E-01    0.03       1.0  T
   6   -577.4798433 -0.217398E-02  0.736E-01    0.03       1.0  T
   7   -576.9896857  0.490158E+00  0.868E-01    0.10       1.0  T
   8   -577.7068275 -0.717142E+00  0.759E-01    0.06       1.0  T
   9   -577.9175484 -0.210721E+00  0.588E-01    0.03       1.0  T
  10   -577.4650752  0.452473E+00  0.694E-01    0.03       1.0  T
  11   -577.9489304 -0.483855E+00  0.546E-01    0.02       1.0  T
  12   -577.3299999  0.618930E+00  0.717E-01    0.03       1.0  T
  13   -578.1084382 -0.778438E+00  0.517E-01    0.01       1.0  T
  14   -578.4100830 -0.301645E+00  0.256E-01    0.00       1.0  T
  15   -578.1499373  0.260146E+00  0.473E-01    0.01       1.0  T
  16   -578.4660214 -0.316084E+00  0.154E-01    0.01       1.0  T
  17   -578.4476140  0.184074E-01  0.180E-01    0.00       1.0  T
  18   -578.4895966 -0.419826E-01  0.108E-01    0.01       1.0  T
  19   -578.3359547  0.153642E+00  0.285E-01    0.01       1.0  T
  20   -578.4573517 -0.121397E+00  0.169E-01    0.01       1.0  T
  21   -578.4741464 -0.167946E-01  0.139E-01    0.01       1.0  T
  22   -578.4873403 -0.131940E-01  0.103E-01    0.00       1.0  T
  23   -578.5036921 -0.163518E-01  0.646E-02    0.00       1.0  T
  24   -578.5080585 -0.436639E-02  0.473E-02    0.00       1.0  T
  25   -578.5107805 -0.272205E-02  0.271E-02    0.00       1.0  T
  26   -578.5117224 -0.941877E-03  0.184E-02    0.00       1.0  T
  27   -578.5115956  0.126847E-03  0.181E-02    0.00       1.0  T
  28   -578.5119303 -0.334765E-03  0.135E-02    0.00       1.0  T
  29   -578.5119168  0.135054E-04  0.133E-02    0.00       1.0  T
  30   -578.5120013 -0.844240E-04  0.121E-02    0.00       1.0  T
  31   -578.5121638 -0.162580E-03  0.895E-03    0.00       1.0  T
  32   -578.5122025 -0.386188E-04  0.816E-03    0.00       1.0  T
  33   -578.5122605 -0.580261E-04  0.596E-03    0.00       1.0  T
  34   -578.5122981 -0.376498E-04  0.400E-03    0.00       1.4  T
  35   -578.5123188 -0.206984E-04  0.225E-03    0.00       2.5  T
  36   -578.5123205 -0.171317E-05  0.207E-03    0.00       2.7  T
  37   -578.5123256 -0.503542E-05  0.122E-03    0.00       4.7  T
  38   -578.5123278 -0.226633E-05  0.744E-04    0.00       7.6  T
  39   -578.5123283 -0.477594E-06  0.451E-04    0.00      12.6  T
  40   -578.5123282  0.822092E-07  0.451E-04    0.00      12.6  T
     SCC iter.                  ...        0 min, 15.085 sec
     gradient                   ...        0 min,  0.640 sec
 * total energy  :  -568.4390472 Eh     change       -0.1705081E-01 Eh
   gradient norm :     0.0408771 Eh/α   predicted    -0.1619249E-01 (  -5.03%)
   displ. norm   :     0.9655460 α      lambda       -0.1804523E-01
   maximum displ.:     0.5584670 α      in ANC's #51, #45, #47, ...

........................................................................
.............................. CYCLE   20 ..............................
........................................................................
   1   -578.3425028 -0.578343E+03  0.415E-01    0.00       0.0  T
   2   -552.0128580  0.263296E+02  0.529E+00    0.07       1.0  T
   3   -577.2630205 -0.252502E+02  0.115E+00    0.00       1.0  T
   4   -577.6975361 -0.434516E+00  0.725E-01    0.01       1.0  T
   5   -577.6282895  0.692467E-01  0.818E-01    0.06       1.0  T
   6   -577.6799779 -0.516884E-01  0.692E-01    0.03       1.0  T
   7   -577.4909708  0.189007E+00  0.759E-01    0.02       1.0  T
   8   -577.7668664 -0.275896E+00  0.664E-01    0.02       1.0  T
   9   -577.6731333  0.937331E-01  0.630E-01    0.00       1.0  T
  10   -577.8554555 -0.182322E+00  0.648E-01    0.03       1.0  T
  11   -577.8931483 -0.376928E-01  0.625E-01    0.02       1.0  T
  12   -577.8942050 -0.105670E-02  0.575E-01    0.01       1.0  T
  13   -578.3076041 -0.413399E+00  0.352E-01    0.01       1.0  T
  14   -578.2391936  0.684105E-01  0.404E-01    0.02       1.0  T
  15   -578.2495240 -0.103304E-01  0.372E-01    0.00       1.0  T
  16   -578.4349786 -0.185455E+00  0.192E-01    0.00       1.0  T
  17   -578.4678392 -0.328607E-01  0.165E-01    0.01       1.0  T
  18   -578.4396176  0.282216E-01  0.199E-01    0.01       1.0  T
  19   -578.4947880 -0.551704E-01  0.124E-01    0.00       1.0  T
  20   -578.4381479  0.566401E-01  0.190E-01    0.00       1.0  T
  21   -578.4981711 -0.600232E-01  0.977E-02    0.00       1.0  T
  22   -578.5049882 -0.681717E-02  0.712E-02    0.00       1.0  T
  23   -578.5117353 -0.674709E-02  0.421E-02    0.00       1.0  T
  24   -578.5106359  0.109943E-02  0.431E-02    0.00       1.0  T
  25   -578.5111118 -0.475935E-03  0.414E-02    0.00       1.0  T
  26   -578.5139557 -0.284384E-02  0.209E-02    0.00       1.0  T
  27   -578.5141516 -0.195913E-03  0.147E-02    0.00       1.0  T
  28   -578.5138722  0.279348E-03  0.179E-02    0.00       1.0  T
  29   -578.5140166 -0.144350E-03  0.160E-02    0.00       1.0  T
  30   -578.5140669 -0.503388E-04  0.152E-02    0.00       1.0  T
  31   -578.5143273 -0.260403E-03  0.102E-02    0.00       1.0  T
  32   -578.5144619 -0.134580E-03  0.463E-03    0.00       1.2  T
  33   -578.5144878 -0.258585E-04  0.342E-03    0.00       1.7  T
  34   -578.5144630  0.247437E-04  0.435E-03    0.00       1.3  T
  35   -578.5144664 -0.335836E-05  0.439E-03    0.00       1.3  T
  36   -578.5144959 -0.295623E-04  0.248E-03    0.00       2.3  T
[...]
 697:  0.00 698:  0.00 699:  0.00 700:  0.00 701:  0.00 702:  0.00 703:  0.00 704:  0.00
 705:  0.00 706:  0.00 707:  0.00 708:  0.00 709:  0.00 710:  0.00 711:  0.00 712:  0.00
 713:  0.00 714:  0.00 715:  0.00 716:  0.00 717:  0.00 718:  0.00 719:  0.00 720:  0.00
 721:  0.00 722:  0.00 723:  0.00 724:  0.00 725:  0.00 726:  0.00 727:  0.00 728:  0.00
 729:  0.00 730:  0.00 731:  0.00 732:  0.00 733:  0.00 734:  0.00 735:  0.00 736:  0.00
 737:  0.00 738:  0.00 739:  0.00 740:  0.00 741:  0.00 742:  0.00 743:  0.00 744:  0.00
 745:  0.00 746:  0.00 747:  0.00 748:  0.00 749:  0.00 750:  0.00 751:  0.00 752:  0.00
 753:  0.00 754:  0.00 755:  0.00 756:  0.00 757:  0.00 758:  0.00 759:  0.00 760:  0.00
 761:  0.00 762:  0.00 763:  0.00 764:  0.00 765:  0.00 766:  0.00 767:  0.00 768:  0.00
 769:  0.00 770:  0.00 771:  0.00 772:  0.00 773:  0.00 774:  0.00 775:  0.00 776:  0.00
 777:  0.00 778:  0.00 779:  0.00 780:  0.00 781:  0.00 782:  0.00 783:  0.00 784:  0.00
 785:  0.00 786:  0.00 787:  0.00 788:  0.00 789:  0.00 790:  0.00 791:  0.00 792:  0.00
 793:  0.00 794:  0.00 795:  0.00 796:  0.00 797:  0.00 798:  0.00 799:  0.00 800:  0.00
 801:  0.00 802:  0.00 803:  0.00 804:  0.00 805:  0.00 806:  0.00 807:  0.00 808:  0.00
 809:  0.00 810:  0.00 811:  0.00 812:  0.00 813:  0.00 814:  0.00 815:  0.00 816:  0.00
 817:  0.00 818:  0.00 819:  0.00 820:  0.00 821:  0.00 822:  0.00 823:  0.00 824:  0.00
 825:  0.00 826:  0.00 827:  0.00 828:  0.00 829:  0.00 830:  0.00 831:  0.00 832:  0.00
 833:  0.00 834:  0.00 835:  0.00 836:  0.00 837:  0.00 838:  0.00 839:  0.00 840:  0.00
 841:  0.00 842:  0.00 843:  0.00 844:  0.00 845:  0.00 846:  0.00 847:  0.00 848:  0.00
 849:  0.00 850:  0.00 851:  0.00 852:  0.00 853:  0.00 854:  0.00 855:  0.00 856:  0.00
 857:  0.00 858:  0.00 859:  0.00 860:  0.00 861:  0.00 862:  0.00 863:  0.00 864:  0.00
 865:  0.00 866:  0.00 867:  0.00 868:  0.00 869:  0.00 870:  0.00 871:  0.00 872:  0.00
 873:  0.00 874:  0.00 875:  0.00 876:  0.00 877:  0.00 878:  0.00 879:  0.00 880:  0.00
 881:  0.00 882:  0.00 883:  0.00 884:  0.00 885:  0.00 886:  0.00 887:  0.00 888:  0.00
 889:  0.00 890:  0.00 891:  0.00 892:  0.00 893:  0.00 894:  0.00 895:  0.00 896:  0.00
 897:  0.00 898:  0.00 899:  0.00 900:  0.00 901:  0.00 902:  0.00 903:  0.00 904:  0.00
 905:  0.00 906:  0.00 907:  0.00 908:  0.00 909:  0.00 910:  0.00 911:  0.00 912:  0.00
 913:  0.00 914:  0.00 915:  0.00 916:  0.00 917:  0.00 918:  0.00 919:  0.00 920:  0.00
 921:  0.00 922:  0.00 923:  0.00 924:  0.00 925:  0.00 926:  0.00 927:  0.00 928:  0.00
 929:  0.00 930:  0.00
 output can be read by thermo (or use thermo option).
 writing <g98.out> molden fake output.
 recommended (thermochemical) frequency scaling factor: 1.0
           -------------------------------------------------
          |             Thermodynamic Functions             |
           -------------------------------------------------
 symmetry recognition skipped because # atoms >         200
 inverting freq            1   17.267124521277083     
 inverting freq            2   12.403638006905618     
 inverting freq            3   2.6107737680514940     

          ...................................................
          :                      SETUP                      :
          :.................................................:
          :  # frequencies                         921      :
          :  # imaginary freq.                       0      :
          :  linear?                             false      :
          :  only rotor calc.                    false      :
          :  symmetry                               C1      :
          :  rotational number                       1      :
          :  scaling factor                  1.0000000      :
          :  rotor cutoff                   50.0000000 cm⁻¹ :
          :  imag. cutoff                  -20.0000000 cm⁻¹ :
          :.................................................:

    mode    ω/cm⁻¹     T·S(HO)/kcal·mol⁻¹    T·S(FR)/kcal·mol⁻¹   T·S(vib)
   ------------------------------------------------------------------------
       1     17.27    -2.06498 (  1.40%)    -1.37152 ( 98.60%)    -1.38125
       2     12.40    -2.26090 (  0.38%)    -1.46952 ( 99.62%)    -1.47251
       3      2.61    -3.18411 (  0.00%)    -1.93117 (100.00%)    -1.93118
       4      1.33    -3.58276 (  0.00%)    -2.13049 (100.00%)    -2.13049
       5      1.59    -3.47924 (  0.00%)    -2.07874 (100.00%)    -2.07874
       6      2.04    -3.33003 (  0.00%)    -2.00413 (100.00%)    -2.00413
       7      2.52    -3.20394 (  0.00%)    -1.94108 (100.00%)    -1.94109
       8      3.49    -3.01154 (  0.00%)    -1.84488 (100.00%)    -1.84491
       9      3.60    -2.99427 (  0.00%)    -1.83625 (100.00%)    -1.83628
      10      3.75    -2.96880 (  0.00%)    -1.82351 (100.00%)    -1.82355
      11      4.73    -2.83236 (  0.01%)    -1.75529 ( 99.99%)    -1.75537
      12      4.99    -2.79989 (  0.01%)    -1.73905 ( 99.99%)    -1.73916
      13      5.37    -2.75685 (  0.01%)    -1.71753 ( 99.99%)    -1.71767
      14      6.00    -2.69066 (  0.02%)    -1.68443 ( 99.98%)    -1.68464
      15      6.04    -2.68724 (  0.02%)    -1.68272 ( 99.98%)    -1.68294
      16      8.16    -2.50902 (  0.07%)    -1.59361 ( 99.93%)    -1.59426
      17      9.83    -2.39884 (  0.15%)    -1.53851 ( 99.85%)    -1.53979
      18     10.04    -2.38630 (  0.16%)    -1.53224 ( 99.84%)    -1.53363
      19     10.37    -2.36681 (  0.18%)    -1.52249 ( 99.82%)    -1.52405
      20     13.04    -2.23132 (  0.46%)    -1.45473 ( 99.54%)    -1.45830
      21     15.51    -2.12841 (  0.92%)    -1.40325 ( 99.08%)    -1.40991
      22     15.94    -2.11252 (  1.02%)    -1.39530 ( 98.98%)    -1.40263
      23     18.42    -2.02675 (  1.81%)    -1.35239 ( 98.19%)    -1.36459
      24     21.54    -1.93403 (  3.33%)    -1.30600 ( 96.67%)    -1.32692
      25     22.41    -1.91074 (  3.88%)    -1.29434 ( 96.12%)    -1.31824
      26     24.75    -1.85190 (  5.66%)    -1.26489 ( 94.34%)    -1.29813
      27     25.90    -1.82501 (  6.71%)    -1.25143 ( 93.29%)    -1.28994
      28     28.68    -1.76473 (  9.76%)    -1.22125 ( 90.24%)    -1.27431
      29     30.23    -1.73348 ( 11.79%)    -1.20559 ( 88.21%)    -1.26783
      30     32.68    -1.68740 ( 15.44%)    -1.18251 ( 84.56%)    -1.26045
      31     33.06    -1.68066 ( 16.04%)    -1.17913 ( 83.96%)    -1.25958
      32     34.73    -1.65148 ( 18.88%)    -1.16451 ( 81.12%)    -1.25646
      33     36.51    -1.62195 ( 22.13%)    -1.14971 ( 77.87%)    -1.25424
      34     36.70    -1.61883 ( 22.50%)    -1.14814 ( 77.50%)    -1.25405
      35     36.97    -1.61455 ( 23.01%)    -1.14600 ( 76.99%)    -1.25381
      36     37.18    -1.61112 ( 23.42%)    -1.14428 ( 76.58%)    -1.25363
      37     37.36    -1.60835 ( 23.76%)    -1.14289 ( 76.24%)    -1.25349
      38     37.53    -1.60559 ( 24.10%)    -1.14151 ( 75.90%)    -1.25336
      39     37.78    -1.60168 ( 24.59%)    -1.13955 ( 75.41%)    -1.25318
      40     38.14    -1.59611 ( 25.29%)    -1.13675 ( 74.71%)    -1.25295
      41     38.55    -1.58976 ( 26.12%)    -1.13357 ( 73.88%)    -1.25271
      42     38.95    -1.58366 ( 26.92%)    -1.13051 ( 73.08%)    -1.25250
      43     40.88    -1.55517 ( 30.88%)    -1.11622 ( 69.12%)    -1.25177
      44     42.82    -1.52771 ( 34.99%)    -1.10244 ( 65.01%)    -1.25122
      45     43.23    -1.52215 ( 35.85%)    -1.09965 ( 64.15%)    -1.25111
      46     47.77    -1.46323 ( 45.45%)    -1.07008 ( 54.55%)    -1.24875
      47     49.04    -1.44768 ( 48.07%)    -1.06227 ( 51.93%)    -1.24754
      48     52.82    -1.40399 ( 55.46%)    -1.04031 ( 44.54%)    -1.24201
      49     57.85    -1.35038 ( 64.18%)    -1.01335 ( 35.82%)    -1.22967
      50     62.44    -1.30549 ( 70.86%)    -0.99074 ( 29.14%)    -1.21377
      51     65.61    -1.27633 ( 74.78%)    -0.97605 ( 25.22%)    -1.20060
      52     65.70    -1.27557 ( 74.88%)    -0.97567 ( 25.12%)    -1.20023
      53     80.37    -1.15740 ( 86.97%)    -0.91597 ( 13.03%)    -1.12594
      54     81.45    -1.14954 ( 87.57%)    -0.91199 ( 12.43%)    -1.12001
      55     81.99    -1.14566 ( 87.85%)    -0.91002 ( 12.15%)    -1.11703
      56     82.19    -1.14425 ( 87.95%)    -0.90931 ( 12.05%)    -1.11595
      57     82.31    -1.14342 ( 88.01%)    -0.90889 ( 11.99%)    -1.11531
      58     82.49    -1.14211 ( 88.11%)    -0.90822 ( 11.89%)    -1.11429
      59     82.59    -1.14144 ( 88.16%)    -0.90788 ( 11.84%)    -1.11378
      60     82.63    -1.14116 ( 88.18%)    -0.90774 ( 11.82%)    -1.11356
      61     86.70    -1.11302 ( 90.04%)    -0.89348 (  9.96%)    -1.09116
      62     87.02    -1.11093 ( 90.17%)    -0.89241 (  9.83%)    -1.08945
      63     91.63    -1.08078 ( 91.86%)    -0.87711 (  8.14%)    -1.06420
      64     96.81    -1.04878 ( 93.36%)    -0.86083 (  6.64%)    -1.03629
      65     98.79    -1.03698 ( 93.84%)    -0.85482 (  6.16%)    -1.02576
      66    102.67    -1.01459 ( 94.68%)    -0.84340 (  5.32%)    -1.00547
      67    108.69    -0.98155 ( 95.71%)    -0.82652 (  4.29%)    -0.97491
      68    113.38    -0.95712 ( 96.36%)    -0.81401 (  3.64%)    -0.95190
      69    114.54    -0.95125 ( 96.50%)    -0.81100 (  3.50%)    -0.94634
      70    115.54    -0.94621 ( 96.61%)    -0.80841 (  3.39%)    -0.94154
      71    115.97    -0.94406 ( 96.66%)    -0.80731 (  3.34%)    -0.93950
      72    116.19    -0.94298 ( 96.68%)    -0.80676 (  3.32%)    -0.93846
      73    116.30    -0.94243 ( 96.70%)    -0.80647 (  3.30%)    -0.93794
      74    116.47    -0.94161 ( 96.71%)    -0.80605 (  3.29%)    -0.93716
      75    116.57    -0.94112 ( 96.73%)    -0.80580 (  3.27%)    -0.93669
      76    119.65    -0.92605 ( 97.04%)    -0.79806 (  2.96%)    -0.92226
      77    120.98    -0.91970 ( 97.16%)    -0.79480 (  2.84%)    -0.91616
      78    121.04    -0.91942 ( 97.17%)    -0.79465 (  2.83%)    -0.91589
      79    122.03    -0.91473 ( 97.26%)    -0.79224 (  2.74%)    -0.91137
      80    133.88    -0.86149 ( 98.09%)    -0.76476 (  1.91%)    -0.85965
      81    137.43    -0.84656 ( 98.28%)    -0.75703 (  1.72%)    -0.84502
      82    137.49    -0.84632 ( 98.28%)    -0.75690 (  1.72%)    -0.84478
      83    140.58    -0.83362 ( 98.42%)    -0.75031 (  1.58%)    -0.83231
      84    143.12    -0.82341 ( 98.53%)    -0.74501 (  1.47%)    -0.82226
      85    143.40    -0.82229 ( 98.54%)    -0.74442 (  1.46%)    -0.82116
      86    144.69    -0.81719 ( 98.59%)    -0.74177 (  1.41%)    -0.81613
      87    144.94    -0.81623 ( 98.60%)    -0.74127 (  1.40%)    -0.81519
      88    146.09    -0.81173 ( 98.65%)    -0.73892 (  1.35%)    -0.81074
      89    146.50    -0.81013 ( 98.66%)    -0.73809 (  1.34%)    -0.80917
      90    146.86    -0.80872 ( 98.67%)    -0.73735 (  1.33%)    -0.80777
      91    148.62    -0.80198 ( 98.74%)    -0.73384 (  1.26%)    -0.80112
      92    150.58    -0.79453 ( 98.80%)    -0.72995 (  1.20%)    -0.79376
      93    150.76    -0.79386 ( 98.80%)    -0.72960 (  1.20%)    -0.79309
      94    152.26    -0.78824 ( 98.85%)    -0.72666 (  1.15%)    -0.78753
      95    153.28    -0.78447 ( 98.88%)    -0.72469 (  1.12%)    -0.78380
      96    165.91    -0.73979 ( 99.18%)    -0.70122 (  0.82%)    -0.73947
      97    165.97    -0.73961 ( 99.18%)    -0.70113 (  0.82%)    -0.73930
      98    166.13    -0.73907 ( 99.19%)    -0.70085 (  0.81%)    -0.73876
      99    166.46    -0.73795 ( 99.19%)    -0.70025 (  0.81%)    -0.73764
     100    166.72    -0.73707 ( 99.20%)    -0.69979 (  0.80%)    -0.73677
     101    166.81    -0.73677 ( 99.20%)    -0.69963 (  0.80%)    -0.73648
     102    167.23    -0.73536 ( 99.21%)    -0.69889 (  0.79%)    -0.73508
     103    167.76    -0.73358 ( 99.22%)    -0.69795 (  0.78%)    -0.73330
     104    168.11    -0.73240 ( 99.22%)    -0.69733 (  0.78%)    -0.73213
     105    182.36    -0.68696 ( 99.44%)    -0.67322 (  0.56%)    -0.68688
     106    183.02    -0.68497 ( 99.45%)    -0.67216 (  0.55%)    -0.68490
     107    183.29    -0.68416 ( 99.45%)    -0.67172 (  0.55%)    -0.68409
     108    183.76    -0.68272 ( 99.45%)    -0.67096 (  0.55%)    -0.68265
     109    184.14    -0.68157 ( 99.46%)    -0.67034 (  0.54%)    -0.68151
     110    184.35    -0.68094 ( 99.46%)    -0.67001 (  0.54%)    -0.68088
     111    184.60    -0.68018 ( 99.46%)    -0.66960 (  0.54%)    -0.68012
     112    184.84    -0.67947 ( 99.47%)    -0.66922 (  0.53%)    -0.67942
     113    184.92    -0.67922 ( 99.47%)    -0.66909 (  0.53%)    -0.67917
     114    191.12    -0.66099 ( 99.53%)    -0.65933 (  0.47%)    -0.66098
     115    191.49    -0.65992 ( 99.54%)    -0.65876 (  0.46%)    -0.65992
     116    193.22    -0.65496 ( 99.55%)    -0.65609 (  0.45%)    -0.65497
     117    195.48    -0.64856 ( 99.57%)    -0.65265 (  0.43%)    -0.64857
     118    196.39    -0.64599 ( 99.58%)    -0.65127 (  0.42%)    -0.64601
     119    198.07    -0.64130 ( 99.60%)    -0.64874 (  0.40%)    -0.64133
     120    200.36    -0.63501 ( 99.61%)    -0.64535 (  0.39%)    -0.63505
     121    201.80    -0.63106 ( 99.62%)    -0.64321 (  0.38%)    -0.63110
     122    202.81    -0.62835 ( 99.63%)    -0.64174 (  0.37%)    -0.62840
     123    203.16    -0.62740 ( 99.63%)    -0.64123 (  0.37%)    -0.62745
     124    203.31    -0.62700 ( 99.64%)    -0.64101 (  0.36%)    -0.62705
     125    203.35    -0.62689 ( 99.64%)    -0.64095 (  0.36%)    -0.62694
     126    203.99    -0.62517 ( 99.64%)    -0.64002 (  0.36%)    -0.62522
     127    204.13    -0.62479 ( 99.64%)    -0.63982 (  0.36%)    -0.62485
     128    206.31    -0.61899 ( 99.66%)    -0.63667 (  0.34%)    -0.61905
     129    206.41    -0.61872 ( 99.66%)    -0.63653 (  0.34%)    -0.61878
     130    206.87    -0.61751 ( 99.66%)    -0.63587 (  0.34%)    -0.61757
     131    209.00    -0.61192 ( 99.67%)    -0.63283 (  0.33%)    -0.61199
     132    209.18    -0.61146 ( 99.67%)    -0.63258 (  0.33%)    -0.61153
     133    211.57    -0.60527 ( 99.69%)    -0.62921 (  0.31%)    -0.60534
     134    211.93    -0.60434 ( 99.69%)    -0.62871 (  0.31%)    -0.60442
     135    212.64    -0.60252 ( 99.70%)    -0.62772 (  0.30%)    -0.60260
     136    213.14    -0.60125 ( 99.70%)    -0.62702 (  0.30%)    -0.60133
     137    213.75    -0.59970 ( 99.70%)    -0.62617 (  0.30%)    -0.59978
     138    215.26    -0.59588 ( 99.71%)    -0.62408 (  0.29%)    -0.59596
     139    215.90    -0.59428 ( 99.71%)    -0.62321 (  0.29%)    -0.59436
     140    216.38    -0.59306 ( 99.72%)    -0.62255 (  0.28%)    -0.59314
     141    217.16    -0.59112 ( 99.72%)    -0.62148 (  0.28%)    -0.59121
     142    217.21    -0.59099 ( 99.72%)    -0.62141 (  0.28%)    -0.59108
     143    217.33    -0.59071 ( 99.72%)    -0.62126 (  0.28%)    -0.59079
     144    217.42    -0.59047 ( 99.72%)    -0.62113 (  0.28%)    -0.59056
     145    218.24    -0.58844 ( 99.73%)    -0.62001 (  0.27%)    -0.58852
     146    219.13    -0.58624 ( 99.73%)    -0.61881 (  0.27%)    -0.58633
     147    219.27    -0.58591 ( 99.73%)    -0.61863 (  0.27%)    -0.58600
     148    220.00    -0.58411 ( 99.73%)    -0.61764 (  0.27%)    -0.58420
     149    220.74    -0.58229 ( 99.74%)    -0.61664 (  0.26%)    -0.58238
     150    220.78    -0.58219 ( 99.74%)    -0.61659 (  0.26%)    -0.58228
     151    228.26    -0.56426 ( 99.77%)    -0.60671 (  0.23%)    -0.56436
     152    228.95    -0.56266 ( 99.77%)    -0.60583 (  0.23%)    -0.56276
     153    230.22    -0.55969 ( 99.78%)    -0.60418 (  0.22%)    -0.55979
     154    233.14    -0.55297 ( 99.79%)    -0.60046 (  0.21%)    -0.55307
     155    238.09    -0.54177 ( 99.81%)    -0.59423 (  0.19%)    -0.54187
     156    247.67    -0.52089 ( 99.83%)    -0.58254 (  0.17%)    -0.52099
     157    256.33    -0.50286 ( 99.86%)    -0.57235 (  0.14%)    -0.50296
     158    258.39    -0.49869 ( 99.86%)    -0.56999 (  0.14%)    -0.49879
     159    258.46    -0.49854 ( 99.86%)    -0.56990 (  0.14%)    -0.49864
     160    258.59    -0.49829 ( 99.86%)    -0.56976 (  0.14%)    -0.49839
     161    259.24    -0.49699 ( 99.86%)    -0.56902 (  0.14%)    -0.49709
     162    259.33    -0.49680 ( 99.86%)    -0.56892 (  0.14%)    -0.49690
     163    259.51    -0.49644 ( 99.86%)    -0.56871 (  0.14%)    -0.49654
     164    259.64    -0.49617 ( 99.86%)    -0.56856 (  0.14%)    -0.49627
     165    259.72    -0.49601 ( 99.86%)    -0.56846 (  0.14%)    -0.49611
     166    259.83    -0.49579 ( 99.86%)    -0.56834 (  0.14%)    -0.49589
     167    261.88    -0.49170 ( 99.87%)    -0.56601 (  0.13%)    -0.49180
     168    267.01    -0.48166 ( 99.88%)    -0.56027 (  0.12%)    -0.48176
     169    273.20    -0.46984 ( 99.89%)    -0.55348 (  0.11%)    -0.46994
     170    279.98    -0.45729 ( 99.90%)    -0.54621 (  0.10%)    -0.45738
     171    286.97    -0.44477 ( 99.91%)    -0.53891 (  0.09%)    -0.44486
     172    293.76    -0.43297 ( 99.92%)    -0.53198 (  0.08%)    -0.43306
   ------------------------------------------------------------------------

   temp. (K)  partition function   enthalpy   heat capacity  entropy
                                   cal/mol     cal/K/mol   cal/K/mol   J/K/mol
 298.15  VIB  0.277+102           115151.070    727.304    738.566
         ROT  0.287E+11              888.752      2.981     50.836
         INT  0.795+112           116039.822    730.285    789.402
         TR   0.183E+30             1481.254      4.968     50.115
         TOT                      117521.0762   735.2529   839.5171  3512.5395

       T/K    H(0)-H(T)+PV         H(T)/Eh          T*S/Eh         G(T)/Eh
   ------------------------------------------------------------------------
    298.15    0.187282E+00    0.229589E+01    0.398882E+00    0.189701E+01
   ------------------------------------------------------------------------

         :::::::::::::::::::::::::::::::::::::::::::::::::::::
         ::                  THERMODYNAMIC                  ::
         :::::::::::::::::::::::::::::::::::::::::::::::::::::
         :: total free energy        -567.087894382453 Eh   ::
         ::.................................................::
         :: total energy             -568.984906878889 Eh   ::
         :: zero point energy           2.108612402884 Eh   ::
         :: G(RRHO) w/o ZPVE           -0.211599906449 Eh   ::
         :: G(RRHO) contrib.            1.897012496436 Eh   ::
         :::::::::::::::::::::::::::::::::::::::::::::::::::::
imag cut-off (cm-1) :    5.00
 found            2  significant imaginary frequencies
 writing imag mode distorted coords to xtbhess.xyz
 for further optimization.

optimized geometry written to: xtbopt.xyz


           -------------------------------------------------
          | TOTAL ENERGY             -568.984906878889 Eh   |
          | TOTAL ENTHALPY           -566.689012720119 Eh   |
          | TOTAL FREE ENERGY        -567.087894382453 Eh   |
          | GRADIENT NORM               0.000612213224 Eh/α |
          | HOMO-LUMO GAP               0.000030851200 eV   |
           -------------------------------------------------

------------------------------------------------------------------------
 * finished run on 2021/11/21 at 18:14:58.949     
------------------------------------------------------------------------
 total:
 * wall-time:     0 d,  3 h, 29 min, 20.532 sec
 *  cpu-time:     0 d,  3 h, 29 min, 20.725 sec
 * ratio c/w:     1.000 speedup
 SCF:
 * wall-time:     0 d,  0 h,  0 min, 27.232 sec
 *  cpu-time:     0 d,  0 h,  0 min, 27.232 sec
 * ratio c/w:     1.000 speedup
 ANC optimizer:
 * wall-time:     0 d,  0 h, 16 min, 42.434 sec
 *  cpu-time:     0 d,  0 h, 16 min, 42.448 sec
 * ratio c/w:     1.000 speedup
 analytical hessian:
 * wall-time:     0 d,  3 h, 12 min, 10.313 sec
 *  cpu-time:     0 d,  3 h, 12 min, 10.491 sec
 * ratio c/w:     1.000 speedup

