310
 energy: -567.046337840857 gnorm: 1.079494465004 xtb: 6.4.1 (bd6e46d)
Cu       49.38932600000000    0.04512600000000   -0.01416700000000
C        51.71831700000001   -3.10166700000000    1.30852200000000
C        52.63442400000001   -2.15746000000000    1.25823900000000
C        52.22324500000000   -1.10355600000000    0.33694800000000
C        52.84211500000000    0.02079000000000   -0.00946200000000
C        52.13807300000000    1.24073900000000   -0.37356800000000
C        52.46618400000001    2.20079300000000   -1.22104100000000
C        51.43140400000001    3.21707900000000   -1.23793900000000
C        50.49513600000000    2.84061700000000   -0.39104700000000
N        50.89712600000000    1.60760600000000    0.17277000000000
C        49.23406200000001    3.48561600000000   -0.01189600000000
C        48.13884400000001    2.85083400000000    0.33886500000000
C        47.06521900000000    3.16879000000000    1.30789300000000
C        46.22765600000000    2.17203600000000    1.23072600000000
C        46.66595300000000    1.16835300000000    0.25027400000000
N        47.77089100000001    1.60720600000000   -0.23401800000000
C        46.05511900000000   -0.08491800000000   -0.16327400000000
C        46.71927900000000   -1.18942500000000   -0.41769800000000
C        46.34543000000000   -2.25236600000000   -1.37522500000000
C        47.29417800000000   -3.14612200000000   -1.28620600000000
C        48.27990100000000   -2.70867200000000   -0.30332800000000
N        47.92685600000000   -1.56286700000000    0.19346900000000
C        49.51078900000000   -3.36474300000000    0.14239300000000
C        50.63383100000000   -2.71888100000000    0.40951400000000
N        50.96243100000000   -1.47144000000000   -0.18889000000000
H        51.77857900000000   -4.01144800000000    1.92606800000000
H        53.55075200000000   -2.19740900000000    1.83628800000000
H        53.39354900000000    2.21758900000000   -1.82218500000000
H        51.44830300000001    4.12176700000000   -1.85056000000000
H        49.18633900000000    4.58041900000000   -0.01567300000000
H        47.01239700000000    4.04751500000000    1.93288500000000
H        45.31602500000001    2.13636600000000    1.84805100000000
H        44.95686800000000   -0.08200700000000   -0.26254400000000
H        45.47657500000000   -2.30483100000000   -2.02417600000000
H        47.29133200000000   -4.06243000000000   -1.88496600000000
H        49.47530700000000   -4.46054400000000    0.25431800000000
Cu      146.02550900000003   -0.00225000000000   -0.01860000000000
C       143.69651800000000    2.84454200000000    1.86490400000000
C       142.78041100000002    1.92605200000000    1.64033100000000
C       143.19158999999999    1.06135600000000    0.53951700000000
C       142.57272000000000    0.02079000000000   -0.00946200000000
C       143.27676199999999   -1.11043400000000   -0.59356500000000
C       142.94865200000001   -1.89660600000000   -1.60443200000000
C       143.98343100000000   -2.89211500000000   -1.80957200000000
C       144.91969900000001   -2.67929900000000   -0.90754200000000
N       144.51770900000000   -1.57228700000000   -0.12477100000000
C       146.18077400000001   -3.38344000000000   -0.65462900000000
C       147.27599100000000   -2.82474800000000   -0.19219600000000
C       148.34961600000000   -3.31695300000000    0.70102600000000
C       149.18717899999999   -2.32318600000000    0.81011200000000
C       148.74888200000001   -1.15503700000000    0.03287700000000
N       147.64394400000000   -1.49642900000000   -0.52442300000000
C       149.35971700000002    0.15319800000000   -0.14099300000000
C       148.69555600000001    1.28573200000000   -0.18609900000000
C       149.06940499999999    2.50785700000000   -0.92981500000000
C       148.12065799999999    3.36958400000000   -0.67653600000000
C       147.13493399999999    2.75739000000000    0.20812700000000
N       147.48797999999999    1.53931100000000    0.48373800000000
C       145.90404599999999    3.31938400000000    0.76782200000000
C       144.78100400000000    2.63518000000000    0.91049000000000
N       144.45240400000000    1.52040500000000    0.09105500000000
H       143.63625600000003    3.62396600000000    2.64050900000000
H       141.86408400000002    1.85807200000000    2.21575600000000
H       142.02128600000000   -1.80158900000000   -2.19825600000000
H       143.96653200000000   -3.66745000000000   -2.57939200000000
H       146.22849600000001   -4.45853800000000   -0.86144200000000
H       148.40243799999999   -4.29637000000000    1.15215300000000
H       150.09880999999999   -2.40265800000000    1.42333700000000
H       150.45796700000000    0.16875400000000   -0.23908100000000
H       149.93826100000001    2.67980100000000   -1.55776700000000
H       148.12350400000000    4.38106600000000   -1.09491300000000
H       145.93952800000000    4.37540100000000    1.08109100000000
C        55.73681900000000    0.01875500000000   -0.01057400000000
C        56.94479600000000    0.02621000000000   -0.00887900000000
C        58.36356400000000    0.02690700000000   -0.00374200000000
C        59.57908000000000    0.01875500000000   -0.01057400000000
C        69.08696999999999    0.01875500000000   -0.01057400000000
C        70.29494600000000    0.02621000000000   -0.00887900000000
C        71.71371400000000    0.02690700000000   -0.00374200000000
C        72.92923100000000    0.01875500000000   -0.01057400000000
C        82.43712000000001    0.01875500000000   -0.01057400000000
C        83.64509700000001    0.02621000000000   -0.00887900000000
C        85.06386500000001    0.02690700000000   -0.00374200000000
C        86.27938100000000    0.01875500000000   -0.01057400000000
C        95.78727000000002    0.01875500000000   -0.01057400000000
C        96.99524700000001    0.02621000000000   -0.00887900000000
C        98.41401500000001    0.02690700000000   -0.00374200000000
C        99.62953200000000    0.01875500000000   -0.01057400000000
C       109.13742100000000    0.01875500000000   -0.01057400000000
C       110.34539800000000    0.02621000000000   -0.00887900000000
C       111.76416600000000    0.02690700000000   -0.00374200000000
C       112.97968200000000    0.01875500000000   -0.01057400000000
C       122.48757100000000    0.01875500000000   -0.01057400000000
C       123.69554800000000    0.02621000000000   -0.00887900000000
C       125.11431600000000    0.02690700000000   -0.00374200000000
C       126.32983300000001    0.01875500000000   -0.01057400000000
C       135.83772200000004    0.01875500000000   -0.01057400000000
C       137.04569900000001    0.02621000000000   -0.00887900000000
C       138.46446599999999    0.02690700000000   -0.00374200000000
C       139.67998299999999    0.01875500000000   -0.01057400000000
Cu       64.36766100000000    0.03889100000000    0.00156400000000
C        62.08785100000000   -3.22255700000000   -0.90810200000000
C        61.13164100000000   -2.32320600000000   -1.01012800000000
C        61.52401600000001   -1.16090100000000   -0.20761200000000
C        60.88889900000000   -0.00962900000000    0.00465400000000
C        61.57435600000000    1.26497100000000    0.23088300000000
C        61.23906600000000    2.34357100000000    0.93512400000000
C        62.26360700000000    3.36288700000000    0.84454200000000
C        63.21420400000000    2.86596300000000    0.07117700000000
N        62.83721000000000    1.54935800000000   -0.34496500000000
C        64.46134400000000    3.47766400000000   -0.34568800000000
C        65.56289599999999    2.81040700000000   -0.67746000000000
C        66.55644200000000    3.06239200000000   -1.71162900000000
C        67.45032500000001    2.10153300000000   -1.61014500000000
C        67.07062700000000    1.18964900000000   -0.50616800000000
N        65.97571200000000    1.63896800000000    0.00119800000000
C        67.72783400000000   -0.00962900000000    0.00465400000000
C        67.10442300000000   -1.07881100000000    0.46617100000000
C        67.48313500000000   -2.01092600000000    1.54164600000000
C        66.54246700000000   -2.92507200000000    1.62751300000000
C        65.53416500000000   -2.62929300000000    0.63008500000000
N        65.87194000000000   -1.57591600000000   -0.01921000000000
C        64.28177200000000   -3.33630100000000    0.29889200000000
C        63.16789500000001   -2.73960400000000   -0.04844900000000
N        62.78578300000000   -1.45684700000000    0.36923400000000
H        62.08819500000001   -4.21363100000000   -1.39933600000000
H        60.22310700000000   -2.44490000000000   -1.59127600000000
H        60.31421400000000    2.46192200000000    1.51205000000000
H        62.29090200000001    4.35205200000000    1.30119300000000
H        64.54728400000000    4.57504200000000   -0.40771100000000
H        66.58911400000000    3.86860800000000   -2.43845300000000
H        68.34338700000001    1.98856400000000   -2.24392000000000
H        68.39788600000000   -1.93652000000000    2.15181600000000
H        66.56151300000001   -3.73868100000000    2.33578000000000
H        64.32025700000000   -4.43626000000000    0.35792800000000
Cu       77.71781200000000    0.03889100000000    0.00156400000000
C        75.43800100000001   -3.22255700000000   -0.90810200000000
C        74.48179200000000   -2.32320600000000   -1.01012800000000
C        74.87416600000000   -1.16090100000000   -0.20761200000000
C        74.23905000000001   -0.00962900000000    0.00465400000000
C        74.92450700000001    1.26497100000000    0.23088300000000
C        74.58921599999999    2.34357100000000    0.93512400000000
C        75.61375800000000    3.36288700000000    0.84454200000000
C        76.56435500000001    2.86596300000000    0.07117700000000
N        76.18736100000000    1.54935800000000   -0.34496500000000
C        77.81149400000000    3.47766400000000   -0.34568800000000
C        78.91304599999999    2.81040700000000   -0.67746000000000
C        79.90659300000000    3.06239200000000   -1.71162900000000
C        80.80047600000000    2.10153300000000   -1.61014500000000
C        80.42077800000000    1.18964900000000   -0.50616800000000
N        79.32586200000000    1.63896800000000    0.00119800000000
C        81.07798500000001   -0.00962900000000    0.00465400000000
C        80.45457300000000   -1.07881100000000    0.46617100000000
C        80.83328600000000   -2.01092600000000    1.54164600000000
C        79.89261700000000   -2.92507200000000    1.62751300000000
C        78.88431600000001   -2.62929300000000    0.63008500000000
N        79.22209100000001   -1.57591600000000   -0.01921000000000
C        77.63192300000000   -3.33630100000000    0.29889200000000
C        76.51804600000000   -2.73960400000000   -0.04844900000000
N        76.13593400000001   -1.45684700000000    0.36923400000000
H        75.43834600000001   -4.21363100000000   -1.39933600000000
H        73.57325700000000   -2.44490000000000   -1.59127600000000
H        73.66436400000001    2.46192200000000    1.51205000000000
H        75.64105200000000    4.35205200000000    1.30119300000000
H        77.89743400000000    4.57504200000000   -0.40771100000000
H        79.93926500000001    3.86860800000000   -2.43845300000000
H        81.69353700000001    1.98856400000000   -2.24392000000000
H        81.74803600000000   -1.93652000000000    2.15181600000000
H        79.91166400000000   -3.73868100000000    2.33578000000000
H        77.67040700000000   -4.43626000000000    0.35792800000000
Cu       91.06796199999999    0.03889100000000    0.00156400000000
C        88.78815200000000   -3.22255700000000   -0.90810200000000
C        87.83194200000000   -2.32320600000000   -1.01012800000000
C        88.22431600000000   -1.16090100000000   -0.20761200000000
C        87.58920000000001   -0.00962900000000    0.00465400000000
C        88.27465700000000    1.26497100000000    0.23088300000000
C        87.93936700000000    2.34357100000000    0.93512400000000
C        88.96390800000000    3.36288700000000    0.84454200000000
C        89.91450500000001    2.86596300000000    0.07117700000000
N        89.53751099999999    1.54935800000000   -0.34496500000000
C        91.16164500000001    3.47766400000000   -0.34568800000000
C        92.26319700000002    2.81040700000000   -0.67746000000000
C        93.25674300000000    3.06239200000000   -1.71162900000000
C        94.15062600000000    2.10153300000000   -1.61014500000000
C        93.77092800000000    1.18964900000000   -0.50616800000000
N        92.67601300000000    1.63896800000000    0.00119800000000
C        94.42813500000001   -0.00962900000000    0.00465400000000
C        93.80472399999999   -1.07881100000000    0.46617100000000
C        94.18343600000000   -2.01092600000000    1.54164600000000
C        93.24276800000000   -2.92507200000000    1.62751300000000
C        92.23446600000001   -2.62929300000000    0.63008500000000
N        92.57224100000002   -1.57591600000000   -0.01921000000000
C        90.98207300000000   -3.33630100000000    0.29889200000000
C        89.86819600000000   -2.73960400000000   -0.04844900000000
N        89.48608400000001   -1.45684700000000    0.36923400000000
H        88.78849600000001   -4.21363100000000   -1.39933600000000
H        86.92340800000001   -2.44490000000000   -1.59127600000000
H        87.01451500000000    2.46192200000000    1.51205000000000
H        88.99120300000001    4.35205200000000    1.30119300000000
H        91.24758500000000    4.57504200000000   -0.40771100000000
H        93.28941500000001    3.86860800000000   -2.43845300000000
H        95.04368800000000    1.98856400000000   -2.24392000000000
H        95.09818600000000   -1.93652000000000    2.15181600000000
H        93.26181400000002   -3.73868100000000    2.33578000000000
H        91.02055799999999   -4.43626000000000    0.35792800000000
Cu      104.41811300000001    0.03889100000000    0.00156400000000
C       102.13830200000000   -3.22255700000000   -0.90810200000000
C       101.18209299999999   -2.32320600000000   -1.01012800000000
C       101.57446700000000   -1.16090100000000   -0.20761200000000
C       100.93935000000000   -0.00962900000000    0.00465400000000
C       101.62480700000002    1.26497100000000    0.23088300000000
C       101.28951700000000    2.34357100000000    0.93512400000000
C       102.31405800000000    3.36288700000000    0.84454200000000
C       103.26465600000002    2.86596300000000    0.07117700000000
N       102.88766200000002    1.54935800000000   -0.34496500000000
C       104.51179500000002    3.47766400000000   -0.34568800000000
C       105.61334700000002    2.81040700000000   -0.67746000000000
C       106.60689400000000    3.06239200000000   -1.71162900000000
C       107.50077700000000    2.10153300000000   -1.61014500000000
C       107.12107899999999    1.18964900000000   -0.50616800000000
N       106.02616300000000    1.63896800000000    0.00119800000000
C       107.77828599999999   -0.00962900000000    0.00465400000000
C       107.15487400000001   -1.07881100000000    0.46617100000000
C       107.53358700000001   -2.01092600000000    1.54164600000000
C       106.59291800000000   -2.92507200000000    1.62751300000000
C       105.58461700000001   -2.62929300000000    0.63008500000000
N       105.92239200000000   -1.57591600000000   -0.01921000000000
C       104.33222300000000   -3.33630100000000    0.29889200000000
C       103.21834699999999   -2.73960400000000   -0.04844900000000
N       102.83623500000002   -1.45684700000000    0.36923400000000
H       102.13864700000001   -4.21363100000000   -1.39933600000000
H       100.27355800000001   -2.44490000000000   -1.59127600000000
H       100.36466500000000    2.46192200000000    1.51205000000000
H       102.34135300000001    4.35205200000000    1.30119300000000
H       104.59773500000000    4.57504200000000   -0.40771100000000
H       106.63956600000000    3.86860800000000   -2.43845300000000
H       108.39383800000000    1.98856400000000   -2.24392000000000
H       108.44833700000000   -1.93652000000000    2.15181600000000
H       106.61196500000000   -3.73868100000000    2.33578000000000
H       104.37070799999999   -4.43626000000000    0.35792800000000
Cu      117.76826300000000    0.03889100000000    0.00156400000000
C       115.48845300000001   -3.22255700000000   -0.90810200000000
C       114.53224299999999   -2.32320600000000   -1.01012800000000
C       114.92461700000000   -1.16090100000000   -0.20761200000000
C       114.28950100000000   -0.00962900000000    0.00465400000000
C       114.97495800000000    1.26497100000000    0.23088300000000
C       114.63966800000000    2.34357100000000    0.93512400000000
C       115.66420900000000    3.36288700000000    0.84454200000000
C       116.61480600000002    2.86596300000000    0.07117700000000
N       116.23781200000002    1.54935800000000   -0.34496500000000
C       117.86194600000000    3.47766400000000   -0.34568800000000
C       118.96349800000000    2.81040700000000   -0.67746000000000
C       119.95704400000000    3.06239200000000   -1.71162900000000
C       120.85092700000000    2.10153300000000   -1.61014500000000
C       120.47122899999999    1.18964900000000   -0.50616800000000
N       119.37631400000001    1.63896800000000    0.00119800000000
C       121.12843599999999   -0.00962900000000    0.00465400000000
C       120.50502500000002   -1.07881100000000    0.46617100000000
C       120.88373700000001   -2.01092600000000    1.54164600000000
C       119.94306800000000   -2.92507200000000    1.62751300000000
C       118.93476700000001   -2.62929300000000    0.63008500000000
N       119.27254200000000   -1.57591600000000   -0.01921000000000
C       117.68237400000000   -3.33630100000000    0.29889200000000
C       116.56849699999999   -2.73960400000000   -0.04844900000000
N       116.18638500000002   -1.45684700000000    0.36923400000000
H       115.48879700000002   -4.21363100000000   -1.39933600000000
H       113.62370900000001   -2.44490000000000   -1.59127600000000
H       113.71481600000001    2.46192200000000    1.51205000000000
H       115.69150400000001    4.35205200000000    1.30119300000000
H       117.94788600000001    4.57504200000000   -0.40771100000000
H       119.98971600000000    3.86860800000000   -2.43845300000000
H       121.74398900000001    1.98856400000000   -2.24392000000000
H       121.79848699999999   -1.93652000000000    2.15181600000000
H       119.96211500000000   -3.73868100000000    2.33578000000000
H       117.72085800000001   -4.43626000000000    0.35792800000000
Cu      131.11841400000000    0.03889100000000    0.00156400000000
C       128.83860300000001   -3.22255700000000   -0.90810200000000
C       127.88239400000002   -2.32320600000000   -1.01012800000000
C       128.27476799999999   -1.16090100000000   -0.20761200000000
C       127.63965100000000   -0.00962900000000    0.00465400000000
C       128.32510800000000    1.26497100000000    0.23088300000000
C       127.98981800000000    2.34357100000000    0.93512400000000
C       129.01435900000001    3.36288700000000    0.84454200000000
C       129.96495700000000    2.86596300000000    0.07117700000000
N       129.58796300000000    1.54935800000000   -0.34496500000000
C       131.21209600000000    3.47766400000000   -0.34568800000000
C       132.31364800000000    2.81040700000000   -0.67746000000000
C       133.30719400000001    3.06239200000000   -1.71162900000000
C       134.20107800000000    2.10153300000000   -1.61014500000000
C       133.82138000000000    1.18964900000000   -0.50616800000000
N       132.72646399999999    1.63896800000000    0.00119800000000
C       134.47858600000001   -0.00962900000000    0.00465400000000
C       133.85517500000000   -1.07881100000000    0.46617100000000
C       134.23388800000001   -2.01092600000000    1.54164600000000
C       133.29321899999999   -2.92507200000000    1.62751300000000
C       132.28491800000000   -2.62929300000000    0.63008500000000
N       132.62269300000000   -1.57591600000000   -0.01921000000000
C       131.03252400000000   -3.33630100000000    0.29889200000000
C       129.91864799999999   -2.73960400000000   -0.04844900000000
N       129.53653600000001   -1.45684700000000    0.36923400000000
H       128.83894799999999   -4.21363100000000   -1.39933600000000
H       126.97385900000002   -2.44490000000000   -1.59127600000000
H       127.06496600000000    2.46192200000000    1.51205000000000
H       129.04165399999999    4.35205200000000    1.30119300000000
H       131.29803600000000    4.57504200000000   -0.40771100000000
H       133.33986700000000    3.86860800000000   -2.43845300000000
H       135.09413900000001    1.98856400000000   -2.24392000000000
H       135.14863800000001   -1.93652000000000    2.15181600000000
H       133.31226599999999   -3.73868100000000    2.33578000000000
H       131.07100900000000   -4.43626000000000    0.35792800000000
310
 energy: -567.506004699745 gnorm: 0.638089015178 xtb: 6.4.1 (bd6e46d)
Cu       49.39717740894491    0.04472021903845   -0.01285638666658
C        51.71781278333751   -3.11029264715055    1.30207816233526
C        52.64549900303991   -2.15569313696452    1.25709682654061
C        52.21596781505421   -1.10572453416096    0.34301135747042
C        52.82534034037883    0.03726521134968   -0.01508700932399
C        52.12668619491981    1.23628488631860   -0.36367682207475
C        52.47641992537079    2.22547385724487   -1.23734556206300
C        51.45780333035545    3.21835515639383   -1.25140257203724
C        50.48815827644383    2.81998886221071   -0.38333452007955
N        50.87563377023796    1.59169769296916    0.17543186731679
C        49.25012298850244    3.48560034419081   -0.01250660581036
C        48.12835697885934    2.83777827600306    0.33963807320209
C        47.06768288764388    3.17646233773797    1.29471676045677
C        46.20681327983431    2.16406832036841    1.23547616266838
C        46.66093503769306    1.17026818194312    0.26302092271575
N        47.79861403719308    1.59137173283879   -0.22241702348317
C        46.04498920557238   -0.06667304646757   -0.15846455910406
C        46.72219018021094   -1.19421205869734   -0.42145310306887
C        46.33720700017503   -2.25096776250748   -1.36434294618916
C        47.30151807935190   -3.16329990689301   -1.28581113956827
C        48.28771014423990   -2.71671042804581   -0.30946916045897
N        47.93666852554388   -1.54345225845623    0.17445790092836
C        49.49501933924080   -3.37128427382182    0.13647978999153
C        50.64144459321298   -2.70641189698417    0.40920680948341
N        50.95786881441418   -1.46860015242327   -0.16656926305152
H        51.77257424107746   -4.00717023731837    1.91998214213707
H        53.55382337343890   -2.19039959553261    1.83401066258908
H        53.39079010163883    2.22331535884658   -1.82335032071253
H        51.45308375572856    4.11898684752607   -1.85119572253588
H        49.19751166734320    4.57740287129472   -0.01056413922909
H        47.01737708161334    4.04646297322554    1.92866940616561
H        45.31343046965986    2.12971656465669    1.84686485025741
H        44.95865419900979   -0.07635786879425   -0.26724538426450
H        45.47797848531221   -2.29796079665641   -2.01870264953963
H        47.29915447267327   -4.06475515128817   -1.88219740658338
H        49.47159951263269   -4.45708468033386    0.25620125666416
Cu      146.01766280045516   -0.00211788673307   -0.01721365908247
C       143.69705470753092    2.85416833133240    1.86022208264778
C       142.76927485328483    1.92458322379225    1.63883345792759
C       143.19861772246318    1.06256273504272    0.54575931483713
C       142.58882063339135    0.00550852415222   -0.01769779035024
C       143.28807781876512   -1.10781829818652   -0.58313528551490
C       142.93843813044609   -1.91780600301987   -1.62500505799261
C       143.95707597011057   -2.89093749173615   -1.82299919401364
C       144.92665140430390   -2.66053943830670   -0.89614887391760
N       144.53909178949417   -1.55703580498854   -0.11932021605962
C       146.16468863696909   -3.38331259161753   -0.65525348859579
C       147.28648488287837   -2.81203223023532   -0.18900643746634
C       148.34713500419500   -3.32201884691596    0.68668295377701
C       149.20806349744353   -2.31624863066063    0.81620529581130
C       148.75392486387176   -1.15926341967496    0.04503854637156
N       147.61619143358459   -1.48307247747438   -0.51006064666520
C       149.36984459493394    0.13433315550412   -0.13961952791405
C       148.69260440440632    1.29115257550232   -0.18890330764265
C       149.07758733304479    2.50445344520639   -0.91941723644864
C       148.11333041399536    3.38642570265573   -0.67291985705409
C       147.12713284952497    2.76645654639815    0.20361128383560
N       147.47822968782609    1.52373608656940    0.46145319798621
C       145.91983870489727    3.32688286128992    0.76318972847070
C       144.77339996908597    2.62286029411556    0.90797183351509
N       144.45693031477387    1.51345000640427    0.11245863692312
H       143.64226799055959    3.62088265225794    2.63373367851539
H       141.86100062986355    1.85163313794979    2.21223922197203
H       142.02403705029442   -1.80701250456630   -2.20045826935917
H       143.96176301194708   -3.66461108341387   -2.57950915748730
H       146.21733240396080   -4.45651963961010   -0.85589900161011
H       148.39745616801616   -4.29454960157248    1.14820706845035
H       150.10140909661649   -2.39590073311182    1.42340537677827
H       150.45618133149557    0.16407056235377   -0.24470707891911
H       149.93684873674150    2.67203336722655   -1.55366418412550
H       148.11567726282459    4.38284347033756   -1.09175909860054
H       145.94320170633776    4.37166701969432    1.08220196743298
C        55.72796310501867    0.01897956672775   -0.00919454642019
C        56.95410134863358    0.02635673483362   -0.00914027152458
C        58.33779890412168    0.02728766998664   -0.00373424971666
C        59.55836741087574    0.02496453407383   -0.01226879019175
C        69.09996672661671    0.02417437051959   -0.00840904793771
C        70.31751549461102    0.02650331777835   -0.00758628774390
C        71.68960483022137    0.02722159010410   -0.00416295545743
C        72.90828375930725    0.02488261065125   -0.01335102349817
C        82.45045346529838    0.02429539488855   -0.00806999387151
C        83.66720884205714    0.02650753767503   -0.00758044292299
C        85.04018677763079    0.02721387114014   -0.00423121291404
C        86.25815777125845    0.02488273428128   -0.01339859597325
C        95.80055584321609    0.02429418534355   -0.00806591358834
C        97.01740404027164    0.02650654845607   -0.00758687246697
C        98.39028797996282    0.02721365670776   -0.00423080026248
C        99.60833883015945    0.02488348908171   -0.01338861172296
C       109.15072832261188    0.02429815612091   -0.00805826362552
C       110.36752662636175    0.02650596551089   -0.00759199414119
C       111.74047100694023    0.02721283387380   -0.00423047773524
C       112.95846739319570    0.02488605147324   -0.01337718303562
C       122.50070534955377    0.02427342171415   -0.00812989474272
C       123.71789189215750    0.02650943095084   -0.00759335653776
C       125.09033188999430    0.02720521827138   -0.00420144449293
C       126.30874545832910    0.02484561487981   -0.01335329280981
C       135.85197451404781    0.02453335898888   -0.00798837519378
C       137.07016354128248    0.02646797825019   -0.00791815740457
C       138.45905957963058    0.02644349773394   -0.00411771204723
C       139.68400734748070    0.01834744628449   -0.00983934242396
Cu       64.36129866129728    0.04071797365954   -0.00075571991876
C        62.08994471289731   -3.23865447418162   -0.90355869839640
C        61.12698254418900   -2.32117267272532   -1.00497954358771
C        61.54960631356499   -1.17711332503522   -0.20927215047140
C        60.90336054985837    0.00787361669362    0.00500103344664
C        61.60042873848783    1.26790244515190    0.22631432741134
C        61.23140626959639    2.36696002069679    0.94570665398667
C        62.24201463958049    3.36425051552459    0.85224742192824
C        63.22412568021488    2.84764149787704    0.06543293849645
N        62.85837558294256    1.53776545380457   -0.33504166925749
C        64.44896290649415    3.47787460150200   -0.34632555754602
C        65.57126588288760    2.79977069502792   -0.67776531156857
C        66.56042061199686    3.06940400227179   -1.70220121824321
C        67.46727650287319    2.09050906869807   -1.61013120765575
C        67.07163442065287    1.19147430003170   -0.51882920664435
N        65.94755435705088    1.62473832222626   -0.01079808082675
C        67.73138571807925    0.00578221052768   -0.00327269535875
C        67.08954875941728   -1.09301373170719    0.47284943503321
C        67.49362794045769   -2.00807049361235    1.53428097699329
C        66.53815527668905   -2.93915503886850    1.62758092099503
C        65.52513757739435   -2.63716658396678    0.63733408696684
N        65.85964843820183   -1.54552126951956   -0.01100399804149
C        64.30024944683733   -3.34252989189379    0.30740504015119
C        63.15526802441251   -2.72787558089733   -0.05436606805156
N        62.79449303881141   -1.44674026290649    0.34547776925599
H        62.09188266117555   -4.21051069423920   -1.39631778108634
H        60.22396789201490   -2.43739775615524   -1.58784700617373
H        60.31438210934170    2.46465886668303    1.51270807625596
H        62.28316499106162    4.34742466607362    1.30273867389668
H        64.53498866020000    4.57023259893420   -0.41186431413779
H        66.58365426831855    3.86734348284317   -2.43262863013903
H        68.34306312122678    1.98394064771300   -2.24120760030943
H        68.39319942145214   -1.93270557203229    2.14551225947121
H        66.55600959661933   -3.74311381763390    2.33629057934779
H        64.32429024735886   -4.43374084009744    0.35606620473531