      -----------------------------------------------------------      
     |                   =====================                   |     
     |                           x T B                           |     
     |                   =====================                   |     
     |                         S. Grimme                         |     
     |          Mulliken Center for Theoretical Chemistry        |     
     |                    University of Bonn                     |     
      -----------------------------------------------------------      

   * xtb version 6.4.1 (bd6e46d) compiled by 'conda@4901f00b25ba' on 2021-06-10

   xtb is free software: you can redistribute it and/or modify it under
   the terms of the GNU Lesser General Public License as published by
   the Free Software Foundation, either version 3 of the License, or
   (at your option) any later version.
   
   xtb is distributed in the hope that it will be useful,
   but WITHOUT ANY WARRANTY; without even the implied warranty of
   MERCHANTABILITY or FITNESS FOR A PARTICULAR PURPOSE.  See the
   GNU Lesser General Public License for more details.
   
   Cite this work as:
   * C. Bannwarth, E. Caldeweyher, S. Ehlert, A. Hansen, P. Pracht,
     J. Seibert, S. Spicher, S. Grimme, WIREs Comput. Mol. Sci., 2020, 11,
     e01493. DOI: 10.1002/wcms.1493
   
   for GFN2-xTB:
   * C. Bannwarth, S. Ehlert and S. Grimme., J. Chem. Theory Comput., 2019,
     15, 1652-1671. DOI: 10.1021/acs.jctc.8b01176
   for GFN1-xTB:
   * S. Grimme, C. Bannwarth, P. Shushkov, J. Chem. Theory Comput., 2017,
     13, 1989-2009. DOI: 10.1021/acs.jctc.7b00118
   for GFN0-xTB:
   * P. Pracht, E. Caldeweyher, S. Ehlert, S. Grimme, ChemRxiv, 2019, preprint.
     DOI: 10.26434/chemrxiv.8326202.v1
   for GFN-FF:
   * S. Spicher and S. Grimme, Angew. Chem. Int. Ed., 2020, 59, 15665-15673.
     DOI: 10.1002/anie.202004239
   
   for DFT-D4:
   * E. Caldeweyher, C. Bannwarth and S. Grimme, J. Chem. Phys., 2017,
     147, 034112. DOI: 10.1063/1.4993215
   * E. Caldeweyher, S. Ehlert, A. Hansen, H. Neugebauer, S. Spicher,
     C. Bannwarth and S. Grimme, J. Chem. Phys., 2019, 150, 154122.
     DOI: 10.1063/1.5090222
   * E. Caldeweyher, J.-M. Mewes, S. Ehlert and S. Grimme, Phys. Chem. Chem. Phys.
     2020, 22, 8499-8512. DOI: 10.1039/D0CP00502A
   
   for sTDA-xTB:
   * S. Grimme and C. Bannwarth, J. Chem. Phys., 2016, 145, 054103.
     DOI: 10.1063/1.4959605
   
   in the mass-spec context:
   * V. Asgeirsson, C. Bauer and S. Grimme, Chem. Sci., 2017, 8, 4879.
     DOI: 10.1039/c7sc00601b
   * J. Koopman and S. Grimme, ACS Omega 2019, 4, 12, 15120-15133.
     DOI: 10.1021/acsomega.9b02011
   
   for metadynamics refer to:
   * S. Grimme, J. Chem. Theory Comput., 2019, 155, 2847-2862
     DOI: 10.1021/acs.jctc.9b00143
   
   for SPH calculations refer to:
   * S. Spicher and S. Grimme, J. Chem. Theory Comput., 2021, 17, 1701-1714
     DOI: 10.1021/acs.jctc.0c01306
   
   with help from (in alphabetical order)
   P. Atkinson, C. Bannwarth, F. Bohle, G. Brandenburg, E. Caldeweyher
   M. Checinski, S. Dohm, S. Ehlert, S. Ehrlich, I. Gerasimov, J. Koopman
   C. Lavigne, S. Lehtola, F. März, M. Müller, F. Musil, H. Neugebauer
   J. Pisarek, C. Plett, P. Pracht, J. Seibert, P. Shushkov, S. Spicher
   M. Stahn, M. Steiner, T. Strunk, J. Stückrath, T. Rose, and J. Unsleber
   
 * started run on 2021/11/21 at 01:40:28.594     

           -------------------------------------------------
          |                Calculation Setup                |
           -------------------------------------------------

          program call               : /home/jeff/miniconda3/bin/xtb /home/jeff/chem/final-year-proejct/Cu+2_6_3_outenergy/input_structure.xyz --gfn 2 --parallel 1 --etemp 300 --chrg 0 --uhf 0 -I det_control.in
          coordinate file            : /home/jeff/chem/final-year-proejct/Cu+2_6_3_outenergy/input_structure.xyz
          omp threads                :                     1
          number of atoms            :                   119
          number of electrons        :                   413
          charge                     :                     0
          spin                       :                   0.5
          first test random number   :      0.68576176037287

   ID    Z sym.   atoms
    1   29 Cu     1, 37, 85
    2    6 C      2-9, 11-15, 17-21, 23, 24, 38-45, 47-51, 53-57, 59, 60,
                  73-84, 86-93, 95-99, 101-105, 107, 108
    3    7 N      10, 16, 22, 25, 46, 52, 58, 61, 94, 100, 106, 109
    4    1 H      26-36, 62-72, 110-119

           -------------------------------------------------
          |                 G F N 2 - x T B                 |
           -------------------------------------------------

        Reference                      10.1021/acs.jctc.8b01176
      * Hamiltonian:
        H0-scaling (s, p, d)           1.850000    2.230000    2.230000
        zeta-weighting                 0.500000
      * Dispersion:
        s8                             2.700000
        a1                             0.520000
        a2                             5.000000
        s9                             5.000000
      * Repulsion:
        kExp                           1.500000    1.000000
        rExp                           1.000000
      * Coulomb:
        alpha                          2.000000
        third order                    shell-resolved
        anisotropic                    true
        a3                             3.000000
        a5                             4.000000
        cn-shift                       1.200000
        cn-exp                         4.000000
        max-rad                        5.000000


          ...................................................
          :                      SETUP                      :
          :.................................................:
          :  # basis functions                 398          :
          :  # atomic orbitals                 395          :
          :  # shells                          209          :
          :  # electrons                       413          :
          :  max. iterations                   250          :
          :  Hamiltonian                  GFN2-xTB          :
          :  restarted?                      false          :
          :  GBSA solvation                  false          :
          :  PC potential                    false          :
          :  electronic temp.          300.0000000     K    :
          :  accuracy                    1.0000000          :
          :  -> integral cutoff          0.2500000E+02      :
          :  -> integral neglect         0.1000000E-07      :
          :  -> SCF convergence          0.1000000E-05 Eh   :
          :  -> wf. convergence          0.1000000E-03 e    :
          :  Broyden damping             0.4000000          :
          ...................................................

 iter      E             dE          RMSdq      gap      omega  full diag
   1   -221.0544802 -0.221054E+03  0.608E+00    0.00       0.0  T
   2   -220.8637476  0.190733E+00  0.381E+00    0.67       1.0  T
   3   -157.5280474  0.633357E+02  0.132E+01    0.26       1.0  T
   4   -218.5158104 -0.609878E+02  0.241E+00    0.20       1.0  T
   5   -219.0126123 -0.496802E+00  0.205E+00    0.02       1.0  T
   6   -220.7138424 -0.170123E+01  0.105E+00    0.08       1.0  T
   7   -220.7642830 -0.504406E-01  0.101E+00    0.31       1.0  T
   8   -220.5476144  0.216669E+00  0.106E+00    0.10       1.0  T
   9   -220.8369823 -0.289368E+00  0.760E-01    0.25       1.0  T
  10   -220.9499133 -0.112931E+00  0.701E-01    0.13       1.0  T
  11   -220.9108037  0.391096E-01  0.654E-01    0.27       1.0  T
  12   -221.0586141 -0.147810E+00  0.360E-01    0.04       1.0  T
  13   -220.9841439  0.744702E-01  0.563E-01    0.08       1.0  T
  14   -221.0679805 -0.838366E-01  0.354E-01    0.03       1.0  T
  15   -221.1229216 -0.549411E-01  0.165E-01    0.01       1.0  T
  16   -221.1105458  0.123759E-01  0.210E-01    0.03       1.0  T
  17   -221.0632123  0.473335E-01  0.382E-01    0.03       1.0  T
  18   -221.1155342 -0.523219E-01  0.193E-01    0.02       1.0  T
  19   -221.0929664  0.225678E-01  0.281E-01    0.03       1.0  T
  20   -221.1213602 -0.283938E-01  0.151E-01    0.02       1.0  T
  21   -221.1312613 -0.990103E-02  0.620E-02    0.01       1.0  T
  22   -221.1308542  0.407016E-03  0.631E-02    0.01       1.0  T
  23   -221.1315854 -0.731201E-03  0.513E-02    0.00       1.0  T
  24   -221.1319775 -0.392056E-03  0.406E-02    0.00       1.0  T
  25   -221.1318770  0.100536E-03  0.401E-02    0.00       1.0  T
  26   -221.1320113 -0.134308E-03  0.349E-02    0.00       1.0  T
  27   -221.1323860 -0.374750E-03  0.189E-02    0.00       1.0  T
  28   -221.1324360 -0.500009E-04  0.136E-02    0.00       1.0  T
  29   -221.1325206 -0.846183E-04  0.473E-03    0.00       1.9  T
  30   -221.1325172  0.341065E-05  0.520E-03    0.00       1.8  T
  31   -221.1325299 -0.126960E-04  0.181E-03    0.00       5.1  T
  32   -221.1325288  0.116765E-05  0.236E-03    0.00       3.9  T
  33   -221.1325310 -0.225152E-05  0.112E-03    0.00       8.2  T
  34   -221.1325316 -0.609884E-06  0.297E-04    0.00      30.8  T
  35   -221.1325316 -0.263898E-07  0.163E-04    0.00      56.3  T

   *** convergence criteria satisfied after 35 iterations ***

         #    Occupation            Energy/Eh            Energy/eV
      -------------------------------------------------------------
         1        2.0000           -0.6793441             -18.4859
       ...           ...                  ...                  ...
       201        2.0000           -0.3702040             -10.0738
       202        2.0000           -0.3690393             -10.0421
       203        2.0000           -0.3676418             -10.0040
       204        2.0000           -0.3603572              -9.8058
       205        2.0000           -0.3514641              -9.5638
       206        1.0176           -0.3219016              -8.7594
       207        0.9911           -0.3218448              -8.7578 (HOMO)
       208        0.9908           -0.3218441              -8.7578 (LUMO)
       209        0.0005           -0.3138262              -8.5396
       210                         -0.3049529              -8.2982
       211                         -0.2999867              -8.1631
       212                         -0.2999761              -8.1628
       ...                                ...                  ...
       395                          1.7147860              46.6617
      -------------------------------------------------------------
                  HL-Gap            0.0000007 Eh            0.0000 eV
             Fermi-level           -0.3218639 Eh           -8.7584 eV

 SCC (total)                   0 d,  0 h,  0 min,  1.349 sec
 SCC setup                      ...        0 min,  0.003 sec (  0.195%)
 Dispersion                     ...        0 min,  0.005 sec (  0.398%)
 classical contributions        ...        0 min,  0.001 sec (  0.056%)
 integral evaluation            ...        0 min,  0.050 sec (  3.693%)
 iterations                     ...        0 min,  1.140 sec ( 84.497%)
 molecular gradient             ...        0 min,  0.147 sec ( 10.904%)
 printout                       ...        0 min,  0.003 sec (  0.256%)

         :::::::::::::::::::::::::::::::::::::::::::::::::::::
         ::                     SUMMARY                     ::
         :::::::::::::::::::::::::::::::::::::::::::::::::::::
         :: total energy            -217.155619287611 Eh    ::
         :: gradient norm              0.000598837865 Eh/a0 ::
         :: HOMO-LUMO gap              0.000019452252 eV    ::
         ::.................................................::
         :: SCC energy              -221.132531640356 Eh    ::
         :: -> isotropic ES            0.083334102217 Eh    ::
         :: -> anisotropic ES          0.028319999501 Eh    ::
         :: -> anisotropic XC          0.104910398773 Eh    ::
         :: -> dispersion             -0.186313420992 Eh    ::
         :: repulsion energy           3.979464253437 Eh    ::
         :: add. restraining           0.000000000000 Eh    ::
         :: total charge              -0.000000000000 e     ::
         :::::::::::::::::::::::::::::::::::::::::::::::::::::

           -------------------------------------------------
          |                Property Printout                |
           -------------------------------------------------

    * Orbital Energies and Occupations

         #    Occupation            Energy/Eh            Energy/eV
      -------------------------------------------------------------
         1        2.0000           -0.6793441             -18.4859
       ...           ...                  ...                  ...
       195        2.0000           -0.3768264             -10.2540
       196        2.0000           -0.3759732             -10.2308
       197        2.0000           -0.3712592             -10.1025
       198        2.0000           -0.3712454             -10.1021
       199        2.0000           -0.3710881             -10.0978
       200        2.0000           -0.3702163             -10.0741
       201        2.0000           -0.3702040             -10.0738
       202        2.0000           -0.3690393             -10.0421
       203        2.0000           -0.3676418             -10.0040
       204        2.0000           -0.3603572              -9.8058
       205        2.0000           -0.3514641              -9.5638
       206        1.0176           -0.3219016              -8.7594
       207        0.9911           -0.3218448              -8.7578 (HOMO)
       208        0.9908           -0.3218441              -8.7578 (LUMO)
       209        0.0005           -0.3138262              -8.5396
       210                         -0.3049529              -8.2982
       211                         -0.2999867              -8.1631
       212                         -0.2999761              -8.1628
       213                         -0.2997210              -8.1558
       214                         -0.2977010              -8.1009
       215                         -0.2734082              -7.4398
       216                         -0.2639512              -7.1825
       217                         -0.2603997              -7.0858
       218                         -0.2536155              -6.9012
       ...                                ...                  ...
       395                          1.7147860              46.6617
      -------------------------------------------------------------
                  HL-Gap            0.0000007 Eh            0.0000 eV
             Fermi-level           -0.3218639 Eh           -8.7584 eV

     #   Z          covCN         q      C6AA      α(0)
     1  29 Cu       2.956     0.198   146.185    27.531
     2   6 C        3.023    -0.051    29.231     8.869
     3   6 C        3.020    -0.049    29.196     8.863
     4   6 C        3.165     0.079    25.918     8.320
     5   6 C        2.953     0.017    27.638     8.623
     6   6 C        3.165     0.079    25.918     8.320
     7   6 C        3.020    -0.049    29.193     8.863
     8   6 C        3.023    -0.051    29.232     8.869
     9   6 C        3.148     0.077    26.022     8.345
    10   7 N        2.620    -0.172    24.730     7.386
    11   6 C        2.901    -0.050    29.229     8.865
    12   6 C        3.144     0.078    26.009     8.344
    13   6 C        3.019    -0.050    29.209     8.865
    14   6 C        3.019    -0.050    29.213     8.866
    15   6 C        3.144     0.079    25.994     8.342
    16   7 N        2.623    -0.170    24.689     7.380
    17   6 C        2.901    -0.051    29.273     8.871
    18   6 C        3.144     0.079    25.995     8.342
    19   6 C        3.019    -0.050    29.213     8.866
    20   6 C        3.019    -0.050    29.209     8.865
    21   6 C        3.144     0.078    26.010     8.344
    22   7 N        2.622    -0.170    24.689     7.380
    23   6 C        2.901    -0.050    29.229     8.865
    24   6 C        3.148     0.077    26.022     8.345
    25   7 N        2.620    -0.172    24.729     7.385
    26   1 H        0.926     0.034     2.525     2.485
    27   1 H        0.926     0.037     2.496     2.470
    28   1 H        0.926     0.036     2.496     2.471
    29   1 H        0.926     0.034     2.525     2.485
    30   1 H        0.926     0.050     2.321     2.383
    31   1 H        0.926     0.035     2.516     2.480
    32   1 H        0.926     0.035     2.517     2.481
    33   1 H        0.926     0.049     2.331     2.387
    34   1 H        0.926     0.035     2.517     2.481
    35   1 H        0.926     0.035     2.516     2.480
    36   1 H        0.926     0.050     2.321     2.383
    37  29 Cu       2.956     0.198   146.185    27.531
    38   6 C        3.023    -0.051    29.231     8.869
    39   6 C        3.020    -0.049    29.195     8.863
    40   6 C        3.165     0.079    25.917     8.320
    41   6 C        2.953     0.017    27.638     8.623
    42   6 C        3.165     0.079    25.918     8.320
    43   6 C        3.020    -0.049    29.193     8.863
    44   6 C        3.023    -0.051    29.231     8.869
    45   6 C        3.148     0.077    26.022     8.345
    46   7 N        2.620    -0.172    24.730     7.386
    47   6 C        2.901    -0.050    29.229     8.865
    48   6 C        3.144     0.078    26.009     8.344
    49   6 C        3.019    -0.050    29.209     8.865
    50   6 C        3.019    -0.050    29.213     8.866
    51   6 C        3.144     0.079    25.995     8.342
    52   7 N        2.623    -0.170    24.689     7.380
    53   6 C        2.901    -0.051    29.273     8.871
    54   6 C        3.144     0.079    25.995     8.342
    55   6 C        3.019    -0.050    29.213     8.866
    56   6 C        3.019    -0.050    29.209     8.865
    57   6 C        3.144     0.078    26.010     8.344
    58   7 N        2.623    -0.170    24.689     7.380
    59   6 C        2.901    -0.050    29.229     8.865
    60   6 C        3.148     0.077    26.022     8.345
    61   7 N        2.620    -0.172    24.729     7.386
    62   1 H        0.926     0.034     2.524     2.485
    63   1 H        0.926     0.036     2.496     2.470
    64   1 H        0.926     0.036     2.496     2.471
    65   1 H        0.926     0.034     2.525     2.485
    66   1 H        0.926     0.050     2.321     2.383
    67   1 H        0.926     0.035     2.516     2.480
    68   1 H        0.926     0.035     2.517     2.481
    69   1 H        0.926     0.049     2.331     2.387
    70   1 H        0.926     0.035     2.517     2.481
    71   1 H        0.926     0.035     2.516     2.480
    72   1 H        0.926     0.050     2.321     2.383
    73   6 C        1.995    -0.019    31.554     9.072
    74   6 C        1.963    -0.010    31.332     9.039
    75   6 C        1.965    -0.002    31.125     9.009
    76   6 C        1.965    -0.002    31.121     9.009
    77   6 C        1.963    -0.010    31.333     9.040
    78   6 C        1.995    -0.019    31.547     9.071
    79   6 C        1.995    -0.019    31.546     9.071
    80   6 C        1.963    -0.010    31.333     9.040
    81   6 C        1.964    -0.002    31.120     9.009
    82   6 C        1.965    -0.002    31.124     9.009
    83   6 C        1.963    -0.010    31.331     9.039
    84   6 C        1.995    -0.019    31.553     9.071
    85  29 Cu       2.946     0.200   146.154    27.528
    86   6 C        3.023    -0.051    29.232     8.869
    87   6 C        3.020    -0.049    29.203     8.864
    88   6 C        3.166     0.079    25.905     8.317
    89   6 C        2.953     0.017    27.638     8.623
    90   6 C        3.166     0.079    25.905     8.317
    91   6 C        3.020    -0.049    29.201     8.864
    92   6 C        3.023    -0.051    29.232     8.869
    93   6 C        3.149     0.077    26.030     8.346
    94   7 N        2.619    -0.173    24.765     7.391
    95   6 C        2.901    -0.047    29.175     8.856
    96   6 C        3.149     0.077    26.030     8.346
    97   6 C        3.023    -0.051    29.232     8.869
    98   6 C        3.020    -0.049    29.203     8.864
    99   6 C        3.166     0.079    25.905     8.317
   100   7 N        2.619    -0.173    24.765     7.391
   101   6 C        2.953     0.017    27.638     8.623
   102   6 C        3.166     0.079    25.905     8.317
   103   6 C        3.020    -0.049    29.201     8.864
   104   6 C        3.023    -0.051    29.232     8.869
   105   6 C        3.149     0.077    26.029     8.345
   106   7 N        2.619    -0.173    24.765     7.391
   107   6 C        2.901    -0.047    29.174     8.856
   108   6 C        3.149     0.077    26.030     8.346
   109   7 N        2.619    -0.173    24.764     7.391
   110   1 H        0.926     0.034     2.532     2.488
   111   1 H        0.926     0.036     2.506     2.475
   112   1 H        0.926     0.036     2.506     2.476
   113   1 H        0.926     0.034     2.532     2.489
   114   1 H        0.926     0.050     2.319     2.382
   115   1 H        0.926     0.034     2.532     2.488
   116   1 H        0.926     0.036     2.506     2.475
   117   1 H        0.926     0.036     2.506     2.476
   118   1 H        0.926     0.034     2.532     2.489
   119   1 H        0.926     0.050     2.319     2.381

 Mol. C6AA /au·bohr⁶  :     278716.998787
 Mol. C8AA /au·bohr⁸  :    8019859.735668
 Mol. α(0) /au        :        876.524655


Wiberg/Mayer (AO) data.
largest (>0.10) Wiberg bond orders for each atom

 ---------------------------------------------------------------------------
     #   Z sym  total        # sym  WBO       # sym  WBO       # sym  WBO
 ---------------------------------------------------------------------------
     1  29 Cu   2.326 --    16 N    0.534    22 N    0.534    25 N    0.532
                            10 N    0.532
     2   6 C    3.946 --     3 C    1.650    24 C    1.167    26 H    0.972
     3   6 C    3.949 --     2 C    1.650     4 C    1.175    27 H    0.971
     4   6 C    3.908 --    25 N    1.289     5 C    1.248     3 C    1.175
     5   6 C    3.942 --     6 C    1.249     4 C    1.248    73 C    1.188
     6   6 C    3.908 --    10 N    1.289     5 C    1.249     7 C    1.175
     7   6 C    3.949 --     8 C    1.650     6 C    1.175    28 H    0.971
     8   6 C    3.946 --     7 C    1.650     9 C    1.167    29 H    0.972
     9   6 C    3.921 --    11 C    1.355    10 N    1.249     8 C    1.167
    10   7 N    3.382 --     6 C    1.289     9 C    1.249     1 Cu   0.532
    11   6 C    3.932 --     9 C    1.355    12 C    1.352    30 H    0.964
    12   6 C    3.927 --    11 C    1.352    16 N    1.263    13 C    1.158
    13   6 C    3.950 --    14 C    1.666    12 C    1.158    31 H    0.972
    14   6 C    3.947 --    13 C    1.666    15 C    1.158    32 H    0.972
    15   6 C    3.929 --    17 C    1.351    16 N    1.265    14 C    1.158
    16   7 N    3.377 --    15 C    1.265    12 C    1.263     1 Cu   0.534
    17   6 C    3.926 --    15 C    1.351    18 C    1.351    33 H    0.964
    18   6 C    3.929 --    17 C    1.351    22 N    1.265    19 C    1.157
    19   6 C    3.947 --    20 C    1.666    18 C    1.157    34 H    0.972
    20   6 C    3.950 --    19 C    1.666    21 C    1.158    35 H    0.972
    21   6 C    3.927 --    23 C    1.352    22 N    1.263    20 C    1.158
    22   7 N    3.377 --    18 C    1.265    21 C    1.263     1 Cu   0.534
    23   6 C    3.932 --    24 C    1.355    21 C    1.352    36 H    0.964
    24   6 C    3.921 --    23 C    1.355    25 N    1.249     2 C    1.167
    25   7 N    3.382 --     4 C    1.289    24 C    1.249     1 Cu   0.532
    26   1 H    0.998 --     2 C    0.972
    27   1 H    0.998 --     3 C    0.971
    28   1 H    0.998 --     7 C    0.971
    29   1 H    0.998 --     8 C    0.972
    30   1 H    0.996 --    11 C    0.964
    31   1 H    0.998 --    13 C    0.972
    32   1 H    0.998 --    14 C    0.972
    33   1 H    0.997 --    17 C    0.964
    34   1 H    0.998 --    19 C    0.972
    35   1 H    0.998 --    20 C    0.972
    36   1 H    0.996 --    23 C    0.964
    37  29 Cu   2.326 --    52 N    0.534    58 N    0.534    46 N    0.532
                            61 N    0.532
    38   6 C    3.946 --    39 C    1.650    60 C    1.167    62 H    0.972
    39   6 C    3.949 --    38 C    1.650    40 C    1.175    63 H    0.971
    40   6 C    3.908 --    61 N    1.289    41 C    1.248    39 C    1.175
    41   6 C    3.942 --    42 C    1.249    40 C    1.248    84 C    1.188
    42   6 C    3.908 --    46 N    1.288    41 C    1.249    43 C    1.175
    43   6 C    3.949 --    44 C    1.650    42 C    1.175    64 H    0.971
    44   6 C    3.946 --    43 C    1.650    45 C    1.167    65 H    0.972
    45   6 C    3.921 --    47 C    1.355    46 N    1.249    44 C    1.167
    46   7 N    3.382 --    42 C    1.288    45 C    1.249    37 Cu   0.532
    47   6 C    3.932 --    45 C    1.355    48 C    1.352    66 H    0.964
    48   6 C    3.927 --    47 C    1.352    52 N    1.263    49 C    1.158
    49   6 C    3.950 --    50 C    1.666    48 C    1.158    67 H    0.972
    50   6 C    3.948 --    49 C    1.666    51 C    1.158    68 H    0.972
    51   6 C    3.929 --    53 C    1.351    52 N    1.265    50 C    1.158
    52   7 N    3.377 --    51 C    1.265    48 C    1.263    37 Cu   0.534
    53   6 C    3.926 --    54 C    1.352    51 C    1.351    69 H    0.964
    54   6 C    3.929 --    53 C    1.352    58 N    1.265    55 C    1.158
    55   6 C    3.948 --    56 C    1.666    54 C    1.158    70 H    0.972
    56   6 C    3.950 --    55 C    1.666    57 C    1.158    71 H    0.972
    57   6 C    3.927 --    59 C    1.352    58 N    1.263    56 C    1.158
    58   7 N    3.377 --    54 C    1.265    57 C    1.263    37 Cu   0.534
    59   6 C    3.932 --    60 C    1.355    57 C    1.352    72 H    0.964
    60   6 C    3.921 --    59 C    1.355    61 N    1.249    38 C    1.167
    61   7 N    3.382 --    40 C    1.289    60 C    1.249    37 Cu   0.532
    62   1 H    0.998 --    38 C    0.972
    63   1 H    0.998 --    39 C    0.971
    64   1 H    0.998 --    43 C    0.971
    65   1 H    0.998 --    44 C    0.972
    66   1 H    0.996 --    47 C    0.964
    67   1 H    0.998 --    49 C    0.972
    68   1 H    0.998 --    50 C    0.972
    69   1 H    0.997 --    53 C    0.964
    70   1 H    0.998 --    55 C    0.972
    71   1 H    0.998 --    56 C    0.972
    72   1 H    0.996 --    59 C    0.964
    73   6 C    3.883 --    74 C    2.442     5 C    1.188    76 C    0.193
    74   6 C    3.927 --    73 C    2.442    75 C    1.333
    75   6 C    3.918 --    76 C    2.356    74 C    1.333    78 C    0.192
    76   6 C    3.919 --    75 C    2.356    77 C    1.334    73 C    0.193
    77   6 C    3.924 --    78 C    2.439    76 C    1.334
    78   6 C    3.884 --    77 C    2.439    89 C    1.191    75 C    0.192
    79   6 C    3.883 --    80 C    2.439   101 C    1.191    82 C    0.192
    80   6 C    3.924 --    79 C    2.439    81 C    1.333
    81   6 C    3.919 --    82 C    2.356    80 C    1.333    84 C    0.193
    82   6 C    3.918 --    81 C    2.356    83 C    1.332    79 C    0.192
    83   6 C    3.927 --    84 C    2.442    82 C    1.332
    84   6 C    3.883 --    83 C    2.442    41 C    1.188    81 C    0.193
    85  29 Cu   2.297 --    94 N    0.527   109 N    0.527   100 N    0.527
                           106 N    0.527
    86   6 C    3.947 --    87 C    1.649   108 C    1.168   110 H    0.972
    87   6 C    3.948 --    86 C    1.649    88 C    1.176   111 H    0.971
    88   6 C    3.908 --   109 N    1.292    89 C    1.245    87 C    1.176
    89   6 C    3.930 --    90 C    1.246    88 C    1.245    78 C    1.191
    90   6 C    3.909 --    94 N    1.291    89 C    1.246    91 C    1.176
    91   6 C    3.948 --    92 C    1.649    90 C    1.176   112 H    0.971
    92   6 C    3.947 --    91 C    1.649    93 C    1.168   113 H    0.972
    93   6 C    3.920 --    95 C    1.354    94 N    1.248    92 C    1.168
    94   7 N    3.372 --    90 C    1.291    93 C    1.248    85 Cu   0.527
    95   6 C    3.926 --    96 C    1.354    93 C    1.354   114 H    0.964
    96   6 C    3.920 --    95 C    1.354   100 N    1.248    97 C    1.168
    97   6 C    3.947 --    98 C    1.649    96 C    1.168   115 H    0.972
    98   6 C    3.948 --    97 C    1.649    99 C    1.175   116 H    0.971
    99   6 C    3.909 --   100 N    1.291   101 C    1.246    98 C    1.175
   100   7 N    3.372 --    99 C    1.291    96 C    1.248    85 Cu   0.527
   101   6 C    3.930 --   102 C    1.246    99 C    1.246    79 C    1.191
   102   6 C    3.909 --   106 N    1.291   101 C    1.246   103 C    1.175
   103   6 C    3.948 --   104 C    1.649   102 C    1.175   117 H    0.971
   104   6 C    3.947 --   103 C    1.649   105 C    1.168   118 H    0.972
   105   6 C    3.920 --   107 C    1.354   106 N    1.248   104 C    1.168
   106   7 N    3.372 --   102 C    1.291   105 C    1.248    85 Cu   0.527
   107   6 C    3.926 --   108 C    1.354   105 C    1.354   119 H    0.964
   108   6 C    3.920 --   107 C    1.354   109 N    1.248    86 C    1.168
   109   7 N    3.372 --    88 C    1.292   108 C    1.248    85 Cu   0.527
   110   1 H    0.998 --    86 C    0.972
   111   1 H    0.998 --    87 C    0.971
   112   1 H    0.998 --    91 C    0.971
   113   1 H    0.998 --    92 C    0.972
   114   1 H    0.996 --    95 C    0.964
   115   1 H    0.998 --    97 C    0.972
   116   1 H    0.998 --    98 C    0.971
   117   1 H    0.998 --   103 C    0.971
   118   1 H    0.998 --   104 C    0.972
   119   1 H    0.996 --   107 C    0.964
 ---------------------------------------------------------------------------

Topologies differ in total number of bonds
Writing topology from bond orders to xtbtopo.mol

molecular dipole:
                 x           y           z       tot (Debye)
 q only:        0.004      -0.001      -0.004
   full:        0.004      -0.001      -0.006       0.019
molecular quadrupole (traceless):
                xx          xy          yy          xz          yz          zz
 q only:       49.003       0.191      -5.063      -0.267       0.941     -43.940
  q+dip:       92.746       0.306       1.176      -0.501       2.198     -93.923
   full:       66.060       0.280      -5.617      -0.474       1.264     -60.443


           -------------------------------------------------
          | TOTAL ENERGY             -217.155619287611 Eh   |
          | GRADIENT NORM               0.000598837865 Eh/α |
          | HOMO-LUMO GAP               0.000019452252 eV   |
           -------------------------------------------------

------------------------------------------------------------------------
 * finished run on 2021/11/21 at 01:40:29.996     
------------------------------------------------------------------------
 total:
 * wall-time:     0 d,  0 h,  0 min,  1.401 sec
 *  cpu-time:     0 d,  0 h,  0 min,  1.401 sec
 * ratio c/w:     1.000 speedup
 SCF:
 * wall-time:     0 d,  0 h,  0 min,  1.350 sec
 *  cpu-time:     0 d,  0 h,  0 min,  1.350 sec
 * ratio c/w:     1.000 speedup

