      -----------------------------------------------------------      
     |                   =====================                   |     
     |                           x T B                           |     
     |                   =====================                   |     
     |                         S. Grimme                         |     
     |          Mulliken Center for Theoretical Chemistry        |     
     |                    University of Bonn                     |     
      -----------------------------------------------------------      

   * xtb version 6.4.1 (bd6e46d) compiled by 'conda@4901f00b25ba' on 2021-06-10

   xtb is free software: you can redistribute it and/or modify it under
   the terms of the GNU Lesser General Public License as published by
   the Free Software Foundation, either version 3 of the License, or
   (at your option) any later version.
   
   xtb is distributed in the hope that it will be useful,
   but WITHOUT ANY WARRANTY; without even the implied warranty of
   MERCHANTABILITY or FITNESS FOR A PARTICULAR PURPOSE.  See the
   GNU Lesser General Public License for more details.
   
   Cite this work as:
   * C. Bannwarth, E. Caldeweyher, S. Ehlert, A. Hansen, P. Pracht,
     J. Seibert, S. Spicher, S. Grimme, WIREs Comput. Mol. Sci., 2020, 11,
     e01493. DOI: 10.1002/wcms.1493
   
   for GFN2-xTB:
   * C. Bannwarth, S. Ehlert and S. Grimme., J. Chem. Theory Comput., 2019,
     15, 1652-1671. DOI: 10.1021/acs.jctc.8b01176
   for GFN1-xTB:
   * S. Grimme, C. Bannwarth, P. Shushkov, J. Chem. Theory Comput., 2017,
     13, 1989-2009. DOI: 10.1021/acs.jctc.7b00118
   for GFN0-xTB:
   * P. Pracht, E. Caldeweyher, S. Ehlert, S. Grimme, ChemRxiv, 2019, preprint.
     DOI: 10.26434/chemrxiv.8326202.v1
   for GFN-FF:
   * S. Spicher and S. Grimme, Angew. Chem. Int. Ed., 2020, 59, 15665-15673.
     DOI: 10.1002/anie.202004239
   
   for DFT-D4:
   * E. Caldeweyher, C. Bannwarth and S. Grimme, J. Chem. Phys., 2017,
     147, 034112. DOI: 10.1063/1.4993215
   * E. Caldeweyher, S. Ehlert, A. Hansen, H. Neugebauer, S. Spicher,
     C. Bannwarth and S. Grimme, J. Chem. Phys., 2019, 150, 154122.
     DOI: 10.1063/1.5090222
   * E. Caldeweyher, J.-M. Mewes, S. Ehlert and S. Grimme, Phys. Chem. Chem. Phys.
     2020, 22, 8499-8512. DOI: 10.1039/D0CP00502A
   
   for sTDA-xTB:
   * S. Grimme and C. Bannwarth, J. Chem. Phys., 2016, 145, 054103.
     DOI: 10.1063/1.4959605
   
   in the mass-spec context:
   * V. Asgeirsson, C. Bauer and S. Grimme, Chem. Sci., 2017, 8, 4879.
     DOI: 10.1039/c7sc00601b
   * J. Koopman and S. Grimme, ACS Omega 2019, 4, 12, 15120-15133.
     DOI: 10.1021/acsomega.9b02011
   
   for metadynamics refer to:
   * S. Grimme, J. Chem. Theory Comput., 2019, 155, 2847-2862
     DOI: 10.1021/acs.jctc.9b00143
   
   for SPH calculations refer to:
   * S. Spicher and S. Grimme, J. Chem. Theory Comput., 2021, 17, 1701-1714
     DOI: 10.1021/acs.jctc.0c01306
   
   with help from (in alphabetical order)
   P. Atkinson, C. Bannwarth, F. Bohle, G. Brandenburg, E. Caldeweyher
   M. Checinski, S. Dohm, S. Ehlert, S. Ehrlich, I. Gerasimov, J. Koopman
   C. Lavigne, S. Lehtola, F. März, M. Müller, F. Musil, H. Neugebauer
   J. Pisarek, C. Plett, P. Pracht, J. Seibert, P. Shushkov, S. Spicher
   M. Stahn, M. Steiner, T. Strunk, J. Stückrath, T. Rose, and J. Unsleber
   
 * started run on 2021/11/20 at 03:06:42.052     

           -------------------------------------------------
          |                Calculation Setup                |
           -------------------------------------------------

          program call               : /home/jeff/miniconda3/bin/xtb input_structure_1.xyz --gfn 2 --ohess normal --parallel 1 --etemp 300 --chrg 0 --uhf 0 -I det_control.in
          hostname                   : jelfscompute1
          coordinate file            : input_structure_1.xyz
          omp threads                :                     1
          number of atoms            :                   232
          number of electrons        :                   808
          charge                     :                     0
          spin                       :                   0.0
          first test random number   :      0.56677598491232

   ID    Z sym.   atoms
    1   29 Cu     1, 37, 93, 128, 163, 198
    2    6 C      2-9, 11-15, 17-21, 23, 24, 38-45, 47-51, 53-57, 59, 60,
                  73-92, 94-101, 103-107, 109-113, 115, 116, 129-136,
                  138-142, 144-148, 150, 151, 164-171, 173-177, 179-183, 185,
                  186, 199-206, 208-212, 214-218, 220, 221
    3    7 N      10, 16, 22, 25, 46, 52, 58, 61, 102, 108, 114, 117, 137,
                  143, 149, 152, 172, 178, 184, 187, 207, 213, 219, 222
    4    1 H      26-36, 62-72, 118-127, 153-162, 188-197, 223-232

molecular fragmentation (1/2 indicates fragments):
111111111111111111111111111111111111222222222222222222222222222222222222
222222222222222222222222222222222222222222222222222222222222222222222222
222222222222222222222222222222222222222222222222222222222222222222222222
2222222222222222
# atoms in fragment 1/2:    36   196
 fragment masses (1/2) :      370.87     2090.56
CMA distance (Bohr)    :  77.832
constraining FC (au)   :  0.0500

           -------------------------------------------------
          |                 G F N 2 - x T B                 |
           -------------------------------------------------

        Reference                      10.1021/acs.jctc.8b01176
      * Hamiltonian:
        H0-scaling (s, p, d)           1.850000    2.230000    2.230000
        zeta-weighting                 0.500000
      * Dispersion:
        s8                             2.700000
        a1                             0.520000
        a2                             5.000000
        s9                             5.000000
      * Repulsion:
        kExp                           1.500000    1.000000
        rExp                           1.000000
      * Coulomb:
        alpha                          2.000000
        third order                    shell-resolved
        anisotropic                    true
        a3                             3.000000
        a5                             4.000000
        cn-shift                       1.200000
        cn-exp                         4.000000
        max-rad                        5.000000


          ...................................................
          :                      SETUP                      :
          :.................................................:
          :  # basis functions                 778          :
          :  # atomic orbitals                 772          :
          :  # shells                          408          :
          :  # electrons                       808          :
          :  max. iterations                   250          :
          :  Hamiltonian                  GFN2-xTB          :
          :  restarted?                      false          :
          :  GBSA solvation                  false          :
          :  PC potential                    false          :
          :  electronic temp.          300.0000000     K    :
          :  accuracy                    1.0000000          :
          :  -> integral cutoff          0.2500000E+02      :
          :  -> integral neglect         0.1000000E-07      :
          :  -> SCF convergence          0.1000000E-05 Eh   :
          :  -> wf. convergence          0.1000000E-03 e    :
          :  Broyden damping             0.4000000          :
          ...................................................

 iter      E             dE          RMSdq      gap      omega  full diag
   1   -430.6175483 -0.430618E+03  0.604E+00    0.07       0.0  T
   2   -415.1520797  0.154655E+02  0.483E+00    0.06       1.0  T
   3   -168.3517504  0.246800E+03  0.142E+01    0.01       1.0  T
   4   -319.6315955 -0.151280E+03  0.952E+00    0.10       1.0  T
   5   -309.5684392  0.100632E+02  0.957E+00    0.05       1.0  T
   6   -396.5368403 -0.869684E+02  0.536E+00    0.01       1.0  T
   7   -366.3303005  0.302065E+02  0.587E+00    0.03       1.0  T
   8   -421.7778033 -0.554475E+02  0.311E+00    0.04       1.0  T
   9   -427.7622133 -0.598441E+01  0.233E+00    0.05       1.0  T
  10   -427.9515870 -0.189374E+00  0.211E+00    0.03       1.0  T
  11   -429.1518773 -0.120029E+01  0.190E+00    0.18       1.0  T
  12   -429.8038579 -0.651981E+00  0.148E+00    0.04       1.0  T
  13   -429.9708711 -0.167013E+00  0.141E+00    0.04       1.0  T
  14   -429.7986219  0.172249E+00  0.131E+00    0.09       1.0  T
  15   -430.5223171 -0.723695E+00  0.111E+00    0.04       1.0  T
  16   -430.1915333  0.330784E+00  0.111E+00    0.03       1.0  T
  17   -430.5339709 -0.342438E+00  0.868E-01    0.01       1.0  T
  18   -430.7729625 -0.238992E+00  0.725E-01    0.07       1.0  T
  19   -430.8119702 -0.390077E-01  0.645E-01    0.00       1.0  T
  20   -430.8339260 -0.219558E-01  0.565E-01    0.04       1.0  T
  21   -430.9080370 -0.741110E-01  0.480E-01    0.08       1.0  T
  22   -431.0349321 -0.126895E+00  0.390E-01    0.03       1.0  T
  23   -431.0885481 -0.536160E-01  0.242E-01    0.01       1.0  T
  24   -430.9780701  0.110478E+00  0.431E-01    0.05       1.0  T
  25   -430.9608250  0.172451E-01  0.418E-01    0.01       1.0  T
  26   -430.9899176 -0.290926E-01  0.335E-01    0.04       1.0  T
  27   -431.0231597 -0.332421E-01  0.270E-01    0.01       1.0  T
  28   -431.0737401 -0.505804E-01  0.245E-01    0.02       1.0  T
  29   -431.0798506 -0.611043E-02  0.233E-01    0.02       1.0  T
  30   -431.0659608  0.138897E-01  0.265E-01    0.01       1.0  T
  31   -431.0781300 -0.121692E-01  0.225E-01    0.01       1.0  T
  32   -431.0834989 -0.536889E-02  0.183E-01    0.01       1.0  T
  33   -431.0996040 -0.161051E-01  0.106E-01    0.01       1.0  T
  34   -431.1011484 -0.154436E-02  0.866E-02    0.00       1.0  T
  35   -431.1029450 -0.179659E-02  0.652E-02    0.01       1.0  T
  36   -431.1027712  0.173784E-03  0.551E-02    0.01       1.0  T
  37   -431.1037398 -0.968635E-03  0.505E-02    0.01       1.0  T
  38   -431.1034300  0.309829E-03  0.501E-02    0.01       1.0  T
  39   -431.1056973 -0.226728E-02  0.351E-02    0.00       1.0  T
  40   -431.1059964 -0.299107E-03  0.280E-02    0.00       1.0  T
  41   -431.1060882 -0.918066E-04  0.221E-02    0.00       1.0  T
  42   -431.1062502 -0.161987E-03  0.166E-02    0.00       1.0  T
  43   -431.1062477  0.245409E-05  0.144E-02    0.00       1.0  T
  44   -431.1062904 -0.426903E-04  0.117E-02    0.00       1.0  T
  45   -431.1063460 -0.556050E-04  0.794E-03    0.00       1.0  T
  46   -431.1063520 -0.598089E-05  0.626E-03    0.00       1.0  T
  47   -431.1063680 -0.159607E-04  0.436E-03    0.00       1.5  T
  48   -431.1063782 -0.101883E-04  0.280E-03    0.00       2.3  T
  49   -431.1063796 -0.146382E-05  0.207E-03    0.00       3.2  T
  50   -431.1063802 -0.582707E-06  0.176E-03    0.00       3.7  T
  51   -431.1063809 -0.657617E-06  0.119E-03    0.00       5.5  T
  52   -431.1063809 -0.602306E-07  0.946E-04    0.00       6.9  T
  53   -431.1063810 -0.478724E-07  0.909E-04    0.00       7.2  T

   *** convergence criteria satisfied after 53 iterations ***

         #    Occupation            Energy/Eh            Energy/eV
      -------------------------------------------------------------
         1        2.0000           -0.6855938             -18.6560
       ...           ...                  ...                  ...
       398        2.0000           -0.3563367              -9.6964
       399        2.0000           -0.3561673              -9.6918
       400        2.0000           -0.3560210              -9.6878
       401        2.0000           -0.3558566              -9.6834
       402        1.6778           -0.3380361              -9.1984
       403        1.3805           -0.3372298              -9.1765
       404        1.3111           -0.3370800              -9.1724 (HOMO)
       405        1.2669           -0.3369884              -9.1699 (LUMO)
       406        0.3409           -0.3349651              -9.1149
       407        0.0102           -0.3314596              -9.0195
       408        0.0068           -0.3310709              -9.0089
       409        0.0058           -0.3309233              -9.0049
       ...           ...                  ...                  ...
       772                          1.6119766              43.8641
      -------------------------------------------------------------
                  HL-Gap            0.0000916 Eh            0.0025 eV
             Fermi-level           -0.3364686 Eh           -9.1558 eV

 SCC (total)                   0 d,  0 h,  0 min,  9.363 sec
 SCC setup                      ...        0 min,  0.012 sec (  0.133%)
 Dispersion                     ...        0 min,  0.021 sec (  0.219%)
 classical contributions        ...        0 min,  0.002 sec (  0.021%)
 integral evaluation            ...        0 min,  0.163 sec (  1.736%)
 iterations                     ...        0 min,  8.756 sec ( 93.514%)
 molecular gradient             ...        0 min,  0.389 sec (  4.154%)
 printout                       ...        0 min,  0.021 sec (  0.223%)

         :::::::::::::::::::::::::::::::::::::::::::::::::::::
         ::                     SUMMARY                     ::
         :::::::::::::::::::::::::::::::::::::::::::::::::::::
         :: total energy            -423.318976577689 Eh    ::
         :: gradient norm              0.926790731721 Eh/a0 ::
         :: HOMO-LUMO gap              0.002492392564 eV    ::
         ::.................................................::
         :: SCC energy              -431.106380968760 Eh    ::
         :: -> isotropic ES            0.230528090531 Eh    ::
         :: -> anisotropic ES          0.053922406452 Eh    ::
         :: -> anisotropic XC          0.225475617935 Eh    ::
         :: -> dispersion             -0.366310190519 Eh    ::
         :: repulsion energy           7.787642173643 Eh    ::
         :: add. restraining           0.000000000000 Eh    ::
         :: total charge               0.000000000192 e     ::
         :::::::::::::::::::::::::::::::::::::::::::::::::::::

      ----------------------------------------------------------- 
     |                   =====================                   |
     |                        A N C O P T                        |
     |                   =====================                   |
     |               Approximate Normal Coordinate               |
     |                Rational Function Optimizer                |
      ----------------------------------------------------------- 

          ...................................................
          :                      SETUP                      :
          :.................................................:
          :   optimization level            normal          :
          :   max. optcycles                   696          :
          :   ANC micro-cycles                  20          :
          :   degrees of freedom               690          :
          :.................................................:
          :   RF solver                   davidson          :
          :   write xtbopt.log                true          :
          :   linear?                        false          :
          :   energy convergence         0.5000000E-05 Eh   :
          :   grad. convergence          0.1000000E-02 Eh/α :
          :   maximium RF displ.         1.0000000          :
          :   Hlow (freq-cutoff)         0.1000000E-01      :
          :   Hmax (freq-cutoff)         5.0000000          :
          :   S6 in model hess.         20.0000000          :
          ...................................................

generating ANC from model Hessian ...
Using Lindh-Hessian (1995)
 Shifting diagonal of input Hessian by    1.0124436971473865E-002
 Lowest  eigenvalues of input Hessian
    0.010000    0.010039    0.010094    0.010097    0.010097    0.010097
    0.010098    0.010104    0.010108    0.010110    0.010111    0.010114
    0.010116    0.010117    0.010120    0.010120    0.010123    0.000000
 Highest eigenvalues
    2.576440    2.785520    2.844620    2.909723    2.909723    2.909725


........................................................................
.............................. CYCLE    1 ..............................
........................................................................
   1   -431.1063812 -0.431106E+03  0.585E-04    0.00       0.0  T
   2   -431.1063360  0.451652E-04  0.637E-03    0.00       1.0  T
   3   -431.1063489 -0.128475E-04  0.487E-03    0.00       1.3  T
   4   -431.1063717 -0.227758E-04  0.274E-03    0.00       2.4  T
   5   -431.1063781 -0.646204E-05  0.168E-03    0.00       3.9  T
   6   -431.1063686  0.954761E-05  0.296E-03    0.00       2.2  T
   7   -431.1063759 -0.731044E-05  0.202E-03    0.00       3.2  T
   8   -431.1063803 -0.439622E-05  0.924E-04    0.00       7.1  T
   9   -431.1063799  0.414115E-06  0.106E-03    0.00       6.2  T
  10   -431.1063812 -0.134783E-05  0.341E-04    0.00      19.3  T
  11   -431.1063809  0.294597E-06  0.567E-04    0.00      11.6  T
  12   -431.1063812 -0.299992E-06  0.309E-04    0.00      21.2  T
     SCC iter.                  ...        0 min,  1.960 sec
     gradient                   ...        0 min,  0.389 sec
 * total energy  :  -423.3189768 Eh     change       -0.2631044E-06 Eh
   gradient norm :     0.9267896 Eh/α   predicted     0.0000000E+00 (-100.00%)
   displ. norm   :     0.5828787 α      lambda       -0.4559433E+00
   maximum displ.:     0.1347560 α      in ANC's #238, #673, #492, ...

........................................................................
.............................. CYCLE    2 ..............................
........................................................................
   1   -431.0499810 -0.431050E+03  0.414E-01    0.02       0.0  T
   2   -429.5004150  0.154957E+01  0.132E+00    0.05       1.0  T
   3   -430.0584536 -0.558039E+00  0.912E-01    0.06       1.0  T
   4   -430.5803939 -0.521940E+00  0.858E-01    0.10       1.0  T
   5   -430.6846664 -0.104273E+00  0.610E-01    0.07       1.0  T
   6   -430.3232805  0.361386E+00  0.727E-01    0.06       1.0  T
   7   -430.6793212 -0.356041E+00  0.575E-01    0.06       1.0  T
   8   -430.8694689 -0.190148E+00  0.457E-01    0.01       1.0  T
   9   -430.8779081 -0.843919E-02  0.439E-01    0.06       1.0  T
  10   -431.0215680 -0.143660E+00  0.316E-01    0.02       1.0  T
  11   -430.9792783  0.422897E-01  0.277E-01    0.02       1.0  T
  12   -431.0056996 -0.264213E-01  0.288E-01    0.01       1.0  T
  13   -431.0599650 -0.542654E-01  0.210E-01    0.02       1.0  T
  14   -431.0593089  0.656131E-03  0.201E-01    0.01       1.0  T
  15   -431.0562555  0.305336E-02  0.175E-01    0.01       1.0  T
  16   -431.0551130  0.114253E-02  0.175E-01    0.04       1.0  T
  17   -431.0861777 -0.310647E-01  0.936E-02    0.01       1.0  T
  18   -431.0838325  0.234515E-02  0.105E-01    0.01       1.0  T
  19   -431.0915870 -0.775446E-02  0.660E-02    0.01       1.0  T
  20   -431.0941755 -0.258855E-02  0.323E-02    0.00       1.0  T
  21   -431.0950782 -0.902678E-03  0.168E-02    0.00       1.0  T
  22   -431.0946633  0.414917E-03  0.240E-02    0.00       1.0  T
  23   -431.0944995  0.163753E-03  0.240E-02    0.00       1.0  T
  24   -431.0937107  0.788878E-03  0.334E-02    0.00       1.0  T
  25   -431.0948120 -0.110138E-02  0.185E-02    0.00       1.0  T
  26   -431.0951664 -0.354362E-03  0.766E-03    0.00       1.0  T
  27   -431.0951743 -0.785097E-05  0.581E-03    0.00       1.1  T
  28   -431.0951841 -0.986348E-05  0.437E-03    0.00       1.5  T
  29   -431.0951871 -0.299953E-05  0.374E-03    0.00       1.8  T
  30   -431.0951881 -0.102615E-05  0.318E-03    0.00       2.1  T
  31   -431.0951879  0.252904E-06  0.283E-03    0.00       2.3  T
  32   -431.0951939 -0.601262E-05  0.172E-03    0.00       3.8  T
  33   -431.0951962 -0.228864E-05  0.859E-04    0.00       7.6  T
  34   -431.0951963 -0.135899E-06  0.499E-04    0.00      13.2  T
  35   -431.0951965 -0.150988E-06  0.255E-04    0.00      25.8  T
     SCC iter.                  ...        0 min,  5.775 sec
     gradient                   ...        0 min,  0.389 sec
 * total energy  :  -423.6815013 Eh     change       -0.3625244E+00 Eh
   gradient norm :     0.5277746 Eh/α   predicted    -0.3054650E+00 ( -15.74%)
   displ. norm   :     0.6571606 α      lambda       -0.2896633E+00
   maximum displ.:     0.1822995 α      in ANC's #238, #235, #237, ...

........................................................................
.............................. CYCLE    3 ..............................
........................................................................
   1   -431.0246181 -0.431025E+03  0.567E-01    0.01       0.0  T
   2   -420.1208207  0.109038E+02  0.318E+00    0.05       1.0  T
   3   -430.7902930 -0.106695E+02  0.916E-01    0.07       1.0  T
   4   -430.2438246  0.546468E+00  0.830E-01    0.08       1.0  T
   5   -428.8424003  0.140142E+01  0.141E+00    0.07       1.0  T
   6   -430.6490714 -0.180667E+01  0.661E-01    0.06       1.0  T
   7   -430.3810279  0.268043E+00  0.738E-01    0.08       1.0  T
   8   -430.7436422 -0.362614E+00  0.611E-01    0.03       1.0  T
   9   -430.6892773  0.543649E-01  0.558E-01    0.01       1.0  T
  10   -430.8519491 -0.162672E+00  0.478E-01    0.01       1.0  T
  11   -431.1122221 -0.260273E+00  0.209E-01    0.01       1.0  T
  12   -431.0905831  0.216390E-01  0.260E-01    0.01       1.0  T
  13   -431.1278855 -0.373024E-01  0.154E-01    0.01       1.0  T
  14   -431.1150914  0.127941E-01  0.184E-01    0.02       1.0  T
  15   -431.1078770  0.721437E-02  0.198E-01    0.02       1.0  T
  16   -431.1065749  0.130210E-02  0.188E-01    0.00       1.0  T
  17   -431.1330989 -0.265240E-01  0.117E-01    0.02       1.0  T
  18   -431.1372891 -0.419013E-02  0.106E-01    0.00       1.0  T
  19   -431.1364841  0.805011E-03  0.978E-02    0.01       1.0  T
  20   -431.1412611 -0.477703E-02  0.693E-02    0.01       1.0  T
  21   -431.1438020 -0.254088E-02  0.540E-02    0.00       1.0  T
  22   -431.1428063  0.995638E-03  0.601E-02    0.01       1.0  T
  23   -431.1449973 -0.219100E-02  0.388E-02    0.00       1.0  T
  24   -431.1453370 -0.339627E-03  0.337E-02    0.00       1.0  T
  25   -431.1456800 -0.342985E-03  0.257E-02    0.00       1.0  T
  26   -431.1458789 -0.198974E-03  0.215E-02    0.01       1.0  T
  27   -431.1457024  0.176569E-03  0.225E-02    0.01       1.0  T
  28   -431.1460356 -0.333246E-03  0.167E-02    0.00       1.0  T
  29   -431.1457865  0.249075E-03  0.204E-02    0.00       1.0  T
  30   -431.1459531 -0.166582E-03  0.177E-02    0.01       1.0  T
  31   -431.1460684 -0.115252E-03  0.152E-02    0.01       1.0  T
  32   -431.1461896 -0.121269E-03  0.107E-02    0.01       1.0  T
  33   -431.1462659 -0.762205E-04  0.702E-03    0.00       1.0  T
  34   -431.1462808 -0.149112E-04  0.515E-03    0.00       1.3  T
  35   -431.1462917 -0.108960E-04  0.280E-03    0.00       2.3  T
  36   -431.1462973 -0.566334E-05  0.155E-03    0.00       4.2  T
  37   -431.1462972  0.111826E-06  0.136E-03    0.00       4.8  T
  38   -431.1462978 -0.615693E-06  0.905E-04    0.00       7.3  T
  39   -431.1462984 -0.580082E-06  0.393E-04    0.00      16.7  T
     SCC iter.                  ...        0 min,  6.357 sec
     gradient                   ...        0 min,  0.388 sec
 * total energy  :  -423.8959352 Eh     change       -0.2144339E+00 Eh
   gradient norm :     0.2268480 Eh/α   predicted    -0.2073787E+00 (  -3.29%)
   displ. norm   :     0.7348346 α      lambda       -0.1396111E+00
   maximum displ.:     0.2342277 α      in ANC's #238, #237, #236, ...

........................................................................
.............................. CYCLE    4 ..............................
........................................................................
   1   -430.9589992 -0.430959E+03  0.741E-01    0.00       0.0  T
   2   -412.2086652  0.187503E+02  0.381E+00    0.09       1.0  T
   3   -430.6222930 -0.184136E+02  0.126E+00    0.00       1.0  T
   4   -430.7818598 -0.159567E+00  0.822E-01    0.03       1.0  T
   5   -430.6407308  0.141129E+00  0.639E-01    0.00       1.0  T
   6   -430.2480094  0.392721E+00  0.847E-01    0.09       1.0  T
   7   -430.7123067 -0.464297E+00  0.644E-01    0.02       1.0  T
   8   -430.7386872 -0.263805E-01  0.590E-01    0.00       1.0  T
   9   -431.0125669 -0.273880E+00  0.464E-01    0.01       1.0  T
  10   -431.0508817 -0.383148E-01  0.373E-01    0.03       1.0  T
  11   -431.0897263 -0.388447E-01  0.346E-01    0.01       1.0  T
  12   -431.1412665 -0.515401E-01  0.287E-01    0.05       1.0  T
  13   -431.2229589 -0.816925E-01  0.193E-01    0.00       1.0  T
  14   -431.1934712  0.294877E-01  0.217E-01    0.04       1.0  T
  15   -431.2453330 -0.518618E-01  0.114E-01    0.00       1.0  T
  16   -431.2428898  0.244323E-02  0.119E-01    0.00       1.0  T
  17   -431.2473631 -0.447333E-02  0.854E-02    0.00       1.0  T
  18   -431.2455923  0.177074E-02  0.115E-01    0.00       1.0  T
  19   -431.2350012  0.105911E-01  0.110E-01    0.01       1.0  T
  20   -431.2484146 -0.134134E-01  0.759E-02    0.01       1.0  T
  21   -431.2485020 -0.874008E-04  0.667E-02    0.01       1.0  T
  22   -431.2525368 -0.403484E-02  0.437E-02    0.00       1.0  T
  23   -431.2524184  0.118454E-03  0.324E-02    0.00       1.0  T
  24   -431.2535027 -0.108439E-02  0.201E-02    0.00       1.0  T
  25   -431.2518629  0.163980E-02  0.411E-02    0.00       1.0  T
  26   -431.2526633 -0.800388E-03  0.302E-02    0.00       1.0  T
  27   -431.2537191 -0.105579E-02  0.133E-02    0.00       1.0  T
  28   -431.2536648  0.542845E-04  0.120E-02    0.00       1.0  T
  29   -431.2536876 -0.228042E-04  0.104E-02    0.00       1.0  T
  30   -431.2537318 -0.441219E-04  0.924E-03    0.00       1.0  T
  31   -431.2535638  0.168013E-03  0.140E-02    0.00       1.0  T
  32   -431.2537640 -0.200232E-03  0.773E-03    0.00       1.0  T
  33   -431.2538131 -0.491502E-04  0.394E-03    0.00       1.7  T
  34   -431.2538077  0.548568E-05  0.381E-03    0.00       1.7  T
  35   -431.2538193 -0.116845E-04  0.216E-03    0.00       3.0  T
  36   -431.2538125  0.683413E-05  0.288E-03    0.00       2.3  T
  37   -431.2538184 -0.590409E-05  0.195E-03    0.00       3.4  T
  38   -431.2538192 -0.838477E-06  0.174E-03    0.00       3.8  T
  39   -431.2538239 -0.460745E-05  0.513E-04    0.00      12.8  T
  40   -431.2538241 -0.293739E-06  0.221E-04    0.00      29.7  T
  41   -431.2538241  0.136919E-08  0.178E-04    0.00      36.8  T
     SCC iter.                  ...        0 min,  6.750 sec
     gradient                   ...        0 min,  0.389 sec
 * total energy  :  -424.0087850 Eh     change       -0.1128499E+00 Eh
   gradient norm :     0.1271766 Eh/α   predicted    -0.1074994E+00 (  -4.74%)
   displ. norm   :     0.7948732 α      lambda       -0.9379806E-01
   maximum displ.:     0.2366993 α      in ANC's #122, #238, #230, ...

........................................................................
.............................. CYCLE    5 ..............................
........................................................................
   1   -431.0497490 -0.431050E+03  0.767E-01    0.00       0.0  T
   2   -411.7180920  0.193317E+02  0.386E+00    0.08       1.0  T
   3   -430.6265490 -0.189085E+02  0.135E+00    0.02       1.0  T
   4   -430.6907553 -0.642063E-01  0.760E-01    0.03       1.0  T
   5   -430.2591587  0.431597E+00  0.951E-01    0.02       1.0  T
   6   -430.7081468 -0.448988E+00  0.666E-01    0.01       1.0  T
   7   -430.9313509 -0.223204E+00  0.703E-01    0.08       1.0  T
   8   -430.7926747  0.138676E+00  0.660E-01    0.02       1.0  T
   9   -430.8911513 -0.984766E-01  0.567E-01    0.05       1.0  T
  10   -431.1358570 -0.244706E+00  0.439E-01    0.01       1.0  T
  11   -431.2118703 -0.760133E-01  0.437E-01    0.03       1.0  T
  12   -431.2677433 -0.558730E-01  0.292E-01    0.01       1.0  T
  13   -431.3146149 -0.468715E-01  0.220E-01    0.02       1.0  T
  14   -431.3320103 -0.173955E-01  0.181E-01    0.00       1.0  T
  15   -431.3408085 -0.879819E-02  0.158E-01    0.02       1.0  T
  16   -431.3287423  0.120662E-01  0.156E-01    0.00       1.0  T
  17   -431.3391248 -0.103825E-01  0.126E-01    0.01       1.0  T
  18   -431.3418570 -0.273226E-02  0.114E-01    0.02       1.0  T
  19   -431.3450937 -0.323671E-02  0.110E-01    0.01       1.0  T
  20   -431.3524700 -0.737629E-02  0.835E-02    0.01       1.0  T
  21   -431.3527412 -0.271235E-03  0.844E-02    0.01       1.0  T
  22   -431.3539865 -0.124523E-02  0.676E-02    0.00       1.0  T
  23   -431.3578607 -0.387425E-02  0.367E-02    0.00       1.0  T
  24   -431.3588054 -0.944663E-03  0.242E-02    0.00       1.0  T
  25   -431.3591751 -0.369685E-03  0.197E-02    0.00       1.0  T
  26   -431.3594754 -0.300360E-03  0.137E-02    0.00       1.0  T
  27   -431.3595822 -0.106724E-03  0.105E-02    0.00       1.0  T
  28   -431.3593839  0.198297E-03  0.140E-02    0.00       1.0  T
  29   -431.3594984 -0.114502E-03  0.108E-02    0.00       1.0  T
  30   -431.3596544 -0.156089E-03  0.706E-03    0.00       1.0  T
  31   -431.3596671 -0.126162E-04  0.573E-03    0.00       1.1  T
  32   -431.3596996 -0.325869E-04  0.276E-03    0.00       2.4  T
  33   -431.3596968  0.280170E-05  0.288E-03    0.00       2.3  T
  34   -431.3596999 -0.300497E-05  0.216E-03    0.00       3.0  T
  35   -431.3597073 -0.749681E-05  0.873E-04    0.00       7.5  T
  36   -431.3597062  0.119289E-05  0.966E-04    0.00       6.8  T
  37   -431.3597064 -0.253840E-06  0.890E-04    0.00       7.4  T
  38   -431.3597075 -0.108739E-05  0.430E-04    0.00      15.3  T
  39   -431.3597077 -0.226723E-06  0.264E-04    0.00      24.8  T
     SCC iter.                  ...        0 min,  6.423 sec
     gradient                   ...        0 min,  0.389 sec
 * total energy  :  -424.0885510 Eh     change       -0.7976596E-01 Eh
   gradient norm :     0.0968537 Eh/α   predicted    -0.7653211E-01 (  -4.05%)
   displ. norm   :     0.8212277 α      lambda       -0.7016943E-01
   maximum displ.:     0.2925282 α      in ANC's #122, #238, #124, ...

........................................................................
.............................. CYCLE    6 ..............................
........................................................................
   1   -431.1926398 -0.431193E+03  0.729E-01    0.02       0.0  T
   2   -412.1857942  0.190068E+02  0.383E+00    0.07       1.0  T
   3   -430.5641010 -0.183783E+02  0.141E+00    0.02       1.0  T
   4   -430.6210966 -0.569956E-01  0.802E-01    0.12       1.0  T
   5   -430.4062884  0.214808E+00  0.993E-01    0.10       1.0  T
   6   -430.8457844 -0.439496E+00  0.730E-01    0.01       1.0  T
   7   -430.9238212 -0.780368E-01  0.725E-01    0.01       1.0  T
   8   -430.9424446 -0.186234E-01  0.698E-01    0.10       1.0  T
   9   -431.1894129 -0.246968E+00  0.453E-01    0.05       1.0  T
  10   -430.9450416  0.244371E+00  0.633E-01    0.02       1.0  T
  11   -430.9889216 -0.438800E-01  0.587E-01    0.02       1.0  T
  12   -431.3376702 -0.348749E+00  0.391E-01    0.03       1.0  T
  13   -431.3576483 -0.199781E-01  0.283E-01    0.00       1.0  T
  14   -431.4115235 -0.538752E-01  0.254E-01    0.02       1.0  T
  15   -431.4340433 -0.225198E-01  0.203E-01    0.02       1.0  T
  16   -431.4329297  0.111362E-02  0.203E-01    0.02       1.0  T
  17   -431.4384087 -0.547896E-02  0.161E-01    0.02       1.0  T
  18   -431.4157075  0.227011E-01  0.184E-01    0.01       1.0  T
  19   -431.4536298 -0.379223E-01  0.797E-02    0.01       1.0  T
  20   -431.4276148  0.260151E-01  0.168E-01    0.01       1.0  T
  21   -431.4527313 -0.251165E-01  0.854E-02    0.00       1.0  T
  22   -431.4544928 -0.176146E-02  0.791E-02    0.00       1.0  T
  23   -431.4507490  0.374373E-02  0.861E-02    0.00       1.0  T
  24   -431.4561182 -0.536919E-02  0.507E-02    0.00       1.0  T
  25   -431.4583593 -0.224109E-02  0.266E-02    0.01       1.0  T
  26   -431.4567538  0.160546E-02  0.386E-02    0.00       1.0  T
  27   -431.4579257 -0.117184E-02  0.280E-02    0.01       1.0  T
  28   -431.4585970 -0.671312E-03  0.155E-02    0.00       1.0  T
  29   -431.4587247 -0.127710E-03  0.107E-02    0.01       1.0  T
  30   -431.4587879 -0.631996E-04  0.806E-03    0.01       1.0  T
  31   -431.4588463 -0.583652E-04  0.449E-03    0.01       1.5  T
  32   -431.4588597 -0.133978E-04  0.317E-03    0.01       2.1  T
  33   -431.4588686 -0.890273E-05  0.171E-03    0.01       3.8  T
  34   -431.4588601  0.847865E-05  0.286E-03    0.01       2.3  T
  35   -431.4588662 -0.611417E-05  0.186E-03    0.01       3.5  T
  36   -431.4588641  0.207771E-05  0.207E-03    0.01       3.2  T
  37   -431.4588678 -0.367849E-05  0.115E-03    0.01       5.7  T
  38   -431.4588697 -0.186349E-05  0.458E-04    0.01      14.3  T
  39   -431.4588696  0.122448E-07  0.380E-04    0.01      17.3  T
  40   -431.4588696  0.680598E-07  0.402E-04    0.01      16.3  T
     SCC iter.                  ...        0 min,  6.519 sec
     gradient                   ...        0 min,  0.389 sec
 * total energy  :  -424.1491032 Eh     change       -0.6055222E-01 Eh
   gradient norm :     0.0763750 Eh/α   predicted    -0.5874637E-01 (  -2.98%)
   displ. norm   :     0.8280062 α      lambda       -0.5293520E-01
   maximum displ.:     0.3274207 α      in ANC's #122, #124, #123, ...

........................................................................
.............................. CYCLE    7 ..............................
........................................................................
   1   -431.3270466 -0.431327E+03  0.662E-01    0.03       0.0  T
   2   -412.7247122  0.186023E+02  0.379E+00    0.08       1.0  T
   3   -430.6374849 -0.179128E+02  0.133E+00    0.01       1.0  T
   4   -430.6625696 -0.250847E-01  0.847E-01    0.08       1.0  T
   5   -430.6319573  0.306122E-01  0.897E-01    0.06       1.0  T
   6   -431.0365060 -0.404549E+00  0.713E-01    0.04       1.0  T
   7   -431.0353097  0.119630E-02  0.734E-01    0.08       1.0  T
   8   -430.9709568  0.643529E-01  0.631E-01    0.03       1.0  T
   9   -430.9158074  0.551494E-01  0.645E-01    0.01       1.0  T
  10   -431.2711255 -0.355318E+00  0.567E-01    0.07       1.0  T
  11   -430.7279411  0.543184E+00  0.682E-01    0.06       1.0  T
  12   -431.4391743 -0.711233E+00  0.388E-01    0.02       1.0  T
  13   -431.4819694 -0.427951E-01  0.295E-01    0.00       1.0  T
  14   -431.4974558 -0.154863E-01  0.251E-01    0.02       1.0  T
  15   -431.5089312 -0.114754E-01  0.233E-01    0.02       1.0  T
  16   -431.5215591 -0.126279E-01  0.193E-01    0.02       1.0  T
  17   -431.5235378 -0.197874E-02  0.179E-01    0.01       1.0  T
  18   -431.5259006 -0.236273E-02  0.154E-01    0.00       1.0  T
  19   -431.5354163 -0.951577E-02  0.109E-01    0.01       1.0  T
  20   -431.5388529 -0.343659E-02  0.916E-02    0.01       1.0  T
  21   -431.5412798 -0.242687E-02  0.652E-02    0.01       1.0  T
  22   -431.5413644 -0.846128E-04  0.560E-02    0.01       1.0  T
  23   -431.5448465 -0.348208E-02  0.428E-02    0.01       1.0  T
  24   -431.5440807  0.765778E-03  0.491E-02    0.01       1.0  T
  25   -431.5440410  0.397223E-04  0.462E-02    0.01       1.0  T
  26   -431.5452947 -0.125377E-02  0.275E-02    0.01       1.0  T
  27   -431.5455698 -0.275014E-03  0.149E-02    0.01       1.0  T
  28   -431.5458603 -0.290502E-03  0.693E-03    0.01       1.0  T
  29   -431.5459260 -0.656941E-04  0.462E-03    0.01       1.4  T
  30   -431.5459110  0.149724E-04  0.483E-03    0.01       1.4  T
  31   -431.5459469 -0.359004E-04  0.147E-03    0.01       4.5  T
  32   -431.5459475 -0.633170E-06  0.134E-03    0.01       4.9  T
  33   -431.5459493 -0.181961E-05  0.691E-04    0.01       9.5  T
  34   -431.5459478  0.157231E-05  0.111E-03    0.01       5.9  T
  35   -431.5459495 -0.175221E-05  0.426E-04    0.01      15.4  T
  36   -431.5459496 -0.601986E-07  0.403E-04    0.01      16.3  T
  37   -431.5459496  0.198289E-07  0.478E-04    0.01      13.7  T
     SCC iter.                  ...        0 min,  6.107 sec
     gradient                   ...        0 min,  0.389 sec
 * total energy  :  -424.1948110 Eh     change       -0.4570777E-01 Eh
   gradient norm :     0.0565487 Eh/α   predicted    -0.4461366E-01 (  -2.39%)
   displ. norm   :     0.8241520 α      lambda       -0.3904568E-01
   maximum displ.:     0.3374831 α      in ANC's #122, #39, #124, ...

........................................................................
.............................. CYCLE    8 ..............................
........................................................................
   1   -431.4393866 -0.431439E+03  0.585E-01    0.03       0.0  T
   2   -413.2752358  0.181642E+02  0.375E+00    0.08       1.0  T
   3   -430.6993452 -0.174241E+02  0.129E+00    0.01       1.0  T
   4   -430.6911772  0.816798E-02  0.886E-01    0.07       1.0  T
   5   -430.9675031 -0.276326E+00  0.729E-01    0.03       1.0  T
   6   -431.0371679 -0.696649E-01  0.664E-01    0.04       1.0  T
   7   -430.9839545  0.532135E-01  0.749E-01    0.09       1.0  T
   8   -431.1074034 -0.123449E+00  0.650E-01    0.05       1.0  T
   9   -431.3323695 -0.224966E+00  0.533E-01    0.02       1.0  T
  10   -431.1805887  0.151781E+00  0.613E-01    0.04       1.0  T
  11   -431.2896178 -0.109029E+00  0.475E-01    0.00       1.0  T
  12   -431.4917936 -0.202176E+00  0.325E-01    0.02       1.0  T
  13   -431.5761794 -0.843858E-01  0.236E-01    0.02       1.0  T
  14   -431.5507793  0.254001E-01  0.255E-01    0.01       1.0  T
  15   -431.5839666 -0.331873E-01  0.217E-01    0.01       1.0  T
  16   -431.5889237 -0.495709E-02  0.200E-01    0.01       1.0  T
  17   -431.5911374 -0.221370E-02  0.181E-01    0.02       1.0  T
  18   -431.5922779 -0.114058E-02  0.153E-01    0.02       1.0  T
  19   -431.5946734 -0.239543E-02  0.123E-01    0.02       1.0  T
  20   -431.6016606 -0.698728E-02  0.102E-01    0.01       1.0  T
  21   -431.6005900  0.107065E-02  0.106E-01    0.01       1.0  T
  22   -431.6108344 -0.102444E-01  0.573E-02    0.00       1.0  T
  23   -431.6121095 -0.127516E-02  0.443E-02    0.01       1.0  T
  24   -431.6108462  0.126335E-02  0.512E-02    0.01       1.0  T
  25   -431.6122074 -0.136125E-02  0.354E-02    0.01       1.0  T
  26   -431.6136092 -0.140181E-02  0.167E-02    0.01       1.0  T
  27   -431.6137039 -0.946262E-04  0.161E-02    0.01       1.0  T
  28   -431.6137874 -0.834985E-04  0.113E-02    0.01       1.0  T
  29   -431.6139104 -0.123035E-03  0.625E-03    0.01       1.1  T
  30   -431.6139217 -0.113116E-04  0.518E-03    0.01       1.3  T
  31   -431.6139463 -0.246316E-04  0.452E-03    0.01       1.5  T
  32   -431.6139401  0.623746E-05  0.422E-03    0.01       1.6  T
  33   -431.6139528 -0.127229E-04  0.257E-03    0.01       2.6  T
  34   -431.6139607 -0.791811E-05  0.885E-04    0.01       7.4  T
  35   -431.6139605  0.247799E-06  0.802E-04    0.01       8.2  T
  36   -431.6139608 -0.267459E-06  0.647E-04    0.01      10.2  T
     SCC iter.                  ...        0 min,  5.879 sec
     gradient                   ...        0 min,  0.390 sec
 * total energy  :  -424.2282250 Eh     change       -0.3341404E-01 Eh
   gradient norm :     0.0400826 Eh/α   predicted    -0.3278328E-01 (  -1.89%)
   displ. norm   :     0.8140570 α      lambda       -0.2773808E-01
   maximum displ.:     0.3160152 α      in ANC's #122, #39, #35, ...

........................................................................
.............................. CYCLE    9 ..............................
........................................................................
   1   -431.5331592 -0.431533E+03  0.497E-01    0.03       0.0  T
   2   -414.1212610  0.174119E+02  0.368E+00    0.09       1.0  T
   3   -430.7946647 -0.166734E+02  0.125E+00    0.00       1.0  T
   4   -430.7210488  0.736159E-01  0.892E-01    0.06       1.0  T
   5   -431.1802765 -0.459228E+00  0.581E-01    0.01       1.0  T
   6   -431.1029904  0.772861E-01  0.676E-01    0.03       1.0  T
   7   -431.0744066  0.285838E-01  0.735E-01    0.07       1.0  T
   8   -431.3396637 -0.265257E+00  0.522E-01    0.01       1.0  T
   9   -431.2447681  0.948956E-01  0.563E-01    0.01       1.0  T
  10   -431.4245943 -0.179826E+00  0.488E-01    0.01       1.0  T
  11   -431.5084312 -0.838369E-01  0.425E-01    0.01       1.0  T
  12   -431.5878314 -0.794001E-01  0.273E-01    0.01       1.0  T
  13   -431.6138706 -0.260392E-01  0.235E-01    0.03       1.0  T
  14   -431.6468312 -0.329607E-01  0.156E-01    0.01       1.0  T
  15   -431.6348558  0.119755E-01  0.198E-01    0.00       1.0  T
  16   -431.6375200 -0.266422E-02  0.184E-01    0.01       1.0  T
  17   -431.6468293 -0.930930E-02  0.150E-01    0.01       1.0  T
  18   -431.6497022 -0.287293E-02  0.114E-01    0.01       1.0  T
  19   -431.6296305  0.200718E-01  0.154E-01    0.01       1.0  T
  20   -431.6548220 -0.251916E-01  0.891E-02    0.01       1.0  T
  21   -431.6585711 -0.374903E-02  0.762E-02    0.01       1.0  T
  22   -431.6574210  0.115005E-02  0.791E-02    0.01       1.0  T
  23   -431.6628662 -0.544516E-02  0.206E-02    0.01       1.0  T
  24   -431.6624542  0.411960E-03  0.245E-02    0.00       1.0  T
  25   -431.6628381 -0.383887E-03  0.187E-02    0.01       1.0  T
  26   -431.6627100  0.128097E-03  0.185E-02    0.01       1.0  T
  27   -431.6631115 -0.401466E-03  0.885E-03    0.01       1.0  T
  28   -431.6631289 -0.173977E-04  0.598E-03    0.01       1.1  T
  29   -431.6631304 -0.150513E-05  0.551E-03    0.01       1.2  T
  30   -431.6631451 -0.146668E-04  0.378E-03    0.01       1.7  T
  31   -431.6631566 -0.115136E-04  0.214E-03    0.01       3.1  T
  32   -431.6631592 -0.264856E-05  0.162E-03    0.01       4.1  T
  33   -431.6631593 -0.435332E-07  0.156E-03    0.01       4.2  T
  34   -431.6631588  0.465039E-06  0.140E-03    0.01       4.7  T
  35   -431.6631602 -0.142706E-05  0.965E-04    0.01       6.8  T
  36   -431.6631611 -0.930104E-06  0.445E-04    0.01      14.7  T
  37   -431.6631613 -0.174436E-06  0.279E-04    0.01      23.5  T
     SCC iter.                  ...        0 min,  6.035 sec
     gradient                   ...        0 min,  0.390 sec
 * total energy  :  -424.2517785 Eh     change       -0.2355349E-01 Eh
   gradient norm :     0.0297545 Eh/α   predicted    -0.2305990E-01 (  -2.10%)
   displ. norm   :     0.8107392 α      lambda       -0.1959443E-01
   maximum displ.:     0.3877892 α      in ANC's #39, #122, #35, ...

........................................................................
.............................. CYCLE   10 ..............................
........................................................................
   1   -431.6235985 -0.431624E+03  0.385E-01    0.02       0.0  T
   2   -416.1306452  0.154930E+02  0.351E+00    0.08       1.0  T
   3   -430.9966074 -0.148660E+02  0.103E+00    0.00       1.0  T
   4   -430.7580134  0.238594E+00  0.907E-01    0.05       1.0  T
   5   -431.4312613 -0.673248E+00  0.471E-01    0.01       1.0  T
   6   -431.0140813  0.417180E+00  0.778E-01    0.03       1.0  T
   7   -431.0954892 -0.814079E-01  0.702E-01    0.08       1.0  T
   8   -431.4018977 -0.306408E+00  0.509E-01    0.01       1.0  T
   9   -431.3375943  0.643034E-01  0.570E-01    0.01       1.0  T
  10   -431.3362006  0.139377E-02  0.511E-01    0.01       1.0  T
  11   -431.3572680 -0.210674E-01  0.521E-01    0.06       1.0  T
  12   -431.6312519 -0.273984E+00  0.292E-01    0.03       1.0  T
  13   -431.6635523 -0.323005E-01  0.203E-01    0.01       1.0  T
  14   -431.6605277  0.302462E-02  0.199E-01    0.00       1.0  T
  15   -431.6773262 -0.167985E-01  0.171E-01    0.00       1.0  T
  16   -431.6832855 -0.595924E-02  0.147E-01    0.00       1.0  T
  17   -431.6865115 -0.322603E-02  0.129E-01    0.00       1.0  T
  18   -431.6916251 -0.511360E-02  0.984E-02    0.01       1.0  T
  19   -431.6948612 -0.323615E-02  0.698E-02    0.00       1.0  T
  20   -431.6979430 -0.308177E-02  0.602E-02    0.01       1.0  T
  21   -431.6937468  0.419621E-02  0.808E-02    0.01       1.0  T
  22   -431.7002864 -0.653962E-02  0.328E-02    0.01       1.0  T
  23   -431.6999133  0.373062E-03  0.361E-02    0.01       1.0  T
  24   -431.7004558 -0.542456E-03  0.267E-02    0.01       1.0  T
  25   -431.7005796 -0.123798E-03  0.192E-02    0.00       1.0  T
  26   -431.7009396 -0.359987E-03  0.903E-03    0.01       1.0  T
  27   -431.7009132  0.264325E-04  0.846E-03    0.01       1.0  T
  28   -431.7009654 -0.522251E-04  0.573E-03    0.01       1.1  T
  29   -431.7010027 -0.373419E-04  0.246E-03    0.01       2.7  T
  30   -431.7009943  0.846069E-05  0.346E-03    0.01       1.9  T
  31   -431.7010046 -0.103402E-04  0.190E-03    0.01       3.5  T
  32   -431.7010085 -0.390323E-05  0.773E-04    0.01       8.5  T
  33   -431.7010060  0.253356E-05  0.166E-03    0.01       4.0  T
  34   -431.7010078 -0.186515E-05  0.939E-04    0.01       7.0  T
  35   -431.7010088 -0.972830E-06  0.329E-04    0.01      19.9  T
  36   -431.7010089 -0.536132E-07  0.256E-04    0.01      25.6  T
     SCC iter.                  ...        0 min,  5.937 sec
     gradient                   ...        0 min,  0.390 sec
 * total energy  :  -424.2685600 Eh     change       -0.1678153E-01 Eh
   gradient norm :     0.0247369 Eh/α   predicted    -0.1623692E-01 (  -3.25%)
   displ. norm   :     0.8284577 α      lambda       -0.1483521E-01
   maximum displ.:     0.4695520 α      in ANC's #39, #35, #46, ...

........................................................................
.............................. CYCLE   11 ..............................
........................................................................
   1   -431.7162919 -0.431716E+03  0.231E-01    0.01       0.0  T
   2   -426.2491973  0.546709E+01  0.227E+00    0.04       1.0  T
   3   -430.5904090 -0.434121E+01  0.839E-01    0.06       1.0  T
   4   -431.0039320 -0.413523E+00  0.799E-01    0.01       1.0  T
   5   -431.1524138 -0.148482E+00  0.674E-01    0.06       1.0  T
   6   -431.2002388 -0.478251E-01  0.643E-01    0.02       1.0  T
   7   -431.4287499 -0.228511E+00  0.509E-01    0.00       1.0  T
   8   -431.4543506 -0.256007E-01  0.533E-01    0.08       1.0  T
   9   -431.2745281  0.179822E+00  0.640E-01    0.04       1.0  T
  10   -431.3835787 -0.109051E+00  0.488E-01    0.02       1.0  T
  11   -431.5290941 -0.145515E+00  0.387E-01    0.05       1.0  T
  12   -431.6846928 -0.155599E+00  0.232E-01    0.00       1.0  T
  13   -431.7041542 -0.194614E-01  0.166E-01    0.03       1.0  T
  14   -431.7184201 -0.142659E-01  0.142E-01    0.02       1.0  T
  15   -431.7243391 -0.591905E-02  0.119E-01    0.01       1.0  T
  16   -431.7255829 -0.124371E-02  0.107E-01    0.01       1.0  T
  17   -431.7273551 -0.177223E-02  0.925E-02    0.01       1.0  T
  18   -431.7287964 -0.144128E-02  0.797E-02    0.01       1.0  T
  19   -431.7279496  0.846796E-03  0.692E-02    0.00       1.0  T
  20   -431.7291701 -0.122055E-02  0.562E-02    0.00       1.0  T
  21   -431.7321989 -0.302883E-02  0.324E-02    0.01       1.0  T
  22   -431.7330276 -0.828681E-03  0.251E-02    0.01       1.0  T
  23   -431.7328746  0.153049E-03  0.261E-02    0.01       1.0  T
  24   -431.7334431 -0.568528E-03  0.178E-02    0.01       1.0  T
  25   -431.7326039  0.839176E-03  0.305E-02    0.01       1.0  T
  26   -431.7330058 -0.401824E-03  0.247E-02    0.01       1.0  T
  27   -431.7332306 -0.224860E-03  0.206E-02    0.01       1.0  T
  28   -431.7334756 -0.244993E-03  0.128E-02    0.01       1.0  T
  29   -431.7335491 -0.734571E-04  0.737E-03    0.01       1.0  T
  30   -431.7335722 -0.231623E-04  0.492E-03    0.01       1.3  T
  31   -431.7335783 -0.608407E-05  0.379E-03    0.01       1.7  T
  32   -431.7335755  0.281582E-05  0.373E-03    0.01       1.8  T
  33   -431.7335907 -0.151921E-04  0.178E-03    0.01       3.7  T
  34   -431.7335940 -0.329937E-05  0.898E-04    0.01       7.3  T
  35   -431.7335937  0.289526E-06  0.962E-04    0.01       6.8  T
  36   -431.7335946 -0.905223E-06  0.544E-04    0.01      12.1  T
     SCC iter.                  ...        0 min,  5.866 sec
     gradient                   ...        0 min,  0.390 sec
 * total energy  :  -424.2817160 Eh     change       -0.1315596E-01 Eh
   gradient norm :     0.0230680 Eh/α   predicted    -0.1250862E-01 (  -4.92%)
   displ. norm   :     0.8673500 α      lambda       -0.1282239E-01
   maximum displ.:     0.5326517 α      in ANC's #39, #35, #46, ...

........................................................................
.............................. CYCLE   12 ..............................
........................................................................
   1   -431.7467269 -0.431747E+03  0.186E-01    0.00       0.0  T
   2   -430.6175657  0.112916E+01  0.929E-01    0.06       1.0  T
   3   -431.4361485 -0.818583E+00  0.547E-01    0.04       1.0  T
   4   -431.1772258  0.258923E+00  0.677E-01    0.03       1.0  T
   5   -431.5982111 -0.420985E+00  0.435E-01    0.02       1.0  T
   6   -431.1718831  0.426328E+00  0.736E-01    0.03       1.0  T
   7   -431.1130067  0.588764E-01  0.675E-01    0.03       1.0  T
   8   -431.3552205 -0.242214E+00  0.538E-01    0.05       1.0  T
   9   -431.6136193 -0.258399E+00  0.366E-01    0.02       1.0  T
  10   -431.5082529  0.105366E+00  0.459E-01    0.02       1.0  T
  11   -431.5366895 -0.284366E-01  0.373E-01    0.02       1.0  T
  12   -431.7327620 -0.196072E+00  0.195E-01    0.01       1.0  T
  13   -431.7536496 -0.208876E-01  0.121E-01    0.01       1.0  T
  14   -431.7301448  0.235049E-01  0.176E-01    0.01       1.0  T
  15   -431.7253973  0.474745E-02  0.186E-01    0.01       1.0  T
  16   -431.7359834 -0.105860E-01  0.155E-01    0.01       1.0  T
  17   -431.7556063 -0.196230E-01  0.788E-02    0.01       1.0  T
  18   -431.7591343 -0.352793E-02  0.537E-02    0.01       1.0  T
  19   -431.7629396 -0.380536E-02  0.254E-02    0.01       1.0  T
  20   -431.7627778  0.161859E-03  0.285E-02    0.01       1.0  T
  21   -431.7622438  0.533998E-03  0.365E-02    0.01       1.0  T
  22   -431.7627726 -0.528817E-03  0.262E-02    0.00       1.0  T
  23   -431.7633058 -0.533224E-03  0.190E-02    0.01       1.0  T
  24   -431.7634457 -0.139843E-03  0.145E-02    0.01       1.0  T
  25   -431.7637422 -0.296578E-03  0.480E-03    0.01       1.4  T
  26   -431.7637656 -0.234138E-04  0.247E-03    0.01       2.7  T
  27   -431.7637692 -0.354750E-05  0.204E-03    0.01       3.2  T
  28   -431.7637725 -0.328072E-05  0.105E-03    0.01       6.3  T
  29   -431.7637710  0.144938E-05  0.144E-03    0.01       4.6  T
  30   -431.7637714 -0.342775E-06  0.118E-03    0.01       5.5  T
  31   -431.7637729 -0.151646E-05  0.737E-04    0.01       8.9  T
  32   -431.7637728  0.118923E-06  0.785E-04    0.01       8.4  T
  33   -431.7637732 -0.455164E-06  0.482E-04    0.01      13.6  T
     SCC iter.                  ...        0 min,  5.439 sec
     gradient                   ...        0 min,  0.390 sec
 * total energy  :  -424.2935990 Eh     change       -0.1188301E-01 Eh
   gradient norm :     0.0223272 Eh/α   predicted    -0.1123431E-01 (  -5.46%)
   displ. norm   :     0.9045746 α      lambda       -0.1229921E-01
   maximum displ.:     0.5631532 α      in ANC's #39, #35, #40, ...

........................................................................
.............................. CYCLE   13 ..............................
........................................................................
   1   -431.6776808 -0.431678E+03  0.378E-01    0.01       0.0  T
   2   -429.9723295  0.170535E+01  0.145E+00    0.08       1.0  T
   3   -430.8208277 -0.848498E+00  0.899E-01    0.08       1.0  T
   4   -431.1488333 -0.328006E+00  0.780E-01    0.02       1.0  T
   5   -431.5075250 -0.358692E+00  0.593E-01    0.02       1.0  T
   6   -431.0784484  0.429077E+00  0.702E-01    0.01       1.0  T
   7   -431.4187478 -0.340299E+00  0.510E-01    0.04       1.0  T
   8   -431.1730316  0.245716E+00  0.714E-01    0.06       1.0  T
   9   -431.2731031 -0.100071E+00  0.603E-01    0.00       1.0  T
  10   -431.4591045 -0.186001E+00  0.542E-01    0.03       1.0  T
  11   -431.5408758 -0.817713E-01  0.452E-01    0.03       1.0  T
  12   -431.5958654 -0.549896E-01  0.376E-01    0.00       1.0  T
  13   -431.6431227 -0.472573E-01  0.337E-01    0.01       1.0  T
  14   -431.7131237 -0.700011E-01  0.274E-01    0.01       1.0  T
  15   -431.7130699  0.538717E-04  0.275E-01    0.01       1.0  T
  16   -431.7178770 -0.480713E-02  0.251E-01    0.01       1.0  T
  17   -431.7751917 -0.573147E-01  0.135E-01    0.01       1.0  T
  18   -431.7870967 -0.119050E-01  0.651E-02    0.00       1.0  T
  19   -431.7878100 -0.713230E-03  0.585E-02    0.01       1.0  T
  20   -431.7887716 -0.961691E-03  0.520E-02    0.01       1.0  T
  21   -431.7914396 -0.266791E-02  0.220E-02    0.01       1.0  T
  22   -431.7913176  0.121931E-03  0.188E-02    0.01       1.0  T
  23   -431.7908111  0.506482E-03  0.267E-02    0.01       1.0  T
  24   -431.7915253 -0.714189E-03  0.136E-02    0.01       1.0  T
  25   -431.7916304 -0.105067E-03  0.123E-02    0.01       1.0  T
  26   -431.7917805 -0.150075E-03  0.503E-03    0.01       1.3  T
  27   -431.7917905 -0.100713E-04  0.365E-03    0.01       1.8  T
  28   -431.7917973 -0.676918E-05  0.269E-03    0.01       2.4  T
  29   -431.7917966  0.728216E-06  0.253E-03    0.01       2.6  T
  30   -431.7918010 -0.437282E-05  0.190E-03    0.01       3.5  T
  31   -431.7918006  0.333667E-06  0.177E-03    0.01       3.7  T
  32   -431.7918045 -0.390696E-05  0.518E-04    0.01      12.7  T
  33   -431.7918044  0.129938E-06  0.611E-04    0.01      10.8  T
  34   -431.7918048 -0.402197E-06  0.310E-04    0.01      21.2  T
     SCC iter.                  ...        0 min,  5.537 sec
     gradient                   ...        0 min,  0.390 sec
 * total energy  :  -424.3053881 Eh     change       -0.1178908E-01 Eh
   gradient norm :     0.0207867 Eh/α   predicted    -0.1118157E-01 (  -5.15%)
   displ. norm   :     0.9437194 α      lambda       -0.1263897E-01
   maximum displ.:     0.5782115 α      in ANC's #39, #35, #46, ...

........................................................................
.............................. CYCLE   14 ..............................
........................................................................
   1   -431.6158754 -0.431616E+03  0.523E-01    0.01       0.0  T
   2   -429.2725840  0.234329E+01  0.181E+00    0.21       1.0  T
   3   -431.1955982 -0.192301E+01  0.913E-01    0.03       1.0  T
   4   -431.3818715 -0.186273E+00  0.655E-01    0.05       1.0  T
   5   -430.9187403  0.463131E+00  0.799E-01    0.08       1.0  T
   6   -430.8006525  0.118088E+00  0.860E-01    0.06       1.0  T
   7   -431.5436457 -0.742993E+00  0.489E-01    0.01       1.0  T
   8   -431.4002925  0.143353E+00  0.544E-01    0.01       1.0  T
   9   -431.3154568  0.848357E-01  0.674E-01    0.04       1.0  T
  10   -431.1448704  0.170586E+00  0.654E-01    0.05       1.0  T
  11   -431.6610610 -0.516191E+00  0.367E-01    0.01       1.0  T
  12   -431.7402933 -0.792323E-01  0.276E-01    0.00       1.0  T
  13   -431.7555385 -0.152451E-01  0.205E-01    0.00       1.0  T
  14   -431.7718305 -0.162920E-01  0.209E-01    0.01       1.0  T
  15   -431.7755623 -0.373186E-02  0.180E-01    0.01       1.0  T
  16   -431.7422705  0.332918E-01  0.237E-01    0.02       1.0  T
  17   -431.7849190 -0.426486E-01  0.157E-01    0.01       1.0  T
  18   -431.7753598  0.955921E-02  0.160E-01    0.01       1.0  T
  19   -431.8078286 -0.324687E-01  0.765E-02    0.01       1.0  T
  20   -431.8073704  0.458114E-03  0.756E-02    0.01       1.0  T
  21   -431.8103884 -0.301791E-02  0.607E-02    0.01       1.0  T
  22   -431.8099485  0.439818E-03  0.587E-02    0.01       1.0  T
  23   -431.8132669 -0.331835E-02  0.267E-02    0.01       1.0  T
  24   -431.8142459 -0.979064E-03  0.135E-02    0.01       1.0  T
  25   -431.8137707  0.475275E-03  0.197E-02    0.01       1.0  T
  26   -431.8143528 -0.582118E-03  0.988E-03    0.01       1.0  T
  27   -431.8144488 -0.959600E-04  0.503E-03    0.01       1.3  T
  28   -431.8144592 -0.104109E-04  0.346E-03    0.01       1.9  T
  29   -431.8144621 -0.296133E-05  0.329E-03    0.01       2.0  T
  30   -431.8144719 -0.982150E-05  0.154E-03    0.01       4.3  T
  31   -431.8144733 -0.138834E-05  0.781E-04    0.01       8.4  T
  32   -431.8144739 -0.614879E-06  0.507E-04    0.01      13.0  T
  33   -431.8144740 -0.666362E-07  0.483E-04    0.01      13.6  T
     SCC iter.                  ...        0 min,  5.436 sec
     gradient                   ...        0 min,  0.390 sec
 * total energy  :  -424.3176563 Eh     change       -0.1226824E-01 Eh
   gradient norm :     0.0196287 Eh/α   predicted    -0.1194769E-01 (  -2.61%)
   displ. norm   :     0.9653398 α      lambda       -0.1326969E-01
   maximum displ.:     0.5805095 α      in ANC's #39, #35, #37, ...

........................................................................
.............................. CYCLE   15 ..............................
........................................................................
   1   -431.6054749 -0.431605E+03  0.577E-01    0.00       0.0  T
   2   -429.1133907  0.249208E+01  0.193E+00    0.02       1.0  T
   3   -431.2710402 -0.215765E+01  0.824E-01    0.00       1.0  T
   4   -431.0689800  0.202060E+00  0.915E-01    0.03       1.0  T
   5   -431.2428740 -0.173894E+00  0.769E-01    0.04       1.0  T
   6   -431.3132873 -0.704133E-01  0.646E-01    0.05       1.0  T
   7   -431.0646085  0.248679E+00  0.740E-01    0.01       1.0  T
   8   -431.6514352 -0.586827E+00  0.394E-01    0.01       1.0  T
   9   -430.8983920  0.753043E+00  0.736E-01    0.02       1.0  T
  10   -431.5943080 -0.695916E+00  0.442E-01    0.03       1.0  T
  11   -431.4308752  0.163433E+00  0.566E-01    0.01       1.0  T
  12   -431.4379448 -0.706965E-02  0.532E-01    0.04       1.0  T
  13   -431.7137521 -0.275807E+00  0.325E-01    0.01       1.0  T
  14   -431.7135750  0.177129E-03  0.304E-01    0.01       1.0  T
  15   -431.7960902 -0.825153E-01  0.167E-01    0.00       1.0  T
  16   -431.7334101  0.626801E-01  0.280E-01    0.02       1.0  T
  17   -431.7859047 -0.524946E-01  0.190E-01    0.01       1.0  T
  18   -431.8098738 -0.239691E-01  0.149E-01    0.00       1.0  T
  19   -431.8028799  0.699395E-02  0.132E-01    0.01       1.0  T
  20   -431.8268450 -0.239652E-01  0.698E-02    0.00       1.0  T
  21   -431.8316326 -0.478756E-02  0.364E-02    0.01       1.0  T
  22   -431.8320810 -0.448390E-03  0.237E-02    0.00       1.0  T
  23   -431.8314487  0.632319E-03  0.351E-02    0.00       1.0  T
  24   -431.8329163 -0.146761E-02  0.120E-02    0.00       1.0  T
  25   -431.8328830  0.332679E-04  0.126E-02    0.00       1.0  T
  26   -431.8329683 -0.853307E-04  0.850E-03    0.00       1.0  T
  27   -431.8330339 -0.655853E-04  0.522E-03    0.00       1.3  T
  28   -431.8330416 -0.765149E-05  0.486E-03    0.01       1.4  T
  29   -431.8330625 -0.209767E-04  0.227E-03    0.01       2.9  T
  30   -431.8330641 -0.153076E-05  0.195E-03    0.01       3.4  T
  31   -431.8330677 -0.365386E-05  0.142E-03    0.01       4.6  T
  32   -431.8330672  0.555044E-06  0.141E-03    0.01       4.7  T
  33   -431.8330696 -0.246283E-05  0.702E-04    0.01       9.3  T
  34   -431.8330700 -0.406641E-06  0.424E-04    0.01      15.5  T
  35   -431.8330700  0.152064E-07  0.408E-04    0.01      16.1  T
     SCC iter.                  ...        0 min,  5.703 sec
     gradient                   ...        0 min,  0.389 sec
 * total energy  :  -424.3307252 Eh     change       -0.1306889E-01 Eh
   gradient norm :     0.0211255 Eh/α   predicted    -0.1281775E-01 (  -1.92%)
   displ. norm   :     0.9763445 α      lambda       -0.1383758E-01
   maximum displ.:     0.5522996 α      in ANC's #39, #35, #30, ...

........................................................................
.............................. CYCLE   16 ..............................
........................................................................
   1   -431.6113774 -0.431611E+03  0.578E-01    0.00       0.0  T
   2   -426.1360969  0.547528E+01  0.363E+00    0.00       1.0  T
   3   -430.3251857 -0.418909E+01  0.137E+00    0.16       1.0  T
   4   -430.8991007 -0.573915E+00  0.988E-01    0.11       1.0  T
   5   -430.7901178  0.108983E+00  0.933E-01    0.01       1.0  T
   6   -430.8382008 -0.480829E-01  0.782E-01    0.03       1.0  T
   7   -431.1382140 -0.300013E+00  0.710E-01    0.00       1.0  T
   8   -431.3611673 -0.222953E+00  0.639E-01    0.03       1.0  T
   9   -431.4865447 -0.125377E+00  0.577E-01    0.00       1.0  T
  10   -431.5935587 -0.107014E+00  0.503E-01    0.00       1.0  T
  11   -431.3441623  0.249396E+00  0.583E-01    0.01       1.0  T
  12   -431.7174889 -0.373327E+00  0.317E-01    0.00       1.0  T
  13   -431.6783381  0.391507E-01  0.347E-01    0.00       1.0  T
  14   -431.7044637 -0.261255E-01  0.331E-01    0.01       1.0  T
  15   -431.5318269  0.172637E+00  0.467E-01    0.02       1.0  T
  16   -431.7246739 -0.192847E+00  0.296E-01    0.02       1.0  T
  17   -431.7711752 -0.465013E-01  0.211E-01    0.01       1.0  T
  18   -431.7809774 -0.980221E-02  0.197E-01    0.01       1.0  T
  19   -431.8268184 -0.458410E-01  0.881E-02    0.00       1.0  T
  20   -431.7808043  0.460141E-01  0.176E-01    0.01       1.0  T
  21   -431.8240747 -0.432704E-01  0.907E-02    0.00       1.0  T
  22   -431.8329041 -0.882937E-02  0.506E-02    0.00       1.0  T
  23   -431.8354914 -0.258732E-02  0.347E-02    0.00       1.0  T
  24   -431.8355039 -0.125282E-04  0.314E-02    0.00       1.0  T
  25   -431.8367994 -0.129550E-02  0.132E-02    0.00       1.0  T
  26   -431.8370027 -0.203280E-03  0.643E-03    0.00       1.0  T
  27   -431.8369957  0.699304E-05  0.675E-03    0.00       1.0  T
  28   -431.8370354 -0.396839E-04  0.422E-03    0.00       1.6  T
  29   -431.8370563 -0.208867E-04  0.180E-03    0.00       3.6  T
  30   -431.8370585 -0.217732E-05  0.126E-03    0.00       5.2  T
  31   -431.8370581  0.353618E-06  0.130E-03    0.00       5.1  T
  32   -431.8370574  0.770573E-06  0.126E-03    0.00       5.2  T
  33   -431.8370591 -0.178254E-05  0.939E-04    0.00       7.0  T
  34   -431.8370596 -0.506777E-06  0.738E-04    0.00       8.9  T
  35   -431.8370598 -0.195428E-06  0.582E-04    0.00      11.3  T
     SCC iter.                  ...        0 min,  5.760 sec
     gradient                   ...        0 min,  0.389 sec
 * total energy  :  -424.3448076 Eh     change       -0.1408241E-01 Eh
   gradient norm :     0.0278193 Eh/α   predicted    -0.1351412E-01 (  -4.04%)
   displ. norm   :     0.9681527 α      lambda       -0.1461306E-01
   maximum displ.:     0.5260476 α      in ANC's #39, #35, #30, ...

........................................................................
.............................. CYCLE   17 ..............................
........................................................................
   1   -431.6568791 -0.431657E+03  0.508E-01    0.00       0.0  T
   2   -419.3589204  0.122980E+02  0.510E+00    0.09       1.0  T
   3   -430.4818956 -0.111230E+02  0.139E+00    0.03       1.0  T
   4   -430.9132186 -0.431323E+00  0.942E-01    0.15       1.0  T
   5   -431.1820071 -0.268789E+00  0.805E-01    0.03       1.0  T
   6   -431.1272255  0.547817E-01  0.875E-01    0.06       1.0  T
   7   -431.3067484 -0.179523E+00  0.692E-01    0.01       1.0  T
   8   -431.4461211 -0.139373E+00  0.579E-01    0.00       1.0  T
   9   -431.2074337  0.238687E+00  0.666E-01    0.01       1.0  T
  10   -431.4032626 -0.195829E+00  0.610E-01    0.02       1.0  T
  11   -431.4780704 -0.748078E-01  0.503E-01    0.00       1.0  T
  12   -431.2658229  0.212248E+00  0.624E-01    0.05       1.0  T
  13   -431.4585302 -0.192707E+00  0.484E-01    0.01       1.0  T
  14   -431.8043839 -0.345854E+00  0.182E-01    0.01       1.0  T
  15   -431.7427993  0.615846E-01  0.283E-01    0.02       1.0  T
  16   -431.8025169 -0.597177E-01  0.175E-01    0.00       1.0  T
  17   -431.8300013 -0.274843E-01  0.988E-02    0.00       1.0  T
  18   -431.7754862  0.545151E-01  0.193E-01    0.00       1.0  T
  19   -431.8125694 -0.370832E-01  0.136E-01    0.00       1.0  T
  20   -431.8344032 -0.218337E-01  0.507E-02    0.00       1.0  T
  21   -431.8300320  0.437112E-02  0.729E-02    0.00       1.0  T
  22   -431.8377352 -0.770315E-02  0.173E-02    0.00       1.0  T
  23   -431.8371239  0.611302E-03  0.258E-02    0.00       1.0  T
  24   -431.8378093 -0.685455E-03  0.139E-02    0.00       1.0  T
  25   -431.8378555 -0.461093E-04  0.107E-02    0.00       1.0  T
  26   -431.8379274 -0.719697E-04  0.725E-03    0.00       1.0  T
  27   -431.8379539 -0.264494E-04  0.613E-03    0.00       1.1  T
  28   -431.8379233  0.305580E-04  0.694E-03    0.00       1.0  T
  29   -431.8379356 -0.123244E-04  0.653E-03    0.00       1.0  T
  30   -431.8379838 -0.481503E-04  0.429E-03    0.00       1.5  T
  31   -431.8379779  0.586775E-05  0.425E-03    0.00       1.5  T
  32   -431.8379723  0.558258E-05  0.415E-03    0.00       1.6  T
  33   -431.8379787 -0.636934E-05  0.359E-03    0.00       1.8  T
  34   -431.8379887 -0.100355E-04  0.280E-03    0.00       2.3  T
  35   -431.8379925 -0.375050E-05  0.212E-03    0.00       3.1  T
  36   -431.8379970 -0.448429E-05  0.134E-03    0.00       4.9  T
  37   -431.8379968  0.218234E-06  0.117E-03    0.00       5.6  T
  38   -431.8379976 -0.883536E-06  0.832E-04    0.00       7.9  T
  39   -431.8379985 -0.846496E-06  0.544E-04    0.00      12.1  T
     SCC iter.                  ...        0 min,  6.346 sec
     gradient                   ...        0 min,  0.389 sec
 * total energy  :  -424.3602932 Eh     change       -0.1548561E-01 Eh
   gradient norm :     0.0372197 Eh/α   predicted    -0.1415510E-01 (  -8.59%)
   displ. norm   :     0.9370128 α      lambda       -0.1687564E-01
   maximum displ.:     0.4648568 α      in ANC's #39, #35, #30, ...

........................................................................
.............................. CYCLE   18 ..............................
........................................................................
   1   -431.6754547 -0.431675E+03  0.472E-01    0.00       0.0  T
   2   -406.5366967  0.251388E+02  0.605E+00    0.02       1.0  T
   3   -430.4265773 -0.238899E+02  0.140E+00    0.03       1.0  T
   4   -430.7797750 -0.353198E+00  0.954E-01    0.19       1.0  T
   5   -431.0752938 -0.295519E+00  0.763E-01    0.01       1.0  T
   6   -431.0389292  0.363646E-01  0.720E-01    0.00       1.0  T
   7   -430.7775481  0.261381E+00  0.868E-01    0.07       1.0  T
   8   -431.4210544 -0.643506E+00  0.628E-01    0.04       1.0  T
   9   -431.0810686  0.339986E+00  0.714E-01    0.02       1.0  T
  10   -431.3054101 -0.224341E+00  0.649E-01    0.02       1.0  T
  11   -431.5364685 -0.231058E+00  0.486E-01    0.00       1.0  T
  12   -431.3510286  0.185440E+00  0.574E-01    0.03       1.0  T
  13   -431.6224644 -0.271436E+00  0.416E-01    0.03       1.0  T
  14   -431.7315644 -0.109100E+00  0.331E-01    0.01       1.0  T
  15   -431.7331319 -0.156751E-02  0.306E-01    0.00       1.0  T
  16   -431.5980329  0.135099E+00  0.385E-01    0.03       1.0  T
  17   -431.7662465 -0.168214E+00  0.235E-01    0.01       1.0  T
  18   -431.7843300 -0.180835E-01  0.228E-01    0.01       1.0  T
  19   -431.7584991  0.258309E-01  0.249E-01    0.02       1.0  T
  20   -431.8210130 -0.625139E-01  0.128E-01    0.00       1.0  T
  21   -431.8337073 -0.126943E-01  0.850E-02    0.00       1.0  T
  22   -431.8384309 -0.472363E-02  0.583E-02    0.00       1.0  T
  23   -431.8355963  0.283461E-02  0.664E-02    0.01       1.0  T
  24   -431.8382730 -0.267672E-02  0.524E-02    0.01       1.0  T
  25   -431.8384389 -0.165814E-03  0.484E-02    0.00       1.0  T
  26   -431.8408389 -0.240003E-02  0.312E-02    0.01       1.0  T
  27   -431.8418220 -0.983158E-03  0.194E-02    0.00       1.0  T
  28   -431.8415409  0.281110E-03  0.207E-02    0.01       1.0  T
  29   -431.8416075 -0.665763E-04  0.198E-02    0.00       1.0  T
  30   -431.8418522 -0.244673E-03  0.153E-02    0.00       1.0  T
  31   -431.8419124 -0.602426E-04  0.132E-02    0.00       1.0  T
  32   -431.8421200 -0.207563E-03  0.726E-03    0.00       1.0  T
  33   -431.8421879 -0.679563E-04  0.416E-03    0.00       1.6  T
  34   -431.8421959 -0.793230E-05  0.327E-03    0.00       2.0  T
  35   -431.8422036 -0.767907E-05  0.162E-03    0.00       4.1  T
  36   -431.8421922  0.113416E-04  0.272E-03    0.00       2.4  T
  37   -431.8421971 -0.487944E-05  0.227E-03    0.00       2.9  T
  38   -431.8422028 -0.574252E-05  0.115E-03    0.00       5.7  T
  39   -431.8422015  0.129287E-05  0.146E-03    0.00       4.5  T
  40   -431.8422033 -0.177313E-05  0.954E-04    0.00       6.9  T
  41   -431.8422042 -0.929611E-06  0.412E-04    0.00      15.9  T
  42   -431.8422044 -0.198633E-06  0.187E-04    0.00      35.1  T
     SCC iter.                  ...        0 min,  6.845 sec
     gradient                   ...        0 min,  0.438 sec
 * total energy  :  -424.3793148 Eh     change       -0.1902160E-01 Eh
   gradient norm :     0.0532169 Eh/α   predicted    -0.1584617E-01 ( -16.69%)
   displ. norm   :     0.8808962 α      lambda       -0.2273127E-01
   maximum displ.:     0.3648856 α      in ANC's #39, #18, #30, ...

........................................................................
.............................. CYCLE   19 ..............................
........................................................................
   1   -431.6650200 -0.431665E+03  0.456E-01    0.01       0.0  T
   2   -400.4816064  0.311834E+02  0.624E+00    0.12       1.0  T
   3   -430.5436250 -0.300620E+02  0.126E+00    0.25       1.0  T
   4   -430.8194427 -0.275818E+00  0.859E-01    0.01       1.0  T
   5   -430.9828234 -0.163381E+00  0.840E-01    0.14       1.0  T
   6   -431.4431857 -0.460362E+00  0.636E-01    0.01       1.0  T
   7   -431.2182179  0.224968E+00  0.727E-01    0.08       1.0  T
   8   -431.2310165 -0.127985E-01  0.732E-01    0.08       1.0  T
   9   -431.3166836 -0.856672E-01  0.636E-01    0.03       1.0  T
  10   -431.6627426 -0.346059E+00  0.410E-01    0.01       1.0  T
  11   -431.0900621  0.572681E+00  0.741E-01    0.07       1.0  T
  12   -431.6966267 -0.606565E+00  0.361E-01    0.02       1.0  T
  13   -431.8439848 -0.147358E+00  0.648E-02    0.00       1.0  T
  14   -431.6469406  0.197044E+00  0.359E-01    0.00       1.0  T
  15   -431.7878278 -0.140887E+00  0.194E-01    0.01       1.0  T
  16   -431.8348358 -0.470080E-01  0.106E-01    0.00       1.0  T
  17   -431.8288712  0.596459E-02  0.121E-01    0.00       1.0  T
  18   -431.8332320 -0.436076E-02  0.104E-01    0.01       1.0  T
  19   -431.8402390 -0.700702E-02  0.704E-02    0.00       1.0  T
  20   -431.8439551 -0.371608E-02  0.507E-02    0.01       1.0  T
  21   -431.8434958  0.459265E-03  0.539E-02    0.01       1.0  T
  22   -431.8449126 -0.141675E-02  0.434E-02    0.00       1.0  T
  23   -431.8461489 -0.123639E-02  0.284E-02    0.00       1.0  T
  24   -431.8466271 -0.478154E-03  0.205E-02    0.00       1.0  T
  25   -431.8468515 -0.224374E-03  0.163E-02    0.00       1.0  T
  26   -431.8467320  0.119499E-03  0.183E-02    0.00       1.0  T
  27   -431.8469617 -0.229728E-03  0.129E-02    0.00       1.0  T
  28   -431.8470034 -0.417071E-04  0.104E-02    0.00       1.0  T
  29   -431.8470474 -0.439489E-04  0.861E-03    0.00       1.0  T
  30   -431.8471185 -0.711375E-04  0.498E-03    0.00       1.3  T
  31   -431.8471446 -0.261501E-04  0.251E-03    0.00       2.6  T
  32   -431.8471484 -0.378216E-05  0.190E-03    0.00       3.5  T
  33   -431.8471522 -0.378746E-05  0.895E-04    0.00       7.3  T
  34   -431.8471529 -0.659214E-06  0.499E-04    0.00      13.1  T
  35   -431.8471530 -0.116994E-06  0.396E-04    0.00      16.6  T
     SCC iter.                  ...        0 min,  5.789 sec
     gradient                   ...        0 min,  0.390 sec
 * total energy  :  -424.4065084 Eh     change       -0.2719353E-01 Eh
   gradient norm :     0.0768987 Eh/α   predicted    -0.2018513E-01 ( -25.77%)
   displ. norm   :     0.8299494 α      lambda       -0.3239909E-01
   maximum displ.:     0.3076923 α      in ANC's #18, #30, #39, ...

........................................................................
.............................. CYCLE   20 ..............................
........................................................................
   1   -431.6795383 -0.431680E+03  0.414E-01    0.01       0.0  T
   2   -399.1423664  0.325372E+02  0.626E+00    0.06       1.0  T
   3   -430.5468269 -0.314045E+02  0.125E+00    0.27       1.0  T
   4   -430.9920634 -0.445237E+00  0.815E-01    0.03       1.0  T
   5   -431.0750999 -0.830365E-01  0.773E-01    0.08       1.0  T
   6   -430.7161718  0.358928E+00  0.920E-01    0.12       1.0  T
   7   -431.4193419 -0.703170E+00  0.610E-01    0.07       1.0  T
   8   -431.3070828  0.112259E+00  0.707E-01    0.06       1.0  T
   9   -431.5079346 -0.200852E+00  0.569E-01    0.00       1.0  T
  10   -431.3678162  0.140118E+00  0.616E-01    0.01       1.0  T
  11   -431.4671300 -0.993138E-01  0.618E-01    0.00       1.0  T
  12   -431.5465095 -0.793795E-01  0.510E-01    0.01       1.0  T
  13   -431.7297336 -0.183224E+00  0.307E-01    0.01       1.0  T
  14   -431.7830035 -0.532699E-01  0.258E-01    0.01       1.0  T
  15   -431.8430034 -0.599999E-01  0.773E-02    0.01       1.0  T
  16   -431.8420729  0.930490E-03  0.790E-02    0.00       1.0  T
  17   -431.8165162  0.255567E-01  0.170E-01    0.01       1.0  T
  18   -431.8413646 -0.248483E-01  0.834E-02    0.01       1.0  T
  19   -431.8296267  0.117379E-01  0.119E-01    0.01       1.0  T
  20   -431.8451492 -0.155225E-01  0.577E-02    0.00       1.0  T
  21   -431.8491663 -0.401704E-02  0.148E-02    0.00       1.0  T
  22   -431.8489501  0.216119E-03  0.200E-02    0.00       1.0  T
  23   -431.8491648 -0.214627E-03  0.138E-02    0.00       1.0  T
  24   -431.8490811  0.836422E-04  0.173E-02    0.00       1.0  T
  25   -431.8492658 -0.184660E-03  0.124E-02    0.00       1.0  T
  26   -431.8493086 -0.428391E-04  0.102E-02    0.00       1.0  T
  27   -431.8493049  0.377901E-05  0.103E-02    0.00       1.0  T
  28   -431.8493606 -0.557190E-04  0.792E-03    0.00       1.0  T
  29   -431.8493762 -0.155900E-04  0.665E-03    0.00       1.0  T
  30   -431.8494129 -0.367447E-04  0.393E-03    0.00       1.7  T
  31   -431.8494222 -0.932372E-05  0.257E-03    0.00       2.6  T
  32   -431.8494299 -0.762524E-05  0.106E-03    0.00       6.2  T
  33   -431.8494306 -0.734067E-06  0.688E-04    0.00       9.5  T
  34   -431.8494307 -0.103086E-06  0.607E-04    0.00      10.8  T
     SCC iter.                  ...        0 min,  5.624 sec
     gradient                   ...        0 min,  0.388 sec
 * total energy  :  -424.4410126 Eh     change       -0.3450427E-01 Eh
   gradient norm :     0.0922387 Eh/α   predicted    -0.2735806E-01 ( -20.71%)
   displ. norm   :     0.8140430 α      lambda       -0.3758455E-01
   maximum displ.:     0.3164003 α      in ANC's #18, #30, #78, ...
 * RMSD in coord.:     0.8489545 α      energy gain  -0.1122036E+01 Eh

generating ANC from model Hessian ...
Using Lindh-Hessian (1995)
 Shifting diagonal of input Hessian by    1.0034881847671937E-002
 Lowest  eigenvalues of input Hessian
    0.010000    0.010005    0.010014    0.010016    0.010018    0.010020
    0.010021    0.010023    0.010024    0.010026    0.010027    0.010030
    0.010032    0.010033    0.010034    0.010035    0.000000    0.000000
 Highest eigenvalues
    2.400594    2.423545    2.670395    2.914532    2.922694    2.927693


........................................................................
.............................. CYCLE   21 ..............................
........................................................................
   1   -431.7464338 -0.431746E+03  0.334E-01    0.01       0.0  T
   2   -406.1685749  0.255779E+02  0.606E+00    0.04       1.0  T
   3   -430.5523189 -0.243837E+02  0.124E+00    0.27       1.0  T
   4   -431.1815602 -0.629241E+00  0.761E-01    0.03       1.0  T
   5   -430.9345019  0.247058E+00  0.826E-01    0.06       1.0  T
   6   -431.2047038 -0.270202E+00  0.732E-01    0.09       1.0  T
   7   -431.3584452 -0.153741E+00  0.665E-01    0.03       1.0  T
   8   -431.3564497  0.199546E-02  0.642E-01    0.01       1.0  T
   9   -431.4185063 -0.620566E-01  0.678E-01    0.05       1.0  T
  10   -431.2730008  0.145505E+00  0.707E-01    0.07       1.0  T
  11   -431.7078711 -0.434870E+00  0.315E-01    0.01       1.0  T
  12   -431.8001206 -0.922495E-01  0.219E-01    0.00       1.0  T
  13   -431.7325961  0.675246E-01  0.303E-01    0.01       1.0  T
  14   -431.7107972  0.217989E-01  0.352E-01    0.01       1.0  T
  15   -431.7062427  0.455451E-02  0.338E-01    0.02       1.0  T
  16   -431.7759374 -0.696947E-01  0.225E-01    0.01       1.0  T
  17   -431.8185711 -0.426337E-01  0.169E-01    0.02       1.0  T
  18   -431.8428916 -0.243205E-01  0.797E-02    0.01       1.0  T
  19   -431.8402951  0.259654E-02  0.105E-01    0.00       1.0  T
  20   -431.8510314 -0.107363E-01  0.370E-02    0.00       1.0  T
  21   -431.8516273 -0.595918E-03  0.258E-02    0.00       1.0  T
  22   -431.8517034 -0.761281E-04  0.237E-02    0.00       1.0  T
  23   -431.8522126 -0.509123E-03  0.154E-02    0.00       1.0  T
  24   -431.8523124 -0.998601E-04  0.113E-02    0.00       1.0  T
  25   -431.8522102  0.102222E-03  0.137E-02    0.00       1.0  T
  26   -431.8522613 -0.510843E-04  0.123E-02    0.00       1.0  T
  27   -431.8523179 -0.565946E-04  0.104E-02    0.00       1.0  T
  28   -431.8523300 -0.120995E-04  0.983E-03    0.00       1.0  T
  29   -431.8523403 -0.103156E-04  0.909E-03    0.00       1.0  T
  30   -431.8524068 -0.665305E-04  0.563E-03    0.00       1.2  T
  31   -431.8524144 -0.762387E-05  0.480E-03    0.00       1.4  T
  32   -431.8524250 -0.105434E-04  0.378E-03    0.00       1.7  T
  33   -431.8524367 -0.116638E-04  0.220E-03    0.00       3.0  T
  34   -431.8524392 -0.252610E-05  0.159E-03    0.00       4.1  T
  35   -431.8524410 -0.179302E-05  0.120E-03    0.00       5.5  T
  36   -431.8524424 -0.138613E-05  0.572E-04    0.00      11.5  T
  37   -431.8524426 -0.201754E-06  0.382E-04    0.00      17.2  T
  38   -431.8524427 -0.922705E-07  0.178E-04    0.00      37.0  T
     SCC iter.                  ...        0 min,  6.257 sec
     gradient                   ...        0 min,  0.388 sec
 * total energy  :  -424.4779457 Eh     change       -0.3693305E-01 Eh
   gradient norm :     0.0895078 Eh/α   predicted     0.0000000E+00 (-100.00%)
   displ. norm   :     0.6816234 α      lambda       -0.3120676E-01
   maximum displ.:     0.2647077 α      in ANC's #37, #34, #52, ...

........................................................................
.............................. CYCLE   22 ..............................
........................................................................
   1   -431.8096827 -0.431810E+03  0.222E-01    0.00       0.0  T
   2   -430.5026372  0.130705E+01  0.116E+00    0.05       1.0  T
   3   -431.0002648 -0.497628E+00  0.826E-01    0.03       1.0  T
   4   -431.3858842 -0.385619E+00  0.664E-01    0.01       1.0  T
   5   -431.4656315 -0.797473E-01  0.537E-01    0.01       1.0  T
   6   -431.2629749  0.202657E+00  0.647E-01    0.04       1.0  T
[...]
 161:  0.00 162:  0.00 163:  0.00 164:  0.00 165:  0.00 166:  0.00 167:  0.00 168:  0.00
 169:  0.00 170:  0.00 171:  0.00 172:  0.00 173:  0.00 174:  0.00 175:  0.00 176:  0.00
 177:  0.00 178:  0.00 179:  0.00 180:  0.00 181:  0.00 182:  0.00 183:  0.00 184:  0.00
 185:  0.00 186:  0.00 187:  0.00 188:  0.00 189:  0.00 190:  0.00 191:  0.00 192:  0.00
 193:  0.00 194:  0.00 195:  0.00 196:  0.00 197:  0.00 198:  0.00 199:  0.00 200:  0.00
 201:  0.00 202:  0.00 203:  0.00 204:  0.00 205:  0.00 206:  0.00 207:  0.00 208:  0.00
 209:  0.00 210:  0.00 211:  0.00 212:  0.00 213:  0.00 214:  0.00 215:  0.00 216:  0.00
 217:  0.00 218:  0.00 219:  0.00 220:  0.00 221:  0.00 222:  0.00 223:  0.00 224:  0.00
 225:  0.00 226:  0.00 227:  0.00 228:  0.00 229:  0.00 230:  0.00 231:  0.00 232:  0.00
 233:  0.00 234:  0.00 235:  0.00 236:  0.00 237:  0.00 238:  0.00 239:  0.00 240:  0.00
 241:  0.00 242:  0.00 243:  0.00 244:  0.00 245:  0.00 246:  0.00 247:  0.00 248:  0.00
 249:  0.00 250:  0.00 251:  0.00 252:  0.00 253:  0.00 254:  0.00 255:  0.00 256:  0.00
 257:  0.00 258:  0.00 259:  0.00 260:  0.00 261:  0.00 262:  0.00 263:  0.00 264:  0.00
 265:  0.00 266:  0.00 267:  0.00 268:  0.00 269:  0.00 270:  0.00 271:  0.00 272:  0.00
 273:  0.00 274:  0.00 275:  0.00 276:  0.00 277:  0.00 278:  0.00 279:  0.00 280:  0.00
 281:  0.00 282:  0.00 283:  0.00 284:  0.00 285:  0.00 286:  0.00 287:  0.00 288:  0.00
 289:  0.00 290:  0.00 291:  0.00 292:  0.00 293:  0.00 294:  0.00 295:  0.00 296:  0.00
 297:  0.00 298:  0.00 299:  0.00 300:  0.00 301:  0.00 302:  0.00 303:  0.00 304:  0.00
 305:  0.00 306:  0.00 307:  0.00 308:  0.00 309:  0.00 310:  0.00 311:  0.00 312:  0.00
 313:  0.00 314:  0.00 315:  0.00 316:  0.00 317:  0.00 318:  0.00 319:  0.00 320:  0.00
 321:  0.00 322:  0.00 323:  0.00 324:  0.00 325:  0.00 326:  0.00 327:  0.00 328:  0.00
 329:  0.00 330:  0.00 331:  0.00 332:  0.00 333:  0.00 334:  0.00 335:  0.00 336:  0.00
 337:  0.00 338:  0.00 339:  0.00 340:  0.00 341:  0.00 342:  0.00 343:  0.00 344:  0.00
 345:  0.00 346:  0.00 347:  0.00 348:  0.00 349:  0.00 350:  0.00 351:  0.00 352:  0.00
 353:  0.00 354:  0.00 355:  0.00 356:  0.00 357:  0.00 358:  0.00 359:  0.00 360:  0.00
 361:  0.00 362:  0.00 363:  0.00 364:  0.00 365:  0.00 366:  0.00 367:  0.00 368:  0.00
 369:  0.00 370:  0.00 371:  0.00 372:  0.00 373:  0.00 374:  0.00 375:  0.00 376:  0.00
 377:  0.00 378:  0.00 379:  0.00 380:  0.00 381:  0.00 382:  0.00 383:  0.00 384:  0.00
 385:  0.00 386:  0.00 387:  0.00 388:  0.00 389:  0.00 390:  0.00 391:  0.00 392:  0.00
 393:  0.00 394:  0.00 395:  0.00 396:  0.00 397:  0.00 398:  0.00 399:  0.00 400:  0.00
 401:  0.00 402:  0.00 403:  0.00 404:  0.00 405:  0.00 406:  0.00 407:  0.00 408:  0.00
 409:  0.00 410:  0.00 411:  0.00 412:  0.00 413:  0.00 414:  0.00 415:  0.00 416:  0.00
 417:  0.00 418:  0.00 419:  0.00 420:  0.00 421:  0.00 422:  0.00 423:  0.00 424:  0.00
 425:  0.00 426:  0.00 427:  0.00 428:  0.00 429:  0.00 430:  0.00 431:  0.00 432:  0.00
 433:  0.00 434:  0.00 435:  0.00 436:  0.00 437:  0.00 438:  0.00 439:  0.00 440:  0.00
 441:  0.00 442:  0.00 443:  0.00 444:  0.00 445:  0.00 446:  0.00 447:  0.00 448:  0.00
 449:  0.00 450:  0.00 451:  0.00 452:  0.00 453:  0.00 454:  0.00 455:  0.00 456:  0.00
 457:  0.00 458:  0.00 459:  0.00 460:  0.00 461:  0.00 462:  0.00 463:  0.00 464:  0.00
 465:  0.00 466:  0.00 467:  0.00 468:  0.00 469:  0.00 470:  0.00 471:  0.00 472:  0.00
 473:  0.00 474:  0.00 475:  0.00 476:  0.00 477:  0.00 478:  0.00 479:  0.00 480:  0.00
 481:  0.00 482:  0.00 483:  0.00 484:  0.00 485:  0.00 486:  0.00 487:  0.00 488:  0.00
 489:  0.00 490:  0.00 491:  0.00 492:  0.00 493:  0.00 494:  0.00 495:  0.00 496:  0.00
 497:  0.00 498:  0.00 499:  0.00 500:  0.00 501:  0.00 502:  0.00 503:  0.00 504:  0.00
 505:  0.00 506:  0.00 507:  0.00 508:  0.00 509:  0.00 510:  0.00 511:  0.00 512:  0.00
 513:  0.00 514:  0.00 515:  0.00 516:  0.00 517:  0.00 518:  0.00 519:  0.00 520:  0.00
 521:  0.00 522:  0.00 523:  0.00 524:  0.00 525:  0.00 526:  0.00 527:  0.00 528:  0.00
 529:  0.00 530:  0.00 531:  0.00 532:  0.00 533:  0.00 534:  0.00 535:  0.00 536:  0.00
 537:  0.00 538:  0.00 539:  0.00 540:  0.00 541:  0.00 542:  0.00 543:  0.00 544:  0.00
 545:  0.00 546:  0.00 547:  0.00 548:  0.00 549:  0.00 550:  0.00 551:  0.00 552:  0.00
 553:  0.00 554:  0.00 555:  0.00 556:  0.00 557:  0.00 558:  0.00 559:  0.00 560:  0.00
 561:  0.00 562:  0.00 563:  0.00 564:  0.00 565:  0.00 566:  0.00 567:  0.00 568:  0.00
 569:  0.00 570:  0.00 571:  0.00 572:  0.00 573:  0.00 574:  0.00 575:  0.00 576:  0.00
 577:  0.00 578:  0.00 579:  0.00 580:  0.00 581:  0.00 582:  0.00 583:  0.00 584:  0.00
 585:  0.00 586:  0.00 587:  0.00 588:  0.00 589:  0.00 590:  0.00 591:  0.00 592:  0.00
 593:  0.00 594:  0.00 595:  0.00 596:  0.00 597:  0.00 598:  0.00 599:  0.00 600:  0.00
 601:  0.00 602:  0.00 603:  0.00 604:  0.00 605:  0.00 606:  0.00 607:  0.00 608:  0.00
 609:  0.00 610:  0.00 611:  0.00 612:  0.00 613:  0.00 614:  0.00 615:  0.00 616:  0.00
 617:  0.00 618:  0.00 619:  0.00 620:  0.00 621:  0.00 622:  0.00 623:  0.00 624:  0.00
 625:  0.00 626:  0.00 627:  0.00 628:  0.00 629:  0.00 630:  0.00 631:  0.00 632:  0.00
 633:  0.00 634:  0.00 635:  0.00 636:  0.00 637:  0.00 638:  0.00 639:  0.00 640:  0.00
 641:  0.00 642:  0.00 643:  0.00 644:  0.00 645:  0.00 646:  0.00 647:  0.00 648:  0.00
 649:  0.00 650:  0.00 651:  0.00 652:  0.00 653:  0.00 654:  0.00 655:  0.00 656:  0.00
 657:  0.00 658:  0.00 659:  0.00 660:  0.00 661:  0.00 662:  0.00 663:  0.00 664:  0.00
 665:  0.00 666:  0.00 667:  0.00 668:  0.00 669:  0.00 670:  0.00 671:  0.00 672:  0.00
 673:  0.00 674:  0.00 675:  0.00 676:  0.00 677:  0.00 678:  0.00 679:  0.00 680:  0.00
 681:  0.00 682:  0.00 683:  0.00 684:  0.00 685:  0.00 686:  0.00 687:  0.00 688:  0.00
 689:  0.00 690:  0.00 691:  0.00 692:  0.00 693:  0.00 694:  0.00 695:  0.00 696:  0.00
 output can be read by thermo (or use thermo option).
 writing <g98.out> molden fake output.
 recommended (thermochemical) frequency scaling factor: 1.0
           -------------------------------------------------
          |             Thermodynamic Functions             |
           -------------------------------------------------
 symmetry recognition skipped because # atoms >         200
 inverting freq            1   9.4444580354379024     
 inverting freq            2   4.8060223845086290     
 inverting freq            3   3.4098924636247245     

          ...................................................
          :                      SETUP                      :
          :.................................................:
          :  # frequencies                         688      :
          :  # imaginary freq.                       0      :
          :  linear?                             false      :
          :  only rotor calc.                    false      :
          :  symmetry                               C1      :
          :  rotational number                       1      :
          :  scaling factor                  1.0000000      :
          :  rotor cutoff                   50.0000000 cm⁻¹ :
          :  imag. cutoff                  -20.0000000 cm⁻¹ :
          :.................................................:

    mode    ω/cm⁻¹     T·S(HO)/kcal·mol⁻¹    T·S(FR)/kcal·mol⁻¹   T·S(vib)
   ------------------------------------------------------------------------
       1      9.44    -2.42235 (  0.13%)    -1.55027 ( 99.87%)    -1.55137
       2      4.81    -2.82257 (  0.01%)    -1.75039 ( 99.99%)    -1.75049
       3      3.41    -3.02590 (  0.00%)    -1.85206 (100.00%)    -1.85209
       4      1.10    -3.69714 (  0.00%)    -2.18768 (100.00%)    -2.18768
       5      2.01    -3.33814 (  0.00%)    -2.00818 (100.00%)    -2.00819
       6      2.41    -3.23187 (  0.00%)    -1.95505 (100.00%)    -1.95506
       7      2.90    -3.12235 (  0.00%)    -1.90029 (100.00%)    -1.90030
       8      4.20    -2.90174 (  0.01%)    -1.78998 ( 99.99%)    -1.79004
       9      4.32    -2.88556 (  0.01%)    -1.78189 ( 99.99%)    -1.78195
      10      4.79    -2.82398 (  0.01%)    -1.75110 ( 99.99%)    -1.75119
      11      7.19    -2.58421 (  0.04%)    -1.63121 ( 99.96%)    -1.63162
      12      9.41    -2.42457 (  0.13%)    -1.55138 ( 99.87%)    -1.55247
      13      9.54    -2.41622 (  0.13%)    -1.54720 ( 99.87%)    -1.54835
      14     10.25    -2.37401 (  0.18%)    -1.52609 ( 99.82%)    -1.52758
      15     14.04    -2.18744 (  0.62%)    -1.43278 ( 99.38%)    -1.43744
      16     17.98    -2.04088 (  1.65%)    -1.35946 ( 98.35%)    -1.37068
      17     21.04    -1.94810 (  3.04%)    -1.31304 ( 96.96%)    -1.33233
      18     22.34    -1.91236 (  3.84%)    -1.29515 ( 96.16%)    -1.31883
      19     23.42    -1.88453 (  4.59%)    -1.28123 ( 95.41%)    -1.30893
      20     27.32    -1.79334 (  8.19%)    -1.23557 ( 91.81%)    -1.28123
      21     28.62    -1.76579 (  9.70%)    -1.22178 ( 90.30%)    -1.27455
      22     33.29    -1.67655 ( 16.42%)    -1.17707 ( 83.58%)    -1.25908
      23     34.52    -1.65505 ( 18.51%)    -1.16630 ( 81.49%)    -1.25679
      24     36.58    -1.62082 ( 22.27%)    -1.14914 ( 77.73%)    -1.25417
      25     37.19    -1.61098 ( 23.44%)    -1.14421 ( 76.56%)    -1.25362
      26     37.56    -1.60512 ( 24.16%)    -1.14127 ( 75.84%)    -1.25334
      27     37.70    -1.60297 ( 24.43%)    -1.14020 ( 75.57%)    -1.25324
      28     38.57    -1.58947 ( 26.15%)    -1.13342 ( 73.85%)    -1.25270
      29     38.61    -1.58891 ( 26.23%)    -1.13315 ( 73.77%)    -1.25268
      30     38.96    -1.58350 ( 26.94%)    -1.13043 ( 73.06%)    -1.25250
      31     40.08    -1.56675 ( 29.23%)    -1.12203 ( 70.77%)    -1.25203
      32     42.62    -1.53052 ( 34.55%)    -1.10386 ( 65.45%)    -1.25128
      33     43.08    -1.52417 ( 35.53%)    -1.10067 ( 64.47%)    -1.25115
      34     46.49    -1.47925 ( 42.77%)    -1.07812 ( 57.23%)    -1.24968
      35     53.26    -1.39906 ( 56.29%)    -1.03783 ( 43.71%)    -1.24115
      36     59.94    -1.32952 ( 67.37%)    -1.00285 ( 32.63%)    -1.22294
      37     64.94    -1.28234 ( 74.00%)    -0.97908 ( 26.00%)    -1.20350
      38     65.63    -1.27620 ( 74.80%)    -0.97598 ( 25.20%)    -1.20054
      39     80.70    -1.15495 ( 87.16%)    -0.91473 ( 12.84%)    -1.12410
      40     81.87    -1.14651 ( 87.79%)    -0.91045 ( 12.21%)    -1.11769
      41     82.31    -1.14338 ( 88.02%)    -0.90887 ( 11.98%)    -1.11528
      42     82.51    -1.14196 ( 88.12%)    -0.90815 ( 11.88%)    -1.11418
      43     82.56    -1.14164 ( 88.14%)    -0.90799 ( 11.86%)    -1.11394
      44     86.46    -1.11468 ( 89.94%)    -0.89432 ( 10.06%)    -1.09251
      45     87.30    -1.10899 ( 90.29%)    -0.89143 (  9.71%)    -1.08786
      46     87.98    -1.10447 ( 90.56%)    -0.88914 (  9.44%)    -1.08413
      47     94.24    -1.06439 ( 92.66%)    -0.86877 (  7.34%)    -1.05003
      48    102.16    -1.01749 ( 94.57%)    -0.84488 (  5.43%)    -1.00812
      49    110.36    -0.97274 ( 95.96%)    -0.82201 (  4.04%)    -0.96664
      50    110.47    -0.97217 ( 95.97%)    -0.82172 (  4.03%)    -0.96611
      51    115.40    -0.94693 ( 96.60%)    -0.80878 (  3.40%)    -0.94222
      52    115.86    -0.94464 ( 96.65%)    -0.80761 (  3.35%)    -0.94005
      53    116.26    -0.94264 ( 96.69%)    -0.80658 (  3.31%)    -0.93814
      54    116.33    -0.94227 ( 96.70%)    -0.80639 (  3.30%)    -0.93779
      55    117.96    -0.93425 ( 96.87%)    -0.80228 (  3.13%)    -0.93013
      56    120.84    -0.92036 ( 97.15%)    -0.79514 (  2.85%)    -0.91680
      57    120.98    -0.91967 ( 97.17%)    -0.79478 (  2.83%)    -0.91613
      58    121.99    -0.91491 ( 97.26%)    -0.79233 (  2.74%)    -0.91154
      59    134.92    -0.85708 ( 98.15%)    -0.76248 (  1.85%)    -0.85533
      60    137.62    -0.84575 ( 98.29%)    -0.75661 (  1.71%)    -0.84423
      61    139.63    -0.83747 ( 98.38%)    -0.75231 (  1.62%)    -0.83609
      62    143.11    -0.82343 ( 98.53%)    -0.74502 (  1.47%)    -0.82228
      63    143.66    -0.82128 ( 98.55%)    -0.74390 (  1.45%)    -0.82016
      64    145.19    -0.81526 ( 98.61%)    -0.74076 (  1.39%)    -0.81422
      65    145.85    -0.81268 ( 98.64%)    -0.73942 (  1.36%)    -0.81168
      66    146.39    -0.81056 ( 98.66%)    -0.73831 (  1.34%)    -0.80959
      67    148.67    -0.80178 ( 98.74%)    -0.73374 (  1.26%)    -0.80092
      68    151.22    -0.79214 ( 98.82%)    -0.72870 (  1.18%)    -0.79139
      69    153.04    -0.78537 ( 98.87%)    -0.72516 (  1.13%)    -0.78469
      70    156.43    -0.77297 ( 98.97%)    -0.71867 (  1.03%)    -0.77241
      71    165.85    -0.74001 ( 99.18%)    -0.70134 (  0.82%)    -0.73969
      72    165.93    -0.73973 ( 99.18%)    -0.70119 (  0.82%)    -0.73941
      73    167.12    -0.73572 ( 99.21%)    -0.69908 (  0.79%)    -0.73542
      74    167.54    -0.73433 ( 99.21%)    -0.69834 (  0.79%)    -0.73405
      75    168.10    -0.73245 ( 99.22%)    -0.69735 (  0.78%)    -0.73217
      76    168.72    -0.73038 ( 99.23%)    -0.69626 (  0.77%)    -0.73012
      77    178.06    -0.70025 ( 99.38%)    -0.68029 (  0.62%)    -0.70013
      78    181.72    -0.68892 ( 99.43%)    -0.67427 (  0.57%)    -0.68884
      79    183.64    -0.68309 ( 99.45%)    -0.67116 (  0.55%)    -0.68303
      80    184.01    -0.68197 ( 99.46%)    -0.67056 (  0.54%)    -0.68191
      81    184.36    -0.68092 ( 99.46%)    -0.67000 (  0.54%)    -0.68086
      82    184.67    -0.67997 ( 99.47%)    -0.66949 (  0.53%)    -0.67991
      83    184.91    -0.67927 ( 99.47%)    -0.66912 (  0.53%)    -0.67922
      84    190.87    -0.66171 ( 99.53%)    -0.65972 (  0.47%)    -0.66170
      85    191.55    -0.65974 ( 99.54%)    -0.65866 (  0.46%)    -0.65974
      86    194.40    -0.65159 ( 99.56%)    -0.65428 (  0.44%)    -0.65160
      87    197.54    -0.64278 ( 99.59%)    -0.64954 (  0.41%)    -0.64281
      88    198.02    -0.64143 ( 99.60%)    -0.64881 (  0.40%)    -0.64146
      89    201.02    -0.63318 ( 99.62%)    -0.64436 (  0.38%)    -0.63322
      90    203.18    -0.62734 ( 99.63%)    -0.64120 (  0.37%)    -0.62739
      91    203.38    -0.62681 ( 99.64%)    -0.64091 (  0.36%)    -0.62686
      92    203.92    -0.62534 ( 99.64%)    -0.64012 (  0.36%)    -0.62539
      93    203.95    -0.62526 ( 99.64%)    -0.64007 (  0.36%)    -0.62531
      94    206.25    -0.61915 ( 99.66%)    -0.63676 (  0.34%)    -0.61921
      95    206.28    -0.61907 ( 99.66%)    -0.63672 (  0.34%)    -0.61913
      96    208.93    -0.61210 ( 99.67%)    -0.63293 (  0.33%)    -0.61217
      97    209.17    -0.61147 ( 99.67%)    -0.63259 (  0.33%)    -0.61153
      98    210.24    -0.60870 ( 99.68%)    -0.63108 (  0.32%)    -0.60877
      99    211.49    -0.60547 ( 99.69%)    -0.62932 (  0.31%)    -0.60555
     100    212.32    -0.60335 ( 99.69%)    -0.62817 (  0.31%)    -0.60343
     101    213.70    -0.59982 ( 99.70%)    -0.62624 (  0.30%)    -0.59990
     102    215.71    -0.59475 ( 99.71%)    -0.62347 (  0.29%)    -0.59483
     103    215.93    -0.59420 ( 99.71%)    -0.62317 (  0.29%)    -0.59428
     104    216.84    -0.59193 ( 99.72%)    -0.62193 (  0.28%)    -0.59202
     105    217.15    -0.59115 ( 99.72%)    -0.62150 (  0.28%)    -0.59123
     106    217.43    -0.59044 ( 99.72%)    -0.62111 (  0.28%)    -0.59053
     107    218.19    -0.58858 ( 99.72%)    -0.62009 (  0.28%)    -0.58866
     108    218.47    -0.58788 ( 99.73%)    -0.61971 (  0.27%)    -0.58797
     109    219.41    -0.58555 ( 99.73%)    -0.61843 (  0.27%)    -0.58564
     110    220.75    -0.58226 ( 99.74%)    -0.61662 (  0.26%)    -0.58235
     111    220.80    -0.58214 ( 99.74%)    -0.61656 (  0.26%)    -0.58223
     112    228.15    -0.56454 ( 99.77%)    -0.60687 (  0.23%)    -0.56464
     113    229.50    -0.56138 ( 99.78%)    -0.60512 (  0.22%)    -0.56148
     114    233.10    -0.55304 ( 99.79%)    -0.60050 (  0.21%)    -0.55314
     115    240.07    -0.53738 ( 99.81%)    -0.59178 (  0.19%)    -0.53748
     116    254.02    -0.50760 ( 99.85%)    -0.57504 (  0.15%)    -0.50770
     117    259.02    -0.49742 ( 99.86%)    -0.56927 (  0.14%)    -0.49752
     118    259.06    -0.49734 ( 99.86%)    -0.56922 (  0.14%)    -0.49744
     119    259.28    -0.49690 ( 99.86%)    -0.56897 (  0.14%)    -0.49700
     120    259.45    -0.49656 ( 99.86%)    -0.56878 (  0.14%)    -0.49666
     121    259.60    -0.49625 ( 99.86%)    -0.56860 (  0.14%)    -0.49635
     122    259.75    -0.49596 ( 99.86%)    -0.56844 (  0.14%)    -0.49606
     123    259.78    -0.49589 ( 99.86%)    -0.56839 (  0.14%)    -0.49599
     124    264.73    -0.48609 ( 99.87%)    -0.56280 (  0.13%)    -0.48618
     125    272.73    -0.47073 ( 99.89%)    -0.55399 (  0.11%)    -0.47083
     126    281.89    -0.45384 ( 99.90%)    -0.54420 (  0.10%)    -0.45393
     127    291.24    -0.43731 ( 99.91%)    -0.53454 (  0.09%)    -0.43740
   ------------------------------------------------------------------------

   temp. (K)  partition function   enthalpy   heat capacity  entropy
                                   cal/mol     cal/K/mol   cal/K/mol   J/K/mol
 298.15  VIB  0.781E+75            85175.189    540.028    546.084
         ROT  0.103E+11              888.752      2.981     48.800
         INT  0.805E+85            86063.942    543.009    594.884
         TR   0.118E+30             1481.254      4.968     49.244
         TOT                       87545.1957   547.9775   644.1284  2695.0331

       T/K    H(0)-H(T)+PV         H(T)/Eh          T*S/Eh         G(T)/Eh
   ------------------------------------------------------------------------
    298.15    0.139512E+00    0.172153E+01    0.306046E+00    0.141548E+01
   ------------------------------------------------------------------------

         :::::::::::::::::::::::::::::::::::::::::::::::::::::
         ::                  THERMODYNAMIC                  ::
         :::::::::::::::::::::::::::::::::::::::::::::::::::::
         :: total free energy        -423.456902599273 Eh   ::
         ::.................................................::
         :: total energy             -424.872382294225 Eh   ::
         :: zero point energy           1.582013713550 Eh   ::
         :: G(RRHO) w/o ZPVE           -0.166534018598 Eh   ::
         :: G(RRHO) contrib.            1.415479694952 Eh   ::
         :::::::::::::::::::::::::::::::::::::::::::::::::::::
imag cut-off (cm-1) :    5.00
 found            1  significant imaginary frequency
 writing imag mode distorted coords to xtbhess.xyz
 for further optimization.

optimized geometry written to: xtbopt.xyz


           -------------------------------------------------
          | TOTAL ENERGY             -424.872382294225 Eh   |
          | TOTAL ENTHALPY           -423.150856431057 Eh   |
          | TOTAL FREE ENERGY        -423.456902599273 Eh   |
          | GRADIENT NORM               0.000278919707 Eh/α |
          | HOMO-LUMO GAP               0.000081984418 eV   |
           -------------------------------------------------

------------------------------------------------------------------------
 * finished run on 2021/11/20 at 04:14:32.603     
------------------------------------------------------------------------
 total:
 * wall-time:     0 d,  1 h,  7 min, 50.551 sec
 *  cpu-time:     0 d,  1 h,  7 min, 50.594 sec
 * ratio c/w:     1.000 speedup
 SCF:
 * wall-time:     0 d,  0 h,  0 min,  9.367 sec
 *  cpu-time:     0 d,  0 h,  0 min,  9.367 sec
 * ratio c/w:     1.000 speedup
 ANC optimizer:
 * wall-time:     0 d,  0 h,  6 min, 53.231 sec
 *  cpu-time:     0 d,  0 h,  6 min, 53.228 sec
 * ratio c/w:     1.000 speedup
 analytical hessian:
 * wall-time:     0 d,  1 h,  0 min, 47.631 sec
 *  cpu-time:     0 d,  1 h,  0 min, 47.676 sec
 * ratio c/w:     1.000 speedup

