232
 energy: -423.318976840793 gnorm: 0.926789622656 xtb: 6.4.1 (bd6e46d)
Cu       34.82588100000000    0.04286800000000   -0.01312800000000
C        37.15487200000000   -3.10392600000000    1.30956100000000
C        38.07097900000000   -2.15971800000000    1.25927900000000
C        37.65980000000000   -1.10581400000000    0.33798700000000
C        38.27867000000000    0.01853200000000   -0.00842300000000
C        37.57462800000000    1.23848000000000   -0.37252800000000
C        37.90273900000000    2.19853500000000   -1.22000200000000
C        36.86795900000000    3.21482100000000   -1.23689900000000
C        35.93169100000001    2.83835900000000   -0.39000800000000
N        36.33368100000000    1.60534800000000    0.17380900000000
C        34.67061700000000    3.48335800000000   -0.01085600000000
C        33.57539900000000    2.84857500000000    0.33990400000000
C        32.50177400000000    3.16653100000000    1.30893200000000
C        31.66421100000000    2.16977700000000    1.23176600000000
C        32.10250800000000    1.16609400000000    0.25131400000000
N        33.20744700000000    1.60494700000000   -0.23297800000000
C        31.49167400000000   -0.08717700000000   -0.16223400000000
C        32.15583400000000   -1.19168300000000   -0.41665800000000
C        31.78198500000000   -2.25462500000000   -1.37418600000000
C        32.73073300000000   -3.14838000000000   -1.28516600000000
C        33.71645700000000   -2.71093100000000   -0.30228900000000
N        33.36341100000000   -1.56512600000000    0.19450800000000
C        34.94734400000000   -3.36700100000000    0.14343200000000
C        36.07038600000000   -2.72114000000000    0.41055300000000
N        36.39898600000001   -1.47369900000000   -0.18785000000000
H        37.21513400000001   -4.01370600000000    1.92710800000000
H        38.98730700000000   -2.19966700000000    1.83732700000000
H        38.83010400000000    2.21533100000000   -1.82114500000000
H        36.88485800000000    4.11950900000000   -1.84952100000000
H        34.62289400000000    4.57816100000000   -0.01463300000000
H        32.44895200000000    4.04525600000000    1.93392500000000
H        30.75258100000000    2.13410800000000    1.84909000000000
H        30.39342300000000   -0.08426600000000   -0.26150500000000
H        30.91313000000000   -2.30709000000000   -2.02313600000000
H        32.72788700000000   -4.06468900000000   -1.88392600000000
H        34.91186200000000   -4.46280300000000    0.25535700000000
Cu      104.76176300000002   -0.00450900000000   -0.01756100000000
C       102.43277200000001    2.84228300000000    1.86594400000000
C       101.51666500000002    1.92379400000000    1.64137100000000
C       101.92784500000000    1.05909700000000    0.54055600000000
C       101.30897400000001    0.01853200000000   -0.00842300000000
C       102.01301599999999   -1.11269300000000   -0.59252600000000
C       101.68490600000000   -1.89886400000000   -1.60339200000000
C       102.71968600000001   -2.89437400000000   -1.80853300000000
C       103.65595399999999   -2.68155700000000   -0.90650200000000
N       103.25396300000000   -1.57454600000000   -0.12373100000000
C       104.91702800000000   -3.38569800000000   -0.65358900000000
C       106.01224499999999   -2.82700600000000   -0.19115600000000
C       107.08587100000000   -3.31921100000000    0.70206600000000
C       107.92343400000000   -2.32544400000000    0.81115100000000
C       107.48513600000000   -1.15729500000000    0.03391600000000
N       106.38019800000001   -1.49868700000000   -0.52338300000000
C       108.09597100000001    0.15094000000000   -0.13995400000000
C       107.43181000000000    1.28347300000000   -0.18506000000000
C       107.80565900000001    2.50559900000000   -0.92877500000000
C       106.85691200000001    3.36732600000000   -0.67549600000000
C       105.87118800000000    2.75513200000000    0.20916700000000
N       106.22423400000000    1.53705300000000    0.48477700000000
C       104.64030000000000    3.31712600000000    0.76886200000000
C       103.51725900000000    2.63292100000000    0.91152900000000
N       103.18865800000000    1.51814600000000    0.09209500000000
H       102.37251000000002    3.62170800000000    2.64154800000000
H       100.60033800000001    1.85581300000000    2.21679600000000
H       100.75754100000002   -1.80384800000000   -2.19721700000000
H       102.70278700000000   -3.66970800000000   -2.57835300000000
H       104.96475100000002   -4.46079600000000   -0.86040300000000
H       107.13869200000001   -4.29862800000000    1.15319300000000
H       108.83506400000000   -2.40491600000000    1.42437700000000
H       109.19422100000001    0.16649600000000   -0.23804100000000
H       108.67451500000001    2.67754300000000   -1.55672700000000
H       106.85975800000000    4.37880700000000   -1.09387400000000
H       104.67578200000000    4.37314200000000    1.08213100000000
C        41.17337400000000    0.01649600000000   -0.00953500000000
C        42.38135100000000    0.02395100000000   -0.00784000000000
C        43.80011900000000    0.02464800000000   -0.00270300000000
C        45.01563500000000    0.01649600000000   -0.00953500000000
C        54.52352500000001    0.01649600000000   -0.00953500000000
C        55.73150100000000    0.02395100000000   -0.00784000000000
C        57.15026900000000    0.02464800000000   -0.00270300000000
C        58.36578600000001    0.01649600000000   -0.00953500000000
C        67.87367500000001    0.01649600000000   -0.00953500000000
C        69.08165200000001    0.02395100000000   -0.00784000000000
C        70.50042000000001    0.02464800000000   -0.00270300000000
C        71.71593600000000    0.01649600000000   -0.00953500000000
C        81.22382500000001    0.01649600000000   -0.00953500000000
C        82.43180200000000    0.02395100000000   -0.00784000000000
C        83.85057000000000    0.02464800000000   -0.00270300000000
C        85.06608700000000    0.01649600000000   -0.00953500000000
C        94.57397600000002    0.01649600000000   -0.00953500000000
C        95.78195300000000    0.02395100000000   -0.00784000000000
C        97.20072100000000    0.02464800000000   -0.00270300000000
C        98.41623700000000    0.01649600000000   -0.00953500000000
Cu       49.80421700000001    0.03663200000000    0.00260400000000
C        47.52440600000001   -3.22481500000000   -0.90706200000000
C        46.56819700000000   -2.32546500000000   -1.00908800000000
C        46.96057100000000   -1.16316000000000   -0.20657200000000
C        46.32545400000000   -0.01188700000000    0.00569400000000
C        47.01091100000000    1.26271200000000    0.23192300000000
C        46.67562100000000    2.34131200000000    0.93616300000000
C        47.70016200000000    3.36062900000000    0.84558200000000
C        48.65076000000000    2.86370400000000    0.07221700000000
N        48.27376500000000    1.54709900000000   -0.34392600000000
C        49.89789900000000    3.47540600000000   -0.34464800000000
C        50.99945100000000    2.80814900000000   -0.67642000000000
C        51.99299700000001    3.06013300000000   -1.71059000000000
C        52.88688000000000    2.09927400000000   -1.60910600000000
C        52.50718200000001    1.18739000000000   -0.50512900000000
N        51.41226700000000    1.63670900000000    0.00223800000000
C        53.16438900000000   -0.01188700000000    0.00569400000000
C        52.54097800000001   -1.08106900000000    0.46721100000000
C        52.91969000000001   -2.01318500000000    1.54268600000000
C        51.97902200000000   -2.92733100000000    1.62855200000000
C        50.97072000000000   -2.63155200000000    0.63112500000000
N        51.30849500000000   -1.57817400000000   -0.01817000000000
C        49.71832700000001   -3.33855900000000    0.29993200000000
C        48.60445100000000   -2.74186300000000   -0.04741000000000
N        48.22233800000001   -1.45910500000000    0.37027300000000
H        47.52475000000000   -4.21588900000000   -1.39829600000000
H        45.65966200000000   -2.44715900000000   -1.59023600000000
H        45.75076900000000    2.45966400000000    1.51308900000000
H        47.72745700000000    4.34979300000000    1.30223200000000
H        49.98383900000001    4.57278400000000   -0.40667100000000
H        52.02567000000000    3.86634900000000   -2.43741400000000
H        53.77994200000001    1.98630600000000   -2.24288000000000
H        53.83444100000000   -1.93877800000000    2.15285600000000
H        51.99806800000000   -3.74093900000000    2.33682000000000
H        49.75681200000000   -4.43851800000000    0.35896800000000
Cu       63.15436700000001    0.03663200000000    0.00260400000000
C        60.87455600000000   -3.22481500000000   -0.90706200000000
C        59.91834700000000   -2.32546500000000   -1.00908800000000
C        60.31072100000000   -1.16316000000000   -0.20657200000000
C        59.67560500000000   -0.01188700000000    0.00569400000000
C        60.36106200000000    1.26271200000000    0.23192300000000
C        60.02577100000000    2.34131200000000    0.93616300000000
C        61.05031300000001    3.36062900000000    0.84558200000000
C        62.00091000000000    2.86370400000000    0.07221700000000
N        61.62391600000000    1.54709900000000   -0.34392600000000
C        63.24805000000001    3.47540600000000   -0.34464800000000
C        64.34960100000001    2.80814900000000   -0.67642000000000
C        65.34314800000000    3.06013300000000   -1.71059000000000
C        66.23703100000000    2.09927400000000   -1.60910600000000
C        65.85733300000000    1.18739000000000   -0.50512900000000
N        64.76241700000000    1.63670900000000    0.00223800000000
C        66.51454000000000   -0.01188700000000    0.00569400000000
C        65.89112799999999   -1.08106900000000    0.46721100000000
C        66.26984100000000   -2.01318500000000    1.54268600000000
C        65.32917200000000   -2.92733100000000    1.62855200000000
C        64.32087100000000   -2.63155200000000    0.63112500000000
N        64.65864600000000   -1.57817400000000   -0.01817000000000
C        63.06847800000000   -3.33855900000000    0.29993200000000
C        61.95460100000000   -2.74186300000000   -0.04741000000000
N        61.57248900000000   -1.45910500000000    0.37027300000000
H        60.87490100000000   -4.21588900000000   -1.39829600000000
H        59.00981300000001   -2.44715900000000   -1.59023600000000
H        59.10091900000000    2.45966400000000    1.51308900000000
H        61.07760700000000    4.34979300000000    1.30223200000000
H        63.33398900000001    4.57278400000000   -0.40667100000000
H        65.37582000000000    3.86634900000000   -2.43741400000000
H        67.13009200000000    1.98630600000000   -2.24288000000000
H        67.18459100000000   -1.93877800000000    2.15285600000000
H        65.34821900000000   -3.74093900000000    2.33682000000000
H        63.10696200000000   -4.43851800000000    0.35896800000000
Cu       76.50451700000001    0.03663200000000    0.00260400000000
C        74.22470700000000   -3.22481500000000   -0.90706200000000
C        73.26849700000000   -2.32546500000000   -1.00908800000000
C        73.66087200000000   -1.16316000000000   -0.20657200000000
C        73.02575500000000   -0.01188700000000    0.00569400000000
C        73.71121200000000    1.26271200000000    0.23192300000000
C        73.37592200000000    2.34131200000000    0.93616300000000
C        74.40046300000000    3.36062900000000    0.84558200000000
C        75.35106000000000    2.86370400000000    0.07221700000000
N        74.97406599999999    1.54709900000000   -0.34392600000000
C        76.59820000000001    3.47540600000000   -0.34464800000000
C        77.69975200000000    2.80814900000000   -0.67642000000000
C        78.69329800000001    3.06013300000000   -1.71059000000000
C        79.58718100000000    2.09927400000000   -1.60910600000000
C        79.20748300000000    1.18739000000000   -0.50512900000000
N        78.11256800000000    1.63670900000000    0.00223800000000
C        79.86469000000000   -0.01188700000000    0.00569400000000
C        79.24127900000001   -1.08106900000000    0.46721100000000
C        79.61999100000000   -2.01318500000000    1.54268600000000
C        78.67932300000000   -2.92733100000000    1.62855200000000
C        77.67102100000000   -2.63155200000000    0.63112500000000
N        78.00879600000000   -1.57817400000000   -0.01817000000000
C        76.41862800000000   -3.33855900000000    0.29993200000000
C        75.30475100000001   -2.74186300000000   -0.04741000000000
N        74.92263900000000   -1.45910500000000    0.37027300000000
H        74.22505099999999   -4.21588900000000   -1.39829600000000
H        72.35996299999999   -2.44715900000000   -1.59023600000000
H        72.45107000000000    2.45966400000000    1.51308900000000
H        74.42775800000000    4.34979300000000    1.30223200000000
H        76.68414000000000    4.57278400000000   -0.40667100000000
H        78.72597000000002    3.86634900000000   -2.43741400000000
H        80.48024300000000    1.98630600000000   -2.24288000000000
H        80.53474199999999   -1.93877800000000    2.15285600000000
H        78.69836900000000   -3.74093900000000    2.33682000000000
H        76.45711300000001   -4.43851800000000    0.35896800000000
Cu       89.85466800000000    0.03663200000000    0.00260400000000
C        87.57485699999999   -3.22481500000000   -0.90706200000000
C        86.61864799999999   -2.32546500000000   -1.00908800000000
C        87.01102200000000   -1.16316000000000   -0.20657200000000
C        86.37590500000000   -0.01188700000000    0.00569400000000
C        87.06136300000001    1.26271200000000    0.23192300000000
C        86.72607200000000    2.34131200000000    0.93616300000000
C        87.75061400000000    3.36062900000000    0.84558200000000
C        88.70121100000000    2.86370400000000    0.07221700000000
N        88.32421700000000    1.54709900000000   -0.34392600000000
C        89.94835000000000    3.47540600000000   -0.34464800000000
C        91.04990200000000    2.80814900000000   -0.67642000000000
C        92.04344900000001    3.06013300000000   -1.71059000000000
C        92.93733200000000    2.09927400000000   -1.60910600000000
C        92.55763400000001    1.18739000000000   -0.50512900000000
N        91.46271800000000    1.63670900000000    0.00223800000000
C        93.21484100000001   -0.01188700000000    0.00569400000000
C        92.59142900000001   -1.08106900000000    0.46721100000000
C        92.97014200000000   -2.01318500000000    1.54268600000000
C        92.02947300000000   -2.92733100000000    1.62855200000000
C        91.02117200000001   -2.63155200000000    0.63112500000000
N        91.35894700000001   -1.57817400000000   -0.01817000000000
C        89.76877899999999   -3.33855900000000    0.29993200000000
C        88.65490200000001   -2.74186300000000   -0.04741000000000
N        88.27279000000000   -1.45910500000000    0.37027300000000
H        87.57520200000000   -4.21588900000000   -1.39829600000000
H        85.71011300000001   -2.44715900000000   -1.59023600000000
H        85.80122000000000    2.45966400000000    1.51308900000000
H        87.77790800000000    4.34979300000000    1.30223200000000
H        90.03429000000000    4.57278400000000   -0.40667100000000
H        92.07612100000000    3.86634900000000   -2.43741400000000
H        93.83039300000000    1.98630600000000   -2.24288000000000
H        93.88489199999999   -1.93877800000000    2.15285600000000
H        92.04852000000001   -3.74093900000000    2.33682000000000
H        89.80726300000001   -4.43851800000000    0.35896800000000
232
 energy: -423.681501281978 gnorm: 0.527774591222 xtb: 6.4.1 (bd6e46d)
Cu       34.83531975427096    0.04215469623788   -0.01154460637246
C        37.15509348432698   -3.11330655640678    1.30159274517378
C        38.08339857707149   -2.15801635956684    1.25755666681992
C        37.65154888218615   -1.10729882625923    0.34532012481433
C        38.25892061311263    0.03694585274590   -0.01446031194320
C        37.56137867192523    1.23490866204452   -0.36244831766208
C        37.91416323738856    2.22537319250639   -1.23711087615045
C        36.89663933654106    3.21609735728937   -1.25107492786065
C        35.92479696983480    2.81519452135580   -0.38270086647381
N        36.30906728830153    1.58679785795627    0.17619712971282
C        34.68834029641067    3.48223152722827   -0.01105445599132
C        33.56488877818219    2.83407216588968    0.34049653408005
C        32.50321526906796    3.17479127533647    1.29345564148612
C        31.64118773075471    2.16154249951135    1.23673948061223
C        32.09765237766824    1.16797490740400    0.26590574596617
N        33.23880994713371    1.58557576255057   -0.21776809231987
C        31.48071352818824   -0.06726429192506   -0.15693619996713
C        32.15866974911975   -1.19591393894771   -0.42080693826080
C        31.77295064337277   -2.25416389386544   -1.36123442798070
C        32.73839999662779   -3.16742084365250   -1.28428622641534
C        33.72504762168651   -2.71915146763214   -0.30973934900815
N        33.37557376621631   -1.54301394909449    0.17113362999001
C        34.93061452440205   -3.37381085153484    0.13688792316913
C        36.07798442612210   -2.70805279077750    0.41043369136583
N        36.39311800436426   -1.46963799998565   -0.16151113546274
H        37.20791310564094   -4.00901742150973    1.91986876055433
H        38.99133354258215   -2.19119742818537    1.83464419036026
H        38.82744564197006    2.22247771055192   -1.82296397969370
H        36.89094604192834    4.11641049832511   -1.85050941296210
H        34.63679550621342    4.57423436371331   -0.00832128321486
H        32.45505232074770    4.04408121879727    1.92851603305925
H        30.74877942336066    2.12608698402218    1.84804386730814
H        30.39512179695544   -0.07703607534290   -0.26728941128223
H        30.91460961473502   -2.29885959658147   -2.01640599092661
H        32.73737033299981   -4.06804096235494   -1.88079396373527
H        34.90715089340404   -4.45895618437865    0.25769011093920
Cu      104.75232636194269   -0.00412785228704   -0.01584135673952
C       102.43258895715677    2.85292335944525    1.85991284735513
C       101.50416861898647    1.92251183208063    1.63930850575971
C       101.93577988566418    1.05943075318829    0.54788732671258
C       101.32794893530131    0.00139151717725   -0.01735424217230
C       102.02616608291483   -1.11095048424481   -0.58208594349500
C       101.67350203619064   -1.92203101555125   -1.62515498831622
C       102.69104972008142   -2.89307219060261   -1.82265245288274
C       103.66281612222500   -2.66023185724296   -0.89503339206300
N       103.27845228802370   -1.55661530466978   -0.11809147967085
C       104.89927788055802   -3.38455386392229   -0.65360516229575
C       106.02275863707838   -2.81283130346653   -0.18787362877602
C       107.08440870474081   -3.32442171269932    0.68535829333997
C       107.94650738546859   -2.31828818538029    0.81750008274374
C       107.49001670244559   -1.16182731596977    0.04789460182466
N       106.34879364062482   -1.48252188592679   -0.50480420463040
C       108.10692733126905    0.13034261344479   -0.13840412352823
C       107.42892889553006    1.28841819173396   -0.18835589177455
C       107.81464408412769    2.50272964313621   -0.91617664694300
C       106.84925948267140    3.38591238101037   -0.67104804314729
C       105.86260696919564    2.76461864304238    0.20340483884231
N       106.21213172352455    1.51962938098127    0.45769832286046
C       104.65705039733244    3.32499193782088    0.76365447716191
C       103.50967819671361    2.61992637802726    0.90909799711322
N       103.19447058965473    1.50922343109259    0.11722316338832
H       102.37974188174104    3.61843241682090    2.63356340117776
H       100.59629535963040    1.84802275644618    2.21261691161900
H       100.76018867096904   -1.81055158806806   -2.20032336880231
H       102.69671415630397   -3.66649393177616   -2.57875762156257
H       104.95086015808232   -4.45810435901319   -0.85351747603924
H       107.13258927987386   -4.29646310454062    1.14809766726266
H       108.83887142425503   -2.39683597202922    1.42483568012580
H       109.19252227154551    0.16045879594836   -0.24501405380957
H       108.67302312285319    2.66820521179487   -1.55164229968436
H       106.85026911631672    4.38152802205539   -1.09017101482978
H       104.68044847298322    4.36894339663656    1.08358538485509
C        41.16328116766405    0.01677821050707   -0.00780972162326
C        42.38990291126686    0.02410577220409   -0.00821686649066
C        43.77176706187158    0.02526755363640   -0.00269081396052
C        44.99317553212551    0.02412116343270   -0.01144774352978
C        54.53814873981614    0.02312790970238   -0.00685387045159
C        55.75577017722549    0.02449508231389   -0.00638205632273
C        57.12461691103665    0.02516040903359   -0.00316194788079
C        58.34362223982401    0.02396846916376   -0.01275067509245
C        67.88865403454108    0.02329182252940   -0.00642131843445
C        69.10540389715726    0.02449775491435   -0.00638108691865
C        70.47525707474222    0.02515088297515   -0.00324489933142
C        71.69347196839463    0.02397081411886   -0.01279774717557
C        81.23857264517450    0.02325806407638   -0.00650688277638
C        82.45582693043558    0.02450021540387   -0.00639066435927
C        83.82503339815572    0.02513922044536   -0.00320830980196
C        85.04376648372943    0.02392152492114   -0.01275602038929
C        94.59053267507734    0.02357273390878   -0.00632786254460
C        95.80924100392883    0.02441604548302   -0.00675119267550
C        97.19622831131721    0.02405200737033   -0.00305249922599
C        98.42120652810453    0.01595387815985   -0.00866244622251
Cu       49.79670746929485    0.03874084880294   -0.00022885219204
C        47.52614645007363   -3.24266706625823   -0.90122376500027
C        46.56342605049157   -2.32382973752955   -1.00277785402788
C        46.98855632033175   -1.17961067229005   -0.20891913686396
C        46.34121465567208    0.00729363912266    0.00552562177099
C        47.04000853107452    1.26665624678352    0.22779038407230
C        46.66725553321690    2.36673120212464    0.94726188871484
C        47.67675752234585    3.36209860463894    0.85342824384305
C        48.66119969032909    2.84349916384557    0.06707242217331
N        48.29876673672446    1.53343432848536   -0.33175395100639
C        49.88428946454655    3.47474051504390   -0.34585018240637
C        51.00793902978111    2.79645649249074   -0.67674855203405
C        51.99862012058399    3.06776811735969   -1.69917917521995
C        52.90568059363925    2.08751921102116   -1.60889677218050
C        52.50750290569102    1.18886475747385   -0.51942988619515
N        51.38012494344978    1.61900395380172   -0.01318626090292
C        53.16839594468892    0.00455898448727   -0.00290274551607
C        52.52492248186601   -1.09535981631259    0.47423764425414
C        52.93082537184059   -2.01112876161360    1.53386556621866
C        51.97466768168616   -2.94309872191901    1.62816022516262
C        50.96075689795857   -2.63912334025956    0.63938633867071
N        51.29311465715540   -1.54383410627006   -0.00697827477788
C        49.73785825750966   -3.34500183130277    0.30924298368892
C        48.59178879639482   -2.72958465685651   -0.05402730396722
N        48.23371119538532   -1.44711712759539    0.34204176922115
H        47.52921476229019   -4.21289298712223   -1.39483057245943
H        45.66059721212148   -2.43803244175203   -1.58600264688952
H        45.75055637586991    2.46319897107027    1.51405925596258
H        47.71787470070861    4.34452875465631    1.30420357684678
H        49.96868131917893    4.56695776322311   -0.41186014383592
H        52.01922975584718    3.86493952745720   -2.43023639395737
H        53.78026755506723    1.98050200584751   -2.23991921365884
H        53.82921297067443   -1.93412104779384    2.14528004606279
H        51.99143575535753   -3.74652439045067    2.33743816051221
H        49.76194964350567   -4.43578364335962    0.35676385028814
Cu       63.14632890664971    0.03877109623719    0.00001369322429
C        60.87535803233835   -3.24285759048103   -0.90123995594607
C        59.91324463102358   -2.32488824178302   -1.00232269124792
C        60.33840472848393   -1.17944348880263   -0.20728832834265
C        59.69227248016561    0.00644081554460    0.00516422798360
C        60.39071737969289    1.26731607558943    0.22722675290823
C        60.01781323796823    2.36683656330188    0.94760405620178
C        61.02671198724821    3.36261021075289    0.85318031510705
C        62.01140670884901    2.84379725178194    0.06695112723422
N        61.64781817548738    1.53375593894767   -0.33220614454421
C        63.23419827058071    3.47457905812494   -0.34537642020918
C        64.35836349310549    2.79614270928223   -0.67663828479081
C        65.34871218694603    3.06755455957957   -1.69946410323116
C        66.25601067881352    2.08761016127790   -1.60901563324389
C        65.85757938846712    1.18874923034501   -0.51974413706279
N        64.73056211877480    1.61951616463693   -0.01293120504464
C        66.51782913442926    0.00433706136605   -0.00270107588196
C        65.87543466490027   -1.09508942746130    0.47419313240080
C        66.28162002282605   -2.01160316385483    1.53380908563422
C        65.32497494580684   -2.94245503911738    1.62887177550911
C        64.31133153123801   -2.63817063989652    0.63945105932168
N        64.64333552920678   -1.54502045262374   -0.00730987930943
C        63.08738495101290   -3.34491274250842    0.30843664128740
C        61.94251225690420   -2.72940200028943   -0.05391104130446
N        61.58374213718319   -1.44762924467762    0.34229705799525
H        60.87923115192730   -4.21298218553086   -1.39498696107261
H        59.01071550028986   -2.43821936599295   -1.58621391294987
H        59.10064684026646    2.46331253355427    1.51409090538075
H        61.06801822742305    4.34472217216005    1.30430872698400
H        63.31884546175497    4.56690431482607   -0.41160862687871
H        65.36938118938099    3.86493854614865   -2.43028060607641
H        67.13049411236817    1.98052683720047   -2.24002534776413
H        67.17959661484025   -1.93418742355095    2.14538421110601
H        65.34166122366518   -3.74644645243505    2.33754650974452
H        63.11212030824677   -4.43572009558180    0.35614779906666
Cu       76.49657301404407    0.03866212541514   -0.00003529297510
C        74.22560333275624   -3.24263242110955   -0.90148228439256
C        73.26317019999166   -2.32494243979909   -1.00215887224779
C        73.68839403418258   -1.17920588913066   -0.20757310979729
C        73.04284349337021    0.00643419594578    0.00513098041588
C        73.74071337923228    1.26716764282128    0.22742534385431
C        73.36779846939056    2.36690663810571    0.94755603489533
C        74.37680788163729    3.36245630008618    0.85332500656340
C        75.36151903744823    2.84359595469855    0.06692129808974
N        74.99816800738870    1.53386162642224   -0.33216137358056
C        76.58439988649873    3.47455277452089   -0.34549058906910
C        77.70846421061169    2.79620356572852   -0.67668931886012
C        78.69893445664812    3.06766870435114   -1.69940988307510
C        79.60608499602917    2.08760358128581   -1.60907407230186
C        79.20767189122142    1.18894220000805   -0.51962127334701
N        78.08089730279734    1.61955916346485   -0.01292997183901
C        79.86827224861236    0.00433800687589   -0.00276788118224
C        79.22544243040721   -1.09529740202877    0.47407841579422
C        79.63151449832611   -2.01149142515509    1.53400058382095
C        78.67526573653278   -2.94279229347998    1.62861060399377
C        77.66140180895425   -2.63838098965287    0.63942367695661
N        77.99375718348112   -1.54485112916796   -0.00725921949656
C        76.43773487929889   -3.34483683430242    0.30872089838141
C        75.29260283683818   -2.72915816050813   -0.05394267897418
N        74.93418444396707   -1.44783906755581    0.34236857355304
H        74.22938408606802   -4.21293167104666   -1.39497821872194
H        72.36081464350164   -2.43823631313922   -1.58622869130081
H        72.45078564347318    2.46332741816765    1.51416814551535
H        74.41813488115696    4.34469457082293    1.30427643397805
H        76.66898142004710    4.56689171123041   -0.41167787119597
H        78.71954082785230    3.86496534973896   -2.43029117454063
H        80.48063459694625    1.98052731613914   -2.24000922315444
H        80.52968826374277   -1.93417507660594    2.14538192102426
H        78.69179829802790   -3.74648960530952    2.33755870706669
H        76.46225814399644   -4.43567480417272    0.35637434162044
Cu       89.84679875931678    0.03859039068172   -0.00017063170617
C        87.57571026723767   -3.24289806562104   -0.90094793031255
C        86.61373957353482   -2.32471922906622   -1.00227329690646
C        87.03868648820693   -1.17912103910203   -0.20749964051131
C        86.39248070339870    0.00643580762595    0.00516246237306
C        87.09061304597077    1.26724439834715    0.22767838797478
C        86.71798298780897    2.36642789802427    0.94737654956899
C        87.72738747155239    3.36238580191082    0.85317332501027
C        88.71189557136672    2.84385421339346    0.06725492261931
N        88.34877527759252    1.53356563222633   -0.33184114158678
C        89.93472684830525    3.47475512621967   -0.34553863438166
C        91.05865646586729    2.79660113348337   -0.67650220227546
C        92.04899178561138    3.06772668354495   -1.69917223273162
C        92.95606113873802    2.08738822001368   -1.60913069719090
C        92.55749883637161    1.18787964937619   -0.52058308607567
N        91.43065169076098    1.61856307024535   -0.01332344550462