232
 energy: -424.872382107077 gnorm: 0.000282694373 xtb: 6.4.1 (bd6e46d)
Cu       36.16561151773042    0.00665095232790   -0.01617920509795
C        38.67698639174495   -3.43009702675921    0.02730267460219
C        39.63394611370584   -2.47190231461418    0.01798262849807
C        38.95078825805955   -1.21034411038257    0.00258074467772
C        39.60357939927752    0.03106238362585   -0.01248863196439
C        38.93334440931912    1.26304943375174   -0.02972234123056
C        39.59860241352476    2.53412822622360   -0.04491198626872
C        38.62817952739759    3.47864847345192   -0.05749077775613
C        37.37331080284412    2.78251227252244   -0.04989422691408
N        37.59246945543774    1.43942786942539   -0.03313472012054
C        36.14000342660884    3.40901551072721   -0.05810225940345
C        34.91680537348814    2.76290649959780   -0.05042311536507
C        33.64709517402860    3.43711475816565   -0.05863429156131
C        32.69570034154137    2.47578532014676   -0.04712471351454
C        33.38305494528488    1.21301618998757   -0.03194700604333
N        34.72415859749239    1.41955998498620   -0.03422450297418
C        32.75015622007866   -0.01753925060141   -0.01773935293912
C        33.40037370114033   -1.23903162958984   -0.00351248537728
C        32.73094779716723   -2.51141506854099    0.01029766236415
C        33.69584611254169   -3.45919533037451    0.02149361586737
C        34.95588723458523   -2.76707201189225    0.01473797840381
N        34.74425869123615   -1.42657456552123   -0.00049151826420
C        36.18811377883195   -3.39576891805571    0.02320620377778
C        37.41240925555984   -2.75180706474583    0.01768875196463
N        37.61254851674590   -1.40572803885084    0.00275171546061
H        38.79702629854243   -4.49609504494208    0.03939109919428
H        40.70059474852098   -2.58596589722936    0.02054946443540
H        40.66354267994156    2.66325160765314   -0.04522101067998
H        38.73312158796023    4.54622624435166   -0.07050773301933
H        36.13269747019083    4.48941039434516   -0.07131716373188
H        33.52439348942142    4.50300305458239   -0.07146239561913
H        31.62852676811494    2.58728772590083   -0.04853102026043
H        31.66992949323421   -0.02517410281468   -0.01801115290741
H        31.66546061525175   -2.63802048865739    0.01096700748813
H        33.58823633809250   -4.52672495425012    0.03332976196364
H        36.19613500643565   -4.47617222541993    0.03531083522031
Cu      103.44751573600490    0.04099313183862   -0.01369728485762
C       100.94382459596943    3.44118666104654    0.52593648538169
C        99.98476966486692    2.49721083695917    0.37397873555505
C       100.66519767344805    1.24939271886447    0.17768056860598
C       100.00980676380907    0.02380524197724   -0.01100929863830
C       100.67708307800913   -1.19506685023468   -0.20116995001390
C       100.00881053243158   -2.44941208330146   -0.39755193809668
C       100.97699015550110   -3.38364384917070   -0.55187056436673
C       102.23350239818161   -2.69808480347186   -0.44896889833098
N       102.01755381025617   -1.37148418826626   -0.23537255096184
C       103.46533690612564   -3.31827897005091   -0.55681143183760
C       104.68996233664862   -2.68216085972775   -0.45989195330184
C       105.95817097294002   -3.34946300309730   -0.57459960479767
C       106.91169643700547   -2.40241978985815   -0.42183327179383
C       106.22715978432532   -1.15521702627769   -0.21395636783038
N       104.88560866823315   -1.35674549348260   -0.24310878281118
C       106.86281602495967    0.05765818097530   -0.01409826371469
C       106.21540233104440    1.26432951988724    0.18561610313237
C       106.88778102672794    2.51826801629963    0.39260872833871
C       105.92509023961993    3.45608977153369    0.54481330291622
C       104.66343904623888    2.77636002715877    0.43088882399753
N       104.87195936020774    1.45277065688506    0.21492476146830
C       103.43267992532451    3.40049708710961    0.52798683643598
C       102.20693876261988    2.76805775947444    0.42191985619511
N       102.00388341955271    1.43918724024148    0.20974054254532
H       100.82613386995531    4.49432121042030    0.69315170084227
H        98.91836578481715    2.61241003094098    0.39075341970458
H        98.94356815702594   -2.57515369205385   -0.41290688312852
H       100.86955388858424   -4.43773582806950   -0.71995156457076
H       103.47016212743208   -4.38476363605227   -0.73015845789636
H       106.07846797163941   -4.40144679903180   -0.74837187476887
H       107.97861228466840   -2.51417443648834   -0.44399211570755
H       107.94304951374740    0.06291705838096   -0.01416195240166
H       107.95355859947310    2.64043927737992    0.41451311709128
H       106.03514654212663    4.50932223681167    0.71781493908376
H       103.42711763344845    4.46713116021105    0.70039327747944
C        41.00099670048406    0.04053385002050   -0.01084627556783
C        42.21922765416739    0.04748901684278   -0.00910497742618
C        43.56082531441310    0.05302442371175   -0.00801883444550
C        44.77919788933330    0.05630825327871   -0.00793237625925
C        54.46066199973545    0.05937879644727   -0.01682913098360
C        55.67921344877490    0.05746772412300   -0.01873975711204
C        57.02023117968039    0.05599887052941   -0.02012761075709
C        58.23880258150875    0.05314459964845   -0.02077827186915
C        67.91819896907633    0.04466314382880   -0.02085423868152
C        69.13681538587895    0.04558982962826   -0.02090723834267
C        70.47774794221667    0.04536463093522   -0.02080221595009
C        71.69633096080422    0.04544219582209   -0.02042639853380
C        81.37529745242516    0.03332765529909   -0.02211304934746
C        82.59383263838541    0.02952677167901   -0.02349649864978
C        83.93482705034363    0.02643242958365   -0.02342271473990
C        85.15336593140400    0.02200487265191   -0.02317872074617
C        94.83403990118833    0.00958307499918   -0.00941666251579
C        96.05233636126113    0.01029930708851   -0.00873694629665
C        97.39404960302839    0.01324326961921   -0.00913162430088
C        98.61223068073905    0.01720426972575   -0.01003215096922
Cu       49.62027883905522    0.05875573699986   -0.00996968677826
C        47.13331551097870   -3.37766717821104    0.34669682725948
C        46.16748007797072   -2.43328996617762    0.24796475658728
C        46.83930912994789   -1.17234693754844    0.11785309482695
C        46.17595395308062    0.05776812994055   -0.00715113132932
C        46.83827278638835    1.28835562753877   -0.13244406640331
C        46.16552258543536    2.54896325032945   -0.26084221186657
C        47.13067301984886    3.49403042146804   -0.35983628059459
C        48.38904062554550    2.80801983855352   -0.29200732088078
N        48.17758847161038    1.47070664352630   -0.15364047558987
C        49.61886914069694    3.43703659211430   -0.36089167240137
C        50.84922161716813    2.80820588926038   -0.29929931687603
C        52.10703528615952    3.49431006363223   -0.37494802274190
C        53.07288623501552    2.54965144590500   -0.27830818832688
C        52.40103785994673    1.28925882491411   -0.14406994821183
N        51.06163734793932    1.47115540160327   -0.15972423422515
C        53.06436726291115    0.05942476997721   -0.01520233152184
C        52.40192128410054   -1.17068078176991    0.11602257874647
C        53.07472131085294   -2.43071369051677    0.24892826538063
C        52.10958676909025   -3.37572218616312    0.34911904849363
C        50.85127721881623   -2.69017820747169    0.27706782611701
N        51.06267924552335   -1.35311054274777    0.13610925178525
C        49.62138581366693   -3.31946010361788    0.34261044327958
C        48.39115701910045   -2.69101182327872    0.27606764857234
N        48.17874050978272   -1.35391271564590    0.13703513924662
H        47.02319395041581   -4.43909765293600    0.45699560366519
H        45.10190753658123   -2.55636032544302    0.26051586067167
H        45.09984572044106    2.67138898689586   -0.27161940573422
H        47.01975573853082    4.55551891433916   -0.46880410792044
H        49.61849790434221    4.51193838093087   -0.47265211647148
H        52.21724407390044    4.55556474766967   -0.48681770353595
H        54.13845781545329    2.67235639704609   -0.29414169259608
H        54.14037539065162   -2.55300209473773    0.26136769963690
H        52.22058873559345   -4.43688287126898    0.46109221201501
H        49.62172347075912   -4.39426701137292    0.45524977308448
Cu       63.07868054889633    0.04857763010982   -0.02174933074626
C        60.58746533341592   -3.38014616060661    0.37737188775077
C        59.62303793390418   -2.43555088718946    0.26695717144595
C        60.29675746173177   -1.17747116093739    0.12113063703021
C        59.63505735640216    0.05177773061803   -0.02115244846101
C        60.29899381189740    1.27974977422311   -0.16419096237288
C        59.62756403990934    2.53900873688991   -0.31047464509966
C        60.59371380588745    3.48174970576472   -0.42168078502142
C        61.85123756040498    2.79559439405239   -0.34308880299736
N        61.63842411225698    1.46038270988084   -0.18671121905294
C        63.08169504631114    3.42254274204444   -0.41841471837615
C        64.31106714888089    2.79314316861462   -0.34586025955362
C        65.56985714124571    3.47655720439182   -0.42787179464291
C        66.53424978017114    2.53200491947980   -0.31672847815762
C        65.86043956396949    1.27440329567288   -0.16734909951887
N        64.52137408791269    1.45770389687700   -0.18815688594531
C        66.52203817046839    0.04552698618411   -0.02157922944064
C        65.85824077632385   -1.18219606260575    0.12385103225037
C        66.52977977168463   -2.44100200941905    0.27333046467878
C        65.56368408853234   -3.38391319051954    0.38370839465017
C        64.30611302522516   -2.69826757740431    0.30147104246232
N        64.51883430149439   -1.36315569164249    0.14421731989367
C        63.07559405871646   -3.32550460466900    0.37359273438477
C        61.84624845729908   -2.69631650145179    0.29859243320936
N        61.63585408011283   -1.36064868486455    0.14285658803936
H        60.47574979988345   -4.43998349438938    0.50060615047141
H        58.55728336677349   -2.55687554070451    0.28054316633352
H        58.56203807192092    2.66236069451738   -0.32362925354592
H        60.48393992967703    4.54174753418968   -0.54529731771684
H        63.08263283761958    4.49582625964644   -0.54463882369806
H        65.68167004914376    4.53610705807014   -0.55346227799835
H        67.60000431139811    2.65311529246844   -0.33192832271379
H        67.59532472591162   -2.56396237866847    0.28893712436107
H        65.67359062032487   -4.44369751375474    0.50901852534866
H        63.07461145143068   -4.39884183040773    0.49938667248593
Cu       76.53569095613523    0.04011685461992   -0.01894947587475
C        74.04338149038286   -3.38703522697047    0.38732754933332
C        73.07936169284959   -2.44229524186652    0.27462314362739
C        73.75366496472886   -1.18488845108712    0.12577557051332
C        73.09248741859075    0.04423335260225   -0.01981004083180
C        73.75662563105854    1.27180913153443   -0.16484032897214
C        73.08544998390286    2.53092256230468   -0.31339151252516
C        74.05181248542713    3.47336729969107   -0.42535622385591
C        75.30918442917063    2.78714269637041   -0.34493961411930
N        75.09608181786733    1.45220276773383   -0.18672728907504
C        76.53989050021778    3.41360758624937   -0.42044612614036
C        77.76900372224975    2.78383008113767   -0.34668676744107
C        79.02805767270758    3.46670927979448   -0.42946606433702
C        79.99212340424577    2.52190754071848   -0.31765182735809
C        79.31789543127022    1.26468383438491   -0.16683650827162
N        77.97886911651456    1.44848933309786   -0.18747889801815
C        79.97906046466852    0.03561515374486   -0.02086466542727
C        79.31476818174372   -1.19164998762990    0.12648134419639
C        79.98591400469113   -2.45055753090557    0.27711267008215
C        79.01954584393962   -3.39283922232486    0.39020258397523
C        77.76219031582190   -2.70678790563806    0.30817013015211
N        77.97532222781035   -1.37200958550731    0.14854659996100
C        76.53154652106895   -3.33345408544360    0.38255600235522
C        75.30243120153524   -2.70392021833923    0.30691033661378
N        75.09265088412060   -1.36851723273690    0.14817563909328
H        73.93119383518166   -4.44652940244318    0.51304680865203
H        72.01356028732317   -2.56314335551892    0.28837759170613
H        72.01994048076980    2.65436701853253   -0.32737979220850
H        73.94222990605485    4.53319669746245   -0.55059457852343
H        76.54123928680423    4.48672330534539   -0.54811602475523
H        79.14016350489396    4.52609948018529   -0.55616968617436
H        81.05793307380483    2.64257688762773   -0.33314575821887
H        81.05141101271316   -2.57393715020843    0.29184963817628
H        79.12905474745381   -4.45246997674719    0.51712035653203
H        76.53021327379493   -4.40653578138413    0.51047267727132
Cu       89.99335304873132    0.01509136299720   -0.01678989370042
C        87.50030873844226   -3.42007212868380    0.30763509825870
C        86.53629208892868   -2.47285210989738    0.21823606820327
C        87.21059408703537   -1.21242454214190    0.09714715077238
C        86.54964289355499    0.01957361781635   -0.02247956125509
C        87.21421290742292    1.24984061608833   -0.14052344819999
C        86.54353946158651    2.51195904052113   -0.26435571705533
C        87.51026684271724    3.45667067851658   -0.35093265479636
C        88.76739720774282    2.76888814246917   -0.27946899472882
N        88.55373141503252    1.43073283491225   -0.15292679279791
C        89.99833436263675    3.39735707601301   -0.33127288348966
C        91.22733437139316    2.76649182885504   -0.26503558730007
C        92.48649336681994    3.45208066983207   -0.32131174953408
C        93.45049544154381    2.50508150859783   -0.23030793825031
C        92.77621741403682    1.24361101806068   -0.11898905574098
N        91.43712848744153    1.42749343884231   -0.14134255241414
C        93.43713738819145    0.01070642548218   -0.01079827137513
C        92.77282039123433   -1.22046943447989    0.09544846773159
C        93.44347437811875   -2.48364043589572    0.20913820272275
C        92.47672826325326   -3.42817824738467    0.29672559942727
C        91.21950570280727   -2.73938244961860    0.23596658581973
N        91.43317501224811   -1.40092701290157    0.11317554356149
C        89.98860829989350   -3.36707586899407    0.29733740813884
C        88.75945289166474   -2.73547993969030    0.24085618917707
N        88.54962073168426   -1.39676439830051    0.11389010836301
H        87.38805450160100   -4.48216411803391    0.40905206757792
H        85.47048178817238   -2.59384520057749    0.23077284341613
H        85.47810531333529    2.63571255526906   -0.28064921709241
H        87.40107406633138    4.51899900618391   -0.45322333338725
H        89.99995255793198    4.47333681565637   -0.43204802481840
H        92.59864099134853    4.51463507140573   -0.41791463331126
H        94.51629634716620    2.62666782621144   -0.23707572786177
H        94.50894831116774   -2.60790148936149    0.21968186650772
H        92.58585245487765   -4.49101524008474    0.39368428498574
H        89.98707895519890   -4.44308154705367    0.39792400717897
