      -----------------------------------------------------------      
     |                   =====================                   |     
     |                           x T B                           |     
     |                   =====================                   |     
     |                         S. Grimme                         |     
     |          Mulliken Center for Theoretical Chemistry        |     
     |                    University of Bonn                     |     
      -----------------------------------------------------------      

   * xtb version 6.4.1 (bd6e46d) compiled by 'conda@4901f00b25ba' on 2021-06-10

   xtb is free software: you can redistribute it and/or modify it under
   the terms of the GNU Lesser General Public License as published by
   the Free Software Foundation, either version 3 of the License, or
   (at your option) any later version.
   
   xtb is distributed in the hope that it will be useful,
   but WITHOUT ANY WARRANTY; without even the implied warranty of
   MERCHANTABILITY or FITNESS FOR A PARTICULAR PURPOSE.  See the
   GNU Lesser General Public License for more details.
   
   Cite this work as:
   * C. Bannwarth, E. Caldeweyher, S. Ehlert, A. Hansen, P. Pracht,
     J. Seibert, S. Spicher, S. Grimme, WIREs Comput. Mol. Sci., 2020, 11,
     e01493. DOI: 10.1002/wcms.1493
   
   for GFN2-xTB:
   * C. Bannwarth, S. Ehlert and S. Grimme., J. Chem. Theory Comput., 2019,
     15, 1652-1671. DOI: 10.1021/acs.jctc.8b01176
   for GFN1-xTB:
   * S. Grimme, C. Bannwarth, P. Shushkov, J. Chem. Theory Comput., 2017,
     13, 1989-2009. DOI: 10.1021/acs.jctc.7b00118
   for GFN0-xTB:
   * P. Pracht, E. Caldeweyher, S. Ehlert, S. Grimme, ChemRxiv, 2019, preprint.
     DOI: 10.26434/chemrxiv.8326202.v1
   for GFN-FF:
   * S. Spicher and S. Grimme, Angew. Chem. Int. Ed., 2020, 59, 15665-15673.
     DOI: 10.1002/anie.202004239
   
   for DFT-D4:
   * E. Caldeweyher, C. Bannwarth and S. Grimme, J. Chem. Phys., 2017,
     147, 034112. DOI: 10.1063/1.4993215
   * E. Caldeweyher, S. Ehlert, A. Hansen, H. Neugebauer, S. Spicher,
     C. Bannwarth and S. Grimme, J. Chem. Phys., 2019, 150, 154122.
     DOI: 10.1063/1.5090222
   * E. Caldeweyher, J.-M. Mewes, S. Ehlert and S. Grimme, Phys. Chem. Chem. Phys.
     2020, 22, 8499-8512. DOI: 10.1039/D0CP00502A
   
   for sTDA-xTB:
   * S. Grimme and C. Bannwarth, J. Chem. Phys., 2016, 145, 054103.
     DOI: 10.1063/1.4959605
   
   in the mass-spec context:
   * V. Asgeirsson, C. Bauer and S. Grimme, Chem. Sci., 2017, 8, 4879.
     DOI: 10.1039/c7sc00601b
   * J. Koopman and S. Grimme, ACS Omega 2019, 4, 12, 15120-15133.
     DOI: 10.1021/acsomega.9b02011
   
   for metadynamics refer to:
   * S. Grimme, J. Chem. Theory Comput., 2019, 155, 2847-2862
     DOI: 10.1021/acs.jctc.9b00143
   
   for SPH calculations refer to:
   * S. Spicher and S. Grimme, J. Chem. Theory Comput., 2021, 17, 1701-1714
     DOI: 10.1021/acs.jctc.0c01306
   
   with help from (in alphabetical order)
   P. Atkinson, C. Bannwarth, F. Bohle, G. Brandenburg, E. Caldeweyher
   M. Checinski, S. Dohm, S. Ehlert, S. Ehrlich, I. Gerasimov, J. Koopman
   C. Lavigne, S. Lehtola, F. März, M. Müller, F. Musil, H. Neugebauer
   J. Pisarek, C. Plett, P. Pracht, J. Seibert, P. Shushkov, S. Spicher
   M. Stahn, M. Steiner, T. Strunk, J. Stückrath, T. Rose, and J. Unsleber
   
 * started run on 2021/11/20 at 15:54:40.089     

           -------------------------------------------------
          |                Calculation Setup                |
           -------------------------------------------------

          program call               : /home/jeff/miniconda3/bin/xtb /home/jeff/chem/final-year-proejct/Ni+2_2_3_outenergy/input_structure.xyz --gfn 2 --parallel 1 --etemp 300 --chrg 0 --uhf 0 -I det_control.in
          coordinate file            : /home/jeff/chem/final-year-proejct/Ni+2_2_3_outenergy/input_structure.xyz
          omp threads                :                     1
          number of atoms            :                   111
          number of electrons        :                   378
          charge                     :                     0
          spin                       :                   0.0
          first test random number   :      0.33890628755877

   ID    Z sym.   atoms
    1   28 Ni     1, 37, 77
    2    6 C      2-9, 11-15, 17-21, 23, 24, 38-45, 47-51, 53-57, 59, 60,
                  73-76, 78-85, 87-91, 93-97, 99, 100
    3    7 N      10, 16, 22, 25, 46, 52, 58, 61, 86, 92, 98, 101
    4    1 H      26-36, 62-72, 102-111

           -------------------------------------------------
          |                 G F N 2 - x T B                 |
           -------------------------------------------------

        Reference                      10.1021/acs.jctc.8b01176
      * Hamiltonian:
        H0-scaling (s, p, d)           1.850000    2.230000    2.230000
        zeta-weighting                 0.500000
      * Dispersion:
        s8                             2.700000
        a1                             0.520000
        a2                             5.000000
        s9                             5.000000
      * Repulsion:
        kExp                           1.500000    1.000000
        rExp                           1.000000
      * Coulomb:
        alpha                          2.000000
        third order                    shell-resolved
        anisotropic                    true
        a3                             3.000000
        a5                             4.000000
        cn-shift                       1.200000
        cn-exp                         4.000000
        max-rad                        5.000000


          ...................................................
          :                      SETUP                      :
          :.................................................:
          :  # basis functions                 366          :
          :  # atomic orbitals                 363          :
          :  # shells                          193          :
          :  # electrons                       378          :
          :  max. iterations                   250          :
          :  Hamiltonian                  GFN2-xTB          :
          :  restarted?                      false          :
          :  GBSA solvation                  false          :
          :  PC potential                    false          :
          :  electronic temp.          300.0000000     K    :
          :  accuracy                    1.0000000          :
          :  -> integral cutoff          0.2500000E+02      :
          :  -> integral neglect         0.1000000E-07      :
          :  -> SCF convergence          0.1000000E-05 Eh   :
          :  -> wf. convergence          0.1000000E-03 e    :
          :  Broyden damping             0.4000000          :
          ...................................................

 iter      E             dE          RMSdq      gap      omega  full diag
   1   -206.2098536 -0.206210E+03  0.731E+00    0.81       0.0  T
   2   -206.4761093 -0.266256E+00  0.388E+00    1.15       1.0  T
   3   -206.4501106  0.259987E-01  0.119E+00    0.96       1.0  T
   4   -206.4415388  0.857183E-02  0.650E-01    1.17       1.0  T
   5   -206.4818578 -0.403191E-01  0.317E-01    1.13       1.0  T
   6   -206.4917007 -0.984292E-02  0.179E-01    1.15       1.0  T
   7   -206.4910916  0.609122E-03  0.107E-01    1.15       1.0  T
   8   -206.4925568 -0.146514E-02  0.265E-02    1.15       1.0  T
   9   -206.4926194 -0.626141E-04  0.120E-02    1.15       1.0  T
  10   -206.4926256 -0.620758E-05  0.635E-03    1.15       1.5  T
  11   -206.4926294 -0.377635E-05  0.255E-03    1.15       3.7  T
  12   -206.4926295 -0.143222E-06  0.140E-03    1.15       6.8  T
  13   -206.4926295 -0.338989E-07  0.799E-04    1.15      11.9  T
  14   -206.4926296 -0.312929E-07  0.474E-04    1.15      20.0  T

   *** convergence criteria satisfied after 14 iterations ***

         #    Occupation            Energy/Eh            Energy/eV
      -------------------------------------------------------------
         1        2.0000           -0.6761666             -18.3994
       ...           ...                  ...                  ...
       183        2.0000           -0.3665425              -9.9741
       184        2.0000           -0.3665392              -9.9740
       185        2.0000           -0.3660483              -9.9607
       186        2.0000           -0.3617975              -9.8450
       187        2.0000           -0.3606489              -9.8138
       188        2.0000           -0.3606308              -9.8133
       189        2.0000           -0.3554623              -9.6726 (HOMO)
       190                         -0.3133189              -8.5258 (LUMO)
       191                         -0.3016948              -8.2095
       192                         -0.2996735              -8.1545
       193                         -0.2988242              -8.1314
       194                         -0.2988210              -8.1313
       ...                                ...                  ...
       363                          1.4127532              38.4430
      -------------------------------------------------------------
                  HL-Gap            0.0421435 Eh            1.1468 eV
             Fermi-level           -0.3343859 Eh           -9.0991 eV

 SCC (total)                   0 d,  0 h,  0 min,  0.608 sec
 SCC setup                      ...        0 min,  0.002 sec (  0.358%)
 Dispersion                     ...        0 min,  0.004 sec (  0.733%)
 classical contributions        ...        0 min,  0.001 sec (  0.121%)
 integral evaluation            ...        0 min,  0.045 sec (  7.432%)
 iterations                     ...        0 min,  0.391 sec ( 64.395%)
 molecular gradient             ...        0 min,  0.161 sec ( 26.464%)
 printout                       ...        0 min,  0.003 sec (  0.494%)

         :::::::::::::::::::::::::::::::::::::::::::::::::::::
         ::                     SUMMARY                     ::
         :::::::::::::::::::::::::::::::::::::::::::::::::::::
         :: total energy            -203.079144950803 Eh    ::
         :: gradient norm              0.000534050661 Eh/a0 ::
         :: HOMO-LUMO gap              1.146782142946 eV    ::
         ::.................................................::
         :: SCC energy              -206.492629566492 Eh    ::
         :: -> isotropic ES            0.062438876382 Eh    ::
         :: -> anisotropic ES          0.017429972244 Eh    ::
         :: -> anisotropic XC          0.075737127839 Eh    ::
         :: -> dispersion             -0.186504359181 Eh    ::
         :: repulsion energy           3.416275991326 Eh    ::
         :: add. restraining           0.000000000000 Eh    ::
         :: total charge               0.000000000006 e     ::
         :::::::::::::::::::::::::::::::::::::::::::::::::::::

           -------------------------------------------------
          |                Property Printout                |
           -------------------------------------------------

    * Orbital Energies and Occupations

         #    Occupation            Energy/Eh            Energy/eV
      -------------------------------------------------------------
         1        2.0000           -0.6761666             -18.3994
       ...           ...                  ...                  ...
       177        2.0000           -0.3709103             -10.0930
       178        2.0000           -0.3708736             -10.0920
       179        2.0000           -0.3676212             -10.0035
       180        2.0000           -0.3675865             -10.0025
       181        2.0000           -0.3665700              -9.9749
       182        2.0000           -0.3665612              -9.9746
       183        2.0000           -0.3665425              -9.9741
       184        2.0000           -0.3665392              -9.9740
       185        2.0000           -0.3660483              -9.9607
       186        2.0000           -0.3617975              -9.8450
       187        2.0000           -0.3606489              -9.8138
       188        2.0000           -0.3606308              -9.8133
       189        2.0000           -0.3554623              -9.6726 (HOMO)
       190                         -0.3133189              -8.5258 (LUMO)
       191                         -0.3016948              -8.2095
       192                         -0.2996735              -8.1545
       193                         -0.2988242              -8.1314
       194                         -0.2988210              -8.1313
       195                         -0.2982248              -8.1151
       196                         -0.2976490              -8.0994
       197                         -0.2971804              -8.0867
       198                         -0.2905714              -7.9068
       199                         -0.2670804              -7.2676
       200                         -0.2583193              -7.0292
       ...                                ...                  ...
       363                          1.4127532              38.4430
      -------------------------------------------------------------
                  HL-Gap            0.0421435 Eh            1.1468 eV
             Fermi-level           -0.3343859 Eh           -9.0991 eV

     #   Z          covCN         q      C6AA      α(0)
     1  28 Ni       3.028    -0.293   189.412    28.397
     2   6 C        3.023    -0.052    29.271     8.875
     3   6 C        3.022    -0.051    29.237     8.869
     4   6 C        3.182     0.073    25.949     8.314
     5   6 C        2.956     0.027    27.407     8.587
     6   6 C        3.182     0.073    25.950     8.315
     7   6 C        3.022    -0.050    29.226     8.868
     8   6 C        3.023    -0.052    29.273     8.875
     9   6 C        3.170     0.073    26.012     8.332
    10   7 N        2.627    -0.047    22.164     6.992
    11   6 C        2.904    -0.042    29.032     8.835
    12   6 C        3.167     0.074    26.002     8.332
    13   6 C        3.020    -0.051    29.248     8.871
    14   6 C        3.021    -0.051    29.250     8.871
    15   6 C        3.167     0.075    25.997     8.331
    16   7 N        2.626    -0.047    22.156     6.991
    17   6 C        2.904    -0.043    29.073     8.841
    18   6 C        3.167     0.075    25.996     8.331
    19   6 C        3.021    -0.051    29.250     8.871
    20   6 C        3.020    -0.051    29.249     8.871
    21   6 C        3.167     0.074    26.004     8.332
    22   7 N        2.627    -0.047    22.154     6.990
    23   6 C        2.904    -0.041    29.030     8.835
    24   6 C        3.170     0.073    26.015     8.333
    25   7 N        2.627    -0.047    22.160     6.991
    26   1 H        0.926     0.035     2.511     2.478
    27   1 H        0.926     0.037     2.490     2.467
    28   1 H        0.926     0.036     2.496     2.471
    29   1 H        0.926     0.035     2.512     2.478
    30   1 H        0.926     0.049     2.332     2.388
    31   1 H        0.926     0.036     2.506     2.476
    32   1 H        0.926     0.036     2.507     2.476
    33   1 H        0.926     0.048     2.340     2.392
    34   1 H        0.926     0.036     2.507     2.476
    35   1 H        0.926     0.036     2.506     2.476
    36   1 H        0.926     0.049     2.332     2.388
    37  28 Ni       3.023    -0.293   189.404    28.397
    38   6 C        3.023    -0.052    29.270     8.875
    39   6 C        3.022    -0.051    29.235     8.869
    40   6 C        3.183     0.073    25.941     8.312
    41   6 C        2.956     0.027    27.409     8.587
    42   6 C        3.183     0.073    25.942     8.313
    43   6 C        3.022    -0.051    29.230     8.868
    44   6 C        3.023    -0.052    29.271     8.875
    45   6 C        3.171     0.073    26.009     8.331
    46   7 N        2.625    -0.047    22.169     6.993
    47   6 C        2.904    -0.042    29.033     8.835
    48   6 C        3.168     0.074    26.000     8.332
    49   6 C        3.020    -0.051    29.249     8.871
    50   6 C        3.021    -0.051    29.250     8.871
    51   6 C        3.168     0.075    25.994     8.331
    52   7 N        2.626    -0.047    22.154     6.990
    53   6 C        2.904    -0.043    29.073     8.841
    54   6 C        3.168     0.075    25.994     8.331
    55   6 C        3.021    -0.051    29.250     8.871
    56   6 C        3.020    -0.051    29.249     8.871
    57   6 C        3.168     0.074    26.001     8.332
    58   7 N        2.626    -0.047    22.153     6.990
    59   6 C        2.904    -0.042    29.033     8.835
    60   6 C        3.171     0.073    26.010     8.332
    61   7 N        2.626    -0.047    22.167     6.992
    62   1 H        0.926     0.035     2.511     2.478
    63   1 H        0.926     0.037     2.489     2.467
    64   1 H        0.926     0.037     2.493     2.469
    65   1 H        0.926     0.035     2.511     2.478
    66   1 H        0.926     0.049     2.332     2.388
    67   1 H        0.926     0.036     2.506     2.476
    68   1 H        0.926     0.036     2.507     2.476
    69   1 H        0.926     0.048     2.339     2.392
    70   1 H        0.926     0.036     2.507     2.476
    71   1 H        0.926     0.036     2.506     2.476
    72   1 H        0.926     0.049     2.332     2.388
    73   6 C        1.989    -0.029    31.814     9.109
    74   6 C        1.989    -0.029    31.830     9.111
    75   6 C        1.989    -0.029    31.830     9.111
    76   6 C        1.990    -0.029    31.812     9.109
    77  28 Ni       3.030    -0.289   189.319    28.390
    78   6 C        3.023    -0.052    29.268     8.874
    79   6 C        3.022    -0.051    29.232     8.869
    80   6 C        3.183     0.073    25.939     8.312
    81   6 C        2.955     0.027    27.404     8.586
    82   6 C        3.183     0.073    25.941     8.313
    83   6 C        3.022    -0.050    29.224     8.867
    84   6 C        3.023    -0.052    29.268     8.874
    85   6 C        3.171     0.073    26.011     8.331
    86   7 N        2.628    -0.049    22.192     6.996
    87   6 C        2.904    -0.040    28.989     8.828
    88   6 C        3.171     0.073    26.010     8.331
    89   6 C        3.023    -0.052    29.266     8.874
    90   6 C        3.022    -0.051    29.232     8.869
    91   6 C        3.184     0.073    25.934     8.311
    92   7 N        2.627    -0.049    22.197     6.997
    93   6 C        2.956     0.027    27.406     8.587
    94   6 C        3.183     0.073    25.936     8.312
    95   6 C        3.022    -0.050    29.225     8.868
    96   6 C        3.023    -0.052    29.267     8.874
    97   6 C        3.171     0.073    26.011     8.331
    98   7 N        2.627    -0.049    22.200     6.998
    99   6 C        2.904    -0.040    28.989     8.828
   100   6 C        3.171     0.073    26.013     8.332
   101   7 N        2.628    -0.048    22.190     6.996
   102   1 H        0.926     0.035     2.510     2.478
   103   1 H        0.926     0.037     2.489     2.467
   104   1 H        0.926     0.036     2.498     2.472
   105   1 H        0.926     0.035     2.510     2.478
   106   1 H        0.926     0.050     2.324     2.384
   107   1 H        0.926     0.035     2.510     2.477
   108   1 H        0.926     0.037     2.490     2.468
   109   1 H        0.926     0.037     2.495     2.470
   110   1 H        0.926     0.035     2.511     2.478
   111   1 H        0.926     0.050     2.325     2.384

 Mol. C6AA /au·bohr⁶  :     235803.637290
 Mol. C8AA /au·bohr⁸  :    6922787.672069
 Mol. α(0) /au        :        801.771347


Wiberg/Mayer (AO) data.
largest (>0.10) Wiberg bond orders for each atom

 ---------------------------------------------------------------------------
     #   Z sym  total        # sym  WBO       # sym  WBO       # sym  WBO
 ---------------------------------------------------------------------------
     1  28 Ni   3.479 --    25 N    0.753    10 N    0.753    22 N    0.751
                            16 N    0.751
     2   6 C    3.953 --     3 C    1.646    24 C    1.169    26 H    0.972
     3   6 C    3.958 --     2 C    1.646     4 C    1.178    27 H    0.967
     4   6 C    3.922 --    25 N    1.261     5 C    1.257     3 C    1.178
     5   6 C    3.945 --     6 C    1.259     4 C    1.257    73 C    1.166
     6   6 C    3.922 --    10 N    1.259     5 C    1.259     7 C    1.178
     7   6 C    3.958 --     8 C    1.646     6 C    1.178    28 H    0.967
     8   6 C    3.953 --     7 C    1.646     9 C    1.169    29 H    0.972
     9   6 C    3.931 --    11 C    1.354    10 N    1.228     8 C    1.169
    10   7 N    3.577 --     6 C    1.259     9 C    1.228     1 Ni   0.753
    11   6 C    3.935 --     9 C    1.354    12 C    1.354    30 H    0.964
    12   6 C    3.935 --    11 C    1.354    16 N    1.239    13 C    1.161
    13   6 C    3.957 --    14 C    1.661    12 C    1.161    31 H    0.972
    14   6 C    3.955 --    13 C    1.661    15 C    1.160    32 H    0.972
    15   6 C    3.937 --    17 C    1.353    16 N    1.242    14 C    1.160
    16   7 N    3.571 --    15 C    1.242    12 C    1.239     1 Ni   0.751
    17   6 C    3.932 --    18 C    1.353    15 C    1.353    33 H    0.964
    18   6 C    3.937 --    17 C    1.353    22 N    1.242    19 C    1.161
    19   6 C    3.955 --    20 C    1.661    18 C    1.161    34 H    0.972
    20   6 C    3.957 --    19 C    1.661    21 C    1.161    35 H    0.972
    21   6 C    3.935 --    23 C    1.353    22 N    1.239    20 C    1.161
    22   7 N    3.572 --    18 C    1.242    21 C    1.239     1 Ni   0.751
    23   6 C    3.936 --    24 C    1.355    21 C    1.353    36 H    0.964
    24   6 C    3.931 --    23 C    1.355    25 N    1.227     2 C    1.169
    25   7 N    3.577 --     4 C    1.261    24 C    1.227     1 Ni   0.753
    26   1 H    0.998 --     2 C    0.972
    27   1 H    0.998 --     3 C    0.967
    28   1 H    0.998 --     7 C    0.967
    29   1 H    0.998 --     8 C    0.972
    30   1 H    0.996 --    11 C    0.964
    31   1 H    0.998 --    13 C    0.972
    32   1 H    0.998 --    14 C    0.972
    33   1 H    0.997 --    17 C    0.964
    34   1 H    0.998 --    19 C    0.972
    35   1 H    0.998 --    20 C    0.972
    36   1 H    0.996 --    23 C    0.964
    37  28 Ni   3.477 --    61 N    0.753    46 N    0.753    58 N    0.752
                            52 N    0.752
    38   6 C    3.953 --    39 C    1.647    60 C    1.169    62 H    0.972
    39   6 C    3.958 --    38 C    1.647    40 C    1.177    63 H    0.968
    40   6 C    3.923 --    61 N    1.260    41 C    1.259    39 C    1.177
    41   6 C    3.945 --    42 C    1.259    40 C    1.259    76 C    1.164
    42   6 C    3.923 --    46 N    1.260    41 C    1.259    43 C    1.177
    43   6 C    3.958 --    44 C    1.647    42 C    1.177    64 H    0.968
    44   6 C    3.953 --    43 C    1.647    45 C    1.169    65 H    0.972
    45   6 C    3.931 --    47 C    1.355    46 N    1.228    44 C    1.169
    46   7 N    3.577 --    42 C    1.260    45 C    1.228    37 Ni   0.753
    47   6 C    3.936 --    45 C    1.355    48 C    1.354    66 H    0.964
    48   6 C    3.935 --    47 C    1.354    52 N    1.239    49 C    1.161
    49   6 C    3.957 --    50 C    1.661    48 C    1.161    67 H    0.972
    50   6 C    3.955 --    49 C    1.661    51 C    1.161    68 H    0.972
    51   6 C    3.937 --    53 C    1.353    52 N    1.242    50 C    1.161
    52   7 N    3.572 --    51 C    1.242    48 C    1.239    37 Ni   0.752
    53   6 C    3.932 --    54 C    1.353    51 C    1.353    69 H    0.964
    54   6 C    3.937 --    53 C    1.353    58 N    1.242    55 C    1.161
    55   6 C    3.955 --    56 C    1.661    54 C    1.161    70 H    0.972
    56   6 C    3.957 --    55 C    1.661    57 C    1.161    71 H    0.972
    57   6 C    3.935 --    59 C    1.353    58 N    1.239    56 C    1.161
    58   7 N    3.572 --    54 C    1.242    57 C    1.239    37 Ni   0.752
    59   6 C    3.936 --    60 C    1.355    57 C    1.353    72 H    0.964
    60   6 C    3.931 --    59 C    1.355    61 N    1.228    38 C    1.169
    61   7 N    3.577 --    40 C    1.260    60 C    1.228    37 Ni   0.753
    62   1 H    0.998 --    38 C    0.972
    63   1 H    0.998 --    39 C    0.968
    64   1 H    0.998 --    43 C    0.968
    65   1 H    0.998 --    44 C    0.972
    66   1 H    0.996 --    47 C    0.964
    67   1 H    0.998 --    49 C    0.972
    68   1 H    0.998 --    50 C    0.972
    69   1 H    0.997 --    53 C    0.964
    70   1 H    0.998 --    55 C    0.972
    71   1 H    0.998 --    56 C    0.972
    72   1 H    0.996 --    59 C    0.964
    73   6 C    3.927 --    74 C    2.583     5 C    1.166
    74   6 C    3.929 --    73 C    2.583    81 C    1.168
    75   6 C    3.929 --    76 C    2.584    93 C    1.166
    76   6 C    3.926 --    75 C    2.584    41 C    1.164
    77  28 Ni   3.471 --   101 N    0.750    86 N    0.750    92 N    0.749
                            98 N    0.749
    78   6 C    3.954 --    79 C    1.645   100 C    1.170   102 H    0.972
    79   6 C    3.956 --    78 C    1.645    80 C    1.178   103 H    0.967
    80   6 C    3.923 --   101 N    1.262    81 C    1.256    79 C    1.178
    81   6 C    3.936 --    82 C    1.256    80 C    1.256    74 C    1.168
    82   6 C    3.923 --    86 N    1.261    81 C    1.256    83 C    1.178
    83   6 C    3.956 --    84 C    1.645    82 C    1.178   104 H    0.967
    84   6 C    3.954 --    83 C    1.645    85 C    1.171   105 H    0.972
    85   6 C    3.929 --    87 C    1.354    86 N    1.226    84 C    1.171
    86   7 N    3.569 --    82 C    1.261    85 C    1.226    77 Ni   0.750
    87   6 C    3.930 --    88 C    1.354    85 C    1.354   106 H    0.963
    88   6 C    3.929 --    87 C    1.354    92 N    1.226    89 C    1.170
    89   6 C    3.954 --    90 C    1.645    88 C    1.170   107 H    0.972
    90   6 C    3.956 --    89 C    1.645    91 C    1.178   108 H    0.968
    91   6 C    3.923 --    92 N    1.262    93 C    1.256    90 C    1.178
    92   7 N    3.568 --    91 C    1.262    88 C    1.226    77 Ni   0.749
    93   6 C    3.935 --    94 C    1.257    91 C    1.256    75 C    1.166
    94   6 C    3.923 --    98 N    1.262    93 C    1.257    95 C    1.178
    95   6 C    3.956 --    96 C    1.645    94 C    1.178   109 H    0.968
    96   6 C    3.954 --    95 C    1.645    97 C    1.170   110 H    0.972
    97   6 C    3.929 --    99 C    1.354    98 N    1.226    96 C    1.170
    98   7 N    3.568 --    94 C    1.262    97 C    1.226    77 Ni   0.749
    99   6 C    3.930 --   100 C    1.354    97 C    1.354   111 H    0.963
   100   6 C    3.929 --    99 C    1.354   101 N    1.226    78 C    1.170
   101   7 N    3.569 --    80 C    1.262   100 C    1.226    77 Ni   0.750
   102   1 H    0.998 --    78 C    0.972
   103   1 H    0.998 --    79 C    0.967
   104   1 H    0.998 --    83 C    0.967
   105   1 H    0.998 --    84 C    0.972
   106   1 H    0.996 --    87 C    0.963
   107   1 H    0.998 --    89 C    0.972
   108   1 H    0.998 --    90 C    0.968
   109   1 H    0.998 --    95 C    0.968
   110   1 H    0.998 --    96 C    0.972
   111   1 H    0.996 --    99 C    0.963
 ---------------------------------------------------------------------------

Topologies differ in total number of bonds
Writing topology from bond orders to xtbtopo.mol

molecular dipole:
                 x           y           z       tot (Debye)
 q only:        0.002      -0.003       0.001
   full:        0.002      -0.003      -0.004       0.013
molecular quadrupole (traceless):
                xx          xy          yy          xz          yz          zz
 q only:       28.267       0.205      10.837       0.454       1.087     -39.104
  q+dip:       54.817       0.459      22.836       0.557       2.212     -77.652
   full:       35.521       0.261      11.997       0.236       1.298     -47.518


           -------------------------------------------------
          | TOTAL ENERGY             -203.079144950803 Eh   |
          | GRADIENT NORM               0.000534050661 Eh/α |
          | HOMO-LUMO GAP               1.146782142946 eV   |
           -------------------------------------------------

------------------------------------------------------------------------
 * finished run on 2021/11/20 at 15:54:40.750     
------------------------------------------------------------------------
 total:
 * wall-time:     0 d,  0 h,  0 min,  0.661 sec
 *  cpu-time:     0 d,  0 h,  0 min,  0.661 sec
 * ratio c/w:     1.000 speedup
 SCF:
 * wall-time:     0 d,  0 h,  0 min,  0.608 sec
 *  cpu-time:     0 d,  0 h,  0 min,  0.608 sec
 * ratio c/w:     1.000 speedup

