      -----------------------------------------------------------      
     |                   =====================                   |     
     |                           x T B                           |     
     |                   =====================                   |     
     |                         S. Grimme                         |     
     |          Mulliken Center for Theoretical Chemistry        |     
     |                    University of Bonn                     |     
      -----------------------------------------------------------      

   * xtb version 6.4.1 (bd6e46d) compiled by 'conda@4901f00b25ba' on 2021-06-10

   xtb is free software: you can redistribute it and/or modify it under
   the terms of the GNU Lesser General Public License as published by
   the Free Software Foundation, either version 3 of the License, or
   (at your option) any later version.
   
   xtb is distributed in the hope that it will be useful,
   but WITHOUT ANY WARRANTY; without even the implied warranty of
   MERCHANTABILITY or FITNESS FOR A PARTICULAR PURPOSE.  See the
   GNU Lesser General Public License for more details.
   
   Cite this work as:
   * C. Bannwarth, E. Caldeweyher, S. Ehlert, A. Hansen, P. Pracht,
     J. Seibert, S. Spicher, S. Grimme, WIREs Comput. Mol. Sci., 2020, 11,
     e01493. DOI: 10.1002/wcms.1493
   
   for GFN2-xTB:
   * C. Bannwarth, S. Ehlert and S. Grimme., J. Chem. Theory Comput., 2019,
     15, 1652-1671. DOI: 10.1021/acs.jctc.8b01176
   for GFN1-xTB:
   * S. Grimme, C. Bannwarth, P. Shushkov, J. Chem. Theory Comput., 2017,
     13, 1989-2009. DOI: 10.1021/acs.jctc.7b00118
   for GFN0-xTB:
   * P. Pracht, E. Caldeweyher, S. Ehlert, S. Grimme, ChemRxiv, 2019, preprint.
     DOI: 10.26434/chemrxiv.8326202.v1
   for GFN-FF:
   * S. Spicher and S. Grimme, Angew. Chem. Int. Ed., 2020, 59, 15665-15673.
     DOI: 10.1002/anie.202004239
   
   for DFT-D4:
   * E. Caldeweyher, C. Bannwarth and S. Grimme, J. Chem. Phys., 2017,
     147, 034112. DOI: 10.1063/1.4993215
   * E. Caldeweyher, S. Ehlert, A. Hansen, H. Neugebauer, S. Spicher,
     C. Bannwarth and S. Grimme, J. Chem. Phys., 2019, 150, 154122.
     DOI: 10.1063/1.5090222
   * E. Caldeweyher, J.-M. Mewes, S. Ehlert and S. Grimme, Phys. Chem. Chem. Phys.
     2020, 22, 8499-8512. DOI: 10.1039/D0CP00502A
   
   for sTDA-xTB:
   * S. Grimme and C. Bannwarth, J. Chem. Phys., 2016, 145, 054103.
     DOI: 10.1063/1.4959605
   
   in the mass-spec context:
   * V. Asgeirsson, C. Bauer and S. Grimme, Chem. Sci., 2017, 8, 4879.
     DOI: 10.1039/c7sc00601b
   * J. Koopman and S. Grimme, ACS Omega 2019, 4, 12, 15120-15133.
     DOI: 10.1021/acsomega.9b02011
   
   for metadynamics refer to:
   * S. Grimme, J. Chem. Theory Comput., 2019, 155, 2847-2862
     DOI: 10.1021/acs.jctc.9b00143
   
   for SPH calculations refer to:
   * S. Spicher and S. Grimme, J. Chem. Theory Comput., 2021, 17, 1701-1714
     DOI: 10.1021/acs.jctc.0c01306
   
   with help from (in alphabetical order)
   P. Atkinson, C. Bannwarth, F. Bohle, G. Brandenburg, E. Caldeweyher
   M. Checinski, S. Dohm, S. Ehlert, S. Ehrlich, I. Gerasimov, J. Koopman
   C. Lavigne, S. Lehtola, F. März, M. Müller, F. Musil, H. Neugebauer
   J. Pisarek, C. Plett, P. Pracht, J. Seibert, P. Shushkov, S. Spicher
   M. Stahn, M. Steiner, T. Strunk, J. Stückrath, T. Rose, and J. Unsleber
   
 * started run on 2021/11/21 at 21:21:44.938     

           -------------------------------------------------
          |                Calculation Setup                |
           -------------------------------------------------

          program call               : /home/jeff/miniconda3/bin/xtb /home/jeff/chem/final-year-proejct/Cu+2_4_7_outenergy/input_structure.xyz --gfn 2 --parallel 1 --etemp 300 --chrg 0 --uhf 0 -I det_control.in
          coordinate file            : /home/jeff/chem/final-year-proejct/Cu+2_4_7_outenergy/input_structure.xyz
          omp threads                :                     1
          number of atoms            :                   271
          number of electrons        :                   945
          charge                     :                     0
          spin                       :                   0.5
          first test random number   :      0.20992511010245

   ID    Z sym.   atoms
    1   29 Cu     1, 37, 97, 132, 167, 202, 237
    2    6 C      2-9, 11-15, 17-21, 23, 24, 38-45, 47-51, 53-57, 59, 60,
                  73-96, 98-105, 107-111, 113-117, 119, 120, 133-140,
                  142-146, 148-152, 154, 155, 168-175, 177-181, 183-187, 189,
                  190, 203-210, 212-216, 218-222, 224, 225, 238-245, 247-251,
                  253-257, 259, 260
    3    7 N      10, 16, 22, 25, 46, 52, 58, 61, 106, 112, 118, 121, 141,
                  147, 153, 156, 176, 182, 188, 191, 211, 217, 223, 226, 246,
                  252, 258, 261
    4    1 H      26-36, 62-72, 122-131, 157-166, 192-201, 227-236, 262-271

           -------------------------------------------------
          |                 G F N 2 - x T B                 |
           -------------------------------------------------

        Reference                      10.1021/acs.jctc.8b01176
      * Hamiltonian:
        H0-scaling (s, p, d)           1.850000    2.230000    2.230000
        zeta-weighting                 0.500000
      * Dispersion:
        s8                             2.700000
        a1                             0.520000
        a2                             5.000000
        s9                             5.000000
      * Repulsion:
        kExp                           1.500000    1.000000
        rExp                           1.000000
      * Coulomb:
        alpha                          2.000000
        third order                    shell-resolved
        anisotropic                    true
        a3                             3.000000
        a5                             4.000000
        cn-shift                       1.200000
        cn-exp                         4.000000
        max-rad                        5.000000


          ...................................................
          :                      SETUP                      :
          :.................................................:
          :  # basis functions                 910          :
          :  # atomic orbitals                 903          :
          :  # shells                          477          :
          :  # electrons                       945          :
          :  max. iterations                   250          :
          :  Hamiltonian                  GFN2-xTB          :
          :  restarted?                      false          :
          :  GBSA solvation                  false          :
          :  PC potential                    false          :
          :  electronic temp.          300.0000000     K    :
          :  accuracy                    1.0000000          :
          :  -> integral cutoff          0.2500000E+02      :
          :  -> integral neglect         0.1000000E-07      :
          :  -> SCF convergence          0.1000000E-05 Eh   :
          :  -> wf. convergence          0.1000000E-03 e    :
          :  Broyden damping             0.4000000          :
          ...................................................

 iter      E             dE          RMSdq      gap      omega  full diag
   1   -505.6914990 -0.505691E+03  0.591E+00    0.00       0.0  T
   2   -505.3535914  0.337908E+00  0.370E+00    0.01       1.0  T
   3   -308.8997170  0.196454E+03  0.107E+01    0.04       1.0  T
   4   -492.7839459 -0.183884E+03  0.276E+00    0.06       1.0  T
   5   -493.3637579 -0.579812E+00  0.340E+00    0.08       1.0  T
   6   -503.8353751 -0.104716E+02  0.137E+00    0.03       1.0  T
   7   -491.9704338  0.118649E+02  0.404E+00    0.02       1.0  T
   8   -503.9116977 -0.119413E+02  0.124E+00    0.09       1.0  T
   9   -504.0149035 -0.103206E+00  0.137E+00    0.12       1.0  T
  10   -505.1792871 -0.116438E+01  0.799E-01    0.07       1.0  T
  11   -504.8120213  0.367266E+00  0.865E-01    0.20       1.0  T
  12   -505.0334778 -0.221457E+00  0.878E-01    0.35       1.0  T
  13   -505.3929146 -0.359437E+00  0.697E-01    0.03       1.0  T
  14   -505.1321985  0.260716E+00  0.789E-01    0.07       1.0  T
  15   -505.5095132 -0.377315E+00  0.577E-01    0.02       1.0  T
  16   -505.1468307  0.362682E+00  0.815E-01    0.00       1.0  T
  17   -505.7099454 -0.563115E+00  0.392E-01    0.01       1.0  T
  18   -505.2469776  0.462968E+00  0.675E-01    0.04       1.0  T
  19   -505.4715520 -0.224574E+00  0.571E-01    0.00       1.0  T
  20   -505.5490212 -0.774693E-01  0.519E-01    0.01       1.0  T
  21   -505.6513803 -0.102359E+00  0.432E-01    0.01       1.0  T
  22   -505.4977908  0.153590E+00  0.564E-01    0.00       1.0  T
  23   -505.6887052 -0.190914E+00  0.400E-01    0.01       1.0  T
  24   -505.7511652 -0.624600E-01  0.334E-01    0.00       1.0  T
  25   -505.8174735 -0.663083E-01  0.229E-01    0.00       1.0  T
  26   -505.8233394 -0.586589E-02  0.236E-01    0.00       1.0  T
  27   -505.8500203 -0.266809E-01  0.171E-01    0.01       1.0  T
  28   -505.8712788 -0.212585E-01  0.115E-01    0.00       1.0  T
  29   -505.8767160 -0.543719E-02  0.869E-02    0.01       1.0  T
  30   -505.8842700 -0.755400E-02  0.367E-02    0.00       1.0  T
  31   -505.8838669  0.403060E-03  0.400E-02    0.00       1.0  T
  32   -505.8844858 -0.618827E-03  0.295E-02    0.00       1.0  T
  33   -505.8833995  0.108632E-02  0.417E-02    0.00       1.0  T
  34   -505.8850256 -0.162611E-02  0.192E-02    0.00       1.0  T
  35   -505.8850869 -0.613583E-04  0.208E-02    0.00       1.0  T
  36   -505.8851314 -0.444345E-04  0.194E-02    0.00       1.0  T
  37   -505.8852489 -0.117538E-03  0.169E-02    0.00       1.0  T
  38   -505.8852395  0.937252E-05  0.169E-02    0.00       1.0  T
  39   -505.8852613 -0.218241E-04  0.158E-02    0.00       1.0  T
  40   -505.8853393 -0.779042E-04  0.130E-02    0.00       1.0  T
  41   -505.8853726 -0.333661E-04  0.113E-02    0.00       1.0  T
  42   -505.8854406 -0.679518E-04  0.767E-03    0.00       1.0  T
  43   -505.8854468 -0.627372E-05  0.672E-03    0.00       1.0  T
  44   -505.8854677 -0.208309E-04  0.510E-03    0.00       1.2  T
  45   -505.8854799 -0.121809E-04  0.395E-03    0.00       1.5  T
  46   -505.8854887 -0.888190E-05  0.264E-03    0.00       2.3  T
  47   -505.8854948 -0.601152E-05  0.125E-03    0.00       4.8  T
  48   -505.8854958 -0.105159E-05  0.758E-04    0.00       8.0  T
  49   -505.8854960 -0.178076E-06  0.597E-04    0.00      10.2  T
  50   -505.8854960 -0.452070E-07  0.515E-04    0.00      11.8  T

   *** convergence criteria satisfied after 50 iterations ***

         #    Occupation            Energy/Eh            Energy/eV
      -------------------------------------------------------------
         1        2.0000           -0.6802599             -18.5108
       ...           ...                  ...                  ...
       467        2.0000           -0.3561257              -9.6907
       468        2.0000           -0.3518371              -9.5740
       469        2.0000           -0.3486677              -9.4877
       470        1.0061           -0.3229427              -8.7877
       471        1.0056           -0.3229418              -8.7877
       472        1.0045           -0.3229397              -8.7876
       473        1.0028           -0.3229363              -8.7875 (HOMO)
       474        1.0024           -0.3229355              -8.7875 (LUMO)
       475        0.9818           -0.3228955              -8.7864
       476        0.9817           -0.3228955              -8.7864
       477        0.0146           -0.3182262              -8.6594
       478        0.0006           -0.3151365              -8.5753
       ...           ...                  ...                  ...
       903                          1.6307822              44.3758
      -------------------------------------------------------------
                  HL-Gap            0.0000008 Eh            0.0000 eV
             Fermi-level           -0.3229309 Eh           -8.7874 eV

 SCC (total)                   0 d,  0 h,  0 min, 14.014 sec
 SCC setup                      ...        0 min,  0.013 sec (  0.096%)
 Dispersion                     ...        0 min,  0.027 sec (  0.190%)
 classical contributions        ...        0 min,  0.002 sec (  0.017%)
 integral evaluation            ...        0 min,  0.214 sec (  1.530%)
 iterations                     ...        0 min, 13.198 sec ( 94.177%)
 molecular gradient             ...        0 min,  0.525 sec (  3.745%)
 printout                       ...        0 min,  0.034 sec (  0.245%)

         :::::::::::::::::::::::::::::::::::::::::::::::::::::
         ::                     SUMMARY                     ::
         :::::::::::::::::::::::::::::::::::::::::::::::::::::
         :: total energy            -496.928506316525 Eh    ::
         :: gradient norm              0.000550417099 Eh/a0 ::
         :: HOMO-LUMO gap              0.000022283990 eV    ::
         ::.................................................::
         :: SCC energy              -505.885496025010 Eh    ::
         :: -> isotropic ES            0.195195240747 Eh    ::
         :: -> anisotropic ES          0.062068262563 Eh    ::
         :: -> anisotropic XC          0.224410571674 Eh    ::
         :: -> dispersion             -0.444378196621 Eh    ::
         :: repulsion energy           8.964969555614 Eh    ::
         :: add. restraining           0.000000000000 Eh    ::
         :: total charge              -0.000000000000 e     ::
         :::::::::::::::::::::::::::::::::::::::::::::::::::::

           -------------------------------------------------
          |                Property Printout                |
           -------------------------------------------------

    * Orbital Energies and Occupations

         #    Occupation            Energy/Eh            Energy/eV
      -------------------------------------------------------------
         1        2.0000           -0.6802599             -18.5108
       ...           ...                  ...                  ...
       461        2.0000           -0.3704410             -10.0802
       462        2.0000           -0.3703897             -10.0788
       463        2.0000           -0.3703761             -10.0784
       464        2.0000           -0.3699892             -10.0679
       465        2.0000           -0.3657208              -9.9518
       466        2.0000           -0.3609127              -9.8209
       467        2.0000           -0.3561257              -9.6907
       468        2.0000           -0.3518371              -9.5740
       469        2.0000           -0.3486677              -9.4877
       470        1.0061           -0.3229427              -8.7877
       471        1.0056           -0.3229418              -8.7877
       472        1.0045           -0.3229397              -8.7876
       473        1.0028           -0.3229363              -8.7875 (HOMO)
       474        1.0024           -0.3229355              -8.7875 (LUMO)
       475        0.9818           -0.3228955              -8.7864
       476        0.9817           -0.3228955              -8.7864
       477        0.0146           -0.3182262              -8.6594
       478        0.0006           -0.3151365              -8.5753
       479        0.0000           -0.3107673              -8.4564
       480                         -0.3058347              -8.3222
       481                         -0.3008676              -8.1870
       482                         -0.3008152              -8.1856
       483                         -0.3008079              -8.1854
       484                         -0.3004606              -8.1759
       ...                                ...                  ...
       903                          1.6307822              44.3758
      -------------------------------------------------------------
                  HL-Gap            0.0000008 Eh            0.0000 eV
             Fermi-level           -0.3229309 Eh           -8.7874 eV

     #   Z          covCN         q      C6AA      α(0)
     1  29 Cu       2.957     0.198   146.172    27.530
     2   6 C        3.023    -0.051    29.230     8.868
     3   6 C        3.020    -0.049    29.188     8.862
     4   6 C        3.165     0.079    25.920     8.320
     5   6 C        2.953     0.017    27.624     8.621
     6   6 C        3.165     0.079    25.920     8.320
     7   6 C        3.020    -0.049    29.188     8.862
     8   6 C        3.023    -0.051    29.230     8.868
     9   6 C        3.148     0.077    26.022     8.345
    10   7 N        2.620    -0.171    24.719     7.384
    11   6 C        2.901    -0.050    29.228     8.864
    12   6 C        3.144     0.078    26.009     8.344
    13   6 C        3.019    -0.050    29.206     8.865
    14   6 C        3.020    -0.050    29.210     8.865
    15   6 C        3.144     0.079    25.993     8.342
    16   7 N        2.623    -0.170    24.682     7.378
    17   6 C        2.901    -0.051    29.273     8.871
    18   6 C        3.144     0.079    25.993     8.342
    19   6 C        3.020    -0.050    29.210     8.865
    20   6 C        3.019    -0.050    29.206     8.865
    21   6 C        3.144     0.078    26.009     8.344
    22   7 N        2.623    -0.170    24.682     7.378
    23   6 C        2.901    -0.050    29.228     8.864
    24   6 C        3.148     0.077    26.022     8.345
    25   7 N        2.620    -0.171    24.719     7.384
    26   1 H        0.926     0.035     2.521     2.483
    27   1 H        0.926     0.036     2.498     2.472
    28   1 H        0.926     0.036     2.498     2.471
    29   1 H        0.926     0.035     2.522     2.483
    30   1 H        0.926     0.050     2.318     2.381
    31   1 H        0.926     0.035     2.512     2.479
    32   1 H        0.926     0.035     2.513     2.479
    33   1 H        0.926     0.049     2.327     2.386
    34   1 H        0.926     0.035     2.513     2.479
    35   1 H        0.926     0.035     2.512     2.479
    36   1 H        0.926     0.050     2.318     2.381
    37  29 Cu       2.957     0.198   146.172    27.530
    38   6 C        3.023    -0.051    29.230     8.868
    39   6 C        3.020    -0.049    29.188     8.862
    40   6 C        3.164     0.079    25.921     8.321
    41   6 C        2.953     0.017    27.624     8.621
    42   6 C        3.164     0.079    25.921     8.321
    43   6 C        3.020    -0.049    29.188     8.862
    44   6 C        3.023    -0.051    29.230     8.868
    45   6 C        3.148     0.077    26.022     8.345
    46   7 N        2.620    -0.171    24.719     7.384
    47   6 C        2.901    -0.050    29.229     8.865
    48   6 C        3.144     0.078    26.009     8.344
    49   6 C        3.019    -0.050    29.206     8.865
    50   6 C        3.020    -0.050    29.210     8.865
    51   6 C        3.144     0.079    25.992     8.342
    52   7 N        2.623    -0.170    24.682     7.379
    53   6 C        2.901    -0.051    29.273     8.871
    54   6 C        3.144     0.079    25.992     8.342
    55   6 C        3.020    -0.050    29.210     8.865
    56   6 C        3.019    -0.050    29.206     8.865
    57   6 C        3.144     0.078    26.009     8.344
    58   7 N        2.623    -0.170    24.682     7.379
    59   6 C        2.901    -0.050    29.229     8.865
    60   6 C        3.148     0.077    26.023     8.345
    61   7 N        2.620    -0.171    24.719     7.384
    62   1 H        0.926     0.035     2.521     2.483
    63   1 H        0.926     0.036     2.498     2.471
    64   1 H        0.926     0.036     2.497     2.471
    65   1 H        0.926     0.035     2.521     2.483
    66   1 H        0.926     0.050     2.318     2.381
    67   1 H        0.926     0.035     2.512     2.479
    68   1 H        0.926     0.035     2.513     2.479
    69   1 H        0.926     0.049     2.327     2.386
    70   1 H        0.926     0.035     2.513     2.479
    71   1 H        0.926     0.035     2.512     2.479
    72   1 H        0.926     0.050     2.318     2.381
    73   6 C        1.995    -0.020    31.587     9.076
    74   6 C        1.963    -0.009    31.307     9.036
    75   6 C        1.963    -0.009    31.312     9.037
    76   6 C        1.995    -0.020    31.578     9.075
    77   6 C        1.995    -0.020    31.582     9.076
    78   6 C        1.963    -0.009    31.307     9.036
    79   6 C        1.963    -0.009    31.309     9.036
    80   6 C        1.995    -0.020    31.579     9.075
    81   6 C        1.995    -0.020    31.581     9.075
    82   6 C        1.963    -0.009    31.307     9.036
    83   6 C        1.963    -0.009    31.308     9.036
    84   6 C        1.995    -0.020    31.580     9.075
    85   6 C        1.995    -0.020    31.580     9.075
    86   6 C        1.963    -0.009    31.308     9.036
    87   6 C        1.963    -0.009    31.308     9.036
    88   6 C        1.995    -0.020    31.581     9.075
    89   6 C        1.995    -0.020    31.579     9.075
    90   6 C        1.963    -0.009    31.309     9.036
    91   6 C        1.963    -0.009    31.306     9.036
    92   6 C        1.994    -0.020    31.582     9.076
    93   6 C        1.994    -0.020    31.578     9.075
    94   6 C        1.963    -0.009    31.311     9.036
    95   6 C        1.963    -0.009    31.306     9.036
    96   6 C        1.995    -0.020    31.586     9.076
    97  29 Cu       2.947     0.200   146.140    27.527
    98   6 C        3.023    -0.051    29.230     8.868
    99   6 C        3.020    -0.049    29.197     8.863
   100   6 C        3.166     0.079    25.907     8.318
   101   6 C        2.953     0.017    27.628     8.621
   102   6 C        3.166     0.079    25.907     8.318
   103   6 C        3.020    -0.049    29.196     8.863
   104   6 C        3.023    -0.051    29.230     8.868
   105   6 C        3.149     0.077    26.031     8.346
   106   7 N        2.619    -0.173    24.752     7.389
   107   6 C        2.901    -0.047    29.174     8.856
   108   6 C        3.149     0.077    26.032     8.346
   109   6 C        3.023    -0.051    29.230     8.868
   110   6 C        3.020    -0.049    29.196     8.863
   111   6 C        3.166     0.079    25.907     8.318
   112   7 N        2.619    -0.173    24.750     7.389
   113   6 C        2.953     0.017    27.624     8.621
   114   6 C        3.166     0.079    25.907     8.318
   115   6 C        3.020    -0.049    29.196     8.863
   116   6 C        3.023    -0.051    29.230     8.868
   117   6 C        3.149     0.077    26.032     8.346
   118   7 N        2.619    -0.173    24.750     7.389
   119   6 C        2.901    -0.047    29.173     8.856
   120   6 C        3.149     0.077    26.031     8.346
   121   7 N        2.619    -0.173    24.752     7.389
   122   1 H        0.926     0.034     2.529     2.487
   123   1 H        0.926     0.036     2.509     2.477
   124   1 H        0.926     0.036     2.509     2.477
   125   1 H        0.926     0.034     2.529     2.487
   126   1 H        0.926     0.050     2.316     2.380
   127   1 H        0.926     0.034     2.529     2.487
   128   1 H        0.926     0.036     2.507     2.476
   129   1 H        0.926     0.036     2.507     2.476
   130   1 H        0.926     0.034     2.529     2.487
   131   1 H        0.926     0.050     2.316     2.380
   132  29 Cu       2.948     0.201   146.135    27.526
   133   6 C        3.023    -0.051    29.229     8.868
   134   6 C        3.020    -0.049    29.197     8.863
   135   6 C        3.166     0.079    25.907     8.318
   136   6 C        2.953     0.017    27.627     8.621
   137   6 C        3.166     0.079    25.907     8.318
   138   6 C        3.020    -0.049    29.197     8.863
   139   6 C        3.023    -0.051    29.229     8.868
   140   6 C        3.149     0.076    26.033     8.346
   141   7 N        2.619    -0.173    24.750     7.389
   142   6 C        2.901    -0.047    29.172     8.856
   143   6 C        3.149     0.076    26.033     8.346
   144   6 C        3.023    -0.051    29.229     8.868
   145   6 C        3.020    -0.049    29.196     8.863
   146   6 C        3.166     0.079    25.907     8.318
   147   7 N        2.619    -0.173    24.749     7.389
   148   6 C        2.953     0.017    27.626     8.621
   149   6 C        3.166     0.079    25.907     8.318
   150   6 C        3.020    -0.049    29.196     8.863
   151   6 C        3.023    -0.051    29.229     8.868
   152   6 C        3.149     0.076    26.032     8.346
   153   7 N        2.619    -0.173    24.750     7.389
   154   6 C        2.901    -0.047    29.172     8.856
   155   6 C        3.149     0.076    26.033     8.346
   156   7 N        2.619    -0.173    24.750     7.389
   157   1 H        0.926     0.034     2.529     2.487
   158   1 H        0.926     0.036     2.508     2.476
   159   1 H        0.926     0.036     2.507     2.476
   160   1 H        0.926     0.034     2.529     2.487
   161   1 H        0.926     0.050     2.315     2.380
   162   1 H        0.926     0.034     2.529     2.487
   163   1 H        0.926     0.036     2.507     2.476
   164   1 H        0.926     0.036     2.507     2.476
   165   1 H        0.926     0.034     2.529     2.487
   166   1 H        0.926     0.050     2.315     2.380
   167  29 Cu       2.948     0.201   146.134    27.526
   168   6 C        3.023    -0.051    29.229     8.868
   169   6 C        3.020    -0.049    29.196     8.863
   170   6 C        3.166     0.079    25.907     8.318
   171   6 C        2.953     0.017    27.627     8.621
   172   6 C        3.166     0.079    25.906     8.318
   173   6 C        3.021    -0.049    29.197     8.863
   174   6 C        3.023    -0.051    29.229     8.868
   175   6 C        3.149     0.076    26.032     8.346
   176   7 N        2.619    -0.173    24.749     7.388
   177   6 C        2.901    -0.047    29.172     8.856
   178   6 C        3.149     0.076    26.032     8.346
   179   6 C        3.023    -0.051    29.229     8.868
   180   6 C        3.021    -0.049    29.196     8.863
   181   6 C        3.166     0.079    25.906     8.318
   182   7 N        2.619    -0.173    24.749     7.389
   183   6 C        2.953     0.017    27.627     8.621
   184   6 C        3.166     0.079    25.907     8.318
   185   6 C        3.021    -0.049    29.197     8.863
   186   6 C        3.023    -0.051    29.229     8.868
   187   6 C        3.149     0.076    26.032     8.346
   188   7 N        2.619    -0.173    24.749     7.389
   189   6 C        2.901    -0.047    29.172     8.856
   190   6 C        3.149     0.076    26.032     8.346
   191   7 N        2.619    -0.173    24.749     7.389
   192   1 H        0.926     0.034     2.529     2.487
   193   1 H        0.926     0.036     2.507     2.476
   194   1 H        0.926     0.036     2.507     2.476
   195   1 H        0.926     0.034     2.528     2.487
   196   1 H        0.926     0.050     2.315     2.379
   197   1 H        0.926     0.034     2.529     2.487
   198   1 H        0.926     0.036     2.507     2.476
   199   1 H        0.926     0.036     2.507     2.476
   200   1 H        0.926     0.034     2.528     2.487
   201   1 H        0.926     0.050     2.315     2.379
   202  29 Cu       2.948     0.201   146.135    27.526
   203   6 C        3.023    -0.051    29.229     8.868
   204   6 C        3.020    -0.049    29.196     8.863
   205   6 C        3.166     0.079    25.906     8.318
   206   6 C        2.953     0.017    27.626     8.621
   207   6 C        3.166     0.079    25.907     8.318
   208   6 C        3.020    -0.049    29.196     8.863
   209   6 C        3.023    -0.051    29.229     8.868
   210   6 C        3.149     0.076    26.032     8.346
   211   7 N        2.619    -0.173    24.750     7.389
   212   6 C        2.901    -0.047    29.172     8.856
   213   6 C        3.149     0.076    26.033     8.346
   214   6 C        3.023    -0.051    29.229     8.868
   215   6 C        3.020    -0.049    29.196     8.863
   216   6 C        3.165     0.079    25.908     8.318
   217   7 N        2.619    -0.173    24.750     7.389
   218   6 C        2.953     0.017    27.627     8.621
   219   6 C        3.166     0.079    25.907     8.318
   220   6 C        3.020    -0.049    29.197     8.863
   221   6 C        3.023    -0.051    29.229     8.868
   222   6 C        3.149     0.076    26.033     8.346
   223   7 N        2.619    -0.173    24.750     7.389
   224   6 C        2.901    -0.047    29.172     8.856
   225   6 C        3.149     0.076    26.032     8.346
   226   7 N        2.619    -0.173    24.749     7.389
   227   1 H        0.926     0.034     2.529     2.487
   228   1 H        0.926     0.036     2.507     2.476
   229   1 H        0.926     0.036     2.507     2.476
   230   1 H        0.926     0.034     2.529     2.487
   231   1 H        0.926     0.050     2.315     2.380
   232   1 H        0.926     0.034     2.529     2.487
   233   1 H        0.926     0.036     2.508     2.476
   234   1 H        0.926     0.036     2.507     2.476
   235   1 H        0.926     0.034     2.529     2.487
   236   1 H        0.926     0.050     2.315     2.380
   237  29 Cu       2.947     0.200   146.141    27.527
   238   6 C        3.023    -0.051    29.230     8.868
   239   6 C        3.020    -0.049    29.195     8.863
   240   6 C        3.165     0.079    25.908     8.318
   241   6 C        2.953     0.017    27.624     8.621
   242   6 C        3.165     0.079    25.908     8.318
   243   6 C        3.020    -0.049    29.196     8.863
   244   6 C        3.023    -0.051    29.230     8.868
   245   6 C        3.149     0.077    26.032     8.346
   246   7 N        2.619    -0.173    24.751     7.389
   247   6 C        2.901    -0.047    29.174     8.856
   248   6 C        3.149     0.077    26.032     8.346
   249   6 C        3.023    -0.051    29.230     8.868
   250   6 C        3.020    -0.049    29.197     8.863
   251   6 C        3.165     0.079    25.909     8.318
   252   7 N        2.619    -0.173    24.752     7.389
   253   6 C        2.953     0.017    27.628     8.621
   254   6 C        3.165     0.079    25.909     8.318
   255   6 C        3.020    -0.049    29.196     8.863
   256   6 C        3.023    -0.051    29.230     8.868
   257   6 C        3.149     0.077    26.032     8.346
   258   7 N        2.619    -0.173    24.753     7.389
   259   6 C        2.901    -0.047    29.175     8.856
   260   6 C        3.149     0.077    26.032     8.346
   261   7 N        2.619    -0.173    24.751     7.389
   262   1 H        0.926     0.034     2.529     2.487
   263   1 H        0.926     0.036     2.507     2.476
   264   1 H        0.926     0.036     2.507     2.476
   265   1 H        0.926     0.034     2.529     2.487
   266   1 H        0.926     0.050     2.316     2.380
   267   1 H        0.926     0.034     2.529     2.487
   268   1 H        0.926     0.036     2.508     2.477
   269   1 H        0.926     0.036     2.508     2.477
   270   1 H        0.926     0.034     2.529     2.487
   271   1 H        0.926     0.050     2.316     2.380

 Mol. C6AA /au·bohr⁶  :    1452394.577712
 Mol. C8AA /au·bohr⁸  :   41886863.251313
 Mol. α(0) /au        :       2002.219297


Wiberg/Mayer (AO) data.
largest (>0.10) Wiberg bond orders for each atom

 ---------------------------------------------------------------------------
     #   Z sym  total        # sym  WBO       # sym  WBO       # sym  WBO
 ---------------------------------------------------------------------------
     1  29 Cu   2.332 --    16 N    0.535    22 N    0.535    25 N    0.534
                            10 N    0.534
     2   6 C    3.946 --     3 C    1.650    24 C    1.167    26 H    0.972
     3   6 C    3.949 --     2 C    1.650     4 C    1.175    27 H    0.971
     4   6 C    3.909 --    25 N    1.288     5 C    1.249     3 C    1.175
     5   6 C    3.941 --     6 C    1.250     4 C    1.249    73 C    1.185
     6   6 C    3.909 --    10 N    1.288     5 C    1.250     7 C    1.175
     7   6 C    3.949 --     8 C    1.650     6 C    1.175    28 H    0.971
     8   6 C    3.946 --     7 C    1.650     9 C    1.167    29 H    0.972
     9   6 C    3.921 --    11 C    1.355    10 N    1.249     8 C    1.167
    10   7 N    3.382 --     6 C    1.288     9 C    1.249     1 Cu   0.534
    11   6 C    3.931 --     9 C    1.355    12 C    1.352    30 H    0.964
    12   6 C    3.927 --    11 C    1.352    16 N    1.263    13 C    1.158
    13   6 C    3.950 --    14 C    1.666    12 C    1.158    31 H    0.972
    14   6 C    3.947 --    13 C    1.666    15 C    1.158    32 H    0.972
    15   6 C    3.929 --    17 C    1.351    16 N    1.265    14 C    1.158
    16   7 N    3.377 --    15 C    1.265    12 C    1.263     1 Cu   0.535
    17   6 C    3.926 --    15 C    1.351    18 C    1.351    33 H    0.964
    18   6 C    3.929 --    17 C    1.351    22 N    1.265    19 C    1.158
    19   6 C    3.947 --    20 C    1.666    18 C    1.158    34 H    0.972
    20   6 C    3.950 --    19 C    1.666    21 C    1.158    35 H    0.972
    21   6 C    3.927 --    23 C    1.352    22 N    1.263    20 C    1.158
    22   7 N    3.377 --    18 C    1.265    21 C    1.263     1 Cu   0.535
    23   6 C    3.931 --    24 C    1.355    21 C    1.352    36 H    0.964
    24   6 C    3.921 --    23 C    1.355    25 N    1.249     2 C    1.167
    25   7 N    3.382 --     4 C    1.288    24 C    1.249     1 Cu   0.534
    26   1 H    0.998 --     2 C    0.972
    27   1 H    0.998 --     3 C    0.971
    28   1 H    0.998 --     7 C    0.971
    29   1 H    0.998 --     8 C    0.972
    30   1 H    0.996 --    11 C    0.964
    31   1 H    0.998 --    13 C    0.972
    32   1 H    0.998 --    14 C    0.972
    33   1 H    0.996 --    17 C    0.964
    34   1 H    0.998 --    19 C    0.972
    35   1 H    0.998 --    20 C    0.972
    36   1 H    0.996 --    23 C    0.964
    37  29 Cu   2.332 --    52 N    0.535    58 N    0.535    46 N    0.534
                            61 N    0.534
    38   6 C    3.946 --    39 C    1.650    60 C    1.167    62 H    0.972
    39   6 C    3.949 --    38 C    1.650    40 C    1.175    63 H    0.971
    40   6 C    3.909 --    61 N    1.288    41 C    1.250    39 C    1.175
    41   6 C    3.941 --    42 C    1.250    40 C    1.250    96 C    1.185
    42   6 C    3.909 --    46 N    1.288    41 C    1.250    43 C    1.175
    43   6 C    3.949 --    44 C    1.650    42 C    1.175    64 H    0.971
    44   6 C    3.946 --    43 C    1.650    45 C    1.167    65 H    0.972
    45   6 C    3.921 --    47 C    1.355    46 N    1.249    44 C    1.167
    46   7 N    3.382 --    42 C    1.288    45 C    1.249    37 Cu   0.534
    47   6 C    3.932 --    45 C    1.355    48 C    1.352    66 H    0.964
    48   6 C    3.927 --    47 C    1.352    52 N    1.263    49 C    1.158
    49   6 C    3.950 --    50 C    1.666    48 C    1.158    67 H    0.972
    50   6 C    3.947 --    49 C    1.666    51 C    1.158    68 H    0.972
    51   6 C    3.929 --    53 C    1.352    52 N    1.265    50 C    1.158
    52   7 N    3.377 --    51 C    1.265    48 C    1.263    37 Cu   0.535
    53   6 C    3.926 --    51 C    1.352    54 C    1.352    69 H    0.964
    54   6 C    3.929 --    53 C    1.352    58 N    1.265    55 C    1.158
    55   6 C    3.947 --    56 C    1.666    54 C    1.158    70 H    0.972
    56   6 C    3.950 --    55 C    1.666    57 C    1.158    71 H    0.972
    57   6 C    3.927 --    59 C    1.352    58 N    1.263    56 C    1.158
    58   7 N    3.377 --    54 C    1.265    57 C    1.263    37 Cu   0.535
    59   6 C    3.932 --    60 C    1.355    57 C    1.352    72 H    0.964
    60   6 C    3.921 --    59 C    1.355    61 N    1.249    38 C    1.167
    61   7 N    3.382 --    40 C    1.288    60 C    1.249    37 Cu   0.534
    62   1 H    0.998 --    38 C    0.972
    63   1 H    0.998 --    39 C    0.971
    64   1 H    0.998 --    43 C    0.971
    65   1 H    0.998 --    44 C    0.972
    66   1 H    0.996 --    47 C    0.964
    67   1 H    0.998 --    49 C    0.972
    68   1 H    0.998 --    50 C    0.972
    69   1 H    0.996 --    53 C    0.964
    70   1 H    0.998 --    55 C    0.972
    71   1 H    0.998 --    56 C    0.972
    72   1 H    0.996 --    59 C    0.964
    73   6 C    3.918 --    74 C    2.469     5 C    1.185    76 C    0.203
    74   6 C    3.927 --    73 C    2.469    75 C    1.306
    75   6 C    3.924 --    76 C    2.467    74 C    1.306
    76   6 C    3.919 --    75 C    2.467   101 C    1.188    73 C    0.203
    77   6 C    3.917 --    78 C    2.464   113 C    1.190    80 C    0.202
    78   6 C    3.924 --    77 C    2.464    79 C    1.309
    79   6 C    3.924 --    80 C    2.464    78 C    1.309
    80   6 C    3.917 --    79 C    2.464   136 C    1.190    77 C    0.202
    81   6 C    3.917 --    82 C    2.464   148 C    1.190    84 C    0.202
    82   6 C    3.924 --    81 C    2.464    83 C    1.309
    83   6 C    3.924 --    84 C    2.464    82 C    1.309
    84   6 C    3.917 --    83 C    2.464   171 C    1.190    81 C    0.202
    85   6 C    3.917 --    86 C    2.464   183 C    1.190    88 C    0.202
    86   6 C    3.924 --    85 C    2.464    87 C    1.309
    87   6 C    3.924 --    88 C    2.464    86 C    1.309
    88   6 C    3.917 --    87 C    2.464   206 C    1.190    85 C    0.202
    89   6 C    3.918 --    90 C    2.464   218 C    1.190    92 C    0.202
    90   6 C    3.924 --    89 C    2.464    91 C    1.308
    91   6 C    3.924 --    92 C    2.464    90 C    1.308
    92   6 C    3.917 --    91 C    2.464   241 C    1.190    89 C    0.202
    93   6 C    3.919 --    94 C    2.468   253 C    1.187    96 C    0.202
    94   6 C    3.924 --    93 C    2.468    95 C    1.305
    95   6 C    3.927 --    96 C    2.470    94 C    1.305
    96   6 C    3.918 --    95 C    2.470    41 C    1.185    93 C    0.202
    97  29 Cu   2.305 --   112 N    0.529   118 N    0.529   106 N    0.529
                           121 N    0.529
    98   6 C    3.947 --    99 C    1.649   120 C    1.168   122 H    0.972
    99   6 C    3.948 --    98 C    1.649   100 C    1.176   123 H    0.971
   100   6 C    3.910 --   121 N    1.291   101 C    1.247    99 C    1.176
   101   6 C    3.929 --   102 C    1.247   100 C    1.247    76 C    1.188
   102   6 C    3.910 --   106 N    1.291   101 C    1.247   103 C    1.176
   103   6 C    3.948 --   104 C    1.649   102 C    1.176   124 H    0.971
   104   6 C    3.947 --   103 C    1.649   105 C    1.168   125 H    0.972
   105   6 C    3.920 --   107 C    1.354   106 N    1.248   104 C    1.168
   106   7 N    3.372 --   102 C    1.291   105 C    1.248    97 Cu   0.529
   107   6 C    3.925 --   105 C    1.354   108 C    1.354   126 H    0.964
   108   6 C    3.920 --   107 C    1.354   112 N    1.248   109 C    1.168
   109   6 C    3.947 --   110 C    1.649   108 C    1.168   127 H    0.972
   110   6 C    3.948 --   109 C    1.649   111 C    1.176   128 H    0.971
   111   6 C    3.909 --   112 N    1.291   113 C    1.246   110 C    1.176
   112   7 N    3.373 --   111 C    1.291   108 C    1.248    97 Cu   0.529
   113   6 C    3.929 --   111 C    1.246   114 C    1.246    77 C    1.190
   114   6 C    3.909 --   118 N    1.291   113 C    1.246   115 C    1.176
   115   6 C    3.948 --   116 C    1.649   114 C    1.176   129 H    0.971
   116   6 C    3.947 --   115 C    1.649   117 C    1.168   130 H    0.972
   117   6 C    3.920 --   119 C    1.354   118 N    1.248   116 C    1.168
   118   7 N    3.373 --   114 C    1.291   117 C    1.248    97 Cu   0.529
   119   6 C    3.925 --   120 C    1.354   117 C    1.354   131 H    0.964
   120   6 C    3.920 --   119 C    1.354   121 N    1.248    98 C    1.168
   121   7 N    3.372 --   100 C    1.291   120 C    1.248    97 Cu   0.529
   122   1 H    0.998 --    98 C    0.972
   123   1 H    0.998 --    99 C    0.971
   124   1 H    0.998 --   103 C    0.971
   125   1 H    0.998 --   104 C    0.972
   126   1 H    0.996 --   107 C    0.964
   127   1 H    0.998 --   109 C    0.972
   128   1 H    0.998 --   110 C    0.971
   129   1 H    0.998 --   115 C    0.971
   130   1 H    0.998 --   116 C    0.972
   131   1 H    0.996 --   119 C    0.964
   132  29 Cu   2.306 --   147 N    0.529   156 N    0.529   141 N    0.529
                           153 N    0.529
   133   6 C    3.947 --   134 C    1.649   155 C    1.168   157 H    0.972
   134   6 C    3.948 --   133 C    1.649   135 C    1.176   158 H    0.971
   135   6 C    3.909 --   156 N    1.291   136 C    1.246   134 C    1.176
   136   6 C    3.928 --   135 C    1.246   137 C    1.246    80 C    1.190
   137   6 C    3.909 --   141 N    1.291   136 C    1.246   138 C    1.176
   138   6 C    3.948 --   139 C    1.649   137 C    1.176   159 H    0.971
   139   6 C    3.947 --   138 C    1.649   140 C    1.168   160 H    0.972
   140   6 C    3.920 --   142 C    1.354   141 N    1.247   139 C    1.168
   141   7 N    3.372 --   137 C    1.291   140 C    1.247   132 Cu   0.529
   142   6 C    3.925 --   140 C    1.354   143 C    1.354   161 H    0.963
   143   6 C    3.920 --   142 C    1.354   147 N    1.247   144 C    1.168
   144   6 C    3.947 --   145 C    1.648   143 C    1.168   162 H    0.972
   145   6 C    3.948 --   144 C    1.648   146 C    1.176   163 H    0.971
   146   6 C    3.909 --   147 N    1.291   148 C    1.246   145 C    1.176
   147   7 N    3.372 --   146 C    1.291   143 C    1.247   132 Cu   0.529
   148   6 C    3.928 --   149 C    1.246   146 C    1.246    81 C    1.190
   149   6 C    3.909 --   153 N    1.291   148 C    1.246   150 C    1.176
   150   6 C    3.948 --   151 C    1.648   149 C    1.176   164 H    0.971
   151   6 C    3.947 --   150 C    1.648   152 C    1.168   165 H    0.972
   152   6 C    3.920 --   154 C    1.354   153 N    1.247   151 C    1.168
   153   7 N    3.372 --   149 C    1.291   152 C    1.247   132 Cu   0.529
   154   6 C    3.925 --   155 C    1.354   152 C    1.354   166 H    0.963
   155   6 C    3.920 --   154 C    1.354   156 N    1.247   133 C    1.168
   156   7 N    3.372 --   135 C    1.291   155 C    1.247   132 Cu   0.529
   157   1 H    0.998 --   133 C    0.972
   158   1 H    0.998 --   134 C    0.971
   159   1 H    0.998 --   138 C    0.971
   160   1 H    0.998 --   139 C    0.972
   161   1 H    0.996 --   142 C    0.963
   162   1 H    0.998 --   144 C    0.972
   163   1 H    0.998 --   145 C    0.971
   164   1 H    0.998 --   150 C    0.971
   165   1 H    0.998 --   151 C    0.972
   166   1 H    0.996 --   154 C    0.963
   167  29 Cu   2.307 --   191 N    0.529   182 N    0.529   176 N    0.529
                           188 N    0.529
   168   6 C    3.947 --   169 C    1.648   190 C    1.168   192 H    0.972
   169   6 C    3.948 --   168 C    1.648   170 C    1.176   193 H    0.971
   170   6 C    3.909 --   191 N    1.291   171 C    1.246   169 C    1.176
   171   6 C    3.928 --   170 C    1.246   172 C    1.246    84 C    1.190
   172   6 C    3.909 --   176 N    1.291   171 C    1.246   173 C    1.176
   173   6 C    3.948 --   174 C    1.648   172 C    1.176   194 H    0.971
   174   6 C    3.947 --   173 C    1.648   175 C    1.168   195 H    0.972
   175   6 C    3.920 --   177 C    1.354   176 N    1.247   174 C    1.168
   176   7 N    3.372 --   172 C    1.291   175 C    1.247   167 Cu   0.529
   177   6 C    3.925 --   178 C    1.354   175 C    1.354   196 H    0.963
   178   6 C    3.920 --   177 C    1.354   182 N    1.247   179 C    1.168
   179   6 C    3.947 --   180 C    1.648   178 C    1.168   197 H    0.972
   180   6 C    3.948 --   179 C    1.648   181 C    1.176   198 H    0.971
   181   6 C    3.909 --   182 N    1.291   183 C    1.246   180 C    1.176
   182   7 N    3.372 --   181 C    1.291   178 C    1.247   167 Cu   0.529
   183   6 C    3.928 --   181 C    1.246   184 C    1.246    85 C    1.190
   184   6 C    3.909 --   188 N    1.291   183 C    1.246   185 C    1.176
   185   6 C    3.948 --   186 C    1.648   184 C    1.176   199 H    0.971
   186   6 C    3.947 --   185 C    1.648   187 C    1.168   200 H    0.972
   187   6 C    3.920 --   189 C    1.354   188 N    1.247   186 C    1.168
   188   7 N    3.372 --   184 C    1.291   187 C    1.247   167 Cu   0.529
   189   6 C    3.925 --   187 C    1.354   190 C    1.354   201 H    0.963
   190   6 C    3.920 --   189 C    1.354   191 N    1.247   168 C    1.168
   191   7 N    3.372 --   170 C    1.291   190 C    1.247   167 Cu   0.529
   192   1 H    0.998 --   168 C    0.972
   193   1 H    0.998 --   169 C    0.971
   194   1 H    0.998 --   173 C    0.971
   195   1 H    0.998 --   174 C    0.972
   196   1 H    0.996 --   177 C    0.963
   197   1 H    0.998 --   179 C    0.972
   198   1 H    0.998 --   180 C    0.971
   199   1 H    0.998 --   185 C    0.971
   200   1 H    0.998 --   186 C    0.972
   201   1 H    0.996 --   189 C    0.963
   202  29 Cu   2.305 --   217 N    0.529   226 N    0.529   223 N    0.529
                           211 N    0.529
   203   6 C    3.947 --   204 C    1.648   225 C    1.168   227 H    0.972
   204   6 C    3.948 --   203 C    1.648   205 C    1.176   228 H    0.971
   205   6 C    3.909 --   226 N    1.291   206 C    1.246   204 C    1.176
   206   6 C    3.928 --   207 C    1.246   205 C    1.246    88 C    1.190
   207   6 C    3.909 --   211 N    1.291   206 C    1.246   208 C    1.176
   208   6 C    3.948 --   209 C    1.648   207 C    1.176   229 H    0.971
   209   6 C    3.947 --   208 C    1.648   210 C    1.168   230 H    0.972
   210   6 C    3.920 --   212 C    1.354   211 N    1.247   209 C    1.168
   211   7 N    3.372 --   207 C    1.291   210 C    1.247   202 Cu   0.529
   212   6 C    3.925 --   213 C    1.354   210 C    1.354   231 H    0.963
   213   6 C    3.920 --   212 C    1.354   217 N    1.247   214 C    1.168
   214   6 C    3.947 --   215 C    1.649   213 C    1.168   232 H    0.972
   215   6 C    3.948 --   214 C    1.649   216 C    1.176   233 H    0.971
   216   6 C    3.909 --   217 N    1.291   218 C    1.246   215 C    1.176
   217   7 N    3.372 --   216 C    1.291   213 C    1.247   202 Cu   0.529
   218   6 C    3.928 --   219 C    1.246   216 C    1.246    89 C    1.190
   219   6 C    3.909 --   223 N    1.291   218 C    1.246   220 C    1.176
   220   6 C    3.948 --   221 C    1.649   219 C    1.176   234 H    0.971
   221   6 C    3.947 --   220 C    1.649   222 C    1.168   235 H    0.972
   222   6 C    3.920 --   224 C    1.354   223 N    1.247   221 C    1.168
   223   7 N    3.372 --   219 C    1.291   222 C    1.247   202 Cu   0.529
   224   6 C    3.925 --   222 C    1.354   225 C    1.354   236 H    0.963
   225   6 C    3.920 --   224 C    1.354   226 N    1.247   203 C    1.168
   226   7 N    3.372 --   205 C    1.291   225 C    1.247   202 Cu   0.529
   227   1 H    0.998 --   203 C    0.972
   228   1 H    0.998 --   204 C    0.971
   229   1 H    0.998 --   208 C    0.971
   230   1 H    0.998 --   209 C    0.972
   231   1 H    0.996 --   212 C    0.963
   232   1 H    0.998 --   214 C    0.972
   233   1 H    0.998 --   215 C    0.971
   234   1 H    0.998 --   220 C    0.971
   235   1 H    0.998 --   221 C    0.972
   236   1 H    0.996 --   224 C    0.963
   237  29 Cu   2.304 --   261 N    0.529   246 N    0.529   258 N    0.529
                           252 N    0.529
   238   6 C    3.947 --   239 C    1.649   260 C    1.168   262 H    0.972
   239   6 C    3.948 --   238 C    1.649   240 C    1.176   263 H    0.971
   240   6 C    3.909 --   261 N    1.291   241 C    1.246   239 C    1.176
   241   6 C    3.929 --   240 C    1.246   242 C    1.246    92 C    1.190
   242   6 C    3.909 --   246 N    1.291   241 C    1.246   243 C    1.176
   243   6 C    3.948 --   244 C    1.649   242 C    1.176   264 H    0.971
   244   6 C    3.947 --   243 C    1.649   245 C    1.168   265 H    0.972
   245   6 C    3.920 --   247 C    1.354   246 N    1.248   244 C    1.168
   246   7 N    3.373 --   242 C    1.291   245 C    1.248   237 Cu   0.529
   247   6 C    3.925 --   248 C    1.354   245 C    1.354   266 H    0.963
   248   6 C    3.920 --   247 C    1.354   252 N    1.248   249 C    1.168
   249   6 C    3.947 --   250 C    1.649   248 C    1.168   267 H    0.972
   250   6 C    3.948 --   249 C    1.649   251 C    1.176   268 H    0.971
   251   6 C    3.910 --   252 N    1.291   253 C    1.247   250 C    1.176
   252   7 N    3.372 --   251 C    1.291   248 C    1.248   237 Cu   0.529
   253   6 C    3.929 --   254 C    1.247   251 C    1.247    93 C    1.187
   254   6 C    3.910 --   258 N    1.291   253 C    1.247   255 C    1.176
   255   6 C    3.948 --   256 C    1.649   254 C    1.176   269 H    0.971
   256   6 C    3.947 --   255 C    1.649   257 C    1.168   270 H    0.972
   257   6 C    3.920 --   259 C    1.354   258 N    1.248   256 C    1.168
   258   7 N    3.372 --   254 C    1.291   257 C    1.248   237 Cu   0.529
   259   6 C    3.925 --   257 C    1.354   260 C    1.354   271 H    0.964
   260   6 C    3.920 --   259 C    1.354   261 N    1.248   238 C    1.168
   261   7 N    3.373 --   240 C    1.291   260 C    1.248   237 Cu   0.529
   262   1 H    0.998 --   238 C    0.972
   263   1 H    0.998 --   239 C    0.971
   264   1 H    0.998 --   243 C    0.971
   265   1 H    0.998 --   244 C    0.972
   266   1 H    0.996 --   247 C    0.963
   267   1 H    0.998 --   249 C    0.972
   268   1 H    0.998 --   250 C    0.971
   269   1 H    0.998 --   255 C    0.971
   270   1 H    0.998 --   256 C    0.972
   271   1 H    0.996 --   259 C    0.964
 ---------------------------------------------------------------------------

Topologies differ in total number of bonds
Writing topology from bond orders to xtbtopo.mol

molecular dipole:
                 x           y           z       tot (Debye)
 q only:        0.010      -0.002      -0.000
   full:        0.010      -0.002      -0.001       0.025
molecular quadrupole (traceless):
                xx          xy          yy          xz          yz          zz
 q only:      217.316       0.116     -62.827      -0.058      -5.238    -154.489
  q+dip:      310.458       0.209     -43.703      -0.138     -12.935    -266.754
   full:      252.456       0.197     -61.740      -0.135      -7.478    -190.716


           -------------------------------------------------
          | TOTAL ENERGY             -496.928506316525 Eh   |
          | GRADIENT NORM               0.000550417099 Eh/α |
          | HOMO-LUMO GAP               0.000022283990 eV   |
           -------------------------------------------------

------------------------------------------------------------------------
 * finished run on 2021/11/21 at 21:21:59.116     
------------------------------------------------------------------------
 total:
 * wall-time:     0 d,  0 h,  0 min, 14.179 sec
 *  cpu-time:     0 d,  0 h,  0 min, 14.179 sec
 * ratio c/w:     1.000 speedup
 SCF:
 * wall-time:     0 d,  0 h,  0 min, 14.018 sec
 *  cpu-time:     0 d,  0 h,  0 min, 14.018 sec
 * ratio c/w:     1.000 speedup

