310
 energy: -560.995031752681 gnorm: 1.074825532621 xtb: 6.4.1 (bd6e46d)
Fe       49.38932600000000    0.04512600000000   -0.01416700000000
C        51.71831700000001   -3.10166700000000    1.30852200000000
C        52.63442400000001   -2.15746000000000    1.25823900000000
C        52.22324500000000   -1.10355600000000    0.33694800000000
C        52.84211500000000    0.02079000000000   -0.00946200000000
C        52.13807300000000    1.24073900000000   -0.37356800000000
C        52.46618400000001    2.20079300000000   -1.22104100000000
C        51.43140400000001    3.21707900000000   -1.23793900000000
C        50.49513600000000    2.84061700000000   -0.39104700000000
N        50.89712600000000    1.60760600000000    0.17277000000000
C        49.23406200000001    3.48561600000000   -0.01189600000000
C        48.13884400000001    2.85083400000000    0.33886500000000
C        47.06521900000000    3.16879000000000    1.30789300000000
C        46.22765600000000    2.17203600000000    1.23072600000000
C        46.66595300000000    1.16835300000000    0.25027400000000
N        47.77089100000001    1.60720600000000   -0.23401800000000
C        46.05511900000000   -0.08491800000000   -0.16327400000000
C        46.71927900000000   -1.18942500000000   -0.41769800000000
C        46.34543000000000   -2.25236600000000   -1.37522500000000
C        47.29417800000000   -3.14612200000000   -1.28620600000000
C        48.27990100000000   -2.70867200000000   -0.30332800000000
N        47.92685600000000   -1.56286700000000    0.19346900000000
C        49.51078900000000   -3.36474300000000    0.14239300000000
C        50.63383100000000   -2.71888100000000    0.40951400000000
N        50.96243100000000   -1.47144000000000   -0.18889000000000
H        51.77857900000000   -4.01144800000000    1.92606800000000
H        53.55075200000000   -2.19740900000000    1.83628800000000
H        53.39354900000000    2.21758900000000   -1.82218500000000
H        51.44830300000001    4.12176700000000   -1.85056000000000
H        49.18633900000000    4.58041900000000   -0.01567300000000
H        47.01239700000000    4.04751500000000    1.93288500000000
H        45.31602500000001    2.13636600000000    1.84805100000000
H        44.95686800000000   -0.08200700000000   -0.26254400000000
H        45.47657500000000   -2.30483100000000   -2.02417600000000
H        47.29133200000000   -4.06243000000000   -1.88496600000000
H        49.47530700000000   -4.46054400000000    0.25431800000000
Fe      146.02550900000003   -0.00225000000000   -0.01860000000000
C       143.69651800000000    2.84454200000000    1.86490400000000
C       142.78041100000002    1.92605200000000    1.64033100000000
C       143.19158999999999    1.06135600000000    0.53951700000000
C       142.57272000000000    0.02079000000000   -0.00946200000000
C       143.27676199999999   -1.11043400000000   -0.59356500000000
C       142.94865200000001   -1.89660600000000   -1.60443200000000
C       143.98343100000000   -2.89211500000000   -1.80957200000000
C       144.91969900000001   -2.67929900000000   -0.90754200000000
N       144.51770900000000   -1.57228700000000   -0.12477100000000
C       146.18077400000001   -3.38344000000000   -0.65462900000000
C       147.27599100000000   -2.82474800000000   -0.19219600000000
C       148.34961600000000   -3.31695300000000    0.70102600000000
C       149.18717899999999   -2.32318600000000    0.81011200000000
C       148.74888200000001   -1.15503700000000    0.03287700000000
N       147.64394400000000   -1.49642900000000   -0.52442300000000
C       149.35971700000002    0.15319800000000   -0.14099300000000
C       148.69555600000001    1.28573200000000   -0.18609900000000
C       149.06940499999999    2.50785700000000   -0.92981500000000
C       148.12065799999999    3.36958400000000   -0.67653600000000
C       147.13493399999999    2.75739000000000    0.20812700000000
N       147.48797999999999    1.53931100000000    0.48373800000000
C       145.90404599999999    3.31938400000000    0.76782200000000
C       144.78100400000000    2.63518000000000    0.91049000000000
N       144.45240400000000    1.52040500000000    0.09105500000000
H       143.63625600000003    3.62396600000000    2.64050900000000
H       141.86408400000002    1.85807200000000    2.21575600000000
H       142.02128600000000   -1.80158900000000   -2.19825600000000
H       143.96653200000000   -3.66745000000000   -2.57939200000000
H       146.22849600000001   -4.45853800000000   -0.86144200000000
H       148.40243799999999   -4.29637000000000    1.15215300000000
H       150.09880999999999   -2.40265800000000    1.42333700000000
H       150.45796700000000    0.16875400000000   -0.23908100000000
H       149.93826100000001    2.67980100000000   -1.55776700000000
H       148.12350400000000    4.38106600000000   -1.09491300000000
H       145.93952800000000    4.37540100000000    1.08109100000000
C        55.73681900000000    0.01875500000000   -0.01057400000000
C        56.94479600000000    0.02621000000000   -0.00887900000000
C        58.36356400000000    0.02690700000000   -0.00374200000000
C        59.57908000000000    0.01875500000000   -0.01057400000000
C        69.08696999999999    0.01875500000000   -0.01057400000000
C        70.29494600000000    0.02621000000000   -0.00887900000000
C        71.71371400000000    0.02690700000000   -0.00374200000000
C        72.92923100000000    0.01875500000000   -0.01057400000000
C        82.43712000000001    0.01875500000000   -0.01057400000000
C        83.64509700000001    0.02621000000000   -0.00887900000000
C        85.06386500000001    0.02690700000000   -0.00374200000000
C        86.27938100000000    0.01875500000000   -0.01057400000000
C        95.78727000000002    0.01875500000000   -0.01057400000000
C        96.99524700000001    0.02621000000000   -0.00887900000000
C        98.41401500000001    0.02690700000000   -0.00374200000000
C        99.62953200000000    0.01875500000000   -0.01057400000000
C       109.13742100000000    0.01875500000000   -0.01057400000000
C       110.34539800000000    0.02621000000000   -0.00887900000000
C       111.76416600000000    0.02690700000000   -0.00374200000000
C       112.97968200000000    0.01875500000000   -0.01057400000000
C       122.48757100000000    0.01875500000000   -0.01057400000000
C       123.69554800000000    0.02621000000000   -0.00887900000000
C       125.11431600000000    0.02690700000000   -0.00374200000000
C       126.32983300000001    0.01875500000000   -0.01057400000000
C       135.83772200000004    0.01875500000000   -0.01057400000000
C       137.04569900000001    0.02621000000000   -0.00887900000000
C       138.46446599999999    0.02690700000000   -0.00374200000000
C       139.67998299999999    0.01875500000000   -0.01057400000000
Fe       64.36766100000000    0.03889100000000    0.00156400000000
C        62.08785100000000   -3.22255700000000   -0.90810200000000
C        61.13164100000000   -2.32320600000000   -1.01012800000000
C        61.52401600000001   -1.16090100000000   -0.20761200000000
C        60.88889900000000   -0.00962900000000    0.00465400000000
C        61.57435600000000    1.26497100000000    0.23088300000000
C        61.23906600000000    2.34357100000000    0.93512400000000
C        62.26360700000000    3.36288700000000    0.84454200000000
C        63.21420400000000    2.86596300000000    0.07117700000000
N        62.83721000000000    1.54935800000000   -0.34496500000000
C        64.46134400000000    3.47766400000000   -0.34568800000000
C        65.56289599999999    2.81040700000000   -0.67746000000000
C        66.55644200000000    3.06239200000000   -1.71162900000000
C        67.45032500000001    2.10153300000000   -1.61014500000000
C        67.07062700000000    1.18964900000000   -0.50616800000000
N        65.97571200000000    1.63896800000000    0.00119800000000
C        67.72783400000000   -0.00962900000000    0.00465400000000
C        67.10442300000000   -1.07881100000000    0.46617100000000
C        67.48313500000000   -2.01092600000000    1.54164600000000
C        66.54246700000000   -2.92507200000000    1.62751300000000
C        65.53416500000000   -2.62929300000000    0.63008500000000
N        65.87194000000000   -1.57591600000000   -0.01921000000000
C        64.28177200000000   -3.33630100000000    0.29889200000000
C        63.16789500000001   -2.73960400000000   -0.04844900000000
N        62.78578300000000   -1.45684700000000    0.36923400000000
H        62.08819500000001   -4.21363100000000   -1.39933600000000
H        60.22310700000000   -2.44490000000000   -1.59127600000000
H        60.31421400000000    2.46192200000000    1.51205000000000
H        62.29090200000001    4.35205200000000    1.30119300000000
H        64.54728400000000    4.57504200000000   -0.40771100000000
H        66.58911400000000    3.86860800000000   -2.43845300000000
H        68.34338700000001    1.98856400000000   -2.24392000000000
H        68.39788600000000   -1.93652000000000    2.15181600000000
H        66.56151300000001   -3.73868100000000    2.33578000000000
H        64.32025700000000   -4.43626000000000    0.35792800000000
Fe       77.71781200000000    0.03889100000000    0.00156400000000
C        75.43800100000001   -3.22255700000000   -0.90810200000000
C        74.48179200000000   -2.32320600000000   -1.01012800000000
C        74.87416600000000   -1.16090100000000   -0.20761200000000
C        74.23905000000001   -0.00962900000000    0.00465400000000
C        74.92450700000001    1.26497100000000    0.23088300000000
C        74.58921599999999    2.34357100000000    0.93512400000000
C        75.61375800000000    3.36288700000000    0.84454200000000
C        76.56435500000001    2.86596300000000    0.07117700000000
N        76.18736100000000    1.54935800000000   -0.34496500000000
C        77.81149400000000    3.47766400000000   -0.34568800000000
C        78.91304599999999    2.81040700000000   -0.67746000000000
C        79.90659300000000    3.06239200000000   -1.71162900000000
C        80.80047600000000    2.10153300000000   -1.61014500000000
C        80.42077800000000    1.18964900000000   -0.50616800000000
N        79.32586200000000    1.63896800000000    0.00119800000000
C        81.07798500000001   -0.00962900000000    0.00465400000000
C        80.45457300000000   -1.07881100000000    0.46617100000000
C        80.83328600000000   -2.01092600000000    1.54164600000000
C        79.89261700000000   -2.92507200000000    1.62751300000000
C        78.88431600000001   -2.62929300000000    0.63008500000000
N        79.22209100000001   -1.57591600000000   -0.01921000000000
C        77.63192300000000   -3.33630100000000    0.29889200000000
C        76.51804600000000   -2.73960400000000   -0.04844900000000
N        76.13593400000001   -1.45684700000000    0.36923400000000
H        75.43834600000001   -4.21363100000000   -1.39933600000000
H        73.57325700000000   -2.44490000000000   -1.59127600000000
H        73.66436400000001    2.46192200000000    1.51205000000000
H        75.64105200000000    4.35205200000000    1.30119300000000
H        77.89743400000000    4.57504200000000   -0.40771100000000
H        79.93926500000001    3.86860800000000   -2.43845300000000
H        81.69353700000001    1.98856400000000   -2.24392000000000
H        81.74803600000000   -1.93652000000000    2.15181600000000
H        79.91166400000000   -3.73868100000000    2.33578000000000
H        77.67040700000000   -4.43626000000000    0.35792800000000
Fe       91.06796199999999    0.03889100000000    0.00156400000000
C        88.78815200000000   -3.22255700000000   -0.90810200000000
C        87.83194200000000   -2.32320600000000   -1.01012800000000
C        88.22431600000000   -1.16090100000000   -0.20761200000000
C        87.58920000000001   -0.00962900000000    0.00465400000000
C        88.27465700000000    1.26497100000000    0.23088300000000
C        87.93936700000000    2.34357100000000    0.93512400000000
C        88.96390800000000    3.36288700000000    0.84454200000000
C        89.91450500000001    2.86596300000000    0.07117700000000
N        89.53751099999999    1.54935800000000   -0.34496500000000
C        91.16164500000001    3.47766400000000   -0.34568800000000
C        92.26319700000002    2.81040700000000   -0.67746000000000
C        93.25674300000000    3.06239200000000   -1.71162900000000
C        94.15062600000000    2.10153300000000   -1.61014500000000
C        93.77092800000000    1.18964900000000   -0.50616800000000
N        92.67601300000000    1.63896800000000    0.00119800000000
C        94.42813500000001   -0.00962900000000    0.00465400000000
C        93.80472399999999   -1.07881100000000    0.46617100000000
C        94.18343600000000   -2.01092600000000    1.54164600000000
C        93.24276800000000   -2.92507200000000    1.62751300000000
C        92.23446600000001   -2.62929300000000    0.63008500000000
N        92.57224100000002   -1.57591600000000   -0.01921000000000
C        90.98207300000000   -3.33630100000000    0.29889200000000
C        89.86819600000000   -2.73960400000000   -0.04844900000000
N        89.48608400000001   -1.45684700000000    0.36923400000000
H        88.78849600000001   -4.21363100000000   -1.39933600000000
H        86.92340800000001   -2.44490000000000   -1.59127600000000
H        87.01451500000000    2.46192200000000    1.51205000000000
H        88.99120300000001    4.35205200000000    1.30119300000000
H        91.24758500000000    4.57504200000000   -0.40771100000000
H        93.28941500000001    3.86860800000000   -2.43845300000000
H        95.04368800000000    1.98856400000000   -2.24392000000000
H        95.09818600000000   -1.93652000000000    2.15181600000000
H        93.26181400000002   -3.73868100000000    2.33578000000000
H        91.02055799999999   -4.43626000000000    0.35792800000000
Fe      104.41811300000001    0.03889100000000    0.00156400000000
C       102.13830200000000   -3.22255700000000   -0.90810200000000
C       101.18209299999999   -2.32320600000000   -1.01012800000000
C       101.57446700000000   -1.16090100000000   -0.20761200000000
C       100.93935000000000   -0.00962900000000    0.00465400000000
C       101.62480700000002    1.26497100000000    0.23088300000000
C       101.28951700000000    2.34357100000000    0.93512400000000
C       102.31405800000000    3.36288700000000    0.84454200000000
C       103.26465600000002    2.86596300000000    0.07117700000000
N       102.88766200000002    1.54935800000000   -0.34496500000000
C       104.51179500000002    3.47766400000000   -0.34568800000000
C       105.61334700000002    2.81040700000000   -0.67746000000000
C       106.60689400000000    3.06239200000000   -1.71162900000000
C       107.50077700000000    2.10153300000000   -1.61014500000000
C       107.12107899999999    1.18964900000000   -0.50616800000000
N       106.02616300000000    1.63896800000000    0.00119800000000
C       107.77828599999999   -0.00962900000000    0.00465400000000
C       107.15487400000001   -1.07881100000000    0.46617100000000
C       107.53358700000001   -2.01092600000000    1.54164600000000
C       106.59291800000000   -2.92507200000000    1.62751300000000
C       105.58461700000001   -2.62929300000000    0.63008500000000
N       105.92239200000000   -1.57591600000000   -0.01921000000000
C       104.33222300000000   -3.33630100000000    0.29889200000000
C       103.21834699999999   -2.73960400000000   -0.04844900000000
N       102.83623500000002   -1.45684700000000    0.36923400000000
H       102.13864700000001   -4.21363100000000   -1.39933600000000
H       100.27355800000001   -2.44490000000000   -1.59127600000000
H       100.36466500000000    2.46192200000000    1.51205000000000
H       102.34135300000001    4.35205200000000    1.30119300000000
H       104.59773500000000    4.57504200000000   -0.40771100000000
H       106.63956600000000    3.86860800000000   -2.43845300000000
H       108.39383800000000    1.98856400000000   -2.24392000000000
H       108.44833700000000   -1.93652000000000    2.15181600000000
H       106.61196500000000   -3.73868100000000    2.33578000000000
H       104.37070799999999   -4.43626000000000    0.35792800000000
Fe      117.76826300000000    0.03889100000000    0.00156400000000
C       115.48845300000001   -3.22255700000000   -0.90810200000000
C       114.53224299999999   -2.32320600000000   -1.01012800000000
C       114.92461700000000   -1.16090100000000   -0.20761200000000
C       114.28950100000000   -0.00962900000000    0.00465400000000
C       114.97495800000000    1.26497100000000    0.23088300000000
C       114.63966800000000    2.34357100000000    0.93512400000000
C       115.66420900000000    3.36288700000000    0.84454200000000
C       116.61480600000002    2.86596300000000    0.07117700000000
N       116.23781200000002    1.54935800000000   -0.34496500000000
C       117.86194600000000    3.47766400000000   -0.34568800000000
C       118.96349800000000    2.81040700000000   -0.67746000000000
C       119.95704400000000    3.06239200000000   -1.71162900000000
C       120.85092700000000    2.10153300000000   -1.61014500000000
C       120.47122899999999    1.18964900000000   -0.50616800000000
N       119.37631400000001    1.63896800000000    0.00119800000000
C       121.12843599999999   -0.00962900000000    0.00465400000000
C       120.50502500000002   -1.07881100000000    0.46617100000000
C       120.88373700000001   -2.01092600000000    1.54164600000000
C       119.94306800000000   -2.92507200000000    1.62751300000000
C       118.93476700000001   -2.62929300000000    0.63008500000000
N       119.27254200000000   -1.57591600000000   -0.01921000000000
C       117.68237400000000   -3.33630100000000    0.29889200000000
C       116.56849699999999   -2.73960400000000   -0.04844900000000
N       116.18638500000002   -1.45684700000000    0.36923400000000
H       115.48879700000002   -4.21363100000000   -1.39933600000000
H       113.62370900000001   -2.44490000000000   -1.59127600000000
H       113.71481600000001    2.46192200000000    1.51205000000000
H       115.69150400000001    4.35205200000000    1.30119300000000
H       117.94788600000001    4.57504200000000   -0.40771100000000
H       119.98971600000000    3.86860800000000   -2.43845300000000
H       121.74398900000001    1.98856400000000   -2.24392000000000
H       121.79848699999999   -1.93652000000000    2.15181600000000
H       119.96211500000000   -3.73868100000000    2.33578000000000
H       117.72085800000001   -4.43626000000000    0.35792800000000
Fe      131.11841400000000    0.03889100000000    0.00156400000000
C       128.83860300000001   -3.22255700000000   -0.90810200000000
C       127.88239400000002   -2.32320600000000   -1.01012800000000
C       128.27476799999999   -1.16090100000000   -0.20761200000000
C       127.63965100000000   -0.00962900000000    0.00465400000000
C       128.32510800000000    1.26497100000000    0.23088300000000
C       127.98981800000000    2.34357100000000    0.93512400000000
C       129.01435900000001    3.36288700000000    0.84454200000000
C       129.96495700000000    2.86596300000000    0.07117700000000
N       129.58796300000000    1.54935800000000   -0.34496500000000
C       131.21209600000000    3.47766400000000   -0.34568800000000
C       132.31364800000000    2.81040700000000   -0.67746000000000
C       133.30719400000001    3.06239200000000   -1.71162900000000
C       134.20107800000000    2.10153300000000   -1.61014500000000
C       133.82138000000000    1.18964900000000   -0.50616800000000
N       132.72646399999999    1.63896800000000    0.00119800000000
C       134.47858600000001   -0.00962900000000    0.00465400000000
C       133.85517500000000   -1.07881100000000    0.46617100000000
C       134.23388800000001   -2.01092600000000    1.54164600000000
C       133.29321899999999   -2.92507200000000    1.62751300000000
C       132.28491800000000   -2.62929300000000    0.63008500000000
N       132.62269300000000   -1.57591600000000   -0.01921000000000
C       131.03252400000000   -3.33630100000000    0.29889200000000
C       129.91864799999999   -2.73960400000000   -0.04844900000000
N       129.53653600000001   -1.45684700000000    0.36923400000000
H       128.83894799999999   -4.21363100000000   -1.39933600000000
H       126.97385900000002   -2.44490000000000   -1.59127600000000
H       127.06496600000000    2.46192200000000    1.51205000000000
H       129.04165399999999    4.35205200000000    1.30119300000000
H       131.29803600000000    4.57504200000000   -0.40771100000000
H       133.33986700000000    3.86860800000000   -2.43845300000000
H       135.09413900000001    1.98856400000000   -2.24392000000000
H       135.14863800000001   -1.93652000000000    2.15181600000000
H       133.31226599999999   -3.73868100000000    2.33578000000000
H       131.07100900000000   -4.43626000000000    0.35792800000000
310
 energy: -561.441023133689 gnorm: 0.627931714215 xtb: 6.4.1 (bd6e46d)
Fe       49.39775428584420    0.04420293931649   -0.01380044982098
C        51.71805898298947   -3.10968552047563    1.30334987427354
C        52.64696460220981   -2.15667469774717    1.25666901322139
C        52.22020626634697   -1.10760068441229    0.34117844490550
C        52.82553041476447    0.03858358328238   -0.01053043859722
C        52.12785522050909    1.23501939536713   -0.36558184711774
C        52.47635022516823    2.22561208391724   -1.23836572891284
C        51.45847773238901    3.21944236943384   -1.25124107039829
C        50.48876662665839    2.82156188987377   -0.38322698834649
N        50.87807553460625    1.59222685303761    0.17651620360550
C        49.25098490526594    3.48638927358564   -0.01310863673640
C        48.12764638394808    2.83806695844965    0.34006277331356
C        47.06771114312114    3.17589560065709    1.29559002793233
C        46.20516759276685    2.16506870987268    1.23441628283659
C        46.65893369661185    1.16965985470866    0.26359522578207
N        47.79776112342712    1.59479681419352   -0.22348005968804
C        46.04405455508022   -0.06533969784866   -0.15708867732717
C        46.72274900174229   -1.19456486385463   -0.42257541330399
C        46.33816953637260   -2.25072015062194   -1.36541522024327
C        47.30105427440605   -3.16482038402548   -1.28515332955299
C        48.28800607622113   -2.71987427429028   -0.30971832122941
N        47.93313934378071   -1.54569842690587    0.17691912280026
C        49.49415052604730   -3.37140672248689    0.13541707614942
C        50.64089802030397   -2.70527935246666    0.41158292703309
N        50.95716761713489   -1.46922383669181   -0.16862224020024
H        51.77248520953681   -4.00704724532495    1.92007374760160
H        53.55408504897014   -2.19048619314633    1.83435737346405
H        53.39111472053078    2.22391630800110   -1.82322113123940
H        51.45325918621843    4.11914175800170   -1.85160500940849
H        49.19777278022580    4.57754790736943   -0.01118609147586
H        47.01735632429895    4.04639963719540    1.92874684543287
H        45.31314607411409    2.12967999744438    1.84704507771570
H        44.95835470900830   -0.07634545866006   -0.26606723263937
H        45.47814446043701   -2.29789218891105   -2.01872977212052
H        47.29916851563658   -4.06514412113375   -1.88237837638729
H        49.47211068696242   -4.45719160860827    0.25427808614184
Fe      146.01706609969648   -0.00137949895881   -0.01809193231641
C       143.69677497342494    2.85337369984143    1.86131133755704
C       142.76789201427115    1.92556060680548    1.63864865211099
C       143.19466320276226    1.06452419322484    0.54443060384134
C       142.58948837536528    0.00347467103765   -0.01374497830820
C       143.28700322496817   -1.10629778626475   -0.58464073099941
C       142.93849855866063   -1.91778028823863   -1.62605153865030
C       143.95634658912437   -2.89196006409838   -1.82307491596468
C       144.92607803644671   -2.66200787832784   -0.89631879622423
N       144.53677757137032   -1.55788169382492   -0.11821542081625
C       146.16384677629526   -3.38397611791384   -0.65596795855702
C       147.28719068097374   -2.81241535292443   -0.18865248438877
C       148.34712072571600   -3.32164765076214    0.68762487839050
C       149.20967160947865   -2.31702571130053    0.81502394783439
C       148.75589450270169   -1.15878969509826    0.04572413647846
N       147.61707040247668   -1.48620295309508   -0.51176863442817
C       149.37077652046372    0.13280962540675   -0.13854316031252
C       148.69207613960231    1.29168852127140   -0.18993693231039
C       149.07666527234016    2.50442013714079   -0.92048083970621
C       148.11377877894367    3.38776020025550   -0.67203907619560
C       147.12682801978448    2.76957668916616    0.20392460291330
N       147.48170875060521    1.52551936131856    0.46431392374345
C       145.92068259532277    3.32722765717303    0.76220592110748
C       144.77394169167201    2.62141548855825    0.90998880058567
N       144.45770529586798    1.51446322197660    0.11053449810986
H       143.64234707569088    3.62075701182479    2.63380191724989
H       141.86075308169865    1.85163089780587    2.21257161713249
H       142.02372564704493   -1.80760264735042   -2.20044905501438
H       143.96157954388988   -3.66467684477743   -2.57993927003703
H       146.21706347410648   -4.45655396753362   -0.85650476915103
H       148.39748112548148   -4.29450901909229    1.14829341641400
H       150.10169141974686   -2.39590193873593    1.42359035037958
H       150.45647869260557    0.16384347994576   -0.24359284431588
H       149.93669287590274    2.67197261617632   -1.55370250227533
H       148.11566840863793    4.38325494766876   -1.09186640588121
H       145.94272174758052    4.37211571796534    1.08043197472130
C        55.72844549724551    0.01894429562469   -0.00972348231895
C        56.95081410525515    0.02637374556847   -0.00881149414428
C        58.33826010857802    0.02737786773803   -0.00393808482913
C        59.55589516997793    0.02517543924167   -0.01294749841434
C        69.10151986863461    0.02427297658831   -0.00862227630369
C        70.31660358430375    0.02649012622870   -0.00755527037342
C        71.69059788324431    0.02726947139063   -0.00432742947523
C        72.90663972536942    0.02508557432013   -0.01369652746083
C        82.45162690704133    0.02433795253297   -0.00830188992209
C        83.66674581843678    0.02650935826550   -0.00749190228837
C        85.04076778553777    0.02726921498738   -0.00436644200058
C        86.25679309763156    0.02506605821353   -0.01377823020443
C        95.80175005315984    0.02435201441206   -0.00823719586121
C        97.01691414279192    0.02651423545529   -0.00747484574293
C        98.39090152644485    0.02726820598806   -0.00437201281853
C        99.60695570987204    0.02506043314584   -0.01379670735172
C       109.15188187564414    0.02435220609194   -0.00822924867582
C       110.36708944711218    0.02651661963095   -0.00746394708390
C       111.74102814403469    0.02726660095087   -0.00437023247118
C       112.95710832776791    0.02505361774644   -0.01380480249150
C       122.50195458835320    0.02433375740977   -0.00826472591435
C       123.71735962130376    0.02652351529484   -0.00742894068443
C       125.09105812777376    0.02726117822100   -0.00435664809456
C       126.30727047294640    0.02501918955842   -0.01383396507505
C       135.85328788788519    0.02459324684062   -0.00818020471814
C       137.07033468027629    0.02647843836135   -0.00784176843500
C       138.46030372148314    0.02644900259448   -0.00414222414635
C       139.68427386695163    0.01847329570398   -0.01016675084358
Fe       64.36170507232977    0.04074996753027   -0.00005191134986
C        62.08948453471631   -3.23860502325411   -0.90416733599803
C        61.12581113133049   -2.32208995968938   -1.00419494886044
C        61.54712614498624   -1.17653602423037   -0.21012463760693
C        60.90382476713174    0.00711473603860    0.00434764934125
C        61.59963882458216    1.26802299643949    0.22731226190754
C        61.23091388952243    2.36729314550581    0.94650952366517
C        62.24171454764348    3.36500881037413    0.85251252967459
C        63.22375705693955    2.84903878374944    0.06567132923124
N        62.85507066428135    1.54002763882169   -0.33757415162647
C        64.44859346711834    3.47882279708173   -0.34622081392246
C        65.57208678420088    2.80069523146227   -0.67832011259263
C        66.56071724407589    3.06926433329975   -1.70274091265651
C        67.46832236726276    2.09110856084341   -1.61003222554606
C        67.07332750327667    1.19052077073701   -0.52029308932204
N        65.94958853641013    1.62844335106741   -0.00902818104414
C        67.73089432500657    0.00626394264986   -0.00373522949741
C        67.09022375543965   -1.09225955058038    0.47432103126573
C        67.49402138746213   -2.00841587226978    1.53459818769427
C        66.53858947874322   -2.93949182892044    1.62794867127068
C        65.52500957733510   -2.63927546271907    0.63809420750779
N        65.86211223831754   -1.54951911436893   -0.01309369363051
C        64.30086997698903   -3.34346141577346    0.30785359273007
C        63.15519712507532   -2.72868587033331   -0.05497651018304
N        62.79376874762586   -1.44913099528143    0.34716271975267
H        62.09180631748043   -4.21054054289949   -1.39642858536256
H        60.22375346857259   -2.43747054951927   -1.58796854244292
H        60.31406994301564    2.46498864287184    1.51292554554865
H        62.28293408496345    4.34768109023339    1.30299823378824
H        64.53469583175466    4.57045063420835   -0.41178670624321
H        66.58366952226535    3.86733504796587   -2.43271938419841
H        68.34325720819214    1.98395614964297   -2.24140648700478
H        68.39331591619076   -1.93272355704265    2.14556814782640
H        66.55611129693203   -3.74328835821618    2.33651277591922
H        64.32445137162838   -4.43393034297605    0.35627178108257