 Entering Gaussian System
 *********************************************
 Gaussian 98:
 frequency output generated by the xtb code
 *********************************************
                         Standard orientation:
 --------------------------------------------------------------------
  Center     Atomic     Atomic              Coordinates (Angstroms)
  Number     Number      Type              X           Y           Z
 --------------------------------------------------------------------
    1         29             0       23.817574    0.000525   -0.010190
    2          6             0       26.350102   -3.421405    0.040069
    3          6             0       27.301570   -2.457723    0.037538
    4          6             0       26.611128   -1.200065    0.018644
    5          6             0       27.256708    0.045526    0.008001
    6          6             0       26.578571    1.273509   -0.004667
    7          6             0       27.235729    2.548967   -0.010988
    8          6             0       26.259223    3.487269   -0.017222
    9          6             0       25.008796    2.782960   -0.015428
   10          7             0       25.236510    1.441197   -0.008359
   11          6             0       23.771636    3.402073   -0.019779
   12          6             0       22.552078    2.748931   -0.023291
   13          6             0       21.278430    3.415768   -0.031809
   14          6             0       20.332722    2.448781   -0.039374
   15          6             0       21.027503    1.189969   -0.034789
   16          7             0       22.367342    1.404421   -0.024236
   17          6             0       20.402248   -0.044634   -0.041980
   18          6             0       21.060155   -1.262138   -0.034221
   19          6             0       20.398799   -2.538822   -0.038231
   20          6             0       21.369585   -3.480484   -0.021732
   21          6             0       22.625134   -2.780279   -0.008414
   22          7             0       22.405153   -1.441111   -0.017390
   23          6             0       23.861117   -3.401449    0.012164
   24          6             0       25.081665   -2.750344    0.021793
   25          7             0       25.274100   -1.403112    0.010565
   26          1             0       26.476321   -4.486724    0.052511
   27          1             0       28.368820   -2.566394    0.047528
   28          1             0       28.299835    2.685528   -0.009989
   29          1             0       26.357293    4.555604   -0.022958
   30          1             0       23.758131    4.482480   -0.022475
   31          1             0       21.149356    4.481009   -0.032170
   32          1             0       19.264928    2.554006   -0.047273
   33          1             0       19.322149   -0.059108   -0.053197
   34          1             0       19.334216   -2.672156   -0.051416
   35          1             0       21.268832   -4.548738   -0.018766
   36          1             0       23.875516   -4.481820    0.020170
   37         29             0       87.877548    0.028817   -0.008303
   38          6             0       85.352050    3.391620    0.651449
   39          6             0       84.398613    2.447081    0.470483
   40          6             0       85.086521    1.211227    0.229174
   41          6             0       84.438409   -0.011479   -0.001443
   42          6             0       85.113981   -1.219561   -0.229221
   43          6             0       84.454303   -2.472440   -0.461098
   44          6             0       85.428938   -3.395835   -0.638445
   45          6             0       86.680748   -2.704883   -0.515263
   46          7             0       86.455702   -1.385933   -0.266484
   47          6             0       87.916694   -3.314092   -0.638244
   48          6             0       89.137415   -2.672561   -0.528125
   49          6             0       90.409697   -3.328075   -0.664374
   50          6             0       91.357323   -2.377902   -0.495230
   51          6             0       90.665129   -1.140833   -0.254723
   52          7             0       89.324888   -1.351349   -0.280994
   53          6             0       91.293067    0.071877   -0.030789
   54          6             0       90.637778    1.267799    0.204732
   55          6             0       91.301757    2.521149    0.440557
   56          6             0       90.332854    3.445853    0.629154
   57          6             0       89.075807    2.758791    0.507807
   58          7             0       89.293128    1.443938    0.251409
   59          6             0       87.840941    3.369190    0.635742
   60          6             0       86.619150    2.730997    0.518894
   61          7             0       86.424045    1.408578    0.263325
   62          1             0       85.227972    4.437571    0.855246
   63          1             0       83.331577    2.555313    0.494939
   64          1             0       83.389925   -2.605492   -0.481136
   65          1             0       85.328709   -4.445786   -0.834829
   66          1             0       87.928246   -4.375915   -0.837938
   67          1             0       90.536518   -4.374905   -0.862956
   68          1             0       92.424882   -2.481406   -0.525789
   69          1             0       92.373200    0.085769   -0.039075
   70          1             0       92.366664    2.651840    0.455583
   71          1             0       90.435793    4.494625    0.831204
   72          1             0       87.828463    4.429800    0.841705
   73          6             0       28.653396    0.062243    0.009952
   74          6             0       29.873430    0.069387    0.010491
   75          6             0       31.209527    0.075014    0.006840
   76          6             0       32.434010    0.073322    0.006809
   77          6             0       33.769960    0.072135    0.001166
   78          6             0       34.990207    0.067782   -0.002347
   79          6             0       44.672401    0.035788   -0.018606
   80          6             0       45.892736    0.034358   -0.020272
   81          6             0       47.228216    0.032559   -0.020051
   82          6             0       48.452845    0.034578   -0.019644
   83          6             0       49.788308    0.034522   -0.018636
   84          6             0       51.008633    0.035344   -0.018983
   85          6             0       60.686730    0.040538   -0.020078
   86          6             0       61.907047    0.042176   -0.020653
   87          6             0       63.242502    0.041923   -0.018866
   88          6             0       64.467132    0.043872   -0.021721
   89          6             0       65.802599    0.041944   -0.020782
   90          6             0       67.022915    0.040059   -0.021483
   91          6             0       76.704740   -0.008470   -0.018102
   92          6             0       77.924916   -0.016418   -0.016780
   93          6             0       79.260957   -0.023917   -0.014418
   94          6             0       80.485358   -0.029742   -0.010619
   95          6             0       81.821579   -0.028231   -0.007540
   96          6             0       83.041556   -0.025086   -0.003668
   97         29             0       39.831777    0.050873   -0.018949
   98          6             0       37.332742   -3.372499    0.377434
   99          6             0       36.369798   -2.425458    0.275722
  100          6             0       37.045544   -1.168271    0.130005
  101          6             0       36.386144    0.062852   -0.008478
  102          6             0       37.053356    1.289012   -0.153359
  103          6             0       36.385530    2.550407   -0.299340
  104          6             0       37.354448    3.490220   -0.410809
  105          6             0       38.610087    2.800262   -0.332523
  106          7             0       38.393367    1.465663   -0.177135
  107          6             0       39.842245    3.424465   -0.404612
  108          6             0       41.070710    2.793056   -0.331470
  109          6             0       42.330641    3.475246   -0.406893
  110          6             0       43.293613    2.528863   -0.298740
  111          6             0       42.617665    1.271324   -0.157980
  112          7             0       41.278848    1.456623   -0.180215
  113          6             0       43.276850    0.039882   -0.020139
  114          6             0       42.609771   -1.187445    0.116193
  115          6             0       43.277784   -2.449553    0.253520
  116          6             0       42.308928   -3.390231    0.358699
  117          6             0       41.053293   -2.699824    0.285962
  118          7             0       41.269848   -1.364381    0.138225
  119          6             0       39.820971   -3.323604    0.359477
  120          6             0       38.592713   -2.691022    0.294327
  121          7             0       38.384393   -1.354440    0.144650
  122          1             0       37.219305   -4.432511    0.497562
  123          1             0       35.303895   -2.545266    0.294796
  124          1             0       35.320354    2.677489   -0.312412
  125          1             0       37.247716    4.550538   -0.534328
  126          1             0       39.845332    4.498131   -0.527630
  127          1             0       42.444422    4.535220   -0.526375
  128          1             0       44.359521    2.649196   -0.310887
  129          1             0       44.342949   -2.576627    0.265032
  130          1             0       42.416047   -4.451317    0.474813
  131          1             0       39.817504   -4.397692    0.478756
  132         29             0       55.847689    0.037801   -0.020866
  133          6             0       53.361316   -3.394954    0.377998
  134          6             0       52.395479   -2.451897    0.266908
  135          6             0       53.067567   -1.192669    0.121979
  136          6             0       52.404188    0.036003   -0.019734
  137          6             0       53.066335    1.265262   -0.161922
  138          6             0       52.392904    2.523696   -0.306817
  139          6             0       53.357685    3.467681   -0.419148
  140          6             0       54.616256    2.783071   -0.342419
  141          7             0       54.405475    1.447619   -0.185731
  142          6             0       55.845878    3.411463   -0.420898
  143          6             0       57.076272    2.783684   -0.350172
  144          6             0       58.334088    3.468664   -0.435445
  145          6             0       59.299922    2.525706   -0.323449
  146          6             0       58.627838    1.267530   -0.170160
  147          7             0       57.288515    1.448872   -0.190103
  148          6             0       59.291191    0.039771   -0.020755
  149          6             0       58.629066   -1.188727    0.128133
  150          6             0       59.302535   -2.446256    0.280993
  151          6             0       58.337741   -3.390335    0.392446
  152          6             0       57.079168   -2.706706    0.307410
  153          7             0       57.289937   -1.371590    0.147781
  154          6             0       55.849531   -3.335969    0.378230
  155          6             0       54.619142   -2.708990    0.300756
  156          7             0       54.406883   -1.373668    0.144827
  157          1             0       53.250977   -4.454996    0.500779
  158          1             0       51.329894   -2.575565    0.279425
  159          1             0       51.327180    2.646247   -0.318630
  160          1             0       53.246200    4.527524   -0.542524
  161          1             0       55.845190    4.484616   -0.548202
  162          1             0       58.444453    4.528068   -0.563476
  163          1             0       60.365517    2.648825   -0.340345
  164          1             0       60.368258   -2.568207    0.297912
  165          1             0       58.449245   -4.449673    0.520123
  166          1             0       55.850200   -4.409185    0.505024
  167         29             0       71.863200    0.016245   -0.020722
  168          6             0       69.357771   -3.399139    0.401885
  169          6             0       68.396763   -2.451467    0.288040
  170          6             0       69.075287   -1.197234    0.130685
  171          6             0       68.418453    0.033779   -0.021361
  172          6             0       69.087735    1.258004   -0.172845
  173          6             0       68.422117    2.519118   -0.329387
  174          6             0       69.392738    3.457042   -0.442550
  175          6             0       70.647095    2.766033   -0.354570
  176          7             0       70.428020    1.432717   -0.191856
  177          6             0       71.880650    3.387618   -0.425733
  178          6             0       73.107604    2.754196   -0.345459
  179          6             0       74.368966    3.433913   -0.422033
  180          6             0       75.330050    2.486456   -0.307404
  181          6             0       74.651751    1.230594   -0.161700
  182          7             0       73.313195    1.418241   -0.186794
  183          6             0       75.308654   -0.001467   -0.020252
  184          6             0       74.639121   -1.226806    0.120486
  185          6             0       75.304501   -2.489468    0.266315
  186          6             0       74.333809   -3.427066    0.380807
  187          6             0       73.079519   -2.734477    0.304252
  188          7             0       73.298759   -1.400746    0.145371
  189          6             0       71.846172   -3.355229    0.385024
  190          6             0       70.619094   -2.720987    0.313729
  191          7             0       70.413683   -1.385593    0.150238
  192          1             0       69.241898   -4.457526    0.533044
  193          1             0       67.330593   -2.569022    0.306110
  194          1             0       67.357170    2.647452   -0.347730
  195          1             0       69.287653    4.516677   -0.573155
  196          1             0       71.886321    4.460535   -0.555040
  197          1             0       74.484553    4.493164   -0.546865
  198          1             0       76.396245    2.604989   -0.318579
  199          1             0       76.369379   -2.618921    0.277435
  200          1             0       74.438501   -4.487444    0.505542
  201          1             0       71.840823   -4.428074    0.514878
 --------------------------------------------------------------------
     1 basis functions        1 primitive gaussians
     1 alpha electrons        1 beta electrons

 Harmonic frequencies (cm**-1), IR intensities (km*mol⁻¹),
 Raman scattering activities (A**4/amu), Raman depolarization ratios,
 reduced masses (AMU), force constants (mDyne/A) and normal coordinates:
                      1                      2                      3
                        a                      a                      a 
 Frequencies --    -3.4804                -1.8070                -1.3506
 Red. masses --    12.7953                15.6272                13.4400
 Frc consts  --     0.0000                 0.0000                 0.0000
 IR Inten    --   511.1563               195.9766                18.9760
 Raman Activ --     0.0000                 0.0000                 0.0000
 Depolar     --     0.0000                 0.0000                 0.0000
 Atom AN      X      Y      Z        X      Y      Z        X      Y      Z
   1  29    -0.00  -0.03  -0.01     0.00   0.08  -0.00    -0.00  -0.07  -0.02
   2   6    -0.01  -0.02  -0.06     0.00   0.04   0.01     0.00  -0.03   0.04
   3   6    -0.01  -0.02  -0.04     0.00   0.04   0.01     0.00  -0.02   0.03
   4   6    -0.00  -0.02  -0.02     0.00   0.04   0.00     0.00  -0.03   0.01
   5   6    -0.00  -0.02  -0.00     0.00   0.04  -0.00    -0.00  -0.02  -0.01
   6   6     0.00  -0.02   0.02     0.00   0.04  -0.00    -0.00  -0.03  -0.03
   7   6     0.00  -0.02   0.04     0.00   0.04  -0.01    -0.00  -0.02  -0.05
   8   6     0.01  -0.02   0.05     0.00   0.04  -0.01    -0.00  -0.03  -0.07
   9   6     0.00  -0.01   0.04     0.00   0.04  -0.01    -0.00  -0.03  -0.05
  10   7     0.00  -0.01   0.02     0.00   0.04  -0.01    -0.00  -0.03  -0.04
  11   6     0.01  -0.01   0.05     0.00   0.04  -0.01    -0.00  -0.03  -0.06
  12   6     0.00  -0.01   0.04     0.00   0.04  -0.01    -0.00  -0.03  -0.05
  13   6     0.00  -0.01   0.05     0.00   0.04  -0.01    -0.00  -0.03  -0.06
  14   6     0.00  -0.00   0.04     0.00   0.03  -0.01    -0.00  -0.03  -0.05
  15   6    -0.00  -0.01   0.02     0.00   0.04  -0.01    -0.00  -0.03  -0.03
  16   7     0.00  -0.01   0.02     0.00   0.04  -0.01    -0.00  -0.03  -0.03
  17   6    -0.00  -0.00  -0.00     0.00   0.04  -0.00    -0.00  -0.03  -0.01
  18   6    -0.00  -0.01  -0.02     0.00   0.04  -0.00     0.00  -0.03   0.01
  19   6    -0.01  -0.00  -0.04     0.00   0.04   0.00     0.00  -0.03   0.03
  20   6    -0.01  -0.01  -0.06     0.00   0.04   0.01     0.00  -0.03   0.04
  21   6    -0.01  -0.01  -0.05     0.00   0.04   0.01     0.00  -0.03   0.03
  22   7    -0.01  -0.01  -0.03     0.00   0.04   0.00     0.00  -0.03   0.01
  23   6    -0.01  -0.01  -0.06     0.00   0.04   0.01     0.00  -0.03   0.04
  24   6    -0.01  -0.01  -0.05     0.00   0.04   0.01     0.00  -0.03   0.03
  25   7    -0.00  -0.02  -0.03     0.00   0.04   0.00     0.00  -0.03   0.01
  26   1    -0.00  -0.01  -0.02     0.00   0.01   0.00     0.00  -0.01   0.02
  27   1    -0.00  -0.01  -0.01     0.00   0.01   0.00     0.00  -0.01   0.01
  28   1     0.00  -0.01   0.01     0.00   0.01  -0.00    -0.00  -0.01  -0.02
  29   1     0.00  -0.00   0.02     0.00   0.01  -0.00    -0.00  -0.01  -0.02
  30   1     0.00  -0.00   0.02     0.00   0.01  -0.00    -0.00  -0.01  -0.02
  31   1     0.00  -0.00   0.02     0.00   0.01  -0.01    -0.00  -0.01  -0.02
  32   1     0.00  -0.00   0.01     0.00   0.01  -0.00    -0.00  -0.01  -0.01
  33   1    -0.00  -0.00  -0.00     0.00   0.01  -0.00    -0.00  -0.01  -0.00
  34   1    -0.00  -0.00  -0.01     0.00   0.01   0.00     0.00  -0.01   0.01
  35   1    -0.00  -0.00  -0.02     0.00   0.01   0.00     0.00  -0.01   0.02
  36   1    -0.00  -0.00  -0.02     0.00   0.01   0.00     0.00  -0.01   0.02
  37  29     0.00  -0.11  -0.01    -0.00   0.19  -0.01     0.00  -0.12  -0.05
  38   6     0.03   0.01  -0.19    -0.05   0.07  -0.14     0.03  -0.02  -0.07
  39   6     0.02   0.01  -0.14    -0.03   0.05  -0.10     0.02  -0.02  -0.05
  40   6     0.01  -0.01  -0.07    -0.02   0.05  -0.05     0.01  -0.02  -0.04
  41   6     0.00  -0.01  -0.00    -0.00   0.03  -0.00    -0.00  -0.02  -0.02
  42   6    -0.01  -0.03   0.07     0.02   0.03   0.05    -0.01  -0.03  -0.00
  43   6    -0.02  -0.04   0.13     0.03   0.02   0.10    -0.02  -0.03   0.02
  44   6    -0.03  -0.06   0.18     0.05   0.02   0.14    -0.03  -0.04   0.03
  45   6    -0.03  -0.06   0.15     0.04   0.04   0.11    -0.02  -0.05   0.02
  46   7    -0.01  -0.05   0.08     0.02   0.05   0.06    -0.01  -0.05  -0.00
  47   6    -0.03  -0.08   0.18     0.05   0.06   0.13    -0.03  -0.06   0.02
  48   6    -0.03  -0.09   0.15     0.04   0.08   0.11    -0.02  -0.07   0.01
  49   6    -0.03  -0.11   0.18     0.05   0.09   0.13    -0.03  -0.08   0.02
  50   6    -0.02  -0.11   0.13     0.03   0.11   0.09    -0.02  -0.09   0.01
  51   6    -0.01  -0.09   0.06     0.02   0.11   0.04    -0.01  -0.08  -0.01
  52   7    -0.02  -0.08   0.08     0.02   0.10   0.06    -0.01  -0.07  -0.01
  53   6     0.00  -0.08  -0.01    -0.00   0.13  -0.01     0.00  -0.08  -0.03
  54   6     0.01  -0.06  -0.07    -0.02   0.13  -0.06     0.01  -0.07  -0.05
  55   6     0.02  -0.06  -0.14    -0.03   0.15  -0.11     0.02  -0.07  -0.07
  56   6     0.03  -0.04  -0.19    -0.05   0.14  -0.15     0.03  -0.06  -0.08
  57   6     0.03  -0.03  -0.15    -0.04   0.12  -0.12     0.02  -0.05  -0.07
  58   7     0.01  -0.05  -0.09    -0.02   0.12  -0.07     0.01  -0.06  -0.05
  59   6     0.03  -0.01  -0.19    -0.05   0.11  -0.14     0.03  -0.04  -0.07
  60   6     0.03  -0.01  -0.15    -0.04   0.09  -0.12     0.02  -0.03  -0.06
  61   7     0.02  -0.02  -0.09    -0.02   0.08  -0.07     0.01  -0.04  -0.04
  62   1     0.01   0.01  -0.07    -0.02   0.02  -0.05     0.01  -0.00  -0.02
  63   1     0.01   0.01  -0.04    -0.01   0.01  -0.03     0.01  -0.00  -0.01
  64   1    -0.01  -0.01   0.04     0.01  -0.00   0.03    -0.01  -0.01   0.01
  65   1    -0.01  -0.02   0.07     0.02   0.00   0.05    -0.01  -0.01   0.01
  66   1    -0.01  -0.03   0.07     0.02   0.01   0.05    -0.01  -0.02   0.01
  67   1    -0.01  -0.04   0.07     0.02   0.02   0.05    -0.01  -0.02   0.01
  68   1    -0.01  -0.03   0.04     0.01   0.04   0.03    -0.01  -0.03   0.00
  69   1     0.00  -0.03  -0.00    -0.00   0.04  -0.00     0.00  -0.03  -0.01
  70   1     0.01  -0.02  -0.04    -0.01   0.05  -0.03     0.01  -0.02  -0.02
  71   1     0.01  -0.01  -0.07    -0.02   0.04  -0.06     0.01  -0.02  -0.03
  72   1     0.01  -0.00  -0.07    -0.02   0.03  -0.05     0.01  -0.01  -0.03
  73   6    -0.00  -0.02  -0.00     0.00   0.04  -0.00    -0.00  -0.02  -0.01
  74   6    -0.00  -0.02  -0.00     0.00   0.04  -0.00    -0.00  -0.02  -0.01
  75   6    -0.00  -0.02  -0.00     0.00   0.03  -0.00    -0.00  -0.02  -0.01
  76   6    -0.00  -0.02  -0.00     0.00   0.03  -0.00    -0.00  -0.02  -0.01
  77   6    -0.00  -0.02   0.00     0.00   0.03  -0.00    -0.00  -0.01  -0.01
  78   6    -0.00  -0.02   0.00     0.00   0.03  -0.00    -0.00  -0.01  -0.01
  79   6     0.00  -0.01   0.00    -0.00  -0.00  -0.00     0.00   0.01   0.00
  80   6     0.00  -0.01   0.00    -0.00  -0.01  -0.00     0.00   0.01   0.00
  81   6     0.00  -0.01   0.00    -0.00  -0.01  -0.00     0.00   0.02   0.01
  82   6     0.00  -0.00   0.00    -0.00  -0.02  -0.00     0.00   0.02   0.01
  83   6     0.00  -0.00   0.00    -0.00  -0.02   0.00     0.00   0.02   0.01
  84   6     0.00   0.00  -0.00    -0.00  -0.03   0.00     0.00   0.02   0.01
  85   6     0.00   0.03  -0.00    -0.00  -0.07   0.01     0.00   0.04   0.03
  86   6     0.00   0.04  -0.00    -0.00  -0.08   0.01     0.00   0.05   0.03
  87   6     0.00   0.04  -0.00    -0.00  -0.08   0.01     0.00   0.05   0.03
  88   6     0.00   0.05  -0.00    -0.00  -0.08   0.01     0.00   0.05   0.03
  89   6     0.00   0.05   0.00    -0.00  -0.08   0.01     0.00   0.05   0.03
  90   6     0.00   0.05   0.00    -0.00  -0.08   0.01     0.00   0.05   0.02
  91   6     0.00   0.04   0.00    -0.00  -0.05   0.00    -0.00   0.02   0.00
  92   6     0.00   0.04   0.00    -0.00  -0.04   0.00    -0.00   0.02   0.00
  93   6     0.00   0.03   0.00    -0.00  -0.03   0.00    -0.00   0.01  -0.00
  94   6     0.00   0.02   0.00     0.00  -0.02   0.00    -0.00   0.01  -0.01
  95   6     0.00   0.01   0.00     0.00  -0.00   0.00    -0.00  -0.00  -0.01
  96   6     0.00   0.00   0.00     0.00   0.01  -0.00    -0.00  -0.01  -0.01
  97  29    -0.00  -0.03   0.01     0.00   0.03  -0.00    -0.00  -0.00  -0.02
  98   6     0.00  -0.03  -0.13    -0.01   0.02   0.00     0.01   0.01   0.11
  99   6     0.00  -0.03  -0.09    -0.01   0.02   0.00     0.01   0.00   0.08
 100   6     0.00  -0.02  -0.04    -0.00   0.02  -0.00     0.00  -0.00   0.03
 101   6    -0.00  -0.02   0.00     0.00   0.02  -0.00    -0.00  -0.01  -0.01
 102   6    -0.00  -0.01   0.05     0.00   0.02  -0.00    -0.00  -0.01  -0.05
 103   6    -0.00  -0.01   0.10     0.01   0.02  -0.00    -0.01  -0.02  -0.10
 104   6    -0.00  -0.00   0.13     0.01   0.02  -0.00    -0.01  -0.02  -0.13
 105   6    -0.00  -0.00   0.11     0.01   0.02  -0.00    -0.01  -0.02  -0.11
 106   7    -0.00  -0.01   0.06     0.01   0.02  -0.00    -0.00  -0.01  -0.06
 107   6    -0.00   0.00   0.13     0.01   0.01  -0.00    -0.01  -0.02  -0.13
 108   6    -0.00  -0.00   0.11     0.01   0.01  -0.00    -0.01  -0.01  -0.10
 109   6    -0.00   0.00   0.13     0.01   0.00  -0.00    -0.01  -0.01  -0.13
 110   6    -0.00  -0.00   0.10     0.01   0.00  -0.00    -0.01  -0.00  -0.09
 111   6    -0.00  -0.01   0.05     0.00   0.00  -0.00    -0.00  -0.00  -0.05
 112   7    -0.00  -0.01   0.06     0.00   0.01  -0.00    -0.00  -0.00  -0.06
 113   6     0.00  -0.01   0.00    -0.00   0.00  -0.00     0.00   0.01  -0.00
 114   6     0.00  -0.02  -0.04    -0.00   0.00  -0.00     0.00   0.01   0.04
 115   6     0.00  -0.02  -0.09    -0.01   0.00  -0.00     0.01   0.02   0.09
 116   6     0.00  -0.03  -0.13    -0.01   0.00  -0.00     0.01   0.02   0.12
 117   6     0.00  -0.02  -0.10    -0.01   0.01  -0.00     0.01   0.01   0.09
 118   7     0.00  -0.02  -0.05    -0.00   0.01  -0.00     0.00   0.01   0.05
 119   6     0.00  -0.03  -0.13    -0.01   0.01   0.00     0.01   0.01   0.11
 120   6     0.00  -0.03  -0.10    -0.01   0.02   0.00     0.01   0.01   0.09
 121   7     0.00  -0.02  -0.06    -0.00   0.02  -0.00     0.00   0.00   0.04
 122   1     0.00  -0.01  -0.05    -0.00   0.01   0.00     0.00   0.00   0.04
 123   1     0.00  -0.01  -0.03    -0.00   0.01   0.00     0.00  -0.00   0.02
 124   1    -0.00  -0.00   0.03     0.00   0.01  -0.00    -0.00  -0.01  -0.03
 125   1    -0.00   0.00   0.05     0.00   0.01  -0.00    -0.00  -0.01  -0.05
 126   1    -0.00   0.00   0.05     0.00   0.00  -0.00    -0.00  -0.01  -0.05
 127   1    -0.00   0.00   0.05     0.00   0.00  -0.00    -0.00  -0.00  -0.05
 128   1    -0.00   0.00   0.03     0.00  -0.00  -0.00    -0.00  -0.00  -0.03
 129   1     0.00  -0.01  -0.03    -0.00  -0.00  -0.00     0.00   0.01   0.03
 130   1     0.00  -0.01  -0.05    -0.00   0.00  -0.00     0.00   0.01   0.05
 131   1     0.00  -0.01  -0.05    -0.00   0.00   0.00     0.00   0.00   0.04
 132  29     0.00   0.04  -0.00    -0.00  -0.11   0.01     0.00   0.08   0.05
 133   6     0.01   0.00  -0.05    -0.02  -0.05  -0.07     0.01   0.03  -0.02
 134   6     0.01   0.00  -0.03    -0.01  -0.04  -0.05     0.00   0.02  -0.01
 135   6     0.00   0.01  -0.02    -0.01  -0.04  -0.02     0.00   0.03   0.00
 136   6     0.00   0.01  -0.00    -0.00  -0.03   0.00     0.00   0.03   0.02
 137   6    -0.00   0.01   0.02     0.01  -0.03   0.03    -0.00   0.03   0.03
 138   6    -0.01   0.01   0.03     0.01  -0.03   0.05    -0.00   0.03   0.04
 139   6    -0.01   0.02   0.04     0.02  -0.03   0.07    -0.01   0.03   0.06
 140   6    -0.01   0.02   0.03     0.01  -0.04   0.06    -0.01   0.04   0.05
 141   7    -0.01   0.02   0.02     0.01  -0.04   0.03    -0.00   0.04   0.04
 142   6    -0.01   0.02   0.04     0.02  -0.04   0.07    -0.01   0.04   0.06
 143   6    -0.01   0.03   0.03     0.01  -0.05   0.06    -0.00   0.04   0.06
 144   6    -0.01   0.03   0.04     0.02  -0.05   0.08    -0.01   0.05   0.07
 145   6    -0.01   0.03   0.03     0.01  -0.06   0.06    -0.00   0.05   0.06
 146   6    -0.00   0.03   0.01     0.01  -0.06   0.03    -0.00   0.04   0.04
 147   7    -0.00   0.03   0.02     0.01  -0.06   0.04    -0.00   0.04   0.04
 148   6     0.00   0.03  -0.00    -0.00  -0.06   0.01     0.00   0.04   0.02
 149   6     0.01   0.03  -0.02    -0.01  -0.06  -0.02     0.00   0.04   0.01
 150   6     0.01   0.03  -0.03    -0.01  -0.07  -0.05     0.01   0.04  -0.01
 151   6     0.01   0.02  -0.05    -0.02  -0.07  -0.07     0.01   0.03  -0.02
 152   6     0.01   0.02  -0.04    -0.01  -0.06  -0.05     0.01   0.03  -0.01
 153   7     0.01   0.02  -0.02    -0.01  -0.06  -0.03     0.00   0.04   0.01
 154   6     0.01   0.01  -0.05    -0.02  -0.06  -0.07     0.01   0.03  -0.02
 155   6     0.01   0.01  -0.04    -0.01  -0.05  -0.05     0.01   0.03  -0.01
 156   7     0.00   0.01  -0.02    -0.01  -0.05  -0.03     0.00   0.03   0.00
 157   1     0.00   0.00  -0.02    -0.01  -0.01  -0.03     0.00   0.01  -0.01
 158   1     0.00  -0.00  -0.01    -0.00  -0.01  -0.01     0.00   0.01  -0.00
 159   1    -0.00   0.00   0.01     0.00  -0.01   0.02    -0.00   0.01   0.01
 160   1    -0.00   0.00   0.02     0.01  -0.01   0.03    -0.00   0.01   0.02
 161   1    -0.00   0.01   0.02     0.01  -0.01   0.03    -0.00   0.01   0.02
 162   1    -0.00   0.01   0.02     0.01  -0.01   0.03    -0.00   0.01   0.02
 163   1    -0.00   0.01   0.01     0.00  -0.02   0.02    -0.00   0.01   0.02
 164   1     0.00   0.01  -0.01    -0.00  -0.02  -0.01     0.00   0.01  -0.00
 165   1     0.00   0.01  -0.02    -0.01  -0.02  -0.03     0.00   0.01  -0.01
 166   1     0.00   0.00  -0.02    -0.01  -0.02  -0.03     0.00   0.01  -0.01
 167  29     0.00   0.11   0.01    -0.00  -0.15   0.01     0.00   0.08   0.04
 168   6    -0.00   0.05   0.05     0.01  -0.08  -0.08    -0.01   0.02  -0.16
 169   6    -0.00   0.05   0.03     0.01  -0.08  -0.06    -0.00   0.03  -0.11
 170   6     0.00   0.05   0.02     0.00  -0.08  -0.03    -0.00   0.03  -0.04
 171   6     0.00   0.05   0.00    -0.00  -0.08   0.01     0.00   0.04   0.02
 172   6     0.00   0.05  -0.01    -0.00  -0.07   0.04     0.00   0.05   0.09
 173   6     0.00   0.04  -0.03    -0.01  -0.07   0.07     0.01   0.06   0.16
 174   6     0.00   0.04  -0.04    -0.01  -0.06   0.09     0.01   0.06   0.21
 175   6     0.00   0.04  -0.03    -0.01  -0.06   0.07     0.01   0.06   0.17
 176   7     0.00   0.05  -0.01    -0.01  -0.07   0.04     0.00   0.05   0.10
 177   6     0.00   0.04  -0.04    -0.01  -0.05   0.09     0.01   0.06   0.20
 178   6     0.00   0.04  -0.03    -0.01  -0.05   0.07     0.01   0.05   0.16
 179   6     0.00   0.04  -0.04    -0.01  -0.05   0.09     0.01   0.05   0.19
 180   6     0.00   0.04  -0.03    -0.01  -0.05   0.06     0.01   0.04   0.14
 181   6     0.00   0.04  -0.01    -0.00  -0.05   0.03     0.00   0.04   0.08
 182   7     0.00   0.05  -0.01    -0.00  -0.06   0.04     0.00   0.04   0.10
 183   6     0.00   0.04   0.00    -0.00  -0.05   0.00     0.00   0.03   0.01
 184   6    -0.00   0.05   0.02     0.00  -0.06  -0.03    -0.00   0.02  -0.05
 185   6    -0.00   0.05   0.04     0.01  -0.06  -0.06    -0.01   0.01  -0.12
 186   6    -0.00   0.05   0.05     0.01  -0.07  -0.08    -0.01   0.01  -0.17
 187   6    -0.00   0.05   0.04     0.01  -0.07  -0.07    -0.01   0.02  -0.13
 188   7    -0.00   0.05   0.02     0.01  -0.07  -0.03    -0.00   0.03  -0.07
 189   6    -0.00   0.05   0.05     0.01  -0.08  -0.08    -0.01   0.01  -0.16
 190   6    -0.00   0.05   0.04     0.01  -0.08  -0.07    -0.01   0.02  -0.13
 191   7     0.00   0.06   0.02     0.00  -0.08  -0.03    -0.00   0.03  -0.06
 192   1    -0.00   0.02   0.02     0.00  -0.03  -0.03    -0.00   0.00  -0.06
 193   1    -0.00   0.02   0.01     0.00  -0.03  -0.02    -0.00   0.01  -0.03
 194   1     0.00   0.01  -0.01    -0.00  -0.02   0.02     0.00   0.02   0.05
 195   1     0.00   0.01  -0.01    -0.00  -0.02   0.03     0.00   0.02   0.08
 196   1     0.00   0.01  -0.01    -0.00  -0.01   0.03     0.00   0.02   0.07
 197   1     0.00   0.01  -0.01    -0.00  -0.01   0.03     0.00   0.02   0.07
 198   1     0.00   0.01  -0.01    -0.00  -0.01   0.02     0.00   0.01   0.04
 199   1    -0.00   0.01   0.01     0.00  -0.02  -0.02    -0.00   0.00  -0.04
 200   1    -0.00   0.02   0.02     0.00  -0.02  -0.03    -0.00   0.00  -0.07
 201   1    -0.00   0.02   0.02     0.00  -0.02  -0.03    -0.00   0.00  -0.06
                      4                      5                      6
                        a                      a                      a 
 Frequencies --     0.6641                 1.0198                 1.6916
 Red. masses --    19.3725                18.2995                19.0974
 Frc consts  --     0.0000                 0.0000                 0.0000
 IR Inten    --     0.0576                 5.4982                 0.5410
 Raman Activ --     0.0000                 0.0000                 0.0000
 Depolar     --     0.0000                 0.0000                 0.0000
 Atom AN      X      Y      Z        X      Y      Z        X      Y      Z
   1  29    -0.00   0.01  -0.20     0.00  -0.21  -0.02    -0.00   0.03  -0.13
   2   6    -0.00   0.00  -0.09     0.05  -0.05  -0.01    -0.01   0.01  -0.04
   3   6    -0.00   0.00  -0.08     0.04  -0.04  -0.01    -0.01   0.00  -0.02
   4   6    -0.00   0.00  -0.08     0.02  -0.05  -0.01    -0.00   0.01  -0.03
   5   6    -0.00   0.00  -0.06     0.00  -0.04  -0.00    -0.00   0.00  -0.02
   6   6     0.00   0.00  -0.06    -0.02  -0.05  -0.00     0.00   0.01  -0.02
   7   6     0.00   0.00  -0.05    -0.04  -0.04   0.00     0.01   0.00  -0.01
   8   6     0.00   0.00  -0.05    -0.05  -0.05   0.00     0.01   0.01  -0.02
   9   6     0.00   0.00  -0.06    -0.04  -0.07  -0.00     0.01   0.01  -0.04
  10   7     0.00   0.00  -0.07    -0.02  -0.08  -0.00     0.00   0.01  -0.04
  11   6     0.00   0.00  -0.06    -0.05  -0.09  -0.00     0.01   0.01  -0.05
  12   6     0.00   0.00  -0.08    -0.04  -0.11  -0.01     0.01   0.02  -0.06
  13   6     0.00   0.01  -0.08    -0.05  -0.13  -0.01     0.01   0.02  -0.08
  14   6     0.00   0.01  -0.09    -0.04  -0.14  -0.01     0.01   0.02  -0.09
  15   6     0.00   0.01  -0.10    -0.02  -0.13  -0.01     0.00   0.02  -0.09
  16   7     0.00   0.01  -0.09    -0.02  -0.12  -0.01     0.00   0.02  -0.08
  17   6     0.00   0.01  -0.11     0.00  -0.14  -0.02    -0.00   0.02  -0.10
  18   6    -0.00   0.01  -0.11     0.02  -0.13  -0.02    -0.00   0.02  -0.10
  19   6    -0.00   0.01  -0.13     0.04  -0.14  -0.02    -0.01   0.02  -0.11
  20   6    -0.00   0.00  -0.13     0.05  -0.13  -0.02    -0.01   0.02  -0.10
  21   6    -0.00   0.00  -0.12     0.04  -0.11  -0.02    -0.01   0.02  -0.08
  22   7    -0.00   0.01  -0.12     0.03  -0.12  -0.02    -0.00   0.02  -0.09
  23   6    -0.00   0.00  -0.11     0.05  -0.09  -0.02    -0.01   0.01  -0.07
  24   6    -0.00   0.00  -0.10     0.04  -0.07  -0.01    -0.01   0.01  -0.05
  25   7    -0.00   0.00  -0.09     0.02  -0.07  -0.01    -0.00   0.01  -0.05
  26   1    -0.00   0.00  -0.03     0.02  -0.01  -0.00    -0.00   0.00  -0.01
  27   1    -0.00   0.00  -0.02     0.01  -0.01  -0.00    -0.00   0.00  -0.00
  28   1     0.00   0.00  -0.01    -0.01  -0.01   0.00     0.00   0.00   0.00
  29   1     0.00   0.00  -0.01    -0.02  -0.02   0.00     0.00   0.00  -0.00
  30   1     0.00   0.00  -0.02    -0.02  -0.03   0.00     0.00   0.00  -0.01
  31   1     0.00   0.00  -0.02    -0.02  -0.04  -0.00     0.00   0.01  -0.02
  32   1     0.00   0.00  -0.03    -0.01  -0.05  -0.00     0.00   0.01  -0.03
  33   1     0.00   0.00  -0.03     0.00  -0.05  -0.00    -0.00   0.01  -0.03
  34   1    -0.00   0.00  -0.04     0.01  -0.05  -0.01    -0.00   0.01  -0.03
  35   1    -0.00   0.00  -0.04     0.02  -0.04  -0.01    -0.00   0.01  -0.03
  36   1    -0.00   0.00  -0.03     0.02  -0.03  -0.01    -0.00   0.00  -0.02
  37  29     0.00   0.02  -0.20    -0.00  -0.02   0.02     0.00  -0.01   0.12
  38   6    -0.00   0.00  -0.05    -0.03  -0.03  -0.01     0.00   0.01   0.01
  39   6    -0.00   0.00  -0.05    -0.03  -0.04  -0.01     0.00   0.01   0.00
  40   6    -0.00   0.00  -0.06    -0.01  -0.03  -0.00     0.00   0.01   0.01
  41   6     0.00   0.00  -0.06    -0.00  -0.04   0.00    -0.00   0.01   0.01
  42   6     0.00   0.01  -0.07     0.01  -0.04   0.01    -0.00   0.00   0.02
  43   6     0.00   0.01  -0.07     0.02  -0.04   0.02    -0.00   0.01   0.02
  44   6     0.00   0.01  -0.09     0.03  -0.03   0.03    -0.00   0.00   0.03
  45   6     0.00   0.01  -0.09     0.03  -0.02   0.02    -0.00  -0.00   0.05
  46   7     0.00   0.01  -0.09     0.01  -0.02   0.02    -0.00   0.00   0.04
  47   6     0.00   0.01  -0.11     0.03  -0.01   0.03    -0.00  -0.00   0.07
  48   6     0.00   0.01  -0.11     0.03   0.00   0.03    -0.00  -0.01   0.08
  49   6     0.00   0.02  -0.12     0.03   0.01   0.04    -0.00  -0.01   0.10
  50   6     0.00   0.02  -0.13     0.02   0.02   0.03    -0.00  -0.01   0.11
  51   6     0.00   0.02  -0.12     0.01   0.02   0.02     0.00  -0.01   0.10
  52   7     0.00   0.01  -0.12     0.01   0.00   0.02    -0.00  -0.01   0.08
  53   6    -0.00   0.02  -0.11    -0.00   0.02   0.02     0.00  -0.01   0.10
  54   6    -0.00   0.01  -0.10    -0.01   0.02   0.01     0.00  -0.01   0.09
  55   6    -0.00   0.01  -0.10    -0.03   0.03   0.00     0.00  -0.01   0.09
  56   6    -0.00   0.01  -0.09    -0.04   0.02  -0.01     0.00  -0.01   0.08
  57   6    -0.00   0.01  -0.09    -0.03   0.01  -0.00     0.00  -0.00   0.06
  58   7    -0.00   0.01  -0.10    -0.02   0.01   0.01     0.00  -0.01   0.07
  59   6    -0.00   0.01  -0.07    -0.03  -0.00  -0.01     0.00  -0.00   0.04
  60   6    -0.00   0.00  -0.07    -0.03  -0.02  -0.01     0.00   0.00   0.03
  61   7    -0.00   0.01  -0.08    -0.02  -0.02  -0.00     0.00   0.00   0.03
  62   1    -0.00   0.00  -0.01    -0.01  -0.01  -0.01     0.00   0.00   0.00
  63   1    -0.00  -0.00  -0.01    -0.01  -0.01  -0.00     0.00   0.00  -0.00
  64   1     0.00   0.00  -0.02     0.01  -0.02   0.01    -0.00   0.00   0.00
  65   1     0.00   0.00  -0.03     0.01  -0.01   0.01    -0.00   0.00   0.01
  66   1     0.00   0.00  -0.03     0.01  -0.00   0.01    -0.00  -0.00   0.02
  67   1     0.00   0.01  -0.04     0.01   0.00   0.01    -0.00  -0.00   0.03
  68   1     0.00   0.01  -0.04     0.01   0.01   0.01    -0.00  -0.01   0.04
  69   1    -0.00   0.00  -0.04    -0.00   0.01   0.01     0.00  -0.00   0.03
  70   1    -0.00   0.00  -0.03    -0.01   0.01   0.00     0.00  -0.00   0.03
  71   1    -0.00   0.00  -0.03    -0.01   0.01  -0.00     0.00  -0.00   0.02
  72   1    -0.00   0.00  -0.02    -0.01  -0.00  -0.00     0.00   0.00   0.01
  73   6    -0.00   0.00  -0.05     0.00  -0.02   0.00    -0.00   0.00  -0.00
  74   6    -0.00   0.00  -0.04     0.00  -0.00   0.00    -0.00  -0.00   0.01
  75   6    -0.00   0.00  -0.03     0.00   0.02   0.00    -0.00  -0.01   0.03
  76   6    -0.00   0.00  -0.03     0.00   0.03   0.01    -0.00  -0.01   0.04
  77   6    -0.00   0.00  -0.02     0.00   0.04   0.01    -0.00  -0.01   0.06
  78   6    -0.00   0.00  -0.01     0.00   0.05   0.01    -0.00  -0.01   0.07
  79   6     0.00  -0.00   0.06     0.00   0.11   0.01    -0.00  -0.02   0.10
  80   6     0.00  -0.00   0.07     0.00   0.12   0.01    -0.00  -0.02   0.09
  81   6     0.00  -0.00   0.07     0.00   0.12   0.01    -0.00  -0.02   0.08
  82   6     0.00  -0.00   0.08     0.00   0.12   0.01    -0.00  -0.02   0.07
  83   6     0.00  -0.00   0.08     0.00   0.11   0.01     0.00  -0.02   0.06
  84   6     0.00  -0.00   0.09     0.00   0.10   0.01    -0.00  -0.02   0.05
  85   6    -0.00  -0.01   0.09    -0.00   0.02  -0.01     0.00   0.00  -0.04
  86   6    -0.00  -0.01   0.09    -0.00   0.01  -0.01     0.00   0.00  -0.05
  87   6    -0.00  -0.01   0.08    -0.00  -0.00  -0.01     0.00   0.01  -0.07
  88   6    -0.00  -0.01   0.08    -0.00  -0.01  -0.01     0.00   0.01  -0.08
  89   6    -0.00  -0.01   0.07    -0.00  -0.03  -0.01     0.00   0.01  -0.08
  90   6    -0.00  -0.01   0.06    -0.00  -0.03  -0.02     0.00   0.01  -0.09
  91   6     0.00  -0.01  -0.00    -0.00  -0.08  -0.01     0.00   0.02  -0.07
  92   6     0.00  -0.01  -0.01    -0.00  -0.08  -0.01     0.00   0.02  -0.06
  93   6     0.00  -0.00  -0.02    -0.00  -0.08  -0.01     0.00   0.02  -0.05
  94   6     0.00  -0.00  -0.03    -0.00  -0.07  -0.00     0.00   0.02  -0.04
  95   6     0.00  -0.00  -0.04    -0.00  -0.06  -0.00     0.00   0.01  -0.02
  96   6     0.00   0.00  -0.05    -0.00  -0.05   0.00    -0.00   0.01  -0.01
  97  29     0.00   0.00   0.07     0.00   0.19   0.03    -0.00  -0.03   0.22
  98   6    -0.00  -0.00  -0.01     0.02   0.07  -0.00    -0.00  -0.01   0.12
  99   6    -0.00  -0.00  -0.01     0.02   0.06  -0.00    -0.00  -0.01   0.10
 100   6    -0.00   0.00   0.00     0.01   0.07   0.01    -0.00  -0.01   0.09
 101   6    -0.00   0.00   0.00     0.00   0.06   0.01    -0.00  -0.01   0.08
 102   6     0.00   0.00   0.02    -0.01   0.07   0.02     0.00  -0.01   0.08
 103   6     0.00   0.00   0.02    -0.01   0.06   0.03     0.00  -0.01   0.06
 104   6     0.00   0.00   0.03    -0.02   0.07   0.03     0.00  -0.01   0.07
 105   6     0.00   0.00   0.04    -0.02   0.08   0.03     0.00  -0.01   0.08
 106   7     0.00   0.00   0.03    -0.01   0.08   0.02     0.00  -0.01   0.09
 107   6     0.00   0.00   0.05    -0.02   0.09   0.04     0.00  -0.02   0.08
 108   6     0.00   0.00   0.05    -0.02   0.09   0.03     0.00  -0.02   0.08
 109   6     0.00   0.00   0.06    -0.02   0.10   0.04     0.00  -0.02   0.08
 110   6     0.00   0.00   0.07    -0.02   0.11   0.03     0.00  -0.02   0.08
 111   6     0.00   0.00   0.05    -0.01   0.10   0.02     0.00  -0.02   0.09
 112   7     0.00   0.00   0.05    -0.01   0.10   0.03     0.00  -0.02   0.10
 113   6     0.00  -0.00   0.05     0.00   0.11   0.01    -0.00  -0.02   0.10
 114   6    -0.00  -0.00   0.04     0.01   0.10   0.01    -0.00  -0.02   0.11
 115   6    -0.00  -0.00   0.04     0.02   0.10   0.00    -0.00  -0.01   0.12
 116   6    -0.00  -0.00   0.03     0.02   0.10  -0.00    -0.00  -0.01   0.13
 117   6    -0.00  -0.00   0.02     0.02   0.09   0.00    -0.00  -0.01   0.13
 118   7    -0.00  -0.00   0.03     0.01   0.10   0.01    -0.00  -0.01   0.12
 119   6    -0.00  -0.00   0.01     0.02   0.08  -0.00    -0.00  -0.01   0.13
 120   6    -0.00  -0.00   0.01     0.02   0.07   0.00    -0.00  -0.01   0.12
 121   7    -0.00  -0.00   0.01     0.01   0.08   0.01    -0.00  -0.01   0.11
 122   1    -0.00  -0.00  -0.00     0.01   0.02  -0.00    -0.00  -0.00   0.04
 123   1    -0.00  -0.00  -0.00     0.00   0.02  -0.00    -0.00  -0.00   0.03
 124   1     0.00   0.00   0.00    -0.00   0.02   0.01     0.00  -0.00   0.02
 125   1     0.00   0.00   0.01    -0.01   0.02   0.01     0.00  -0.00   0.02
 126   1     0.00   0.00   0.02    -0.01   0.03   0.01     0.00  -0.00   0.02
 127   1     0.00   0.00   0.02    -0.01   0.03   0.01     0.00  -0.01   0.02
 128   1     0.00   0.00   0.02    -0.00   0.03   0.01     0.00  -0.01   0.02
 129   1    -0.00  -0.00   0.01     0.00   0.03   0.00    -0.00  -0.00   0.04
 130   1    -0.00  -0.00   0.01     0.01   0.03  -0.00    -0.00  -0.00   0.04
 131   1    -0.00  -0.00   0.00     0.01   0.02  -0.00    -0.00  -0.00   0.04
 132  29    -0.00  -0.01   0.23     0.00   0.14   0.01     0.00  -0.02   0.01
 133   6    -0.00   0.00   0.12    -0.03   0.08  -0.01     0.01  -0.01   0.03
 134   6    -0.00  -0.00   0.11    -0.02   0.09  -0.00     0.01  -0.01   0.04
 135   6    -0.00  -0.00   0.10    -0.01   0.09   0.00     0.00  -0.01   0.04
 136   6     0.00  -0.00   0.09     0.00   0.09   0.01    -0.00  -0.01   0.04
 137   6     0.00  -0.00   0.09     0.01   0.09   0.01    -0.00  -0.01   0.03
 138   6     0.00  -0.00   0.08     0.02   0.09   0.02    -0.01  -0.01   0.04
 139   6     0.00  -0.01   0.08     0.03   0.09   0.02    -0.01  -0.01   0.03
 140   6     0.00  -0.01   0.08     0.02   0.07   0.02    -0.01  -0.01   0.02
 141   7     0.00  -0.00   0.10     0.01   0.08   0.01    -0.00  -0.01   0.02
 142   6     0.00  -0.01   0.08     0.03   0.06   0.02    -0.01  -0.01   0.01
 143   6     0.00  -0.01   0.08     0.02   0.05   0.01    -0.01  -0.01  -0.01
 144   6     0.00  -0.01   0.08     0.03   0.04   0.01    -0.01  -0.00  -0.02
 145   6     0.00  -0.01   0.08     0.02   0.03   0.01    -0.01  -0.00  -0.03
 146   6     0.00  -0.01   0.09     0.01   0.04   0.00    -0.00  -0.00  -0.02
 147   7     0.00  -0.01   0.10     0.01   0.05   0.01    -0.00  -0.01  -0.01
 148   6    -0.00  -0.01   0.09    -0.00   0.03  -0.00     0.00  -0.00  -0.03
 149   6    -0.00  -0.00   0.11    -0.01   0.04  -0.01     0.00  -0.00  -0.02
 150   6    -0.00  -0.00   0.11    -0.02   0.03  -0.01     0.01  -0.00  -0.03
 151   6    -0.00  -0.00   0.12    -0.03   0.04  -0.01     0.01  -0.00  -0.02
 152   6    -0.00  -0.00   0.12    -0.02   0.05  -0.01     0.01  -0.01  -0.01
 153   7    -0.00  -0.00   0.12    -0.01   0.05  -0.00     0.00  -0.01  -0.01
 154   6    -0.00  -0.00   0.13    -0.03   0.06  -0.01     0.01  -0.01   0.01
 155   6    -0.00  -0.00   0.12    -0.02   0.07  -0.00     0.01  -0.01   0.02
 156   7    -0.00  -0.00   0.12    -0.01   0.08   0.00     0.00  -0.01   0.02
 157   1    -0.00   0.00   0.04    -0.01   0.02  -0.00     0.00  -0.00   0.01
 158   1    -0.00  -0.00   0.03    -0.01   0.03  -0.00     0.00  -0.00   0.02
 159   1     0.00  -0.00   0.02     0.01   0.03   0.01    -0.00  -0.00   0.01
 160   1     0.00  -0.00   0.02     0.01   0.03   0.01    -0.00  -0.00   0.01
 161   1     0.00  -0.00   0.02     0.01   0.02   0.01    -0.00  -0.00   0.00
 162   1     0.00  -0.00   0.02     0.01   0.01   0.00    -0.00  -0.00  -0.01
 163   1     0.00  -0.00   0.02     0.01   0.01   0.00    -0.00   0.00  -0.01
 164   1    -0.00  -0.00   0.03    -0.01   0.01  -0.00     0.00   0.00  -0.01
 165   1    -0.00  -0.00   0.04    -0.01   0.01  -0.00     0.00  -0.00  -0.01
 166   1    -0.00   0.00   0.04    -0.01   0.02  -0.00     0.00  -0.00   0.00
 167  29    -0.00  -0.02   0.07    -0.00  -0.13  -0.05     0.00   0.03  -0.23
 168   6     0.00  -0.00   0.09    -0.02  -0.04  -0.00     0.00   0.01  -0.13
 169   6     0.00  -0.00   0.08    -0.01  -0.04  -0.01     0.00   0.01  -0.12
 170   6     0.00  -0.01   0.06    -0.01  -0.04  -0.01     0.00   0.01  -0.11
 171   6    -0.00  -0.01   0.05    -0.00  -0.04  -0.02     0.00   0.01  -0.10
 172   6    -0.00  -0.01   0.04     0.00  -0.04  -0.03    -0.00   0.01  -0.09
 173   6    -0.00  -0.01   0.03     0.01  -0.04  -0.03    -0.00   0.01  -0.08
 174   6    -0.00  -0.01   0.01     0.01  -0.05  -0.04    -0.00   0.01  -0.08
 175   6    -0.00  -0.01   0.01     0.01  -0.05  -0.04    -0.00   0.01  -0.09
 176   7    -0.00  -0.01   0.03     0.01  -0.05  -0.03    -0.00   0.01  -0.10
 177   6    -0.00  -0.01  -0.00     0.02  -0.06  -0.04    -0.00   0.01  -0.08
 178   6    -0.00  -0.01  -0.01     0.01  -0.06  -0.04    -0.00   0.01  -0.08
 179   6    -0.00  -0.01  -0.02     0.02  -0.07  -0.04    -0.00   0.02  -0.07
 180   6    -0.00  -0.01  -0.02     0.01  -0.07  -0.03    -0.00   0.02  -0.07
 181   6    -0.00  -0.01  -0.00     0.01  -0.07  -0.03    -0.00   0.02  -0.08
 182   7    -0.00  -0.01   0.01     0.01  -0.07  -0.03    -0.00   0.01  -0.09
 183   6     0.00  -0.01   0.01    -0.00  -0.07  -0.02     0.00   0.02  -0.08
 184   6     0.00  -0.01   0.02    -0.01  -0.07  -0.01     0.00   0.01  -0.10
 185   6     0.00  -0.00   0.03    -0.01  -0.07  -0.00     0.00   0.01  -0.11
 186   6     0.00  -0.00   0.05    -0.02  -0.07  -0.00     0.00   0.01  -0.12
 187   6     0.00  -0.00   0.05    -0.01  -0.06  -0.01     0.00   0.01  -0.12
 188   7     0.00  -0.01   0.04    -0.01  -0.07  -0.01     0.00   0.01  -0.12
 189   6     0.00  -0.00   0.07    -0.02  -0.06  -0.00     0.00   0.01  -0.13
 190   6     0.00  -0.00   0.07    -0.01  -0.05  -0.01     0.00   0.01  -0.13
 191   7     0.00  -0.01   0.06    -0.01  -0.05  -0.01     0.00   0.01  -0.12
 192   1     0.00  -0.00   0.03    -0.01  -0.01   0.00     0.00   0.00  -0.04
 193   1     0.00  -0.00   0.03    -0.00  -0.01  -0.00     0.00   0.00  -0.03
 194   1    -0.00  -0.00   0.01     0.00  -0.01  -0.01    -0.00   0.00  -0.02
 195   1    -0.00  -0.00   0.00     0.01  -0.01  -0.01    -0.00   0.00  -0.02
 196   1    -0.00  -0.00  -0.00     0.01  -0.02  -0.01    -0.00   0.00  -0.02
 197   1    -0.00  -0.00  -0.01     0.01  -0.02  -0.01    -0.00   0.00  -0.02
 198   1    -0.00  -0.00  -0.01     0.00  -0.02  -0.01    -0.00   0.01  -0.02
 199   1     0.00  -0.00   0.01    -0.00  -0.02  -0.00     0.00   0.00  -0.03
 200   1     0.00  -0.00   0.02    -0.01  -0.02   0.00     0.00   0.00  -0.04
 201   1     0.00  -0.00   0.02    -0.01  -0.02   0.00     0.00   0.00  -0.04
                      7                      8                      9
                        a                      a                      a 
 Frequencies --     2.7405                 3.0906                 3.1968
 Red. masses --    11.6459                18.7008                11.6816
 Frc consts  --     0.0000                 0.0000                 0.0000
 IR Inten    --     0.6987                 2.5762                 0.0035
 Raman Activ --     0.0000                 0.0000                 0.0000
 Depolar     --     0.0000                 0.0000                 0.0000
 Atom AN      X      Y      Z        X      Y      Z        X      Y      Z
   1  29    -0.00  -0.01   0.01     0.00  -0.02  -0.09     0.00  -0.01  -0.03
   2   6     0.00  -0.00  -0.17     0.01   0.00   0.00     0.01   0.00   0.14
   3   6     0.00  -0.00  -0.12     0.01   0.00   0.01     0.00   0.00   0.10
   4   6     0.00  -0.00  -0.06     0.00   0.00   0.00     0.00   0.00   0.05
   5   6    -0.00   0.00   0.01    -0.00   0.00   0.01     0.00   0.00  -0.00
   6   6    -0.00   0.00   0.07    -0.00   0.00  -0.00    -0.00   0.00  -0.06
   7   6    -0.00   0.00   0.14    -0.01   0.00   0.00    -0.00   0.00  -0.11
   8   6    -0.00   0.00   0.19    -0.01  -0.00  -0.01    -0.01  -0.00  -0.15
   9   6    -0.00  -0.00   0.15    -0.01  -0.00  -0.03    -0.00  -0.00  -0.13
  10   7    -0.00  -0.00   0.09    -0.00  -0.00  -0.02    -0.00  -0.00  -0.07
  11   6    -0.00  -0.00   0.18    -0.01  -0.01  -0.04    -0.00  -0.00  -0.16
  12   6    -0.00  -0.00   0.15    -0.01  -0.01  -0.06    -0.00  -0.01  -0.13
  13   6    -0.00  -0.01   0.18    -0.01  -0.01  -0.08    -0.00  -0.01  -0.17
  14   6    -0.00  -0.01   0.13    -0.01  -0.02  -0.09    -0.00  -0.01  -0.13
  15   6    -0.00  -0.01   0.06    -0.00  -0.01  -0.08    -0.00  -0.01  -0.07
  16   7    -0.00  -0.00   0.08    -0.00  -0.01  -0.06    -0.00  -0.01  -0.08
  17   6     0.00  -0.01  -0.01     0.00  -0.02  -0.08     0.00  -0.01  -0.02
  18   6     0.00  -0.01  -0.07     0.00  -0.01  -0.07     0.00  -0.01   0.03
  19   6     0.00  -0.01  -0.14     0.01  -0.02  -0.08     0.00  -0.01   0.09
  20   6     0.00  -0.01  -0.19     0.01  -0.01  -0.06     0.01  -0.01   0.13
  21   6     0.00  -0.00  -0.15     0.01  -0.01  -0.05     0.00  -0.01   0.10
  22   7     0.00  -0.00  -0.08     0.00  -0.01  -0.06     0.00  -0.01   0.05
  23   6     0.00  -0.00  -0.18     0.01  -0.01  -0.03     0.01  -0.00   0.13
  24   6     0.00  -0.00  -0.14     0.01  -0.00  -0.01     0.00  -0.00   0.11
  25   7     0.00  -0.00  -0.07     0.00  -0.00  -0.02     0.00  -0.00   0.06
  26   1     0.00  -0.00  -0.07     0.00   0.00   0.00     0.00   0.00   0.05
  27   1     0.00   0.00  -0.04     0.00   0.00   0.01     0.00   0.00   0.03
  28   1    -0.00   0.00   0.04    -0.00   0.00   0.01    -0.00   0.00  -0.03
  29   1    -0.00   0.00   0.07    -0.00   0.00  -0.00    -0.00  -0.00  -0.06
  30   1    -0.00  -0.00   0.07    -0.00  -0.00  -0.01    -0.00  -0.00  -0.06
  31   1    -0.00  -0.00   0.07    -0.00  -0.00  -0.02    -0.00  -0.00  -0.06
  32   1    -0.00  -0.00   0.04    -0.00  -0.01  -0.03    -0.00  -0.00  -0.04
  33   1     0.00  -0.00  -0.00     0.00  -0.01  -0.03     0.00  -0.00  -0.01
  34   1     0.00  -0.00  -0.04     0.00  -0.01  -0.03     0.00  -0.00   0.03
  35   1     0.00  -0.00  -0.07     0.00  -0.00  -0.02     0.00  -0.00   0.05
  36   1     0.00  -0.00  -0.07     0.00  -0.00  -0.01     0.00  -0.00   0.05
  37  29    -0.00   0.01  -0.01     0.00  -0.01  -0.08     0.00   0.00  -0.01
  38   6    -0.00   0.01  -0.03     0.01  -0.00   0.01     0.00  -0.00   0.01
  39   6    -0.00   0.01  -0.02     0.01   0.00   0.02     0.00   0.00   0.01
  40   6    -0.00   0.00  -0.01     0.01   0.00   0.01     0.00   0.00   0.01
  41   6     0.00   0.00   0.01     0.00   0.00   0.01    -0.00   0.00   0.00
  42   6     0.00  -0.00   0.02    -0.00   0.00   0.00    -0.00   0.00  -0.01
  43   6     0.00  -0.00   0.03    -0.01   0.00   0.01    -0.00   0.00  -0.01
  44   6     0.00  -0.00   0.04    -0.01   0.00  -0.01    -0.00   0.00  -0.02
  45   6     0.00  -0.00   0.03    -0.01  -0.00  -0.02    -0.00   0.00  -0.01
  46   7     0.00   0.00   0.02    -0.01  -0.00  -0.02    -0.00   0.00  -0.01
  47   6     0.00  -0.00   0.03    -0.01  -0.00  -0.04    -0.00   0.00  -0.02
  48   6     0.00   0.00   0.02    -0.01  -0.00  -0.06    -0.00   0.00  -0.02
  49   6     0.00  -0.00   0.03    -0.01  -0.00  -0.08    -0.00   0.00  -0.02
  50   6     0.00   0.00   0.01    -0.01  -0.01  -0.09    -0.00   0.00  -0.02
  51   6     0.00   0.00   0.00    -0.00  -0.01  -0.08    -0.00  -0.00  -0.02
  52   7     0.00   0.00   0.01    -0.01  -0.00  -0.06    -0.00   0.00  -0.02
  53   6    -0.00   0.01  -0.01     0.00  -0.01  -0.08     0.00  -0.00  -0.01
  54   6    -0.00   0.01  -0.03     0.00  -0.01  -0.07     0.00  -0.00  -0.01
  55   6    -0.00   0.01  -0.04     0.01  -0.01  -0.07     0.00  -0.00  -0.00
  56   6    -0.00   0.01  -0.05     0.01  -0.01  -0.06     0.00  -0.00   0.00
  57   6    -0.00   0.01  -0.04     0.01  -0.01  -0.04     0.00  -0.00   0.00
  58   7    -0.00   0.01  -0.03     0.01  -0.01  -0.05     0.00  -0.00  -0.00
  59   6    -0.00   0.01  -0.04     0.01  -0.01  -0.02     0.00  -0.00   0.01
  60   6    -0.00   0.01  -0.03     0.01  -0.00  -0.01     0.00  -0.00   0.01
  61   7    -0.00   0.01  -0.02     0.01  -0.00  -0.01     0.00   0.00   0.00
  62   1    -0.00   0.00  -0.01     0.01  -0.00   0.00     0.00  -0.00   0.01
  63   1    -0.00   0.00  -0.01     0.00   0.00   0.01     0.00   0.00   0.00
  64   1     0.00  -0.00   0.01    -0.00   0.00   0.01    -0.00   0.00  -0.00
  65   1     0.00  -0.00   0.02    -0.01   0.00  -0.00    -0.00   0.00  -0.01
  66   1     0.00  -0.00   0.01    -0.00  -0.00  -0.01    -0.00   0.00  -0.01
  67   1     0.00  -0.00   0.01    -0.01  -0.00  -0.02    -0.00   0.00  -0.01
  68   1     0.00   0.00   0.00    -0.00  -0.00  -0.03    -0.00  -0.00  -0.01
  69   1    -0.00   0.00  -0.00    -0.00  -0.00  -0.03     0.00  -0.00  -0.00
  70   1    -0.00   0.00  -0.01     0.00  -0.00  -0.03     0.00  -0.00  -0.00
  71   1    -0.00   0.00  -0.02     0.01  -0.00  -0.02     0.00  -0.00   0.00
  72   1    -0.00   0.00  -0.02     0.01  -0.00  -0.01     0.00  -0.00   0.00
  73   6    -0.00   0.00   0.01    -0.00   0.01   0.03    -0.00   0.00   0.00
  74   6    -0.00   0.00   0.01    -0.00   0.01   0.04    -0.00   0.01   0.01
  75   6    -0.00   0.01   0.01    -0.00   0.01   0.05    -0.00   0.01   0.01
  76   6    -0.00   0.01   0.02    -0.00   0.01   0.06    -0.00   0.01   0.01
  77   6    -0.00   0.01   0.02    -0.00   0.01   0.07    -0.00   0.01   0.02
  78   6    -0.00   0.01   0.01    -0.00   0.02   0.08    -0.00   0.01   0.02
  79   6    -0.00   0.01  -0.01    -0.00   0.01   0.03    -0.00   0.00   0.01
  80   6    -0.00   0.01  -0.01    -0.00   0.00   0.01    -0.00   0.00   0.01
  81   6    -0.00   0.01  -0.01    -0.00   0.00  -0.01    -0.00   0.00   0.00
  82   6    -0.00   0.00  -0.02    -0.00  -0.00  -0.03    -0.00  -0.00  -0.00
  83   6    -0.00   0.00  -0.02    -0.00  -0.01  -0.05    -0.00  -0.00  -0.01
  84   6    -0.00   0.00  -0.02    -0.00  -0.01  -0.06    -0.00  -0.00  -0.01
  85   6     0.00  -0.01  -0.02    -0.00  -0.01  -0.07    -0.00  -0.01  -0.02
  86   6     0.00  -0.01  -0.01    -0.00  -0.01  -0.05    -0.00  -0.01  -0.01
  87   6     0.00  -0.01  -0.01    -0.00  -0.01  -0.04    -0.00  -0.01  -0.01
  88   6     0.00  -0.01  -0.00    -0.00  -0.01  -0.02     0.00  -0.01  -0.01
  89   6     0.00  -0.01   0.00    -0.00  -0.00   0.00     0.00  -0.01  -0.00
  90   6     0.00  -0.01   0.01    -0.00  -0.00   0.02     0.00  -0.00   0.00
  91   6     0.00  -0.00   0.02    -0.00   0.01   0.08    -0.00   0.00   0.01
  92   6     0.00  -0.00   0.02    -0.00   0.01   0.07    -0.00   0.00   0.01
  93   6     0.00  -0.00   0.02    -0.00   0.01   0.07    -0.00   0.00   0.01
  94   6     0.00  -0.00   0.01     0.00   0.01   0.06    -0.00   0.00   0.01
  95   6     0.00  -0.00   0.01     0.00   0.01   0.04    -0.00   0.00   0.01
  96   6     0.00   0.00   0.01     0.00   0.00   0.03    -0.00   0.00   0.00
  97  29    -0.00   0.02   0.02    -0.00   0.03   0.19    -0.00   0.02   0.06
  98   6     0.00   0.01   0.05    -0.00   0.02   0.14    -0.00  -0.01  -0.13
  99   6     0.00   0.01   0.04    -0.00   0.02   0.12    -0.00  -0.00  -0.09
 100   6     0.00   0.01   0.02    -0.00   0.02   0.10    -0.00   0.00  -0.03
 101   6    -0.00   0.01   0.01    -0.00   0.02   0.09    -0.00   0.01   0.02
 102   6    -0.00   0.01   0.00     0.00   0.01   0.08     0.00   0.02   0.08
 103   6    -0.00   0.01  -0.01     0.00   0.01   0.07     0.00   0.02   0.14
 104   6    -0.00   0.00  -0.02     0.00   0.01   0.06     0.00   0.03   0.18
 105   6    -0.00   0.00  -0.02     0.00   0.01   0.07     0.00   0.02   0.15
 106   7    -0.00   0.01  -0.00     0.00   0.01   0.08     0.00   0.02   0.10
 107   6    -0.00   0.00  -0.03     0.00   0.01   0.06     0.00   0.03   0.18
 108   6    -0.00   0.00  -0.02     0.00   0.01   0.05     0.00   0.02   0.15
 109   6    -0.00   0.00  -0.03     0.00   0.01   0.04     0.00   0.02   0.18
 110   6    -0.00   0.00  -0.03     0.00   0.01   0.03     0.00   0.02   0.13
 111   6    -0.00   0.01  -0.01     0.00   0.01   0.05     0.00   0.01   0.08
 112   7    -0.00   0.01  -0.01     0.00   0.01   0.06     0.00   0.02   0.09
 113   6    -0.00   0.01  -0.00    -0.00   0.01   0.05    -0.00   0.01   0.02
 114   6     0.00   0.01   0.01    -0.00   0.01   0.07    -0.00  -0.00  -0.04
 115   6     0.00   0.01   0.03    -0.00   0.01   0.08    -0.00  -0.01  -0.09
 116   6     0.00   0.01   0.04    -0.00   0.02   0.11    -0.00  -0.01  -0.13
 117   6     0.00   0.01   0.04    -0.00   0.02   0.11    -0.00  -0.01  -0.10
 118   7     0.00   0.01   0.02    -0.00   0.01   0.10    -0.00  -0.00  -0.05
 119   6     0.00   0.01   0.04    -0.00   0.02   0.13    -0.00  -0.01  -0.13
 120   6     0.00   0.01   0.04    -0.00   0.02   0.13    -0.00  -0.01  -0.10
 121   7     0.00   0.01   0.03    -0.00   0.02   0.11    -0.00   0.00  -0.04
 122   1     0.00   0.00   0.02    -0.00   0.01   0.04    -0.00  -0.00  -0.05
 123   1     0.00   0.00   0.01    -0.00   0.01   0.04    -0.00  -0.00  -0.03
 124   1    -0.00   0.00  -0.00     0.00   0.00   0.02     0.00   0.01   0.04
 125   1    -0.00   0.00  -0.01     0.00   0.00   0.02     0.00   0.01   0.07
 126   1    -0.00   0.00  -0.01     0.00   0.00   0.01     0.00   0.01   0.07
 127   1    -0.00   0.00  -0.01     0.00   0.00   0.01     0.00   0.01   0.07
 128   1    -0.00   0.00  -0.01     0.00   0.00   0.01     0.00   0.01   0.04
 129   1     0.00   0.00   0.01    -0.00   0.00   0.02    -0.00  -0.00  -0.03
 130   1     0.00   0.00   0.02    -0.00   0.00   0.04    -0.00  -0.00  -0.05
 131   1     0.00   0.00   0.02    -0.00   0.01   0.04    -0.00  -0.00  -0.05
 132  29     0.00  -0.01  -0.06    -0.00  -0.03  -0.23    -0.00  -0.01  -0.05
 133   6    -0.00   0.02   0.15    -0.00  -0.02  -0.17    -0.00   0.01   0.10
 134   6    -0.00   0.01   0.10    -0.00  -0.02  -0.14    -0.00   0.01   0.07
 135   6    -0.00   0.01   0.04    -0.00  -0.01  -0.11    -0.00   0.00   0.03
 136   6    -0.00  -0.00  -0.03    -0.00  -0.01  -0.08    -0.00  -0.00  -0.02
 137   6     0.00  -0.01  -0.09     0.00  -0.01  -0.07     0.00  -0.01  -0.06
 138   6     0.00  -0.02  -0.16     0.00  -0.01  -0.04     0.00  -0.01  -0.11
 139   6     0.00  -0.02  -0.21     0.00  -0.01  -0.04     0.00  -0.02  -0.15
 140   6     0.00  -0.02  -0.17     0.00  -0.01  -0.05     0.00  -0.02  -0.12
 141   7     0.00  -0.01  -0.11     0.00  -0.01  -0.08     0.00  -0.01  -0.08
 142   6     0.00  -0.03  -0.21     0.00  -0.01  -0.05     0.00  -0.02  -0.15
 143   6     0.00  -0.02  -0.17     0.00  -0.01  -0.06     0.00  -0.02  -0.13
 144   6     0.00  -0.03  -0.20     0.00  -0.01  -0.04     0.00  -0.02  -0.15
 145   6     0.00  -0.02  -0.15     0.00  -0.01  -0.05     0.00  -0.02  -0.11
 146   6     0.00  -0.01  -0.09     0.00  -0.01  -0.07     0.00  -0.01  -0.07
 147   7     0.00  -0.02  -0.11     0.00  -0.01  -0.08     0.00  -0.01  -0.08
 148   6     0.00  -0.01  -0.02    -0.00  -0.01  -0.08     0.00  -0.01  -0.02
 149   6    -0.00   0.00   0.04    -0.00  -0.02  -0.11    -0.00  -0.00   0.02
 150   6    -0.00   0.01   0.10    -0.00  -0.02  -0.14    -0.00   0.00   0.07
 151   6    -0.00   0.01   0.15    -0.00  -0.02  -0.17    -0.00   0.01   0.10
 152   6    -0.00   0.01   0.11    -0.00  -0.02  -0.16    -0.00   0.00   0.08
 153   7    -0.00   0.00   0.05    -0.00  -0.02  -0.14    -0.00  -0.00   0.03
 154   6    -0.00   0.02   0.14    -0.00  -0.02  -0.18    -0.00   0.01   0.10
 155   6    -0.00   0.01   0.11    -0.00  -0.02  -0.16    -0.00   0.01   0.08
 156   7    -0.00   0.01   0.05    -0.00  -0.02  -0.13    -0.00   0.00   0.03
 157   1    -0.00   0.01   0.06    -0.00  -0.01  -0.06    -0.00   0.00   0.04
 158   1    -0.00   0.00   0.03    -0.00  -0.00  -0.04    -0.00   0.00   0.02
 159   1     0.00  -0.00  -0.05     0.00  -0.00  -0.01     0.00  -0.00  -0.03
 160   1     0.00  -0.01  -0.08     0.00  -0.00  -0.01     0.00  -0.01  -0.05
 161   1     0.00  -0.01  -0.08     0.00  -0.00  -0.01     0.00  -0.01  -0.06
 162   1     0.00  -0.01  -0.08     0.00  -0.00  -0.01     0.00  -0.01  -0.06
 163   1     0.00  -0.01  -0.04     0.00  -0.00  -0.01     0.00  -0.01  -0.03
 164   1    -0.00   0.00   0.03    -0.00  -0.01  -0.04    -0.00   0.00   0.02
 165   1    -0.00   0.01   0.06    -0.00  -0.01  -0.06    -0.00   0.00   0.04
 166   1    -0.00   0.01   0.06    -0.00  -0.01  -0.06    -0.00   0.00   0.04
 167  29     0.00  -0.01   0.04    -0.00   0.02   0.17     0.00   0.00   0.03
 168   6     0.00  -0.01  -0.05     0.00   0.01   0.09     0.00  -0.01  -0.09
 169   6     0.00  -0.01  -0.04     0.00   0.01   0.07     0.00  -0.01  -0.06
 170   6     0.00  -0.01  -0.01     0.00   0.01   0.06     0.00  -0.01  -0.03
 171   6     0.00  -0.01   0.01    -0.00   0.00   0.04     0.00  -0.00   0.01
 172   6    -0.00  -0.00   0.04    -0.00   0.00   0.04    -0.00   0.00   0.04
 173   6    -0.00  -0.00   0.06    -0.00   0.00   0.02    -0.00   0.01   0.08
 174   6    -0.00   0.00   0.09    -0.00   0.00   0.03    -0.00   0.01   0.11
 175   6    -0.00   0.00   0.07    -0.00   0.00   0.05    -0.00   0.01   0.09
 176   7    -0.00  -0.00   0.05    -0.00   0.00   0.06    -0.00   0.00   0.06
 177   6    -0.00   0.00   0.09    -0.00   0.01   0.05    -0.00   0.01   0.11
 178   6    -0.00   0.00   0.08    -0.00   0.01   0.06    -0.00   0.01   0.10
 179   6    -0.00   0.00   0.09    -0.00   0.01   0.06    -0.00   0.01   0.12
 180   6    -0.00   0.00   0.07    -0.00   0.01   0.07    -0.00   0.01   0.09
 181   6    -0.00  -0.00   0.05    -0.00   0.01   0.07    -0.00   0.01   0.05
 182   7    -0.00  -0.00   0.05    -0.00   0.01   0.08    -0.00   0.01   0.06
 183   6     0.00  -0.00   0.02    -0.00   0.01   0.08    -0.00   0.00   0.01
 184   6     0.00  -0.01  -0.00     0.00   0.01   0.10     0.00  -0.00  -0.02
 185   6     0.00  -0.01  -0.03     0.00   0.01   0.12     0.00  -0.00  -0.06
 186   6     0.00  -0.01  -0.05     0.00   0.01   0.13     0.00  -0.01  -0.09
 187   6     0.00  -0.01  -0.03     0.00   0.01   0.12     0.00  -0.01  -0.07
 188   7     0.00  -0.01  -0.01     0.00   0.01   0.11     0.00  -0.00  -0.03
 189   6     0.00  -0.01  -0.05     0.00   0.01   0.12     0.00  -0.01  -0.08
 190   6     0.00  -0.01  -0.04     0.00   0.01   0.10     0.00  -0.01  -0.07
 191   7     0.00  -0.01  -0.01     0.00   0.01   0.08     0.00  -0.01  -0.03
 192   1     0.00  -0.01  -0.02     0.00   0.00   0.03     0.00  -0.01  -0.03
 193   1     0.00  -0.00  -0.01     0.00   0.00   0.02     0.00  -0.00  -0.02
 194   1    -0.00  -0.00   0.02    -0.00  -0.00   0.00    -0.00   0.00   0.02
 195   1    -0.00   0.00   0.03    -0.00   0.00   0.01    -0.00   0.00   0.04
 196   1    -0.00   0.00   0.03    -0.00   0.00   0.01    -0.00   0.00   0.04
 197   1    -0.00   0.00   0.03    -0.00   0.00   0.02    -0.00   0.01   0.04
 198   1    -0.00   0.00   0.02    -0.00   0.00   0.02    -0.00   0.00   0.03
 199   1     0.00  -0.00  -0.01     0.00   0.00   0.03     0.00  -0.00  -0.02
 200   1     0.00  -0.00  -0.02     0.00   0.00   0.04     0.00  -0.00  -0.03
 201   1     0.00  -0.00  -0.02     0.00   0.00   0.04     0.00  -0.00  -0.03
                     10                     11                     12
                        a                      a                      a 
 Frequencies --     4.6913                 7.3963                 8.0437
 Red. masses --    15.5244                11.6703                11.6765
 Frc consts  --     0.0000                 0.0000                 0.0000
 IR Inten    --     2.2771                46.9607                 3.0522
 Raman Activ --     0.0000                 0.0000                 0.0000
 Depolar     --     0.0000                 0.0000                 0.0000
 Atom AN      X      Y      Z        X      Y      Z        X      Y      Z
   1  29     0.00  -0.07   0.01    -0.01   0.00  -0.00    -0.00  -0.00   0.01
   2   6     0.08   0.03  -0.01    -0.08  -0.05   0.00    -0.00  -0.00  -0.08
   3   6     0.06   0.05  -0.01    -0.06  -0.07   0.00    -0.00  -0.00  -0.10
   4   6     0.03   0.04  -0.01    -0.03  -0.06  -0.00    -0.00  -0.00  -0.07
   5   6    -0.00   0.05  -0.01    -0.00  -0.07  -0.00    -0.00  -0.00  -0.09
   6   6    -0.03   0.03  -0.00     0.02  -0.06  -0.00     0.00  -0.00  -0.07
   7   6    -0.06   0.05  -0.00     0.05  -0.07  -0.00     0.00  -0.00  -0.10
   8   6    -0.08   0.03   0.00     0.07  -0.05  -0.00     0.00  -0.00  -0.08
   9   6    -0.06  -0.00   0.00     0.06  -0.02  -0.00     0.00  -0.00  -0.04
  10   7    -0.03   0.00   0.00     0.03  -0.03  -0.00     0.00  -0.00  -0.04
  11   6    -0.08  -0.03   0.01     0.07   0.00  -0.00     0.00  -0.00  -0.01
  12   6    -0.06  -0.06   0.01     0.06   0.03  -0.00     0.00   0.00   0.04
  13   6    -0.08  -0.09   0.02     0.07   0.06  -0.00     0.00   0.00   0.08
  14   6    -0.06  -0.11   0.02     0.05   0.08  -0.00     0.00   0.00   0.12
  15   6    -0.03  -0.09   0.02     0.02   0.06  -0.00    -0.00   0.00   0.10
  16   7    -0.03  -0.07   0.01     0.03   0.04  -0.00    -0.00   0.00   0.06
  17   6     0.00  -0.11   0.02    -0.01   0.08   0.00    -0.00   0.00   0.12
  18   6     0.03  -0.09   0.01    -0.03   0.06   0.00    -0.00   0.00   0.10
  19   6     0.06  -0.11   0.01    -0.06   0.08   0.00    -0.00   0.00   0.12
  20   6     0.08  -0.08   0.01    -0.08   0.05   0.00    -0.00   0.00   0.08
  21   6     0.06  -0.06   0.01    -0.06   0.03   0.00    -0.00   0.00   0.04
  22   7     0.04  -0.07   0.01    -0.04   0.03   0.00    -0.00   0.00   0.05
  23   6     0.08  -0.03   0.00    -0.08   0.00   0.00    -0.00  -0.00  -0.01
  24   6     0.06   0.00  -0.00    -0.06  -0.03   0.00    -0.00  -0.00  -0.04
  25   7     0.04   0.01  -0.00    -0.04  -0.03  -0.00    -0.00  -0.00  -0.05
  26   1     0.03   0.01  -0.00    -0.03  -0.02   0.00    -0.00  -0.00  -0.03
  27   1     0.02   0.02  -0.00    -0.02  -0.03   0.00    -0.00  -0.00  -0.04
  28   1    -0.02   0.02  -0.00     0.02  -0.03  -0.00     0.00  -0.00  -0.04
  29   1    -0.03   0.01   0.00     0.03  -0.02  -0.00     0.00  -0.00  -0.02
  30   1    -0.03  -0.01   0.00     0.03   0.00  -0.00     0.00  -0.00  -0.00
  31   1    -0.03  -0.03   0.01     0.03   0.02  -0.00     0.00   0.00   0.02
  32   1    -0.02  -0.04   0.01     0.01   0.03  -0.00    -0.00   0.00   0.05
  33   1     0.00  -0.04   0.01    -0.00   0.03   0.00    -0.00   0.00   0.05
  34   1     0.02  -0.04   0.00    -0.02   0.03   0.00    -0.00   0.00   0.05
  35   1     0.03  -0.03   0.00    -0.03   0.02   0.00    -0.00   0.00   0.02
  36   1     0.03  -0.01  -0.00    -0.03   0.00   0.00    -0.00  -0.00  -0.00
  37  29     0.00  -0.03   0.01     0.01   0.01   0.00     0.00   0.00  -0.01
  38   6     0.06   0.04  -0.00     0.07   0.05  -0.00     0.02  -0.00   0.10
  39   6     0.05   0.06  -0.01     0.05   0.07  -0.01     0.01  -0.00   0.12
  40   6     0.02   0.04  -0.00     0.03   0.06  -0.01     0.01  -0.00   0.09
  41   6     0.00   0.05  -0.01     0.00   0.07  -0.01     0.00   0.00   0.11
  42   6    -0.02   0.04  -0.01    -0.02   0.06  -0.01    -0.01  -0.00   0.09
  43   6    -0.05   0.05  -0.01    -0.04   0.07  -0.01    -0.01  -0.00   0.12
  44   6    -0.06   0.04  -0.01    -0.06   0.05  -0.01    -0.02  -0.00   0.10
  45   6    -0.05   0.01  -0.01    -0.05   0.03  -0.01    -0.02  -0.00   0.05
  46   7    -0.03   0.02  -0.00    -0.03   0.03  -0.01    -0.01  -0.00   0.06
  47   6    -0.06  -0.01  -0.00    -0.06   0.00  -0.01    -0.02  -0.00   0.01
  48   6    -0.05  -0.04   0.01    -0.05  -0.02   0.00    -0.02   0.00  -0.04
  49   6    -0.06  -0.06   0.01    -0.06  -0.05   0.00    -0.02   0.01  -0.10
  50   6    -0.04  -0.08   0.02    -0.04  -0.06   0.01    -0.02   0.01  -0.14
  51   6    -0.02  -0.07   0.02    -0.02  -0.05   0.01    -0.01   0.01  -0.12
  52   7    -0.03  -0.04   0.01    -0.02  -0.03   0.00    -0.01   0.00  -0.06
  53   6     0.00  -0.08   0.02     0.00  -0.06   0.01    -0.00   0.01  -0.15
  54   6     0.03  -0.07   0.02     0.03  -0.05   0.01     0.01   0.01  -0.12
  55   6     0.05  -0.08   0.02     0.05  -0.06   0.02     0.01   0.01  -0.14
  56   6     0.07  -0.06   0.02     0.07  -0.05   0.01     0.02   0.00  -0.09
  57   6     0.05  -0.04   0.01     0.06  -0.02   0.01     0.02   0.00  -0.04
  58   7     0.03  -0.04   0.01     0.03  -0.03   0.01     0.01   0.00  -0.06
  59   6     0.06  -0.01   0.01     0.07   0.00   0.00     0.02  -0.00   0.01
  60   6     0.05   0.01   0.00     0.05   0.03  -0.00     0.02  -0.00   0.06
  61   7     0.03   0.02   0.00     0.03   0.03  -0.00     0.01  -0.00   0.06
  62   1     0.02   0.01  -0.00     0.03   0.02  -0.00     0.01  -0.00   0.03
  63   1     0.01   0.02  -0.00     0.01   0.03  -0.00     0.00  -0.00   0.05
  64   1    -0.01   0.02  -0.01    -0.01   0.03  -0.00    -0.00  -0.00   0.04
  65   1    -0.02   0.01  -0.00    -0.02   0.02  -0.00    -0.01  -0.00   0.03
  66   1    -0.02  -0.00  -0.00    -0.02   0.00  -0.00    -0.01  -0.00   0.01
  67   1    -0.02  -0.02   0.00    -0.02  -0.01   0.00    -0.01   0.00  -0.03
  68   1    -0.01  -0.03   0.01    -0.01  -0.02   0.00    -0.00   0.00  -0.06
  69   1     0.00  -0.03   0.01     0.00  -0.02   0.01    -0.00   0.00  -0.06
  70   1     0.01  -0.03   0.01     0.02  -0.02   0.01     0.00   0.00  -0.05
  71   1     0.02  -0.02   0.01     0.03  -0.01   0.00     0.01   0.00  -0.03
  72   1     0.02  -0.00   0.00     0.03   0.00   0.00     0.01  -0.00   0.01
  73   6    -0.00   0.08  -0.01    -0.00  -0.10  -0.00    -0.00  -0.00  -0.11
  74   6    -0.00   0.10  -0.01    -0.00  -0.12   0.00    -0.00  -0.00  -0.12
  75   6    -0.00   0.12  -0.01    -0.00  -0.12   0.00    -0.00  -0.00  -0.12
  76   6    -0.00   0.13  -0.02    -0.00  -0.12   0.00    -0.00  -0.00  -0.12
  77   6    -0.00   0.13  -0.02    -0.00  -0.11   0.00    -0.00  -0.00  -0.11
  78   6    -0.00   0.12  -0.02    -0.00  -0.09   0.00    -0.00  -0.00  -0.10
  79   6    -0.00   0.01  -0.00    -0.00   0.11  -0.00     0.00   0.01   0.10
  80   6    -0.00  -0.01   0.00    -0.00   0.13  -0.00     0.00   0.01   0.11
  81   6    -0.00  -0.03   0.00    -0.00   0.14  -0.00     0.00   0.01   0.12
  82   6    -0.00  -0.04   0.01    -0.00   0.13  -0.00     0.00   0.01   0.12
  83   6    -0.00  -0.06   0.01    -0.00   0.12  -0.00     0.00   0.01   0.11
  84   6    -0.00  -0.07   0.01    -0.00   0.11  -0.00     0.00   0.00   0.10
  85   6    -0.00  -0.09   0.01     0.00  -0.10   0.00     0.00  -0.01  -0.10
  86   6    -0.00  -0.09   0.01     0.00  -0.12   0.01     0.00  -0.01  -0.12
  87   6    -0.00  -0.08   0.01     0.00  -0.13   0.01     0.00  -0.01  -0.13
  88   6    -0.00  -0.07   0.01     0.00  -0.13   0.01     0.00  -0.01  -0.13
  89   6    -0.00  -0.05   0.00     0.00  -0.13   0.01     0.00  -0.01  -0.13
  90   6    -0.00  -0.03   0.00     0.00  -0.11   0.00     0.00  -0.01  -0.12
  91   6     0.00   0.10  -0.02     0.00   0.08  -0.00     0.00   0.01   0.11
  92   6     0.00   0.11  -0.02     0.00   0.10  -0.00     0.00   0.01   0.13
  93   6     0.00   0.11  -0.02     0.00   0.11  -0.01     0.00   0.01   0.14
  94   6     0.00   0.11  -0.02     0.00   0.11  -0.01     0.00   0.01   0.15
  95   6     0.00   0.10  -0.01     0.00   0.11  -0.01     0.00   0.01   0.14
  96   6     0.00   0.08  -0.01     0.00   0.09  -0.01     0.00   0.00   0.13
  97  29    -0.00   0.15  -0.03    -0.00   0.03   0.00     0.00   0.00   0.01
  98   6    -0.04   0.10  -0.01     0.07  -0.04   0.00    -0.00  -0.00  -0.05
  99   6    -0.03   0.11  -0.01     0.05  -0.06   0.00    -0.00  -0.00  -0.07
 100   6    -0.02   0.10  -0.01     0.02  -0.05   0.00    -0.00  -0.00  -0.06
 101   6    -0.00   0.11  -0.02    -0.00  -0.06   0.00    -0.00  -0.00  -0.07
 102   6     0.01   0.10  -0.02    -0.03  -0.05   0.00     0.00  -0.00  -0.06
 103   6     0.03   0.11  -0.02    -0.05  -0.06  -0.00     0.00  -0.00  -0.07
 104   6     0.04   0.09  -0.02    -0.07  -0.04  -0.00     0.00  -0.00  -0.05
 105   6     0.03   0.08  -0.02    -0.06  -0.02  -0.00     0.00   0.00  -0.02
 106   7     0.02   0.09  -0.02    -0.03  -0.02   0.00     0.00  -0.00  -0.03
 107   6     0.04   0.06  -0.02    -0.07   0.01  -0.00     0.00   0.00   0.00
 108   6     0.03   0.05  -0.02    -0.06   0.04  -0.00     0.00   0.00   0.03
 109   6     0.04   0.03  -0.02    -0.07   0.06  -0.00     0.00   0.00   0.06
 110   6     0.03   0.02  -0.01    -0.05   0.08  -0.00     0.00   0.01   0.08
 111   6     0.01   0.03  -0.01    -0.03   0.07  -0.00     0.00   0.00   0.06
 112   7     0.02   0.05  -0.01    -0.03   0.05  -0.00     0.00   0.00   0.04
 113   6    -0.00   0.02  -0.01    -0.00   0.08  -0.00     0.00   0.01   0.08
 114   6    -0.02   0.03  -0.00     0.03   0.07   0.00    -0.00   0.00   0.07
 115   6    -0.03   0.02  -0.00     0.05   0.09   0.00    -0.00   0.01   0.08
 116   6    -0.04   0.04  -0.00     0.07   0.06   0.00    -0.00   0.00   0.06
 117   6    -0.03   0.05  -0.00     0.06   0.04   0.00    -0.00   0.00   0.03
 118   7    -0.02   0.05  -0.01     0.03   0.05   0.00    -0.00   0.00   0.04
 119   6    -0.04   0.07  -0.00     0.07   0.01   0.00    -0.00   0.00   0.01
 120   6    -0.03   0.08  -0.01     0.06  -0.01   0.00    -0.00   0.00  -0.02
 121   7    -0.02   0.09  -0.01     0.03  -0.02   0.00    -0.00  -0.00  -0.03
 122   1    -0.02   0.03  -0.00     0.03  -0.01   0.00    -0.00  -0.00  -0.02
 123   1    -0.01   0.04  -0.00     0.02  -0.02   0.00    -0.00  -0.00  -0.03
 124   1     0.01   0.03  -0.01    -0.02  -0.02  -0.00     0.00  -0.00  -0.03
 125   1     0.02   0.03  -0.01    -0.03  -0.01  -0.00     0.00  -0.00  -0.02
 126   1     0.02   0.02  -0.01    -0.03   0.00  -0.00     0.00   0.00   0.00
 127   1     0.02   0.01  -0.01    -0.03   0.02  -0.00     0.00   0.00   0.02
 128   1     0.01   0.00  -0.00    -0.02   0.03  -0.00     0.00   0.00   0.03
 129   1    -0.01   0.00   0.00     0.02   0.03   0.00    -0.00   0.00   0.03
 130   1    -0.02   0.01   0.00     0.03   0.02   0.00    -0.00   0.00   0.02
 131   1    -0.02   0.02  -0.00     0.03   0.00   0.00    -0.00   0.00   0.00
 132  29    -0.00  -0.19   0.03     0.00   0.00  -0.00     0.00  -0.00   0.01
 133   6    -0.01  -0.08   0.01    -0.08   0.06  -0.00     0.00   0.00   0.07
 134   6    -0.01  -0.07   0.01    -0.05   0.08  -0.00     0.00   0.00   0.08
 135   6    -0.00  -0.08   0.01    -0.03   0.06  -0.00     0.00   0.00   0.07
 136   6    -0.00  -0.07   0.01    -0.00   0.08  -0.00     0.00   0.00   0.08
 137   6     0.00  -0.07   0.02     0.03   0.06  -0.00    -0.00   0.00   0.07
 138   6     0.01  -0.07   0.02     0.06   0.08  -0.00    -0.00   0.00   0.08
 139   6     0.01  -0.07   0.02     0.08   0.06  -0.00    -0.00   0.00   0.06
 140   6     0.01  -0.08   0.02     0.06   0.03  -0.00    -0.00   0.00   0.03
 141   7     0.00  -0.08   0.02     0.03   0.04  -0.00    -0.00   0.00   0.04
 142   6     0.01  -0.08   0.02     0.07   0.00  -0.00    -0.00  -0.00   0.01
 143   6     0.01  -0.08   0.02     0.06  -0.03   0.00    -0.00  -0.00  -0.02
 144   6     0.01  -0.09   0.02     0.08  -0.05   0.00    -0.00  -0.00  -0.05
 145   6     0.01  -0.09   0.02     0.05  -0.08   0.00    -0.00  -0.01  -0.08
 146   6     0.00  -0.09   0.02     0.03  -0.06   0.00    -0.00  -0.00  -0.06
 147   7     0.00  -0.09   0.02     0.03  -0.03   0.00    -0.00  -0.00  -0.03
 148   6    -0.00  -0.09   0.01     0.00  -0.08   0.00     0.00  -0.01  -0.07
 149   6    -0.00  -0.09   0.01    -0.03  -0.06   0.00     0.00  -0.00  -0.06
 150   6    -0.01  -0.09   0.01    -0.05  -0.08   0.00     0.00  -0.01  -0.07
 151   6    -0.01  -0.09   0.01    -0.08  -0.05  -0.00     0.00  -0.00  -0.05
 152   6    -0.01  -0.09   0.01    -0.06  -0.03  -0.00     0.00  -0.00  -0.02
 153   7    -0.00  -0.09   0.01    -0.03  -0.03  -0.00     0.00  -0.00  -0.03
 154   6    -0.01  -0.08   0.01    -0.07   0.00  -0.00     0.00  -0.00   0.01
 155   6    -0.01  -0.08   0.01    -0.06   0.03  -0.00     0.00   0.00   0.04
 156   7    -0.01  -0.09   0.01    -0.03   0.04  -0.00     0.00   0.00   0.04
 157   1    -0.00  -0.02   0.00    -0.03   0.02  -0.00     0.00   0.00   0.02
 158   1    -0.00  -0.02   0.00    -0.02   0.03  -0.00     0.00   0.00   0.03
 159   1     0.00  -0.02   0.00     0.02   0.03  -0.00    -0.00   0.00   0.03
 160   1     0.00  -0.02   0.01     0.03   0.02  -0.00    -0.00   0.00   0.02
 161   1     0.00  -0.02   0.01     0.03   0.00  -0.00    -0.00  -0.00   0.00
 162   1     0.00  -0.03   0.01     0.03  -0.02   0.00    -0.00  -0.00  -0.02
 163   1     0.00  -0.03   0.01     0.02  -0.03   0.00    -0.00  -0.00  -0.03
 164   1    -0.00  -0.03   0.00    -0.02  -0.03   0.00     0.00  -0.00  -0.03
 165   1    -0.00  -0.03   0.00    -0.03  -0.02  -0.00     0.00  -0.00  -0.02
 166   1    -0.00  -0.02   0.00    -0.03   0.00  -0.00     0.00   0.00   0.00
 167  29    -0.00   0.08  -0.02     0.00  -0.04   0.00     0.00  -0.01  -0.03
 168   6     0.05   0.00  -0.00     0.07  -0.07   0.00    -0.00  -0.01  -0.08
 169   6     0.04  -0.01  -0.00     0.05  -0.09   0.00    -0.00  -0.01  -0.10
 170   6     0.02  -0.00  -0.00     0.03  -0.07   0.00    -0.00  -0.01  -0.08
 171   6    -0.00  -0.01  -0.00     0.00  -0.09   0.00     0.00  -0.01  -0.09
 172   6    -0.02  -0.00  -0.01    -0.02  -0.07   0.00     0.00  -0.01  -0.08
 173   6    -0.04  -0.01  -0.01    -0.05  -0.09   0.00     0.00  -0.01  -0.10
 174   6    -0.05  -0.00  -0.01    -0.07  -0.07   0.00     0.01  -0.01  -0.08
 175   6    -0.04   0.02  -0.01    -0.05  -0.04   0.00     0.00  -0.00  -0.05
 176   7    -0.02   0.02  -0.01    -0.03  -0.05   0.00     0.00  -0.01  -0.05
 177   6    -0.05   0.04  -0.02    -0.07  -0.02  -0.00     0.01  -0.00  -0.01
 178   6    -0.04   0.05  -0.02    -0.05   0.01  -0.00     0.00  -0.00   0.02
 179   6    -0.05   0.07  -0.02    -0.07   0.04  -0.00     0.00   0.00   0.05
 180   6    -0.04   0.08  -0.02    -0.05   0.05  -0.00     0.00   0.00   0.08
 181   6    -0.02   0.07  -0.02    -0.02   0.04  -0.00     0.00   0.00   0.06
 182   7    -0.02   0.06  -0.02    -0.03   0.01  -0.00     0.00   0.00   0.03
 183   6     0.00   0.08  -0.02     0.00   0.05  -0.00     0.00   0.00   0.08
 184   6     0.02   0.08  -0.01     0.03   0.04  -0.00    -0.00   0.00   0.06
 185   6     0.04   0.09  -0.01     0.05   0.06  -0.00    -0.00   0.00   0.07
 186   6     0.05   0.07  -0.01     0.07   0.04  -0.00    -0.00   0.00   0.05
 187   6     0.04   0.05  -0.01     0.06   0.01   0.00    -0.00  -0.00   0.01
 188   7     0.02   0.06  -0.01     0.03   0.02  -0.00    -0.00  -0.00   0.02
 189   6     0.05   0.04  -0.01     0.07  -0.02   0.00    -0.00  -0.00  -0.02
 190   6     0.04   0.02  -0.00     0.06  -0.04   0.00    -0.00  -0.01  -0.05
 191   7     0.02   0.02  -0.01     0.03  -0.05   0.00    -0.00  -0.01  -0.06
 192   1     0.02   0.00   0.00     0.03  -0.02   0.00    -0.00  -0.00  -0.03
 193   1     0.01  -0.01   0.00     0.02  -0.03   0.00    -0.00  -0.00  -0.04
 194   1    -0.01  -0.01  -0.00    -0.02  -0.03   0.00     0.00  -0.00  -0.04
[...]
 156   7     0.00   0.00  -0.00     0.00   0.00  -0.00    -0.00  -0.00   0.00
 157   1     0.01   0.14  -0.02     0.02   0.20  -0.02    -0.00  -0.01   0.00
 158   1     0.20   0.02  -0.00     0.27   0.03  -0.00    -0.02  -0.00   0.00
 159   1     0.10  -0.01   0.00     0.34  -0.04   0.00    -0.06   0.01  -0.00
 160   1     0.01  -0.07   0.01     0.03  -0.25   0.03    -0.00   0.05  -0.01
 161   1    -0.00   0.00  -0.00     0.00  -0.01   0.00     0.00   0.00  -0.00
 162   1     0.01   0.06  -0.01    -0.03  -0.29   0.04    -0.00  -0.00   0.00
 163   1     0.08   0.01  -0.00    -0.39  -0.05   0.01    -0.01  -0.00   0.00
 164   1     0.00  -0.00   0.00    -0.32   0.04  -0.01    -0.06   0.01  -0.00
 165   1     0.00  -0.00   0.00    -0.02   0.23  -0.03    -0.00   0.04  -0.01
 166   1    -0.00   0.00  -0.00     0.00   0.01  -0.00     0.00   0.00  -0.00
 167  29    -0.00   0.00  -0.00     0.00  -0.00   0.00     0.00   0.00  -0.00
 168   6     0.00   0.00  -0.00     0.00   0.02  -0.00    -0.00  -0.07   0.01
 169   6     0.00   0.00  -0.00     0.02   0.00  -0.00    -0.09  -0.01   0.00
 170   6     0.00  -0.00   0.00     0.00  -0.00   0.00    -0.00   0.00  -0.00
 171   6     0.00  -0.00   0.00     0.00   0.00  -0.00    -0.00  -0.00   0.00
 172   6     0.00   0.00  -0.00    -0.00  -0.00   0.00    -0.00  -0.00   0.00
 173   6     0.03  -0.00   0.00    -0.04   0.00  -0.00    -0.02   0.00  -0.00
 174   6     0.00  -0.02   0.00    -0.00   0.03  -0.00    -0.00   0.01  -0.00
 175   6    -0.00  -0.00   0.00     0.00   0.00  -0.00     0.00   0.00  -0.00
 176   7    -0.00   0.00  -0.00     0.00  -0.00   0.00     0.00  -0.00   0.00
 177   6     0.00  -0.00   0.00    -0.00   0.00  -0.00    -0.00  -0.00   0.00
 178   6     0.00   0.00  -0.00     0.00  -0.00   0.00     0.00  -0.00   0.00
 179   6    -0.00  -0.00   0.00    -0.00  -0.00   0.00    -0.00  -0.05   0.01
 180   6     0.00   0.00  -0.00    -0.00  -0.00   0.00    -0.06  -0.00   0.00
 181   6    -0.00  -0.00   0.00     0.00   0.00  -0.00    -0.00   0.00  -0.00
 182   7     0.00   0.00  -0.00    -0.00  -0.00   0.00     0.00   0.00  -0.00
 183   6     0.00  -0.00   0.00    -0.00   0.00  -0.00    -0.00   0.00  -0.00
 184   6     0.00   0.00  -0.00    -0.00  -0.00   0.00    -0.00  -0.00   0.00
 185   6     0.06  -0.00   0.00    -0.09   0.01  -0.00    -0.09   0.01  -0.00
 186   6     0.00  -0.04   0.00    -0.00   0.06  -0.01    -0.00   0.06  -0.01
 187   6    -0.00  -0.00   0.00     0.00   0.00  -0.00     0.00   0.00  -0.00
 188   7    -0.00   0.00  -0.00     0.00  -0.00   0.00     0.00  -0.00   0.00
 189   6     0.00  -0.00   0.00    -0.00   0.00  -0.00    -0.00  -0.00   0.00
 190   6    -0.00   0.00  -0.00    -0.00   0.00  -0.00     0.00  -0.00   0.00
 191   7    -0.00  -0.00   0.00     0.00   0.00  -0.00     0.00   0.00  -0.00
 192   1    -0.00  -0.01   0.00    -0.01  -0.05   0.01     0.02   0.21  -0.03
 193   1    -0.01  -0.00   0.00    -0.06  -0.01   0.00     0.29   0.03  -0.00
 194   1    -0.11   0.01  -0.00     0.13  -0.02   0.00     0.05  -0.01   0.00
 195   1    -0.01   0.08  -0.01     0.01  -0.10   0.01     0.00  -0.03   0.00
 196   1     0.00   0.00  -0.00    -0.00  -0.00   0.00    -0.00   0.00  -0.00
 197   1     0.00   0.00  -0.00     0.00   0.00  -0.00     0.02   0.15  -0.02
 198   1    -0.00  -0.00   0.00     0.01   0.00  -0.00     0.20   0.02  -0.00
 199   1    -0.18   0.02  -0.00     0.28  -0.03   0.00     0.28  -0.03   0.00
 200   1    -0.01   0.13  -0.02     0.02  -0.20   0.02     0.02  -0.19   0.02
 201   1     0.00   0.00  -0.00    -0.00  -0.00   0.00    -0.00   0.00  -0.00
                    595                    596                    597
                        a                      a                      a 
 Frequencies --  3166.8914              3167.0613              3167.2983
 Red. masses --     1.9715                 1.9719                 1.9717
 Frc consts  --     0.0000                 0.0000                 0.0000
 IR Inten    --  8659.5979             10640.0497              4633.2009
 Raman Activ --     0.0000                 0.0000                 0.0000
 Depolar     --     0.0000                 0.0000                 0.0000
 Atom AN      X      Y      Z        X      Y      Z        X      Y      Z
   1  29    -0.00   0.00  -0.00     0.00  -0.00   0.00     0.00  -0.00  -0.00
   2   6     0.00  -0.03   0.00    -0.00   0.01  -0.00     0.00  -0.01   0.00
   3   6     0.04  -0.00   0.00    -0.02   0.00  -0.00     0.01  -0.00   0.00
   4   6     0.00   0.00  -0.00    -0.00  -0.00   0.00     0.00   0.00  -0.00
   5   6     0.00  -0.00   0.00    -0.00   0.00  -0.00     0.00   0.00   0.00
   6   6     0.00  -0.00   0.00    -0.00   0.00  -0.00     0.00  -0.00   0.00
   7   6     0.02   0.00   0.00    -0.01  -0.00  -0.00     0.01   0.00   0.00
   8   6     0.00   0.01  -0.00    -0.00  -0.01   0.00     0.00   0.01  -0.00
   9   6    -0.00   0.00  -0.00     0.00  -0.00   0.00    -0.00   0.00  -0.00
  10   7    -0.00  -0.00  -0.00     0.00   0.00   0.00    -0.00  -0.00   0.00
  11   6     0.00   0.00  -0.00    -0.00  -0.00   0.00     0.00   0.00  -0.00
  12   6     0.00   0.00  -0.00    -0.00  -0.00  -0.00     0.00   0.00   0.00
  13   6    -0.00   0.00  -0.00     0.00  -0.00   0.00    -0.00   0.00   0.00
  14   6    -0.00   0.00  -0.00     0.00  -0.00   0.00    -0.00   0.00  -0.00
  15   6    -0.00  -0.00  -0.00     0.00   0.00   0.00    -0.00  -0.00  -0.00
  16   7     0.00  -0.00  -0.00    -0.00   0.00  -0.00     0.00  -0.00   0.00
  17   6    -0.00  -0.00  -0.00     0.00   0.00   0.00    -0.00  -0.00  -0.00
  18   6    -0.00   0.00  -0.00     0.00  -0.00   0.00    -0.00   0.00  -0.00
  19   6    -0.00  -0.00  -0.00     0.00   0.00   0.00    -0.00  -0.00  -0.00
  20   6    -0.00  -0.00   0.00     0.00   0.00  -0.00    -0.00  -0.00   0.00
  21   6     0.00  -0.00   0.00    -0.00   0.00  -0.00     0.00  -0.00   0.00
  22   7     0.00   0.00  -0.00    -0.00  -0.00  -0.00     0.00   0.00   0.00
  23   6     0.00  -0.00   0.00    -0.00   0.00  -0.00     0.00  -0.00   0.00
  24   6    -0.00  -0.00  -0.00     0.00   0.00   0.00    -0.00  -0.00  -0.00
  25   7    -0.00   0.00  -0.00     0.00  -0.00   0.00    -0.00   0.00   0.00
  26   1    -0.01   0.09  -0.00     0.00  -0.04   0.00    -0.00   0.02  -0.00
  27   1    -0.12   0.01  -0.00     0.05  -0.01   0.00    -0.02   0.00  -0.00
  28   1    -0.06  -0.01  -0.00     0.04   0.00   0.00    -0.03  -0.00  -0.00
  29   1    -0.00  -0.04   0.00     0.00   0.03  -0.00    -0.00  -0.02   0.00
  30   1     0.00  -0.00   0.00    -0.00   0.00  -0.00     0.00  -0.00   0.00
  31   1     0.00  -0.00  -0.00    -0.00   0.00  -0.00     0.00  -0.01   0.00
  32   1     0.00  -0.00   0.00    -0.00   0.00  -0.00     0.01  -0.00   0.00
  33   1     0.00  -0.00   0.00    -0.00  -0.00  -0.00     0.00   0.00   0.00
  34   1     0.01   0.00   0.00    -0.01  -0.00  -0.00     0.01   0.00   0.00
  35   1     0.00   0.01  -0.00    -0.00  -0.01   0.00     0.00   0.01  -0.00
  36   1     0.00   0.00  -0.00    -0.00  -0.00   0.00     0.00   0.00  -0.00
  37  29     0.00  -0.00  -0.00    -0.00   0.00   0.00     0.00  -0.00  -0.00
  38   6    -0.00   0.02   0.00     0.00  -0.02  -0.00    -0.00   0.01   0.00
  39   6    -0.02   0.00   0.00     0.03  -0.00  -0.00    -0.01   0.00   0.00
  40   6    -0.00  -0.00  -0.00     0.00   0.00   0.00    -0.00  -0.00  -0.00
  41   6    -0.00   0.00   0.00     0.00  -0.00  -0.00    -0.00   0.00   0.00
  42   6    -0.00   0.00   0.00     0.00  -0.00  -0.00    -0.00   0.00   0.00
  43   6    -0.01  -0.00  -0.00     0.02   0.00   0.00    -0.01  -0.00  -0.00
  44   6    -0.00  -0.00  -0.00     0.00   0.01   0.00    -0.00  -0.01  -0.00
  45   6     0.00  -0.00  -0.00    -0.00   0.00   0.00     0.00  -0.00  -0.00
  46   7     0.00   0.00   0.00    -0.00  -0.00  -0.00     0.00   0.00   0.00
  47   6    -0.00  -0.00  -0.00     0.00   0.00   0.00    -0.00  -0.00  -0.00
  48   6    -0.00  -0.00  -0.00     0.00   0.00   0.00    -0.00  -0.00  -0.00
  49   6     0.00  -0.00  -0.00    -0.00   0.00   0.00     0.00  -0.00  -0.00
  50   6     0.00  -0.00  -0.00    -0.00   0.00   0.00     0.00  -0.00  -0.00
  51   6     0.00   0.00   0.00    -0.00  -0.00  -0.00     0.00   0.00   0.00
  52   7    -0.00   0.00   0.00     0.00  -0.00  -0.00    -0.00   0.00   0.00
  53   6     0.00   0.00   0.00    -0.00  -0.00   0.00     0.00   0.00  -0.00
  54   6     0.00  -0.00  -0.00    -0.00   0.00   0.00     0.00  -0.00  -0.00
  55   6     0.00   0.00   0.00    -0.00  -0.00  -0.00     0.00   0.00   0.00
  56   6     0.00   0.00   0.00    -0.00  -0.00  -0.00     0.00   0.00   0.00
  57   6    -0.00   0.00   0.00     0.00  -0.00  -0.00    -0.00   0.00   0.00
  58   7    -0.00  -0.00  -0.00     0.00   0.00   0.00    -0.00  -0.00  -0.00
  59   6    -0.00   0.00   0.00     0.00  -0.00  -0.00    -0.00   0.00   0.00
  60   6     0.00   0.00   0.00    -0.00  -0.00  -0.00     0.00   0.00   0.00
  61   7     0.00  -0.00  -0.00    -0.00   0.00   0.00     0.00  -0.00  -0.00
  62   1     0.01  -0.05  -0.01    -0.01   0.07   0.01     0.00  -0.03  -0.01
  63   1     0.08  -0.01  -0.00    -0.10   0.01   0.00     0.04  -0.00  -0.00
  64   1     0.02   0.00   0.00    -0.06  -0.01  -0.00     0.02   0.00   0.00
  65   1     0.00   0.02   0.00    -0.00  -0.04  -0.01     0.00   0.02   0.00
  66   1    -0.00   0.00   0.00     0.00  -0.00  -0.00    -0.00   0.00   0.00
  67   1    -0.00   0.00   0.00     0.00  -0.01  -0.00    -0.00   0.00   0.00
  68   1    -0.00   0.00   0.00     0.01  -0.00  -0.00    -0.01   0.00   0.00
  69   1    -0.00   0.00   0.00     0.00   0.00  -0.00    -0.00  -0.00   0.00
  70   1    -0.00  -0.00  -0.00     0.01   0.00   0.00    -0.01  -0.00  -0.00
  71   1    -0.00  -0.00  -0.00     0.00   0.01   0.00    -0.00  -0.01  -0.00
  72   1    -0.00  -0.00  -0.00     0.00   0.00   0.00    -0.00  -0.00  -0.00
  73   6     0.00  -0.00   0.00    -0.00   0.00  -0.00     0.00   0.00   0.00
  74   6     0.00   0.00  -0.00    -0.00  -0.00   0.00     0.00   0.00  -0.00
  75   6    -0.00   0.00   0.00     0.00  -0.00  -0.00    -0.00   0.00   0.00
  76   6     0.00   0.00  -0.00    -0.00  -0.00   0.00     0.00  -0.00   0.00
  77   6    -0.00   0.00  -0.00     0.00  -0.00   0.00    -0.00  -0.00   0.00
  78   6     0.00  -0.00   0.00     0.00   0.00  -0.00    -0.00   0.00  -0.00
  79   6     0.00  -0.00   0.00    -0.00   0.00  -0.00    -0.00   0.00  -0.00
  80   6     0.00   0.00  -0.00     0.00  -0.00   0.00     0.00  -0.00   0.00
  81   6    -0.00   0.00  -0.00    -0.00  -0.00   0.00    -0.00  -0.00   0.00
  82   6     0.00  -0.00   0.00     0.00   0.00   0.00     0.00   0.00  -0.00
  83   6    -0.00   0.00  -0.00     0.00  -0.00   0.00    -0.00  -0.00   0.00
  84   6    -0.00  -0.00   0.00     0.00   0.00  -0.00    -0.00   0.00  -0.00
  85   6    -0.00  -0.00   0.00    -0.00   0.00  -0.00     0.00   0.00  -0.00
  86   6     0.00   0.00  -0.00    -0.00  -0.00   0.00    -0.00  -0.00   0.00
  87   6     0.00   0.00  -0.00     0.00   0.00   0.00    -0.00  -0.00   0.00
  88   6    -0.00  -0.00   0.00    -0.00  -0.00   0.00     0.00   0.00  -0.00
  89   6     0.00  -0.00   0.00     0.00  -0.00   0.00    -0.00   0.00  -0.00
  90   6    -0.00   0.00  -0.00    -0.00   0.00  -0.00    -0.00  -0.00   0.00
  91   6     0.00   0.00  -0.00     0.00   0.00  -0.00     0.00  -0.00   0.00
  92   6    -0.00  -0.00   0.00    -0.00  -0.00   0.00     0.00   0.00  -0.00
  93   6     0.00  -0.00   0.00     0.00  -0.00   0.00    -0.00   0.00  -0.00
  94   6     0.00  -0.00  -0.00    -0.00   0.00   0.00     0.00  -0.00  -0.00
  95   6    -0.00  -0.00  -0.00     0.00   0.00   0.00    -0.00  -0.00  -0.00
  96   6     0.00   0.00   0.00     0.00  -0.00  -0.00    -0.00   0.00   0.00
  97  29     0.00   0.00  -0.00    -0.00  -0.00   0.00    -0.00  -0.00   0.00
  98   6    -0.01  -0.10   0.01     0.00   0.02  -0.00    -0.00  -0.02   0.00
  99   6    -0.13  -0.01   0.00     0.03   0.00  -0.00    -0.03  -0.00   0.00
 100   6    -0.00   0.00  -0.00     0.00  -0.00   0.00    -0.00   0.00  -0.00
 101   6    -0.00  -0.00   0.00     0.00   0.00  -0.00    -0.00   0.00  -0.00
 102   6    -0.00  -0.00   0.00     0.00   0.00  -0.00    -0.00  -0.00   0.00
 103   6    -0.02   0.00  -0.00     0.00  -0.00   0.00    -0.05   0.00  -0.00
 104   6    -0.00   0.01  -0.00     0.00  -0.00   0.00    -0.00   0.04  -0.00
 105   6     0.00   0.00  -0.00    -0.00  -0.00   0.00     0.00   0.00  -0.00
 106   7    -0.00   0.00  -0.00    -0.00   0.00  -0.00     0.00  -0.00   0.00
 107   6    -0.00  -0.00   0.00     0.00   0.00  -0.00     0.00   0.00  -0.00
 108   6     0.00  -0.00   0.00    -0.00   0.00  -0.00    -0.01   0.00  -0.00
 109   6    -0.00  -0.06   0.01     0.00   0.05  -0.01     0.01   0.16  -0.02
 110   6    -0.08  -0.01   0.00     0.06   0.00  -0.00     0.21   0.02  -0.00
 111   6    -0.00   0.00  -0.00     0.00  -0.00   0.00     0.00  -0.01   0.00
 112   7     0.00   0.00  -0.00    -0.00  -0.00   0.00    -0.00  -0.00   0.00
 113   6     0.00  -0.00   0.00     0.00   0.00  -0.00     0.00   0.00  -0.00
 114   6     0.00   0.01  -0.00    -0.00  -0.00   0.00     0.00   0.00  -0.00
 115   6     0.15  -0.01   0.00    -0.01   0.00  -0.00     0.07  -0.01   0.00
 116   6     0.01  -0.12   0.01    -0.00   0.01  -0.00     0.00  -0.05   0.01
 117   6    -0.00  -0.00   0.00     0.00   0.00  -0.00    -0.00  -0.00   0.00
 118   7    -0.00   0.00  -0.00     0.00  -0.00   0.00    -0.00   0.00  -0.00
 119   6     0.00  -0.00   0.00     0.00   0.00  -0.00     0.00  -0.00   0.00
 120   6     0.00  -0.00   0.00    -0.00   0.00  -0.00     0.00  -0.00   0.00
 121   7     0.00   0.00  -0.00    -0.00  -0.00   0.00    -0.00  -0.00   0.00
 122   1     0.03   0.31  -0.04    -0.01  -0.07   0.01     0.01   0.07  -0.01
 123   1     0.43   0.05  -0.01    -0.09  -0.01   0.00     0.09   0.01  -0.00
 124   1     0.05  -0.01   0.00    -0.01   0.00  -0.00     0.15  -0.02   0.00
 125   1     0.00  -0.03   0.00    -0.00   0.00  -0.00     0.01  -0.12   0.01
 126   1    -0.00   0.00  -0.00     0.00  -0.00   0.00     0.00  -0.01   0.00
 127   1     0.02   0.19  -0.02    -0.02  -0.14   0.02    -0.05  -0.49   0.06
 128   1     0.25   0.03  -0.00    -0.19  -0.02   0.00    -0.67  -0.08   0.01
 129   1    -0.49   0.06  -0.01     0.04  -0.01   0.00    -0.24   0.03  -0.00
 130   1    -0.04   0.37  -0.04     0.00  -0.03   0.00    -0.02   0.17  -0.02
 131   1     0.00   0.01  -0.00     0.00  -0.00   0.00     0.00   0.00  -0.00
 132  29     0.00   0.00  -0.00     0.00  -0.00   0.00     0.00  -0.00   0.00
 133   6    -0.00  -0.03   0.00     0.00   0.01  -0.00    -0.00  -0.02   0.00
 134   6    -0.04  -0.00   0.00     0.02   0.00  -0.00    -0.03  -0.00   0.00
 135   6    -0.00   0.00  -0.00     0.00  -0.00   0.00    -0.00   0.00  -0.00
 136   6    -0.00  -0.00   0.00     0.00   0.00  -0.00     0.00   0.00  -0.00
 137   6    -0.00  -0.00   0.00     0.00   0.00  -0.00    -0.00  -0.00   0.00
 138   6    -0.01   0.00  -0.00     0.01  -0.00   0.00    -0.04   0.00  -0.00
 139   6    -0.00   0.01  -0.00     0.00  -0.01   0.00    -0.00   0.03  -0.00
 140   6     0.00   0.00  -0.00    -0.00  -0.00   0.00     0.00   0.00  -0.00
 141   7     0.00  -0.00   0.00    -0.00   0.00  -0.00     0.00  -0.00   0.00
 142   6    -0.00   0.00  -0.00    -0.00  -0.00   0.00    -0.00   0.00  -0.00
 143   6    -0.00   0.00  -0.00     0.00  -0.00   0.00    -0.00   0.00  -0.00
 144   6     0.00   0.00  -0.00    -0.00  -0.03   0.00     0.00   0.01  -0.00
 145   6     0.01   0.00  -0.00    -0.03  -0.00   0.00     0.01   0.00  -0.00
 146   6     0.00  -0.00   0.00    -0.00   0.00  -0.00     0.00  -0.00   0.00
 147   7    -0.00  -0.00   0.00     0.00   0.00  -0.00    -0.00  -0.00   0.00
 148   6     0.00  -0.00   0.00    -0.00   0.00  -0.00    -0.00   0.00  -0.00
 149   6     0.00   0.00  -0.00    -0.00  -0.00   0.00     0.00   0.00  -0.00
 150   6     0.01  -0.00   0.00    -0.05   0.00  -0.00     0.01  -0.00   0.00
 151   6     0.00  -0.01   0.00    -0.00   0.04  -0.00     0.00  -0.01   0.00
 152   6    -0.00  -0.00   0.00     0.00   0.00  -0.00    -0.00  -0.00   0.00
 153   7    -0.00   0.00  -0.00     0.00  -0.00   0.00    -0.00   0.00  -0.00
 154   6    -0.00  -0.00   0.00    -0.00   0.00  -0.00    -0.00  -0.00   0.00
 155   6     0.00  -0.00   0.00    -0.00   0.00  -0.00     0.00  -0.00   0.00
 156   7     0.00   0.00  -0.00    -0.00  -0.00   0.00     0.00   0.00  -0.00
 157   1     0.01   0.09  -0.01    -0.00  -0.04   0.01     0.01   0.06  -0.01
 158   1     0.13   0.01  -0.00    -0.06  -0.01   0.00     0.08   0.01  -0.00
 159   1     0.04  -0.00   0.00    -0.02   0.00  -0.00     0.12  -0.01   0.00
 160   1     0.00  -0.03   0.00    -0.00   0.02  -0.00     0.01  -0.08   0.01
 161   1    -0.00  -0.00   0.00    -0.00   0.00  -0.00    -0.00  -0.00   0.00
 162   1    -0.00  -0.01   0.00     0.01   0.08  -0.01    -0.00  -0.03   0.00
 163   1    -0.02  -0.00   0.00     0.11   0.01  -0.00    -0.04  -0.00   0.00
 164   1    -0.04   0.01  -0.00     0.15  -0.02   0.00    -0.03   0.00  -0.00
 165   1    -0.00   0.03  -0.00     0.01  -0.11   0.01    -0.00   0.03  -0.00
 166   1    -0.00   0.00  -0.00    -0.00  -0.00   0.00    -0.00   0.00  -0.00
 167  29    -0.00  -0.00   0.00    -0.00  -0.00   0.00     0.00   0.00  -0.00
 168   6     0.00   0.05  -0.01     0.01   0.13  -0.02    -0.00  -0.02   0.00
 169   6     0.06   0.00  -0.00     0.17   0.01  -0.00    -0.03  -0.00   0.00
 170   6     0.00  -0.00   0.00     0.00  -0.01   0.00    -0.00   0.00  -0.00
 171   6     0.00   0.00  -0.00     0.00   0.00  -0.00    -0.00  -0.00   0.00
 172   6     0.00   0.00  -0.00     0.00   0.00  -0.00    -0.00  -0.00   0.00
 173   6     0.01  -0.00   0.00     0.06  -0.00   0.00    -0.01   0.00  -0.00
 174   6     0.00  -0.01   0.00     0.00  -0.04   0.01    -0.00   0.01  -0.00
 175   6    -0.00  -0.00   0.00    -0.00  -0.00   0.00     0.00   0.00  -0.00
 176   7     0.00  -0.00   0.00    -0.00   0.00  -0.00     0.00  -0.00   0.00
 177   6     0.00  -0.00  -0.00     0.00  -0.00   0.00    -0.00   0.00  -0.00
 178   6    -0.00   0.00  -0.00     0.00  -0.00   0.00    -0.00   0.00  -0.00
 179   6     0.00   0.00  -0.00    -0.00  -0.03   0.00     0.00   0.01  -0.00
 180   6     0.00   0.00  -0.00    -0.04  -0.00   0.00     0.01   0.00  -0.00
 181   6     0.00  -0.00   0.00    -0.00   0.00  -0.00     0.00  -0.00   0.00
 182   7    -0.00  -0.00   0.00    -0.00  -0.00   0.00    -0.00  -0.00   0.00
 183   6    -0.00   0.00  -0.00    -0.00   0.00  -0.00     0.00  -0.00   0.00
 184   6    -0.00  -0.00   0.00    -0.00  -0.00   0.00     0.00   0.00  -0.00
 185   6    -0.03   0.00  -0.00    -0.11   0.01  -0.00     0.02  -0.00   0.00
 186   6    -0.00   0.02  -0.00    -0.00   0.08  -0.01     0.00  -0.02   0.00
 187   6     0.00   0.00  -0.00     0.00   0.00  -0.00    -0.00  -0.00   0.00
 188   7    -0.00   0.00  -0.00     0.00  -0.00   0.00    -0.00   0.00  -0.00
 189   6     0.00   0.00  -0.00     0.00   0.00  -0.00    -0.00  -0.00   0.00
 190   6    -0.00   0.00  -0.00    -0.00   0.00  -0.00     0.00  -0.00   0.00
 191   7    -0.00  -0.00   0.00    -0.00  -0.00   0.00     0.00   0.00  -0.00
 192   1    -0.02  -0.15   0.02    -0.04  -0.41   0.05     0.01   0.06  -0.01
 193   1    -0.20  -0.02   0.00    -0.55  -0.06   0.01     0.08   0.01  -0.00
 194   1    -0.04   0.00  -0.00    -0.19   0.02  -0.00     0.05  -0.01   0.00
 195   1    -0.00   0.02  -0.00    -0.01   0.14  -0.02     0.00  -0.03   0.00
 196   1     0.00   0.00  -0.00     0.00   0.00  -0.00    -0.00  -0.00   0.00
 197   1    -0.00  -0.00   0.00     0.01   0.08  -0.01    -0.00  -0.03   0.00
 198   1    -0.00  -0.00   0.00     0.12   0.01  -0.00    -0.04  -0.00   0.00
 199   1     0.08  -0.01   0.00     0.35  -0.04   0.00    -0.07   0.01  -0.00
 200   1     0.01  -0.06   0.01     0.02  -0.25   0.03    -0.01   0.05  -0.01
 201   1     0.00  -0.00   0.00     0.00  -0.01   0.00    -0.00   0.00  -0.00
