      -----------------------------------------------------------      
     |                   =====================                   |     
     |                           x T B                           |     
     |                   =====================                   |     
     |                         S. Grimme                         |     
     |          Mulliken Center for Theoretical Chemistry        |     
     |                    University of Bonn                     |     
      -----------------------------------------------------------      

   * xtb version 6.4.1 (bd6e46d) compiled by 'conda@4901f00b25ba' on 2021-06-10

   xtb is free software: you can redistribute it and/or modify it under
   the terms of the GNU Lesser General Public License as published by
   the Free Software Foundation, either version 3 of the License, or
   (at your option) any later version.
   
   xtb is distributed in the hope that it will be useful,
   but WITHOUT ANY WARRANTY; without even the implied warranty of
   MERCHANTABILITY or FITNESS FOR A PARTICULAR PURPOSE.  See the
   GNU Lesser General Public License for more details.
   
   Cite this work as:
   * C. Bannwarth, E. Caldeweyher, S. Ehlert, A. Hansen, P. Pracht,
     J. Seibert, S. Spicher, S. Grimme, WIREs Comput. Mol. Sci., 2020, 11,
     e01493. DOI: 10.1002/wcms.1493
   
   for GFN2-xTB:
   * C. Bannwarth, S. Ehlert and S. Grimme., J. Chem. Theory Comput., 2019,
     15, 1652-1671. DOI: 10.1021/acs.jctc.8b01176
   for GFN1-xTB:
   * S. Grimme, C. Bannwarth, P. Shushkov, J. Chem. Theory Comput., 2017,
     13, 1989-2009. DOI: 10.1021/acs.jctc.7b00118
   for GFN0-xTB:
   * P. Pracht, E. Caldeweyher, S. Ehlert, S. Grimme, ChemRxiv, 2019, preprint.
     DOI: 10.26434/chemrxiv.8326202.v1
   for GFN-FF:
   * S. Spicher and S. Grimme, Angew. Chem. Int. Ed., 2020, 59, 15665-15673.
     DOI: 10.1002/anie.202004239
   
   for DFT-D4:
   * E. Caldeweyher, C. Bannwarth and S. Grimme, J. Chem. Phys., 2017,
     147, 034112. DOI: 10.1063/1.4993215
   * E. Caldeweyher, S. Ehlert, A. Hansen, H. Neugebauer, S. Spicher,
     C. Bannwarth and S. Grimme, J. Chem. Phys., 2019, 150, 154122.
     DOI: 10.1063/1.5090222
   * E. Caldeweyher, J.-M. Mewes, S. Ehlert and S. Grimme, Phys. Chem. Chem. Phys.
     2020, 22, 8499-8512. DOI: 10.1039/D0CP00502A
   
   for sTDA-xTB:
   * S. Grimme and C. Bannwarth, J. Chem. Phys., 2016, 145, 054103.
     DOI: 10.1063/1.4959605
   
   in the mass-spec context:
   * V. Asgeirsson, C. Bauer and S. Grimme, Chem. Sci., 2017, 8, 4879.
     DOI: 10.1039/c7sc00601b
   * J. Koopman and S. Grimme, ACS Omega 2019, 4, 12, 15120-15133.
     DOI: 10.1021/acsomega.9b02011
   
   for metadynamics refer to:
   * S. Grimme, J. Chem. Theory Comput., 2019, 155, 2847-2862
     DOI: 10.1021/acs.jctc.9b00143
   
   for SPH calculations refer to:
   * S. Spicher and S. Grimme, J. Chem. Theory Comput., 2021, 17, 1701-1714
     DOI: 10.1021/acs.jctc.0c01306
   
   with help from (in alphabetical order)
   P. Atkinson, C. Bannwarth, F. Bohle, G. Brandenburg, E. Caldeweyher
   M. Checinski, S. Dohm, S. Ehlert, S. Ehrlich, I. Gerasimov, J. Koopman
   C. Lavigne, S. Lehtola, F. März, M. Müller, F. Musil, H. Neugebauer
   J. Pisarek, C. Plett, P. Pracht, J. Seibert, P. Shushkov, S. Spicher
   M. Stahn, M. Steiner, T. Strunk, J. Stückrath, T. Rose, and J. Unsleber
   
 * started run on 2021/11/19 at 20:25:58.554     

           -------------------------------------------------
          |                Calculation Setup                |
           -------------------------------------------------

          program call               : /home/jeff/miniconda3/bin/xtb input_structure_1.xyz --gfn 2 --ohess normal --parallel 1 --etemp 300 --chrg 0 --uhf 0 -I det_control.in
          hostname                   : jelfscompute1
          coordinate file            : input_structure_1.xyz
          omp threads                :                     1
          number of atoms            :                   201
          number of electrons        :                   703
          charge                     :                     0
          spin                       :                   0.5
          first test random number   :      0.37395243672034

   ID    Z sym.   atoms
    1   29 Cu     1, 37, 97, 132, 167
    2    6 C      2-9, 11-15, 17-21, 23, 24, 38-45, 47-51, 53-57, 59, 60,
                  73-96, 98-105, 107-111, 113-117, 119, 120, 133-140,
                  142-146, 148-152, 154, 155, 168-175, 177-181, 183-187, 189,
                  190
    3    7 N      10, 16, 22, 25, 46, 52, 58, 61, 106, 112, 118, 121, 141,
                  147, 153, 156, 176, 182, 188, 191
    4    1 H      26-36, 62-72, 122-131, 157-166, 192-201

molecular fragmentation (1/2 indicates fragments):
111111111111111111111111111111111111222222222222222222222222222222222222
222222222222222222222222222222222222222222222222222222222222222222222222
222222222222222222222222222222222222222222222222222222222
# atoms in fragment 1/2:    36   165
 fragment masses (1/2) :      370.87     1768.73
CMA distance (Bohr)    :  75.530
constraining FC (au)   :  0.0500

           -------------------------------------------------
          |                 G F N 2 - x T B                 |
           -------------------------------------------------

        Reference                      10.1021/acs.jctc.8b01176
      * Hamiltonian:
        H0-scaling (s, p, d)           1.850000    2.230000    2.230000
        zeta-weighting                 0.500000
      * Dispersion:
        s8                             2.700000
        a1                             0.520000
        a2                             5.000000
        s9                             5.000000
      * Repulsion:
        kExp                           1.500000    1.000000
        rExp                           1.000000
      * Coulomb:
        alpha                          2.000000
        third order                    shell-resolved
        anisotropic                    true
        a3                             3.000000
        a5                             4.000000
        cn-shift                       1.200000
        cn-exp                         4.000000
        max-rad                        5.000000


          ...................................................
          :                      SETUP                      :
          :.................................................:
          :  # basis functions                 678          :
          :  # atomic orbitals                 673          :
          :  # shells                          355          :
          :  # electrons                       703          :
          :  max. iterations                   250          :
          :  Hamiltonian                  GFN2-xTB          :
          :  restarted?                      false          :
          :  GBSA solvation                  false          :
          :  PC potential                    false          :
          :  electronic temp.          300.0000000     K    :
          :  accuracy                    1.0000000          :
          :  -> integral cutoff          0.2500000E+02      :
          :  -> integral neglect         0.1000000E-07      :
          :  -> SCF convergence          0.1000000E-05 Eh   :
          :  -> wf. convergence          0.1000000E-03 e    :
          :  Broyden damping             0.4000000          :
          ...................................................

 iter      E             dE          RMSdq      gap      omega  full diag
   1   -374.8874824 -0.374887E+03  0.641E+00    0.12       0.0  T
   2   -355.4258407  0.194616E+02  0.536E+00    0.25       1.0  T
   3   -131.1375566  0.224288E+03  0.139E+01    0.02       1.0  T
   4   -305.6588710 -0.174521E+03  0.971E+00    0.06       1.0  T
   5   -342.9002918 -0.372414E+02  0.626E+00    0.10       1.0  T
   6   -345.0354187 -0.213513E+01  0.649E+00    0.10       1.0  T
   7   -370.5630154 -0.255276E+02  0.321E+00    0.07       1.0  T
   8   -331.8005048  0.387625E+02  0.522E+00    0.01       1.0  T
   9   -365.6752123 -0.338747E+02  0.305E+00    0.15       1.0  T
  10   -371.6390455 -0.596383E+01  0.235E+00    0.17       1.0  T
  11   -374.3442849 -0.270524E+01  0.192E+00    0.05       1.0  T
  12   -372.7073321  0.163695E+01  0.256E+00    0.05       1.0  T
  13   -374.6910859 -0.198375E+01  0.152E+00    0.06       1.0  T
  14   -374.5251904  0.165895E+00  0.139E+00    0.08       1.0  T
  15   -374.7531593 -0.227969E+00  0.131E+00    0.00       1.0  T
  16   -374.9219165 -0.168757E+00  0.117E+00    0.12       1.0  T
  17   -374.9874688 -0.655524E-01  0.974E-01    0.05       1.0  T
  18   -374.9520455  0.354233E-01  0.872E-01    0.01       1.0  T
  19   -374.8031300  0.148916E+00  0.894E-01    0.10       1.0  T
  20   -375.2897630 -0.486633E+00  0.578E-01    0.13       1.0  T
  21   -375.3120733 -0.223103E-01  0.493E-01    0.11       1.0  T
  22   -375.3823780 -0.703047E-01  0.429E-01    0.07       1.0  T
  23   -375.3767783  0.559963E-02  0.375E-01    0.06       1.0  T
  24   -375.3461773  0.306010E-01  0.491E-01    0.07       1.0  T
  25   -375.3582861 -0.121088E-01  0.385E-01    0.07       1.0  T
  26   -375.3881934 -0.299073E-01  0.380E-01    0.01       1.0  T
  27   -375.4359376 -0.477442E-01  0.255E-01    0.06       1.0  T
  28   -375.4516988 -0.157612E-01  0.240E-01    0.01       1.0  T
  29   -375.4546998 -0.300102E-02  0.205E-01    0.01       1.0  T
  30   -375.4669876 -0.122878E-01  0.135E-01    0.02       1.0  T
  31   -375.4680169 -0.102929E-02  0.125E-01    0.03       1.0  T
  32   -375.4621355  0.588142E-02  0.138E-01    0.01       1.0  T
  33   -375.4691249 -0.698942E-02  0.947E-02    0.02       1.0  T
  34   -375.4696980 -0.573038E-03  0.839E-02    0.02       1.0  T
  35   -375.4687123  0.985633E-03  0.817E-02    0.03       1.0  T
  36   -375.4694924 -0.780079E-03  0.804E-02    0.03       1.0  T
  37   -375.4702544 -0.762025E-03  0.675E-02    0.03       1.0  T
  38   -375.4711570 -0.902612E-03  0.544E-02    0.03       1.0  T
  39   -375.4713313 -0.174300E-03  0.480E-02    0.03       1.0  T
  40   -375.4713054  0.259096E-04  0.452E-02    0.03       1.0  T
  41   -375.4711811  0.124342E-03  0.435E-02    0.03       1.0  T
  42   -375.4712911 -0.109965E-03  0.407E-02    0.03       1.0  T
  43   -375.4714334 -0.142308E-03  0.344E-02    0.03       1.0  T
  44   -375.4715417 -0.108299E-03  0.281E-02    0.03       1.0  T
  45   -375.4715390  0.263027E-05  0.261E-02    0.03       1.0  T
  46   -375.4715306  0.841487E-05  0.252E-02    0.03       1.0  T
  47   -375.4715481 -0.175071E-04  0.228E-02    0.03       1.0  T
  48   -375.4715768 -0.287054E-04  0.201E-02    0.03       1.0  T
  49   -375.4716009 -0.241022E-04  0.160E-02    0.03       1.0  T
  50   -375.4716101 -0.919623E-05  0.132E-02    0.03       1.0  T
  51   -375.4716214 -0.112883E-04  0.881E-03    0.03       1.0  T
  52   -375.4716279 -0.644150E-05  0.659E-03    0.03       1.1  T
  53   -375.4716351 -0.722016E-05  0.464E-03    0.03       1.5  T
  54   -375.4716383 -0.318513E-05  0.287E-03    0.03       2.5  T
  55   -375.4716391 -0.834626E-06  0.190E-03    0.03       3.7  T
  56   -375.4716390  0.528619E-07  0.155E-03    0.03       4.5  T
  57   -375.4716396 -0.607584E-06  0.759E-04    0.03       9.3  T
  58   -375.4716398 -0.156316E-06  0.396E-04    0.03      17.8  T

   *** convergence criteria satisfied after 58 iterations ***

         #    Occupation            Energy/Eh            Energy/eV
      -------------------------------------------------------------
         1        2.0000           -0.6869828             -18.6938
       ...           ...                  ...                  ...
       346        2.0000           -0.3573631              -9.7243
       347        2.0000           -0.3557306              -9.6799
       348        2.0000           -0.3545682              -9.6483
       349        2.0000           -0.3541065              -9.6357
       350        1.5336           -0.3391679              -9.2292
       351        1.3540           -0.3387106              -9.2168
       352        1.3002           -0.3385871              -9.2134 (HOMO)
       353        0.7902           -0.3375059              -9.1840 (LUMO)
       354        0.0090           -0.3326612              -9.0522
       355        0.0084           -0.3325891              -9.0502
       356        0.0046           -0.3320123              -9.0345
       357        0.0000           -0.3240330              -8.8174
       ...           ...                  ...                  ...
       673                          2.2593010              61.4787
      -------------------------------------------------------------
                  HL-Gap            0.0010812 Eh            0.0294 eV
             Fermi-level           -0.3379469 Eh           -9.1960 eV

 SCC (total)                   0 d,  0 h,  0 min,  7.893 sec
 SCC setup                      ...        0 min,  0.007 sec (  0.092%)
 Dispersion                     ...        0 min,  0.016 sec (  0.197%)
 classical contributions        ...        0 min,  0.001 sec (  0.018%)
 integral evaluation            ...        0 min,  0.129 sec (  1.630%)
 iterations                     ...        0 min,  7.394 sec ( 93.677%)
 molecular gradient             ...        0 min,  0.330 sec (  4.181%)
 printout                       ...        0 min,  0.016 sec (  0.205%)

         :::::::::::::::::::::::::::::::::::::::::::::::::::::
         ::                     SUMMARY                     ::
         :::::::::::::::::::::::::::::::::::::::::::::::::::::
         :: total energy            -367.779791421551 Eh    ::
         :: gradient norm              1.748508333937 Eh/a0 ::
         :: HOMO-LUMO gap              0.029421051413 eV    ::
         ::.................................................::
         :: SCC energy              -375.471639804587 Eh    ::
         :: -> isotropic ES            0.194476452945 Eh    ::
         :: -> anisotropic ES          0.046238026465 Eh    ::
         :: -> anisotropic XC          0.209266249452 Eh    ::
         :: -> dispersion             -0.310807541134 Eh    ::
         :: repulsion energy           7.692403740711 Eh    ::
         :: add. restraining           0.000000000000 Eh    ::
         :: total charge               0.000000000346 e     ::
         :::::::::::::::::::::::::::::::::::::::::::::::::::::

      ----------------------------------------------------------- 
     |                   =====================                   |
     |                        A N C O P T                        |
     |                   =====================                   |
     |               Approximate Normal Coordinate               |
     |                Rational Function Optimizer                |
      ----------------------------------------------------------- 

          ...................................................
          :                      SETUP                      :
          :.................................................:
          :   optimization level            normal          :
          :   max. optcycles                   603          :
          :   ANC micro-cycles                  20          :
          :   degrees of freedom               597          :
          :.................................................:
          :   RF solver                   davidson          :
          :   write xtbopt.log                true          :
          :   linear?                        false          :
          :   energy convergence         0.5000000E-05 Eh   :
          :   grad. convergence          0.1000000E-02 Eh/α :
          :   maximium RF displ.         1.0000000          :
          :   Hlow (freq-cutoff)         0.1000000E-01      :
          :   Hmax (freq-cutoff)         5.0000000          :
          :   S6 in model hess.         20.0000000          :
          ...................................................

generating ANC from model Hessian ...
Using Lindh-Hessian (1995)
 Shifting diagonal of input Hessian by    1.0134331402636367E-002
 Lowest  eigenvalues of input Hessian
    0.010000    0.010034    0.010100    0.010100    0.010101    0.010108
    0.010111    0.010116    0.010117    0.010120    0.010125    0.010127
    0.010128    0.010131    0.000000    0.000000    0.000000    0.000000
 Highest eigenvalues
    3.325869    3.325872    3.327668    3.495154    3.495768    3.495769


........................................................................
.............................. CYCLE    1 ..............................
........................................................................
   1   -375.4716398 -0.375472E+03  0.350E-04    0.03       0.0  T
   2   -375.4716098  0.299781E-04  0.517E-03    0.03       1.4  T
   3   -375.4716294 -0.195292E-04  0.300E-03    0.03       2.4  T
   4   -375.4716379 -0.849783E-05  0.135E-03    0.03       5.2  T
   5   -375.4716376  0.291169E-06  0.141E-03    0.03       5.0  T
   6   -375.4716390 -0.139216E-05  0.945E-04    0.03       7.5  T
   7   -375.4716398 -0.870378E-06  0.248E-04    0.03      28.4  T
   8   -375.4716398  0.697544E-07  0.390E-04    0.03      18.1  T
     SCC iter.                  ...        0 min,  1.051 sec
     gradient                   ...        0 min,  0.332 sec
 * total energy  :  -367.7797914 Eh     change        0.3667446E-07 Eh
   gradient norm :     1.7485090 Eh/α   predicted     0.0000000E+00 (-100.00%)
   displ. norm   :     0.6126796 α      lambda       -0.9899538E+00
   maximum displ.:     0.2019116 α      in ANC's #475, #586, #596, ...

........................................................................
.............................. CYCLE    2 ..............................
........................................................................
   1   -375.4894596 -0.375489E+03  0.408E-01    0.04       0.0  T
   2   -374.7536131  0.735847E+00  0.988E-01    0.03       1.0  T
   3   -374.8943676 -0.140754E+00  0.829E-01    0.08       1.0  T
   4   -375.1311151 -0.236748E+00  0.785E-01    0.11       1.0  T
   5   -375.2073240 -0.762090E-01  0.525E-01    0.01       1.0  T
   6   -374.4538650  0.753459E+00  0.966E-01    0.13       1.0  T
   7   -375.3078178 -0.853953E+00  0.442E-01    0.09       1.0  T
   8   -375.1363455  0.171472E+00  0.613E-01    0.05       1.0  T
   9   -375.4408572 -0.304512E+00  0.336E-01    0.07       1.0  T
  10   -375.4382808  0.257648E-02  0.309E-01    0.12       1.0  T
  11   -375.4668904 -0.286096E-01  0.230E-01    0.01       1.0  T
  12   -375.4832237 -0.163333E-01  0.210E-01    0.06       1.0  T
  13   -375.5048699 -0.216462E-01  0.144E-01    0.04       1.0  T
  14   -375.4834855  0.213844E-01  0.210E-01    0.05       1.0  T
  15   -375.5009633 -0.174777E-01  0.165E-01    0.04       1.0  T
  16   -375.4820843  0.188790E-01  0.185E-01    0.02       1.0  T
  17   -375.5141510 -0.320668E-01  0.976E-02    0.04       1.0  T
  18   -375.5198563 -0.570527E-02  0.561E-02    0.04       1.0  T
  19   -375.5210454 -0.118907E-02  0.357E-02    0.03       1.0  T
  20   -375.5215488 -0.503453E-03  0.267E-02    0.04       1.0  T
  21   -375.5215465  0.236669E-05  0.249E-02    0.04       1.0  T
  22   -375.5219012 -0.354717E-03  0.949E-03    0.04       1.0  T
  23   -375.5219291 -0.279116E-04  0.694E-03    0.04       1.0  T
  24   -375.5219161  0.129999E-04  0.752E-03    0.04       1.0  T
  25   -375.5218819  0.341360E-04  0.882E-03    0.04       1.0  T
  26   -375.5219250 -0.430285E-04  0.715E-03    0.04       1.0  T
  27   -375.5219258 -0.789060E-06  0.680E-03    0.04       1.0  T
  28   -375.5219468 -0.210106E-04  0.418E-03    0.04       1.7  T
  29   -375.5219541 -0.729518E-05  0.254E-03    0.04       2.8  T
  30   -375.5219552 -0.110881E-05  0.187E-03    0.04       3.8  T
  31   -375.5219579 -0.271254E-05  0.636E-04    0.04      11.1  T
  32   -375.5219578  0.103072E-06  0.559E-04    0.04      12.6  T
  33   -375.5219580 -0.192609E-06  0.342E-04    0.04      20.6  T
     SCC iter.                  ...        0 min,  4.216 sec
     gradient                   ...        0 min,  0.332 sec
 * total energy  :  -368.4513020 Eh     change       -0.6715106E+00 Eh
   gradient norm :     0.7090358 Eh/α   predicted    -0.6807856E+00 (   1.38%)
   displ. norm   :     0.6027202 α      lambda       -0.3607763E+00
   maximum displ.:     0.1768513 α      in ANC's #209, #475, #206, ...

........................................................................
.............................. CYCLE    3 ..............................
........................................................................
   1   -375.4885784 -0.375489E+03  0.480E-01    0.04       0.0  T
   2   -372.0674646  0.342111E+01  0.229E+00    0.10       1.0  T
   3   -375.3126274 -0.324516E+01  0.634E-01    0.09       1.0  T
   4   -375.2224428  0.901846E-01  0.640E-01    0.12       1.0  T
   5   -374.9063500  0.316093E+00  0.741E-01    0.05       1.0  T
   6   -374.5830588  0.323291E+00  0.893E-01    0.13       1.0  T
   7   -375.1480029 -0.564944E+00  0.642E-01    0.00       1.0  T
   8   -375.4563762 -0.308373E+00  0.353E-01    0.02       1.0  T
   9   -375.3827960  0.735803E-01  0.441E-01    0.04       1.0  T
  10   -375.4701438 -0.873479E-01  0.309E-01    0.04       1.0  T
  11   -375.4722911 -0.214731E-02  0.304E-01    0.04       1.0  T
  12   -375.5185538 -0.462626E-01  0.193E-01    0.05       1.0  T
  13   -375.5339925 -0.154388E-01  0.155E-01    0.05       1.0  T
  14   -375.5353600 -0.136749E-02  0.138E-01    0.04       1.0  T
  15   -375.5358033 -0.443316E-03  0.121E-01    0.06       1.0  T
  16   -375.5378335 -0.203012E-02  0.102E-01    0.04       1.0  T
  17   -375.5364637  0.136980E-02  0.979E-02    0.05       1.0  T
  18   -375.5375331 -0.106944E-02  0.819E-02    0.05       1.0  T
  19   -375.5438708 -0.633770E-02  0.379E-02    0.04       1.0  T
  20   -375.5442030 -0.332155E-03  0.335E-02    0.04       1.0  T
  21   -375.5447939 -0.590912E-03  0.238E-02    0.04       1.0  T
  22   -375.5449186 -0.124766E-03  0.183E-02    0.04       1.0  T
  23   -375.5448440  0.746276E-04  0.164E-02    0.04       1.0  T
  24   -375.5449112 -0.671927E-04  0.130E-02    0.04       1.0  T
  25   -375.5449740 -0.628365E-04  0.108E-02    0.04       1.0  T
  26   -375.5450004 -0.263535E-04  0.824E-03    0.05       1.0  T
  27   -375.5450341 -0.336546E-04  0.574E-03    0.05       1.2  T
  28   -375.5450487 -0.146248E-04  0.442E-03    0.05       1.6  T
  29   -375.5450586 -0.994950E-05  0.333E-03    0.04       2.1  T
  30   -375.5450647 -0.611328E-05  0.166E-03    0.04       4.3  T
  31   -375.5450652 -0.417260E-06  0.106E-03    0.04       6.7  T
  32   -375.5450658 -0.625319E-06  0.584E-04    0.04      12.1  T
  33   -375.5450660 -0.214630E-06  0.269E-04    0.04      26.2  T
     SCC iter.                  ...        0 min,  4.222 sec
     gradient                   ...        0 min,  0.331 sec
 * total energy  :  -368.7248985 Eh     change       -0.2735965E+00 Eh
   gradient norm :     0.3426116 Eh/α   predicted    -0.2459182E+00 ( -10.12%)
   displ. norm   :     0.6836980 α      lambda       -0.1869192E+00
   maximum displ.:     0.2568067 α      in ANC's #209, #206, #205, ...

........................................................................
.............................. CYCLE    4 ..............................
........................................................................
   1   -375.4419891 -0.375442E+03  0.693E-01    0.02       0.0  T
   2   -361.6304238  0.138116E+02  0.372E+00    0.02       1.0  T
   3   -375.1404962 -0.135101E+02  0.122E+00    0.02       1.0  T
   4   -375.2539637 -0.113467E+00  0.741E-01    0.00       1.0  T
   5   -375.1093468  0.144617E+00  0.789E-01    0.11       1.0  T
   6   -375.2650382 -0.155691E+00  0.702E-01    0.05       1.0  T
   7   -374.9605107  0.304527E+00  0.730E-01    0.04       1.0  T
   8   -375.1184642 -0.157954E+00  0.719E-01    0.08       1.0  T
   9   -375.3772051 -0.258741E+00  0.522E-01    0.01       1.0  T
  10   -375.4848282 -0.107623E+00  0.380E-01    0.03       1.0  T
  11   -375.5875716 -0.102743E+00  0.238E-01    0.07       1.0  T
  12   -375.5123554  0.752162E-01  0.338E-01    0.03       1.0  T
  13   -375.6063502 -0.939948E-01  0.216E-01    0.08       1.0  T
  14   -375.6149805 -0.863027E-02  0.152E-01    0.06       1.0  T
  15   -375.6234210 -0.844055E-02  0.123E-01    0.05       1.0  T
  16   -375.4409720  0.182449E+00  0.385E-01    0.00       1.0  T
  17   -375.6269210 -0.185949E+00  0.918E-02    0.06       1.0  T
  18   -375.5789081  0.480128E-01  0.208E-01    0.00       1.0  T
  19   -375.6042201 -0.253120E-01  0.149E-01    0.02       1.0  T
  20   -375.6276541 -0.234340E-01  0.748E-02    0.04       1.0  T
  21   -375.6282099 -0.555785E-03  0.654E-02    0.04       1.0  T
  22   -375.6294425 -0.123260E-02  0.515E-02    0.04       1.0  T
  23   -375.6306697 -0.122722E-02  0.262E-02    0.04       1.0  T
  24   -375.6297787  0.891073E-03  0.318E-02    0.04       1.0  T
  25   -375.6288749  0.903753E-03  0.405E-02    0.05       1.0  T
  26   -375.6305381 -0.166316E-02  0.226E-02    0.05       1.0  T
  27   -375.6310356 -0.497541E-03  0.144E-02    0.04       1.0  T
  28   -375.6309387  0.969025E-04  0.141E-02    0.04       1.0  T
  29   -375.6310284 -0.897131E-04  0.893E-03    0.04       1.0  T
  30   -375.6309434  0.850187E-04  0.114E-02    0.04       1.0  T
  31   -375.6310968 -0.153433E-03  0.418E-03    0.04       1.7  T
  32   -375.6311058 -0.893866E-05  0.306E-03    0.05       2.3  T
  33   -375.6311069 -0.114200E-05  0.211E-03    0.05       3.3  T
  34   -375.6311023  0.463833E-05  0.250E-03    0.05       2.8  T
  35   -375.6311107 -0.837620E-05  0.527E-04    0.05      13.4  T
  36   -375.6311108 -0.115140E-06  0.357E-04    0.05      19.8  T
  37   -375.6311108 -0.674042E-07  0.238E-04    0.05      29.7  T
     SCC iter.                  ...        0 min,  4.725 sec
     gradient                   ...        0 min,  0.332 sec
 * total energy  :  -368.8680947 Eh     change       -0.1431962E+00 Eh
   gradient norm :     0.1569094 Eh/α   predicted    -0.1371469E+00 (  -4.22%)
   displ. norm   :     0.7599729 α      lambda       -0.1063153E+00
   maximum displ.:     0.2939418 α      in ANC's #209, #206, #159, ...

........................................................................
.............................. CYCLE    5 ..............................
........................................................................
   1   -375.4524359 -0.375452E+03  0.777E-01    0.00       0.0  T
   2   -358.3008700  0.171516E+02  0.399E+00    0.19       1.0  T
   3   -375.1028090 -0.168019E+02  0.139E+00    0.14       1.0  T
   4   -375.2815503 -0.178741E+00  0.759E-01    0.01       1.0  T
   5   -375.1986007  0.829496E-01  0.699E-01    0.09       1.0  T
   6   -375.0986975  0.999032E-01  0.797E-01    0.11       1.0  T
   7   -375.3307250 -0.232028E+00  0.682E-01    0.16       1.0  T
   8   -375.4987069 -0.167982E+00  0.513E-01    0.00       1.0  T
   9   -375.5807981 -0.820912E-01  0.354E-01    0.03       1.0  T
  10   -375.2413992  0.339399E+00  0.597E-01    0.06       1.0  T
  11   -375.5635571 -0.322158E+00  0.346E-01    0.00       1.0  T
  12   -375.6776530 -0.114096E+00  0.224E-01    0.06       1.0  T
  13   -375.6812041 -0.355102E-02  0.209E-01    0.05       1.0  T
  14   -375.6782786  0.292544E-02  0.174E-01    0.03       1.0  T
  15   -375.6911357 -0.128571E-01  0.139E-01    0.06       1.0  T
  16   -375.7034244 -0.122887E-01  0.950E-02    0.06       1.0  T
  17   -375.6837820  0.196424E-01  0.166E-01    0.02       1.0  T
  18   -375.7079343 -0.241523E-01  0.615E-02    0.04       1.0  T
  19   -375.7082015 -0.267162E-03  0.646E-02    0.04       1.0  T
  20   -375.7075426  0.658872E-03  0.715E-02    0.03       1.0  T
  21   -375.7096263 -0.208373E-02  0.489E-02    0.04       1.0  T
  22   -375.7097175 -0.912125E-04  0.376E-02    0.04       1.0  T
  23   -375.7099228 -0.205287E-03  0.278E-02    0.04       1.0  T
  24   -375.7107670 -0.844202E-03  0.117E-02    0.04       1.0  T
  25   -375.7106744  0.925916E-04  0.135E-02    0.04       1.0  T
  26   -375.7108578 -0.183330E-03  0.628E-03    0.04       1.1  T
  27   -375.7107807  0.770512E-04  0.944E-03    0.04       1.0  T
  28   -375.7108099 -0.292299E-04  0.782E-03    0.04       1.0  T
  29   -375.7108308 -0.208192E-04  0.635E-03    0.04       1.1  T
  30   -375.7108355 -0.475038E-05  0.588E-03    0.04       1.2  T
  31   -375.7108677 -0.322060E-04  0.307E-03    0.04       2.3  T
  32   -375.7108712 -0.346339E-05  0.198E-03    0.04       3.6  T
  33   -375.7108748 -0.360445E-05  0.908E-04    0.04       7.8  T
  34   -375.7108742  0.620063E-06  0.111E-03    0.04       6.4  T
  35   -375.7108748 -0.607834E-06  0.861E-04    0.04       8.2  T
  36   -375.7108754 -0.605814E-06  0.538E-04    0.04      13.1  T
     SCC iter.                  ...        0 min,  4.596 sec
     gradient                   ...        0 min,  0.334 sec
 * total energy  :  -368.9563653 Eh     change       -0.8827056E-01 Eh
   gradient norm :     0.1048264 Eh/α   predicted    -0.8385934E-01 (  -5.00%)
   displ. norm   :     0.7999658 α      lambda       -0.7595773E-01
   maximum displ.:     0.2844663 α      in ANC's #209, #159, #206, ...

........................................................................
.............................. CYCLE    6 ..............................
........................................................................
   1   -375.5326968 -0.375533E+03  0.761E-01    0.01       0.0  T
   2   -358.2059788  0.173267E+02  0.400E+00    0.12       1.0  T
   3   -375.0594655 -0.168535E+02  0.147E+00    0.21       1.0  T
   4   -375.1166188 -0.571533E-01  0.827E-01    0.04       1.0  T
   5   -374.7902656  0.326353E+00  0.107E+00    0.11       1.0  T
   6   -375.1877007 -0.397435E+00  0.726E-01    0.10       1.0  T
   7   -375.0781282  0.109572E+00  0.828E-01    0.03       1.0  T
   8   -375.3674132 -0.289285E+00  0.751E-01    0.09       1.0  T
   9   -375.6409029 -0.273490E+00  0.403E-01    0.04       1.0  T
  10   -375.4757643  0.165139E+00  0.569E-01    0.02       1.0  T
  11   -375.7046513 -0.228887E+00  0.339E-01    0.05       1.0  T
  12   -375.6932170  0.114343E-01  0.336E-01    0.06       1.0  T
  13   -375.7117566 -0.185396E-01  0.289E-01    0.04       1.0  T
  14   -375.7468867 -0.351302E-01  0.221E-01    0.04       1.0  T
  15   -375.7451550  0.173175E-02  0.221E-01    0.04       1.0  T
  16   -375.7588582 -0.137032E-01  0.171E-01    0.05       1.0  T
  17   -375.7625444 -0.368620E-02  0.114E-01    0.04       1.0  T
  18   -375.7675240 -0.497960E-02  0.990E-02    0.04       1.0  T
  19   -375.7683365 -0.812513E-03  0.847E-02    0.04       1.0  T
  20   -375.7561807  0.121558E-01  0.116E-01    0.03       1.0  T
  21   -375.7726799 -0.164991E-01  0.513E-02    0.04       1.0  T
  22   -375.7737647 -0.108484E-02  0.363E-02    0.04       1.0  T
  23   -375.7743894 -0.624657E-03  0.178E-02    0.04       1.0  T
  24   -375.7741765  0.212844E-03  0.246E-02    0.04       1.0  T
  25   -375.7744210 -0.244432E-03  0.136E-02    0.04       1.0  T
  26   -375.7744334 -0.124010E-04  0.122E-02    0.04       1.0  T
  27   -375.7744354 -0.199467E-05  0.829E-03    0.04       1.0  T
  28   -375.7744945 -0.591671E-04  0.528E-03    0.04       1.3  T
  29   -375.7744684  0.260777E-04  0.656E-03    0.04       1.1  T
  30   -375.7744972 -0.287631E-04  0.380E-03    0.04       1.9  T
  31   -375.7745010 -0.376560E-05  0.314E-03    0.04       2.2  T
  32   -375.7745087 -0.772740E-05  0.195E-03    0.04       3.6  T
  33   -375.7745052  0.345798E-05  0.273E-03    0.04       2.6  T
  34   -375.7745100 -0.473176E-05  0.145E-03    0.04       4.9  T
  35   -375.7745060  0.401572E-05  0.220E-03    0.04       3.2  T
  36   -375.7745080 -0.201790E-05  0.174E-03    0.04       4.1  T
  37   -375.7745105 -0.257548E-05  0.102E-03    0.04       6.9  T
  38   -375.7745111 -0.560622E-06  0.780E-04    0.04       9.0  T
  39   -375.7745116 -0.532859E-06  0.370E-04    0.04      19.0  T
     SCC iter.                  ...        0 min,  4.990 sec
     gradient                   ...        0 min,  0.330 sec
 * total energy  :  -369.0208887 Eh     change       -0.6452345E-01 Eh
   gradient norm :     0.0815389 Eh/α   predicted    -0.6228327E-01 (  -3.47%)
   displ. norm   :     0.8094113 α      lambda       -0.5559961E-01
   maximum displ.:     0.2423416 α      in ANC's #209, #159, #152, ...

........................................................................
.............................. CYCLE    7 ..............................
........................................................................
   1   -375.6257778 -0.375626E+03  0.694E-01    0.02       0.0  T
   2   -358.9657643  0.166600E+02  0.394E+00    0.04       1.0  T
   3   -375.0593209 -0.160936E+02  0.147E+00    0.12       1.0  T
   4   -375.0555637  0.375713E-02  0.879E-01    0.10       1.0  T
   5   -375.1767431 -0.121179E+00  0.902E-01    0.04       1.0  T
   6   -375.4286691 -0.251926E+00  0.661E-01    0.04       1.0  T
   7   -375.2305751  0.198094E+00  0.771E-01    0.02       1.0  T
   8   -374.9416968  0.288878E+00  0.896E-01    0.21       1.0  T
   9   -375.6142685 -0.672572E+00  0.556E-01    0.05       1.0  T
  10   -375.5246246  0.896439E-01  0.603E-01    0.01       1.0  T
  11   -375.6226984 -0.980738E-01  0.440E-01    0.00       1.0  T
  12   -375.7741803 -0.151482E+00  0.319E-01    0.02       1.0  T
  13   -375.7857179 -0.115376E-01  0.277E-01    0.03       1.0  T
  14   -375.7884222 -0.270437E-02  0.271E-01    0.03       1.0  T
  15   -375.7903503 -0.192806E-02  0.263E-01    0.03       1.0  T
  16   -375.7910613 -0.710988E-03  0.260E-01    0.03       1.0  T
  17   -375.7935173 -0.245598E-02  0.224E-01    0.02       1.0  T
  18   -375.8166501 -0.231328E-01  0.940E-02    0.03       1.0  T
  19   -375.8140267  0.262341E-02  0.118E-01    0.03       1.0  T
  20   -375.8158152 -0.178850E-02  0.110E-01    0.03       1.0  T
  21   -375.8217240 -0.590887E-02  0.610E-02    0.03       1.0  T
  22   -375.8245772 -0.285318E-02  0.346E-02    0.03       1.0  T
  23   -375.8242564  0.320786E-03  0.353E-02    0.03       1.0  T
  24   -375.8249801 -0.723660E-03  0.187E-02    0.03       1.0  T
  25   -375.8251235 -0.143393E-03  0.176E-02    0.03       1.0  T
  26   -375.8252531 -0.129593E-03  0.116E-02    0.03       1.0  T
  27   -375.8253416 -0.885752E-04  0.562E-03    0.02       1.3  T
  28   -375.8252591  0.824994E-04  0.968E-03    0.03       1.0  T
  29   -375.8253123 -0.531963E-04  0.701E-03    0.03       1.0  T
  30   -375.8253397 -0.274085E-04  0.451E-03    0.03       1.6  T
  31   -375.8253603 -0.205576E-04  0.145E-03    0.02       4.8  T
  32   -375.8253618 -0.148705E-05  0.917E-04    0.02       7.7  T
  33   -375.8253614  0.337429E-06  0.957E-04    0.03       7.4  T
  34   -375.8253615 -0.708981E-07  0.944E-04    0.03       7.5  T
     SCC iter.                  ...        0 min,  4.175 sec
     gradient                   ...        0 min,  0.315 sec
 * total energy  :  -369.0682381 Eh     change       -0.4734934E-01 Eh
   gradient norm :     0.0610420 Eh/α   predicted    -0.4601278E-01 (  -2.82%)
   displ. norm   :     0.8061725 α      lambda       -0.4003761E-01
   maximum displ.:     0.2378619 α      in ANC's #111, #152, #113, ...

........................................................................
.............................. CYCLE    8 ..............................
........................................................................
   1   -375.7068237 -0.375707E+03  0.609E-01    0.03       0.0  T
   2   -359.3773146  0.163295E+02  0.390E+00    0.03       1.0  T
   3   -375.1081167 -0.157308E+02  0.143E+00    0.09       1.0  T
   4   -375.0664692  0.416475E-01  0.912E-01    0.08       1.0  T
   5   -375.5020431 -0.435574E+00  0.590E-01    0.00       1.0  T
   6   -375.3833366  0.118707E+00  0.651E-01    0.09       1.0  T
   7   -375.3121254  0.712112E-01  0.796E-01    0.17       1.0  T
   8   -375.5133808 -0.201255E+00  0.608E-01    0.06       1.0  T
   9   -375.2389952  0.274386E+00  0.803E-01    0.02       1.0  T
  10   -375.7710456 -0.532050E+00  0.412E-01    0.08       1.0  T
  11   -375.7488141  0.222316E-01  0.387E-01    0.03       1.0  T
  12   -375.7787502 -0.299361E-01  0.346E-01    0.06       1.0  T
  13   -375.7947239 -0.159737E-01  0.319E-01    0.02       1.0  T
  14   -375.8150332 -0.203093E-01  0.282E-01    0.02       1.0  T
  15   -375.8177365 -0.270333E-02  0.275E-01    0.02       1.0  T
  16   -375.8376787 -0.199422E-01  0.210E-01    0.03       1.0  T
  17   -375.8404860 -0.280728E-02  0.166E-01    0.02       1.0  T
  18   -375.8480586 -0.757263E-02  0.132E-01    0.02       1.0  T
  19   -375.8556032 -0.754455E-02  0.927E-02    0.02       1.0  T
  20   -375.8597239 -0.412071E-02  0.708E-02    0.02       1.0  T
  21   -375.8633156 -0.359168E-02  0.376E-02    0.02       1.0  T
  22   -375.8617345  0.158105E-02  0.485E-02    0.02       1.0  T
  23   -375.8632777 -0.154314E-02  0.313E-02    0.02       1.0  T
  24   -375.8635669 -0.289254E-03  0.236E-02    0.02       1.0  T
  25   -375.8638765 -0.309614E-03  0.148E-02    0.02       1.0  T
  26   -375.8639303 -0.537157E-04  0.126E-02    0.02       1.0  T
  27   -375.8639803 -0.500086E-04  0.804E-03    0.02       1.0  T
  28   -375.8639523  0.279729E-04  0.102E-02    0.02       1.0  T
  29   -375.8640083 -0.559593E-04  0.472E-03    0.02       1.5  T
  30   -375.8640202 -0.119385E-04  0.296E-03    0.02       2.4  T
  31   -375.8640241 -0.395294E-05  0.225E-03    0.02       3.1  T
  32   -375.8640281 -0.396568E-05  0.767E-04    0.02       9.2  T
  33   -375.8640266  0.151899E-05  0.156E-03    0.02       4.5  T
  34   -375.8640268 -0.245913E-06  0.132E-03    0.02       5.3  T
  35   -375.8640278 -0.936622E-06  0.906E-04    0.02       7.8  T
  36   -375.8640280 -0.220361E-06  0.737E-04    0.02       9.6  T
     SCC iter.                  ...        0 min,  4.353 sec
     gradient                   ...        0 min,  0.316 sec
 * total energy  :  -369.1020861 Eh     change       -0.3384803E-01 Eh
   gradient norm :     0.0433320 Eh/α   predicted    -0.3302934E-01 (  -2.42%)
   displ. norm   :     0.7949747 α      lambda       -0.2781577E-01
   maximum displ.:     0.2292298 α      in ANC's #111, #152, #113, ...

........................................................................
.............................. CYCLE    9 ..............................
........................................................................
   1   -375.7791688 -0.375779E+03  0.512E-01    0.02       0.0  T
   2   -360.1778886  0.156013E+02  0.382E+00    0.03       1.0  T
   3   -375.2401767 -0.150623E+02  0.130E+00    0.07       1.0  T
   4   -375.2503610 -0.101844E-01  0.836E-01    0.07       1.0  T
   5   -375.1579504  0.924106E-01  0.960E-01    0.02       1.0  T
   6   -375.0342762  0.123674E+00  0.904E-01    0.05       1.0  T
   7   -375.7095429 -0.675267E+00  0.462E-01    0.03       1.0  T
   8   -375.6156149  0.939281E-01  0.586E-01    0.00       1.0  T
   9   -375.1430043  0.472611E+00  0.858E-01    0.04       1.0  T
  10   -375.3028988 -0.159894E+00  0.636E-01    0.04       1.0  T
  11   -375.6077544 -0.304856E+00  0.478E-01    0.04       1.0  T
  12   -375.8290726 -0.221318E+00  0.297E-01    0.04       1.0  T
  13   -375.7968390  0.322335E-01  0.306E-01    0.03       1.0  T
  14   -375.8727784 -0.759393E-01  0.187E-01    0.01       1.0  T
  15   -375.8729611 -0.182771E-03  0.179E-01    0.00       1.0  T
  16   -375.8773391 -0.437802E-02  0.160E-01    0.00       1.0  T
  17   -375.8763790  0.960109E-03  0.167E-01    0.00       1.0  T
  18   -375.8758214  0.557660E-03  0.170E-01    0.00       1.0  T
  19   -375.8805846 -0.476327E-02  0.126E-01    0.00       1.0  T
  20   -375.8914103 -0.108257E-01  0.460E-02    0.01       1.0  T
  21   -375.8897788  0.163150E-02  0.593E-02    0.01       1.0  T
  22   -375.8910625 -0.128362E-02  0.459E-02    0.01       1.0  T
  23   -375.8911232 -0.607765E-04  0.402E-02    0.01       1.0  T
  24   -375.8916287 -0.505428E-03  0.345E-02    0.01       1.0  T
  25   -375.8921649 -0.536267E-03  0.272E-02    0.01       1.0  T
  26   -375.8923725 -0.207612E-03  0.230E-02    0.01       1.0  T
  27   -375.8925057 -0.133151E-03  0.180E-02    0.01       1.0  T
  28   -375.8926667 -0.161008E-03  0.111E-02    0.01       1.0  T
  29   -375.8927021 -0.353563E-04  0.925E-03    0.01       1.0  T
  30   -375.8927278 -0.257096E-04  0.688E-03    0.01       1.0  T
  31   -375.8927170  0.107787E-04  0.618E-03    0.01       1.1  T
  32   -375.8927279 -0.109429E-04  0.484E-03    0.01       1.5  T
  33   -375.8927319 -0.394033E-05  0.410E-03    0.01       1.7  T
  34   -375.8927440 -0.121533E-04  0.116E-03    0.01       6.1  T
  35   -375.8927434  0.628044E-06  0.134E-03    0.01       5.3  T
  36   -375.8927440 -0.628932E-06  0.922E-04    0.01       7.6  T
  37   -375.8927445 -0.479809E-06  0.600E-04    0.01      11.8  T
     SCC iter.                  ...        0 min,  4.468 sec
     gradient                   ...        0 min,  0.316 sec
 * total energy  :  -369.1253674 Eh     change       -0.2328132E-01 Eh
   gradient norm :     0.0317057 Eh/α   predicted    -0.2269747E-01 (  -2.51%)
   displ. norm   :     0.7873065 α      lambda       -0.1899430E-01
   maximum displ.:     0.2694653 α      in ANC's #42, #39, #32, ...

........................................................................
.............................. CYCLE   10 ..............................
........................................................................
   1   -375.8554021 -0.375855E+03  0.389E-01    0.02       0.0  T
   2   -363.5958860  0.122595E+02  0.350E+00    0.02       1.0  T
   3   -375.3480907 -0.117522E+02  0.917E-01    0.02       1.0  T
   4   -374.6675429  0.680548E+00  0.103E+00    0.12       1.0  T
   5   -375.1997089 -0.532166E+00  0.867E-01    0.01       1.0  T
   6   -375.7077746 -0.508066E+00  0.516E-01    0.01       1.0  T
   7   -375.5777662  0.130008E+00  0.618E-01    0.02       1.0  T
   8   -375.4174011  0.160365E+00  0.704E-01    0.08       1.0  T
   9   -375.3715976  0.458035E-01  0.779E-01    0.08       1.0  T
  10   -375.6820448 -0.310447E+00  0.439E-01    0.00       1.0  T
  11   -375.8420022 -0.159957E+00  0.290E-01    0.05       1.0  T
  12   -375.6720167  0.169986E+00  0.476E-01    0.02       1.0  T
  13   -375.8783705 -0.206354E+00  0.243E-01    0.01       1.0  T
  14   -375.8922200 -0.138495E-01  0.201E-01    0.01       1.0  T
  15   -375.8978322 -0.561222E-02  0.179E-01    0.01       1.0  T
  16   -375.8929299  0.490236E-02  0.191E-01    0.01       1.0  T
  17   -375.8967083 -0.377842E-02  0.176E-01    0.01       1.0  T
  18   -375.9091890 -0.124807E-01  0.113E-01    0.01       1.0  T
  19   -375.9146573 -0.546830E-02  0.635E-02    0.00       1.0  T
  20   -375.9152402 -0.582923E-03  0.618E-02    0.01       1.0  T
  21   -375.9160694 -0.829162E-03  0.464E-02    0.01       1.0  T
  22   -375.9159768  0.926321E-04  0.420E-02    0.00       1.0  T
  23   -375.9169928 -0.101608E-02  0.238E-02    0.01       1.0  T
  24   -375.9170888 -0.959514E-04  0.228E-02    0.01       1.0  T
  25   -375.9169205  0.168281E-03  0.232E-02    0.01       1.0  T
  26   -375.9172545 -0.333962E-03  0.124E-02    0.01       1.0  T
  27   -375.9171448  0.109670E-03  0.155E-02    0.01       1.0  T
  28   -375.9173000 -0.155155E-03  0.959E-03    0.01       1.0  T
  29   -375.9173537 -0.536994E-04  0.571E-03    0.01       1.2  T
  30   -375.9173717 -0.180613E-04  0.399E-03    0.01       1.8  T
  31   -375.9173876 -0.159343E-04  0.164E-03    0.01       4.3  T
  32   -375.9173891 -0.145229E-05  0.801E-04    0.01       8.8  T
  33   -375.9173889  0.215993E-06  0.920E-04    0.01       7.7  T
  34   -375.9173891 -0.235524E-06  0.661E-04    0.01      10.7  T
     SCC iter.                  ...        0 min,  4.108 sec
     gradient                   ...        0 min,  0.315 sec
 * total energy  :  -369.1413538 Eh     change       -0.1598641E-01 Eh
   gradient norm :     0.0257451 Eh/α   predicted    -0.1538399E-01 (  -3.77%)
   displ. norm   :     0.8047327 α      lambda       -0.1386592E-01
   maximum displ.:     0.3340852 α      in ANC's #42, #32, #39, ...

........................................................................
.............................. CYCLE   11 ..............................
........................................................................
   1   -375.9308125 -0.375931E+03  0.226E-01    0.01       0.0  T
   2   -372.1845482  0.374626E+01  0.193E+00    0.01       1.0  T
   3   -375.0888342 -0.290429E+01  0.787E-01    0.05       1.0  T
   4   -375.4113441 -0.322510E+00  0.791E-01    0.01       1.0  T
   5   -375.7515333 -0.340189E+00  0.425E-01    0.00       1.0  T
   6   -375.1808998  0.570633E+00  0.783E-01    0.02       1.0  T
   7   -375.7218993 -0.540999E+00  0.467E-01    0.00       1.0  T
   8   -375.7897190 -0.678197E-01  0.402E-01    0.02       1.0  T
   9   -375.4502553  0.339464E+00  0.730E-01    0.02       1.0  T
  10   -375.7957583 -0.345503E+00  0.391E-01    0.03       1.0  T
  11   -375.8444806 -0.487223E-01  0.344E-01    0.04       1.0  T
  12   -375.8966714 -0.521908E-01  0.246E-01    0.01       1.0  T
  13   -375.9344559 -0.377845E-01  0.112E-01    0.01       1.0  T
  14   -375.9246432  0.981269E-02  0.147E-01    0.01       1.0  T
  15   -375.9338451 -0.920185E-02  0.109E-01    0.00       1.0  T
  16   -375.9344070 -0.561949E-03  0.993E-02    0.01       1.0  T
  17   -375.9359192 -0.151217E-02  0.844E-02    0.00       1.0  T
  18   -375.9359094  0.976137E-05  0.773E-02    0.00       1.0  T
  19   -375.9393417 -0.343232E-02  0.397E-02    0.00       1.0  T
  20   -375.9398487 -0.506932E-03  0.294E-02    0.00       1.0  T
  21   -375.9401864 -0.337730E-03  0.249E-02    0.00       1.0  T
  22   -375.9401445  0.418475E-04  0.275E-02    0.00       1.0  T
  23   -375.9402749 -0.130381E-03  0.210E-02    0.00       1.0  T
  24   -375.9403059 -0.309670E-04  0.202E-02    0.01       1.0  T
  25   -375.9401797  0.126170E-03  0.215E-02    0.01       1.0  T
  26   -375.9404782 -0.298475E-03  0.122E-02    0.01       1.0  T
  27   -375.9404962 -0.179606E-04  0.115E-02    0.00       1.0  T
  28   -375.9405185 -0.222890E-04  0.932E-03    0.00       1.0  T
  29   -375.9405485 -0.300838E-04  0.718E-03    0.00       1.0  T
  30   -375.9405652 -0.166407E-04  0.505E-03    0.00       1.4  T
  31   -375.9405780 -0.128416E-04  0.326E-03    0.00       2.2  T
  32   -375.9405839 -0.591984E-05  0.159E-03    0.00       4.4  T
  33   -375.9405856 -0.165747E-05  0.739E-04    0.00       9.6  T
  34   -375.9405859 -0.312589E-06  0.602E-04    0.00      11.7  T
  35   -375.9405859 -0.135756E-07  0.734E-04    0.00       9.6  T
     SCC iter.                  ...        0 min,  4.233 sec
     gradient                   ...        0 min,  0.317 sec
 * total energy  :  -369.1534929 Eh     change       -0.1213906E-01 Eh
   gradient norm :     0.0241227 Eh/α   predicted    -0.1142271E-01 (  -5.90%)
   displ. norm   :     0.8546838 α      lambda       -0.1193266E-01
   maximum displ.:     0.4011315 α      in ANC's #32, #42, #39, ...

........................................................................
.............................. CYCLE   12 ..............................
........................................................................
   1   -375.9033501 -0.375903E+03  0.294E-01    0.02       0.0  T
   2   -374.5622320  0.134112E+01  0.123E+00    0.25       1.0  T
   3   -375.3220975 -0.759866E+00  0.802E-01    0.35       1.0  T
   4   -374.9694595  0.352638E+00  0.877E-01    0.03       1.0  T
   5   -375.9029771 -0.933518E+00  0.299E-01    0.01       1.0  T
   6   -375.5691636  0.333814E+00  0.675E-01    0.07       1.0  T
   7   -375.3830481  0.186116E+00  0.727E-01    0.06       1.0  T
   8   -375.3497538  0.332944E-01  0.772E-01    0.01       1.0  T
   9   -375.6006389 -0.250885E+00  0.546E-01    0.05       1.0  T
  10   -375.8764308 -0.275792E+00  0.322E-01    0.05       1.0  T
  11   -375.9121821 -0.357513E-01  0.268E-01    0.03       1.0  T
  12   -375.9117886  0.393548E-03  0.267E-01    0.02       1.0  T
  13   -375.9321871 -0.203986E-01  0.189E-01    0.02       1.0  T
  14   -375.9287795  0.340763E-02  0.221E-01    0.01       1.0  T
  15   -375.9126098  0.161697E-01  0.253E-01    0.01       1.0  T
  16   -375.9280046 -0.153948E-01  0.223E-01    0.01       1.0  T
  17   -375.9298281 -0.182347E-02  0.212E-01    0.00       1.0  T
  18   -375.9411095 -0.112814E-01  0.173E-01    0.01       1.0  T
  19   -375.9463805 -0.527105E-02  0.140E-01    0.01       1.0  T
  20   -375.9539634 -0.758284E-02  0.828E-02    0.00       1.0  T
  21   -375.9581352 -0.417187E-02  0.653E-02    0.01       1.0  T
  22   -375.9607709 -0.263564E-02  0.362E-02    0.01       1.0  T
  23   -375.9620150 -0.124409E-02  0.195E-02    0.00       1.0  T
  24   -375.9622311 -0.216150E-03  0.883E-03    0.00       1.0  T
  25   -375.9621554  0.757425E-04  0.104E-02    0.00       1.0  T
  26   -375.9622460 -0.906375E-04  0.648E-03    0.00       1.1  T
  27   -375.9622845 -0.384840E-04  0.243E-03    0.00       2.9  T
  28   -375.9622647  0.197665E-04  0.513E-03    0.00       1.4  T
  29   -375.9622874 -0.227144E-04  0.181E-03    0.00       3.9  T
  30   -375.9622885 -0.104276E-05  0.139E-03    0.00       5.1  T
  31   -375.9622876  0.836421E-06  0.157E-03    0.00       4.5  T
  32   -375.9622898 -0.216988E-05  0.771E-04    0.00       9.2  T
  33   -375.9622903 -0.521457E-06  0.273E-04    0.00      25.9  T
  34   -375.9622902  0.113357E-06  0.434E-04    0.00      16.3  T
     SCC iter.                  ...        0 min,  4.110 sec
     gradient                   ...        0 min,  0.315 sec
 * total energy  :  -369.1645670 Eh     change       -0.1107410E-01 Eh
   gradient norm :     0.0247715 Eh/α   predicted    -0.1032465E-01 (  -6.77%)
   displ. norm   :     0.9168027 α      lambda       -0.1204709E-01
   maximum displ.:     0.4570103 α      in ANC's #32, #42, #39, ...

........................................................................
.............................. CYCLE   13 ..............................
........................................................................
   1   -375.7784604 -0.375778E+03  0.537E-01    0.00       0.0  T
   2   -373.6417493  0.213671E+01  0.191E+00    0.28       1.0  T
   3   -375.1372419 -0.149549E+01  0.977E-01    0.29       1.0  T
   4   -375.1506717 -0.134298E-01  0.851E-01    0.06       1.0  T
   5   -375.3324441 -0.181772E+00  0.851E-01    0.04       1.0  T
   6   -375.4168013 -0.843572E-01  0.705E-01    0.12       1.0  T
   7   -375.7751913 -0.358390E+00  0.488E-01    0.08       1.0  T
   8   -375.6634023  0.111789E+00  0.596E-01    0.01       1.0  T
   9   -375.5738375  0.895648E-01  0.595E-01    0.04       1.0  T
  10   -375.8536431 -0.279806E+00  0.350E-01    0.03       1.0  T
  11   -375.8222416  0.314014E-01  0.372E-01    0.02       1.0  T
  12   -375.8875179 -0.652763E-01  0.295E-01    0.04       1.0  T
  13   -375.8690334  0.184845E-01  0.331E-01    0.01       1.0  T
  14   -375.9548675 -0.858341E-01  0.195E-01    0.01       1.0  T
  15   -375.9777944 -0.229269E-01  0.731E-02    0.00       1.0  T
  16   -375.9296902  0.481042E-01  0.204E-01    0.01       1.0  T
  17   -375.9465071 -0.168169E-01  0.165E-01    0.01       1.0  T
  18   -375.9700743 -0.235671E-01  0.984E-02    0.01       1.0  T
  19   -375.9736793 -0.360507E-02  0.803E-02    0.01       1.0  T
  20   -375.9818207 -0.814135E-02  0.188E-02    0.00       1.0  T
  21   -375.9816423  0.178429E-03  0.236E-02    0.00       1.0  T
  22   -375.9819895 -0.347210E-03  0.159E-02    0.00       1.0  T
  23   -375.9822645 -0.275003E-03  0.463E-03    0.00       1.5  T
  24   -375.9822647 -0.258624E-06  0.433E-03    0.00       1.6  T
  25   -375.9822801 -0.153931E-04  0.246E-03    0.00       2.9  T
  26   -375.9822870 -0.691670E-05  0.856E-04    0.00       8.2  T
  27   -375.9822852  0.185904E-05  0.150E-03    0.00       4.7  T
  28   -375.9822873 -0.212431E-05  0.725E-04    0.00       9.7  T
  29   -375.9822873  0.369422E-07  0.733E-04    0.00       9.6  T
  30   -375.9822872  0.438650E-07  0.699E-04    0.00      10.1  T
     SCC iter.                  ...        0 min,  3.633 sec
     gradient                   ...        0 min,  0.314 sec
 * total energy  :  -369.1762522 Eh     change       -0.1168519E-01 Eh
   gradient norm :     0.0254651 Eh/α   predicted    -0.1108652E-01 (  -5.12%)
   displ. norm   :     0.9577498 α      lambda       -0.1326302E-01
   maximum displ.:     0.4941531 α      in ANC's #32, #42, #39, ...

........................................................................
.............................. CYCLE   14 ..............................
........................................................................
   1   -375.7526566 -0.375753E+03  0.628E-01    0.02       0.0  T
   2   -373.5334818  0.221917E+01  0.208E+00    0.08       1.0  T
   3   -375.3691623 -0.183568E+01  0.979E-01    0.04       1.0  T
   4   -375.0051043  0.364058E+00  0.892E-01    0.14       1.0  T
   5   -375.6534420 -0.648338E+00  0.601E-01    0.02       1.0  T
   6   -375.8132842 -0.159842E+00  0.490E-01    0.03       1.0  T
   7   -375.0799796  0.733305E+00  0.820E-01    0.03       1.0  T
   8   -375.5065380 -0.426558E+00  0.691E-01    0.11       1.0  T
   9   -375.7393061 -0.232768E+00  0.533E-01    0.01       1.0  T
  10   -375.8208937 -0.815875E-01  0.406E-01    0.04       1.0  T
  11   -375.7761440  0.447497E-01  0.438E-01    0.02       1.0  T
  12   -375.9339492 -0.157805E+00  0.255E-01    0.01       1.0  T
  13   -375.8661313  0.678179E-01  0.323E-01    0.01       1.0  T
  14   -375.9666129 -0.100482E+00  0.225E-01    0.01       1.0  T
  15   -375.9988033 -0.321903E-01  0.104E-01    0.01       1.0  T
  16   -375.9776334  0.211699E-01  0.153E-01    0.01       1.0  T
  17   -376.0062372 -0.286038E-01  0.309E-02    0.00       1.0  T
  18   -376.0045389  0.169828E-02  0.453E-02    0.00       1.0  T
  19   -376.0053136 -0.774741E-03  0.357E-02    0.00       1.0  T
  20   -376.0051715  0.142140E-03  0.401E-02    0.00       1.0  T
  21   -376.0068041 -0.163263E-02  0.148E-02    0.00       1.0  T
  22   -376.0069560 -0.151833E-03  0.857E-03    0.00       1.0  T
  23   -376.0069344  0.215198E-04  0.801E-03    0.00       1.0  T
  24   -376.0070084 -0.739554E-04  0.406E-03    0.00       1.7  T
  25   -376.0070179 -0.953018E-05  0.272E-03    0.00       2.6  T
  26   -376.0070153  0.258980E-05  0.320E-03    0.00       2.2  T
  27   -376.0070220 -0.666785E-05  0.209E-03    0.00       3.4  T
  28   -376.0070250 -0.297667E-05  0.132E-03    0.00       5.4  T
  29   -376.0070262 -0.125903E-05  0.725E-04    0.00       9.7  T
  30   -376.0070265 -0.226899E-06  0.460E-04    0.00      15.3  T
  31   -376.0070261  0.352417E-06  0.675E-04    0.00      10.5  T
     SCC iter.                  ...        0 min,  3.748 sec
     gradient                   ...        0 min,  0.316 sec
 * total energy  :  -369.1894484 Eh     change       -0.1319624E-01 Eh
   gradient norm :     0.0265196 Eh/α   predicted    -0.1271450E-01 (  -3.65%)
   displ. norm   :     0.9601212 α      lambda       -0.1476605E-01
   maximum displ.:     0.4896193 α      in ANC's #32, #39, #42, ...

........................................................................
.............................. CYCLE   15 ..............................
........................................................................
   1   -375.7923950 -0.375792E+03  0.654E-01    0.01       0.0  T
   2   -356.6107691  0.191816E+02  0.620E+00    0.01       1.0  T
   3   -374.6155583 -0.180048E+02  0.154E+00    0.11       1.0  T
   4   -375.4938234 -0.878265E+00  0.802E-01    0.05       1.0  T
   5   -375.2312373  0.262586E+00  0.940E-01    0.09       1.0  T
   6   -375.0723936  0.158844E+00  0.868E-01    0.00       1.0  T
   7   -375.2682721 -0.195878E+00  0.739E-01    0.01       1.0  T
   8   -375.4761745 -0.207902E+00  0.651E-01    0.03       1.0  T
   9   -375.5148821 -0.387075E-01  0.679E-01    0.13       1.0  T
  10   -375.7705666 -0.255685E+00  0.528E-01    0.02       1.0  T
  11   -375.8624193 -0.918526E-01  0.397E-01    0.01       1.0  T
  12   -375.8824715 -0.200523E-01  0.352E-01    0.01       1.0  T
  13   -375.8732869  0.918469E-02  0.410E-01    0.01       1.0  T
  14   -375.8575779  0.157089E-01  0.368E-01    0.00       1.0  T
  15   -375.9218304 -0.642525E-01  0.329E-01    0.00       1.0  T
  16   -375.8329689  0.888615E-01  0.372E-01    0.01       1.0  T
  17   -375.9444324 -0.111464E+00  0.290E-01    0.00       1.0  T
  18   -376.0131886 -0.687562E-01  0.148E-01    0.01       1.0  T
  19   -376.0140546 -0.866013E-03  0.147E-01    0.01       1.0  T
  20   -376.0406260 -0.265714E-01  0.530E-02    0.00       1.0  T
  21   -376.0421343 -0.150835E-02  0.397E-02    0.01       1.0  T
  22   -376.0414791  0.655186E-03  0.398E-02    0.00       1.0  T
  23   -376.0419694 -0.490221E-03  0.343E-02    0.01       1.0  T
  24   -376.0425881 -0.618768E-03  0.218E-02    0.01       1.0  T
  25   -376.0427589 -0.170781E-03  0.175E-02    0.01       1.0  T
  26   -376.0428511 -0.922321E-04  0.151E-02    0.01       1.0  T
  27   -376.0429660 -0.114839E-03  0.127E-02    0.01       1.0  T
  28   -376.0430211 -0.551763E-04  0.102E-02    0.01       1.0  T
  29   -376.0430731 -0.519862E-04  0.879E-03    0.01       1.0  T
  30   -376.0430516  0.215807E-04  0.935E-03    0.01       1.0  T
  31   -376.0431162 -0.646820E-04  0.633E-03    0.01       1.1  T
  32   -376.0431427 -0.264758E-04  0.469E-03    0.01       1.5  T
  33   -376.0431617 -0.189485E-04  0.206E-03    0.01       3.4  T
  34   -376.0431598  0.187837E-05  0.160E-03    0.01       4.4  T
  35   -376.0431572  0.256894E-05  0.190E-03    0.01       3.7  T
  36   -376.0431620 -0.478093E-05  0.104E-03    0.01       6.8  T
  37   -376.0431631 -0.112356E-05  0.788E-04    0.01       8.9  T
  38   -376.0431632 -0.975027E-07  0.729E-04    0.01       9.7  T
  39   -376.0431636 -0.415286E-06  0.352E-04    0.01      20.1  T
     SCC iter.                  ...        0 min,  4.706 sec
     gradient                   ...        0 min,  0.314 sec
 * total energy  :  -369.2038238 Eh     change       -0.1437537E-01 Eh
   gradient norm :     0.0504831 Eh/α   predicted    -0.1418894E-01 (  -1.30%)
   displ. norm   :     0.9812863 α      lambda       -0.1519449E-01
   maximum displ.:     0.4934404 α      in ANC's #32, #39, #42, ...

........................................................................
.............................. CYCLE   16 ..............................
........................................................................
   1   -375.8618967 -0.375862E+03  0.570E-01    0.01       0.0  T
   2   -352.7437444  0.231182E+02  0.647E+00    0.13       1.0  T
   3   -374.7310099 -0.219873E+02  0.145E+00    0.23       1.0  T
   4   -375.3629784 -0.631969E+00  0.886E-01    0.23       1.0  T
   5   -375.4755627 -0.112584E+00  0.769E-01    0.01       1.0  T
   6   -375.4564982  0.190644E-01  0.766E-01    0.06       1.0  T
   7   -375.6231730 -0.166675E+00  0.697E-01    0.06       1.0  T
   8   -375.5981916  0.249814E-01  0.616E-01    0.03       1.0  T
   9   -375.4936476  0.104544E+00  0.726E-01    0.11       1.0  T
  10   -375.8360789 -0.342431E+00  0.502E-01    0.02       1.0  T
  11   -375.9612076 -0.125129E+00  0.327E-01    0.01       1.0  T
  12   -375.7844819  0.176726E+00  0.443E-01    0.01       1.0  T
  13   -375.8203287 -0.358467E-01  0.446E-01    0.01       1.0  T
  14   -375.8730325 -0.527039E-01  0.357E-01    0.01       1.0  T
  15   -375.9366718 -0.636393E-01  0.313E-01    0.01       1.0  T
  16   -375.9546624 -0.179906E-01  0.277E-01    0.01       1.0  T
  17   -376.0238934 -0.692310E-01  0.164E-01    0.01       1.0  T
  18   -376.0497380 -0.258445E-01  0.781E-02    0.01       1.0  T
  19   -376.0508332 -0.109526E-02  0.801E-02    0.00       1.0  T
  20   -376.0493913  0.144193E-02  0.758E-02    0.00       1.0  T
  21   -376.0555790 -0.618770E-02  0.334E-02    0.00       1.0  T
  22   -376.0543266  0.125243E-02  0.432E-02    0.00       1.0  T
  23   -376.0553891 -0.106251E-02  0.371E-02    0.00       1.0  T
  24   -376.0561420 -0.752927E-03  0.203E-02    0.00       1.0  T
  25   -376.0560344  0.107574E-03  0.190E-02    0.00       1.0  T
  26   -376.0564435 -0.409089E-03  0.133E-02    0.00       1.0  T
  27   -376.0564131  0.304383E-04  0.145E-02    0.00       1.0  T
  28   -376.0562681  0.145008E-03  0.129E-02    0.00       1.0  T
  29   -376.0565351 -0.267022E-03  0.498E-03    0.00       1.4  T
  30   -376.0565164  0.186777E-04  0.493E-03    0.00       1.4  T
  31   -376.0565491 -0.326967E-04  0.242E-03    0.00       2.9  T
  32   -376.0565534 -0.426524E-05  0.146E-03    0.00       4.8  T
  33   -376.0565558 -0.245962E-05  0.468E-04    0.00      15.1  T
  34   -376.0565552  0.660887E-06  0.835E-04    0.00       8.5  T
  35   -376.0565557 -0.536965E-06  0.473E-04    0.00      14.9  T
     SCC iter.                  ...        0 min,  4.223 sec
     gradient                   ...        0 min,  0.315 sec
 * total energy  :  -369.2196754 Eh     change       -0.1585160E-01 Eh
   gradient norm :     0.0839603 Eh/α   predicted    -0.1491282E-01 (  -5.92%)
   displ. norm   :     0.9633378 α      lambda       -0.1736674E-01
   maximum displ.:     0.4907586 α      in ANC's #32, #39, #42, ...

........................................................................
.............................. CYCLE   17 ..............................
........................................................................
   1   -375.9363110 -0.375936E+03  0.478E-01    0.01       0.0  T
   2   -350.3555511  0.255808E+02  0.655E+00    0.05       1.0  T
   3   -375.0361593 -0.246806E+02  0.122E+00    0.09       1.0  T
   4   -375.3154586 -0.279299E+00  0.873E-01    0.09       1.0  T
   5   -375.6817539 -0.366295E+00  0.684E-01    0.03       1.0  T
   6   -375.6208418  0.609121E-01  0.640E-01    0.01       1.0  T
   7   -375.5513816  0.694602E-01  0.681E-01    0.15       1.0  T
   8   -375.7605895 -0.209208E+00  0.564E-01    0.01       1.0  T
   9   -375.6550813  0.105508E+00  0.636E-01    0.02       1.0  T
  10   -375.7481623 -0.930810E-01  0.536E-01    0.03       1.0  T
  11   -375.6149781  0.133184E+00  0.639E-01    0.05       1.0  T
  12   -375.9677771 -0.352799E+00  0.310E-01    0.02       1.0  T
  13   -376.0177254 -0.499483E-01  0.241E-01    0.03       1.0  T
  14   -375.9565719  0.611535E-01  0.302E-01    0.00       1.0  T
  15   -376.0541505 -0.975786E-01  0.157E-01    0.01       1.0  T
  16   -376.0487755  0.537502E-02  0.168E-01    0.00       1.0  T
  17   -376.0681381 -0.193626E-01  0.101E-01    0.01       1.0  T
  18   -376.0774821 -0.934397E-02  0.384E-02    0.01       1.0  T
  19   -376.0757746  0.170747E-02  0.553E-02    0.01       1.0  T
  20   -376.0777053 -0.193067E-02  0.369E-02    0.01       1.0  T
  21   -376.0778528 -0.147474E-03  0.304E-02    0.01       1.0  T
  22   -376.0778344  0.183154E-04  0.308E-02    0.01       1.0  T
  23   -376.0780694 -0.234904E-03  0.298E-02    0.01       1.0  T
  24   -376.0785284 -0.459036E-03  0.197E-02    0.01       1.0  T
  25   -376.0782615  0.266929E-03  0.236E-02    0.01       1.0  T
  26   -376.0786417 -0.380286E-03  0.146E-02    0.01       1.0  T
  27   -376.0786372  0.457596E-05  0.143E-02    0.02       1.0  T
  28   -376.0787995 -0.162375E-03  0.509E-03    0.02       1.4  T
  29   -376.0787558  0.437325E-04  0.754E-03    0.02       1.0  T
  30   -376.0787979 -0.420488E-04  0.420E-03    0.02       1.7  T
  31   -376.0788041 -0.625713E-05  0.326E-03    0.02       2.2  T
  32   -376.0788098 -0.572746E-05  0.218E-03    0.02       3.2  T
  33   -376.0788106 -0.746318E-06  0.255E-03    0.02       2.8  T
  34   -376.0788153 -0.475403E-05  0.167E-03    0.02       4.2  T
  35   -376.0788155 -0.160407E-06  0.118E-03    0.02       6.0  T
  36   -376.0788165 -0.992603E-06  0.312E-04    0.02      22.6  T
  37   -376.0788165 -0.349728E-07  0.334E-04    0.02      21.1  T
     SCC iter.                  ...        0 min,  4.466 sec
     gradient                   ...        0 min,  0.314 sec
 * total energy  :  -369.2395357 Eh     change       -0.1986031E-01 Eh
   gradient norm :     0.1227281 Eh/α   predicted    -0.1674171E-01 ( -15.70%)
   displ. norm   :     0.9110347 α      lambda       -0.2381821E-01
   maximum displ.:     0.4569394 α      in ANC's #32, #39, #42, ...

........................................................................
.............................. CYCLE   18 ..............................
........................................................................
   1   -375.9538609 -0.375954E+03  0.439E-01    0.02       0.0  T
   2   -345.1671006  0.307868E+02  0.670E+00    0.12       1.0  T
   3   -375.0631959 -0.298961E+02  0.118E+00    0.20       1.0  T
   4   -375.5222829 -0.459087E+00  0.784E-01    0.14       1.0  T
   5   -375.1765157  0.345767E+00  0.841E-01    0.04       1.0  T
   6   -375.6583275 -0.481812E+00  0.650E-01    0.07       1.0  T
   7   -375.5730768  0.852508E-01  0.696E-01    0.08       1.0  T
   8   -375.8748747 -0.301798E+00  0.484E-01    0.01       1.0  T
   9   -375.6291852  0.245689E+00  0.637E-01    0.14       1.0  T
  10   -375.8051039 -0.175919E+00  0.563E-01    0.02       1.0  T
  11   -376.0656904 -0.260586E+00  0.180E-01    0.01       1.0  T
  12   -375.8678280  0.197862E+00  0.489E-01    0.00       1.0  T
  13   -376.0462320 -0.178404E+00  0.222E-01    0.02       1.0  T
  14   -376.0596551 -0.134231E-01  0.198E-01    0.01       1.0  T
  15   -376.0448237  0.148314E-01  0.229E-01    0.02       1.0  T
  16   -376.0861242 -0.413005E-01  0.889E-02    0.02       1.0  T
  17   -376.0817306  0.439360E-02  0.109E-01    0.01       1.0  T
  18   -376.0954971 -0.137664E-01  0.299E-02    0.01       1.0  T
  19   -376.0960811 -0.584092E-03  0.129E-02    0.01       1.0  T
  20   -376.0959705  0.110648E-03  0.178E-02    0.01       1.0  T
  21   -376.0961295 -0.159002E-03  0.110E-02    0.01       1.0  T
  22   -376.0962447 -0.115152E-03  0.551E-03    0.01       1.3  T
  23   -376.0962674 -0.227581E-04  0.269E-03    0.01       2.6  T
  24   -376.0962698 -0.240451E-05  0.208E-03    0.01       3.4  T
  25   -376.0962711 -0.133100E-05  0.175E-03    0.01       4.0  T
  26   -376.0962710  0.125126E-06  0.165E-03    0.01       4.3  T
  27   -376.0962724 -0.141436E-05  0.124E-03    0.01       5.7  T
  28   -376.0962719  0.545252E-06  0.137E-03    0.01       5.1  T
  29   -376.0962730 -0.112884E-05  0.923E-04    0.01       7.6  T
  30   -376.0962726  0.426404E-06  0.107E-03    0.01       6.6  T
  31   -376.0962730 -0.395298E-06  0.895E-04    0.01       7.9  T
  32   -376.0962734 -0.380651E-06  0.672E-04    0.01      10.5  T
     SCC iter.                  ...        0 min,  3.867 sec
     gradient                   ...        0 min,  0.313 sec
 * total energy  :  -369.2646513 Eh     change       -0.2511565E-01 Eh
   gradient norm :     0.1623798 Eh/α   predicted    -0.2179347E-01 ( -13.23%)
   displ. norm   :     0.8736776 α      lambda       -0.2655656E-01
   maximum displ.:     0.4399033 α      in ANC's #32, #39, #42, ...

........................................................................
.............................. CYCLE   19 ..............................
........................................................................
   1   -376.0557736 -0.376056E+03  0.329E-01    0.01       0.0  T
   2   -372.9917292  0.306404E+01  0.256E+00    0.05       1.0  T
   3   -375.5146301 -0.252290E+01  0.855E-01    0.14       1.0  T
   4   -375.2659814  0.248649E+00  0.102E+00    0.03       1.0  T
   5   -375.6477250 -0.381744E+00  0.679E-01    0.01       1.0  T
   6   -375.7800175 -0.132292E+00  0.589E-01    0.00       1.0  T
   7   -375.8975526 -0.117535E+00  0.507E-01    0.00       1.0  T
   8   -375.5869389  0.310614E+00  0.727E-01    0.01       1.0  T
   9   -375.8743845 -0.287446E+00  0.478E-01    0.02       1.0  T
  10   -375.2492330  0.625151E+00  0.796E-01    0.01       1.0  T
  11   -375.9319416 -0.682709E+00  0.416E-01    0.05       1.0  T
  12   -376.0135297 -0.815881E-01  0.328E-01    0.01       1.0  T
  13   -376.0939718 -0.804421E-01  0.158E-01    0.00       1.0  T
  14   -376.1053938 -0.114220E-01  0.124E-01    0.00       1.0  T
  15   -376.1051857  0.208079E-03  0.121E-01    0.00       1.0  T
  16   -376.0880467  0.171390E-01  0.161E-01    0.00       1.0  T
  17   -376.1140384 -0.259917E-01  0.803E-02    0.00       1.0  T
  18   -376.1201269 -0.608850E-02  0.228E-02    0.01       1.0  T
  19   -376.1195344  0.592467E-03  0.319E-02    0.00       1.0  T
  20   -376.1199348 -0.400359E-03  0.238E-02    0.01       1.0  T
  21   -376.1201041 -0.169342E-03  0.198E-02    0.01       1.0  T
  22   -376.1202179 -0.113790E-03  0.175E-02    0.01       1.0  T
  23   -376.1201975  0.204617E-04  0.176E-02    0.01       1.0  T
  24   -376.1202811 -0.836803E-04  0.152E-02    0.01       1.0  T
  25   -376.1203215 -0.403320E-04  0.137E-02    0.01       1.0  T
  26   -376.1203265 -0.503380E-05  0.131E-02    0.01       1.0  T
  27   -376.1203860 -0.594524E-04  0.107E-02    0.01       1.0  T
  28   -376.1204388 -0.528474E-04  0.829E-03    0.01       1.0  T
  29   -376.1204738 -0.350152E-04  0.609E-03    0.01       1.2  T
  30   -376.1204979 -0.240578E-04  0.390E-03    0.01       1.8  T
  31   -376.1205038 -0.592733E-05  0.293E-03    0.01       2.4  T
  32   -376.1205077 -0.388782E-05  0.174E-03    0.01       4.0  T
  33   -376.1205099 -0.223001E-05  0.998E-04    0.01       7.1  T
  34   -376.1205106 -0.632210E-06  0.697E-04    0.01      10.1  T
  35   -376.1205109 -0.296260E-06  0.386E-04    0.01      18.3  T
     SCC iter.                  ...        0 min,  4.225 sec
     gradient                   ...        0 min,  0.314 sec
 * total energy  :  -369.2920203 Eh     change       -0.2736893E-01 Eh
   gradient norm :     0.1920752 Eh/α   predicted    -0.2341375E-01 ( -14.45%)
   displ. norm   :     0.8559216 α      lambda       -0.2823393E-01
   maximum displ.:     0.4439346 α      in ANC's #32, #42, #39, ...

........................................................................
.............................. CYCLE   20 ..............................
........................................................................
   1   -376.1055441 -0.376106E+03  0.251E-01    0.01       0.0  T
   2   -375.1880021  0.917542E+00  0.105E+00    0.07       1.0  T
   3   -375.5610687 -0.373067E+00  0.792E-01    0.02       1.0  T
   4   -375.6887027 -0.127634E+00  0.630E-01    0.03       1.0  T
   5   -375.8075911 -0.118888E+00  0.576E-01    0.02       1.0  T
   6   -375.8017952  0.579590E-02  0.587E-01    0.00       1.0  T
   7   -376.0010579 -0.199263E+00  0.413E-01    0.02       1.0  T
   8   -375.8515206  0.149537E+00  0.567E-01    0.07       1.0  T
   9   -375.7745312  0.769894E-01  0.614E-01    0.08       1.0  T
  10   -376.0177642 -0.243233E+00  0.321E-01    0.00       1.0  T
  11   -376.1118931 -0.941289E-01  0.153E-01    0.01       1.0  T
  12   -376.1007109  0.111822E-01  0.171E-01    0.01       1.0  T
  13   -376.0240025  0.767084E-01  0.307E-01    0.03       1.0  T
  14   -376.1223188 -0.983164E-01  0.108E-01    0.01       1.0  T
  15   -376.1259911 -0.367230E-02  0.848E-02    0.00       1.0  T
  16   -376.1321226 -0.613148E-02  0.402E-02    0.00       1.0  T
  17   -376.1322063 -0.836553E-04  0.380E-02    0.00       1.0  T
  18   -376.1336137 -0.140748E-02  0.120E-02    0.00       1.0  T
  19   -376.1336561 -0.423388E-04  0.977E-03    0.00       1.0  T
  20   -376.1336551  0.933049E-06  0.997E-03    0.00       1.0  T
  21   -376.1337309 -0.757481E-04  0.576E-03    0.00       1.2  T
  22   -376.1337612 -0.302899E-04  0.231E-03    0.00       3.1  T
  23   -376.1337658 -0.461714E-05  0.118E-03    0.00       6.0  T
  24   -376.1337659 -0.140583E-06  0.113E-03    0.00       6.2  T
  25   -376.1337668 -0.909712E-06  0.552E-04    0.00      12.8  T
  26   -376.1337668  0.654747E-07  0.583E-04    0.00      12.1  T
     SCC iter.                  ...        0 min,  3.140 sec
     gradient                   ...        0 min,  0.314 sec
 * total energy  :  -369.3187039 Eh     change       -0.2668363E-01 Eh
   gradient norm :     0.2081352 Eh/α   predicted    -0.2445908E-01 (  -8.34%)
   displ. norm   :     0.7887268 α      lambda       -0.4124518E-01
   maximum displ.:     0.2830761 α      in ANC's #32, #71, #19, ...
 * RMSD in coord.:     0.9019212 α      energy gain  -0.1538912E+01 Eh

generating ANC from model Hessian ...
Using Lindh-Hessian (1995)
 Shifting diagonal of input Hessian by    1.0059913546129203E-002
 Lowest  eigenvalues of input Hessian
    0.010000    0.010025    0.010035    0.010043    0.010047    0.010049
    0.010050    0.010051    0.010054    0.010056    0.010058    0.010059
    0.000000    0.000000    0.000000    0.000000    0.000000    0.000000
 Highest eigenvalues
    2.580663    2.730978    2.734690    2.734898    3.080237    3.081118


........................................................................
.............................. CYCLE   21 ..............................
........................................................................
   1   -375.9301385 -0.375930E+03  0.503E-01    0.00       0.0  T
   2   -362.1287873  0.138014E+02  0.506E+00    0.04       1.0  T
   3   -374.0668703 -0.119381E+02  0.126E+00    0.72       1.0  T
   4   -375.5444992 -0.147763E+01  0.797E-01    0.18       1.0  T
   5   -375.4670909  0.774083E-01  0.824E-01    0.07       1.0  T
   6   -375.7669338 -0.299843E+00  0.609E-01    0.07       1.0  T
   7   -375.6727579  0.941759E-01  0.683E-01    0.14       1.0  T
   8   -375.5185889  0.154169E+00  0.761E-01    0.03       1.0  T
   9   -375.4720033  0.465855E-01  0.793E-01    0.04       1.0  T
  10   -375.8364961 -0.364493E+00  0.493E-01    0.03       1.0  T
  11   -376.0235705 -0.187074E+00  0.277E-01    0.02       1.0  T
  12   -376.0353789 -0.118083E-01  0.252E-01    0.02       1.0  T
  13   -376.0291421  0.623677E-02  0.236E-01    0.01       1.0  T
  14   -375.9408619  0.882802E-01  0.403E-01    0.03       1.0  T
  15   -376.0554145 -0.114553E+00  0.208E-01    0.01       1.0  T
  16   -376.0772833 -0.218688E-01  0.136E-01    0.00       1.0  T
  17   -376.0839356 -0.665234E-02  0.101E-01    0.01       1.0  T
  18   -376.0823324  0.160328E-02  0.111E-01    0.01       1.0  T
  19   -376.0780738  0.425855E-02  0.120E-01    0.01       1.0  T
  20   -376.0922315 -0.141577E-01  0.315E-02    0.00       1.0  T
  21   -376.0926017 -0.370191E-03  0.238E-02    0.00       1.0  T
  22   -376.0926755 -0.738445E-04  0.222E-02    0.00       1.0  T
  23   -376.0927247 -0.492188E-04  0.202E-02    0.00       1.0  T
  24   -376.0927884 -0.636831E-04  0.191E-02    0.00       1.0  T
  25   -376.0927382  0.501932E-04  0.193E-02    0.00       1.0  T
  26   -376.0927126  0.255986E-04  0.187E-02    0.00       1.0  T
  27   -376.0927624 -0.497423E-04  0.174E-02    0.00       1.0  T
  28   -376.0928236 -0.611795E-04  0.154E-02    0.00       1.0  T
  29   -376.0928259 -0.238557E-05  0.145E-02    0.00       1.0  T
  30   -376.0928308 -0.489908E-05  0.136E-02    0.00       1.0  T
  31   -376.0928320 -0.112455E-05  0.134E-02    0.00       1.0  T
  32   -376.0928361 -0.410516E-05  0.122E-02    0.00       1.0  T
  33   -376.0928660 -0.299030E-04  0.970E-03    0.00       1.0  T
  34   -376.0928726 -0.665548E-05  0.842E-03    0.00       1.0  T
  35   -376.0928834 -0.108095E-04  0.576E-03    0.00       1.2  T
  36   -376.0928895 -0.608469E-05  0.260E-03    0.00       2.7  T
  37   -376.0928910 -0.144646E-05  0.139E-03    0.00       5.1  T
  38   -376.0928906  0.328032E-06  0.161E-03    0.00       4.4  T
  39   -376.0928915 -0.862371E-06  0.117E-03    0.00       6.0  T
  40   -376.0928923 -0.774298E-06  0.375E-04    0.00      18.8  T
  41   -376.0928923  0.203338E-07  0.220E-04    0.00      32.1  T
     SCC iter.                  ...        0 min,  4.951 sec
     gradient                   ...        0 min,  0.314 sec
 * total energy  :  -369.3423345 Eh     change       -0.2363059E-01 Eh
   gradient norm :     0.1756008 Eh/α   predicted     0.0000000E+00 (-100.00%)
   displ. norm   :     0.6259837 α      lambda       -0.6329557E-01
   maximum displ.:     0.1970286 α      in ANC's #44, #102, #37, ...

........................................................................
.............................. CYCLE   22 ..............................
........................................................................
   1   -375.9864794 -0.375986E+03  0.279E-01    0.02       0.0  T
   2   -375.0137838  0.972696E+00  0.105E+00    0.09       1.0  T
   3   -375.5890159 -0.575232E+00  0.692E-01    0.13       1.0  T
   4   -375.7917806 -0.202765E+00  0.513E-01    0.03       1.0  T
   5   -375.5571984  0.234582E+00  0.724E-01    0.11       1.0  T
   6   -375.5444447  0.127537E-01  0.676E-01    0.00       1.0  T
   7   -375.8931823 -0.348738E+00  0.374E-01    0.01       1.0  T
   8   -375.6858015  0.207381E+00  0.583E-01    0.05       1.0  T
   9   -375.9388159 -0.253014E+00  0.297E-01    0.01       1.0  T
  10   -375.9328027  0.601322E-02  0.296E-01    0.01       1.0  T
  11   -376.0032865 -0.704838E-01  0.149E-01    0.01       1.0  T
  12   -376.0027023  0.584153E-03  0.153E-01    0.01       1.0  T
  13   -376.0200740 -0.173716E-01  0.694E-02    0.00       1.0  T
  14   -376.0139415  0.613246E-02  0.106E-01    0.01       1.0  T
  15   -376.0194605 -0.551897E-02  0.702E-02    0.00       1.0  T
  16   -376.0226362 -0.317570E-02  0.476E-02    0.01       1.0  T
  17   -376.0240612 -0.142503E-02  0.301E-02    0.00       1.0  T
  18   -376.0248119 -0.750709E-03  0.108E-02    0.00       1.0  T
  19   -376.0247437  0.681840E-04  0.131E-02    0.00       1.0  T
  20   -376.0248781 -0.134368E-03  0.653E-03    0.00       1.1  T
  21   -376.0249011 -0.229830E-04  0.452E-03    0.00       1.6  T
  22   -376.0249178 -0.167579E-04  0.209E-03    0.00       3.4  T
  23   -376.0249215 -0.365331E-05  0.658E-04    0.00      10.7  T
  24   -376.0249216 -0.122185E-06  0.510E-04    0.00      13.8  T
  25   -376.0249217 -0.994869E-07  0.387E-04    0.00      18.2  T
     SCC iter.                  ...        0 min,  3.020 sec
     gradient                   ...        0 min,  0.314 sec
 * total energy  :  -369.3957342 Eh     change       -0.5339969E-01 Eh
   gradient norm :     0.1036278 Eh/α   predicted    -0.4404915E-01 ( -17.51%)
   displ. norm   :     0.8140993 α      lambda       -0.5810797E-01
   maximum displ.:     0.2787304 α      in ANC's #44, #102, #37, ...

........................................................................
.............................. CYCLE   23 ..............................
........................................................................
   1   -375.8936509 -0.375894E+03  0.371E-01    0.02       0.0  T
   2   -370.8951240  0.499853E+01  0.314E+00    0.08       1.0  T
   3   -375.3183102 -0.442319E+01  0.858E-01    0.07       1.0  T
   4   -375.4760182 -0.157708E+00  0.765E-01    0.17       1.0  T
   5   -375.6127726 -0.136754E+00  0.637E-01    0.06       1.0  T
   6   -375.5524873  0.602854E-01  0.674E-01    0.18       1.0  T
   7   -375.6203267 -0.678394E-01  0.591E-01    0.05       1.0  T
   8   -375.3110284  0.309298E+00  0.822E-01    0.07       1.0  T
   9   -375.6696858 -0.358657E+00  0.543E-01    0.02       1.0  T
  10   -375.6204285  0.492573E-01  0.592E-01    0.11       1.0  T
  11   -375.9068535 -0.286425E+00  0.249E-01    0.02       1.0  T
  12   -375.9587016 -0.518481E-01  0.105E-01    0.01       1.0  T
[...]
 577:873.15 578:572.32 579:842.42 580:  8.70 581:313.38 582:276.46 583:174.47 584:******
 585:****** 586:****** 587:****** 588:****** 589:  6.26 590:****** 591: 42.79 592:933.07
 593:****** 594:****** 595: 27.68 596:****** 597:****** 598:****** 599: 74.91 600:******
 601:****** 602:****** 603:******
 Raman intensities (amu)
   1:  0.00   2:  0.00   3:  0.00   4:  0.00   5:  0.00   6:  0.00   7:  0.00   8:  0.00
   9:  0.00  10:  0.00  11:  0.00  12:  0.00  13:  0.00  14:  0.00  15:  0.00  16:  0.00
  17:  0.00  18:  0.00  19:  0.00  20:  0.00  21:  0.00  22:  0.00  23:  0.00  24:  0.00
  25:  0.00  26:  0.00  27:  0.00  28:  0.00  29:  0.00  30:  0.00  31:  0.00  32:  0.00
  33:  0.00  34:  0.00  35:  0.00  36:  0.00  37:  0.00  38:  0.00  39:  0.00  40:  0.00
  41:  0.00  42:  0.00  43:  0.00  44:  0.00  45:  0.00  46:  0.00  47:  0.00  48:  0.00
  49:  0.00  50:  0.00  51:  0.00  52:  0.00  53:  0.00  54:  0.00  55:  0.00  56:  0.00
  57:  0.00  58:  0.00  59:  0.00  60:  0.00  61:  0.00  62:  0.00  63:  0.00  64:  0.00
  65:  0.00  66:  0.00  67:  0.00  68:  0.00  69:  0.00  70:  0.00  71:  0.00  72:  0.00
  73:  0.00  74:  0.00  75:  0.00  76:  0.00  77:  0.00  78:  0.00  79:  0.00  80:  0.00
  81:  0.00  82:  0.00  83:  0.00  84:  0.00  85:  0.00  86:  0.00  87:  0.00  88:  0.00
  89:  0.00  90:  0.00  91:  0.00  92:  0.00  93:  0.00  94:  0.00  95:  0.00  96:  0.00
  97:  0.00  98:  0.00  99:  0.00 100:  0.00 101:  0.00 102:  0.00 103:  0.00 104:  0.00
 105:  0.00 106:  0.00 107:  0.00 108:  0.00 109:  0.00 110:  0.00 111:  0.00 112:  0.00
 113:  0.00 114:  0.00 115:  0.00 116:  0.00 117:  0.00 118:  0.00 119:  0.00 120:  0.00
 121:  0.00 122:  0.00 123:  0.00 124:  0.00 125:  0.00 126:  0.00 127:  0.00 128:  0.00
 129:  0.00 130:  0.00 131:  0.00 132:  0.00 133:  0.00 134:  0.00 135:  0.00 136:  0.00
 137:  0.00 138:  0.00 139:  0.00 140:  0.00 141:  0.00 142:  0.00 143:  0.00 144:  0.00
 145:  0.00 146:  0.00 147:  0.00 148:  0.00 149:  0.00 150:  0.00 151:  0.00 152:  0.00
 153:  0.00 154:  0.00 155:  0.00 156:  0.00 157:  0.00 158:  0.00 159:  0.00 160:  0.00
 161:  0.00 162:  0.00 163:  0.00 164:  0.00 165:  0.00 166:  0.00 167:  0.00 168:  0.00
 169:  0.00 170:  0.00 171:  0.00 172:  0.00 173:  0.00 174:  0.00 175:  0.00 176:  0.00
 177:  0.00 178:  0.00 179:  0.00 180:  0.00 181:  0.00 182:  0.00 183:  0.00 184:  0.00
 185:  0.00 186:  0.00 187:  0.00 188:  0.00 189:  0.00 190:  0.00 191:  0.00 192:  0.00
 193:  0.00 194:  0.00 195:  0.00 196:  0.00 197:  0.00 198:  0.00 199:  0.00 200:  0.00
 201:  0.00 202:  0.00 203:  0.00 204:  0.00 205:  0.00 206:  0.00 207:  0.00 208:  0.00
 209:  0.00 210:  0.00 211:  0.00 212:  0.00 213:  0.00 214:  0.00 215:  0.00 216:  0.00
 217:  0.00 218:  0.00 219:  0.00 220:  0.00 221:  0.00 222:  0.00 223:  0.00 224:  0.00
 225:  0.00 226:  0.00 227:  0.00 228:  0.00 229:  0.00 230:  0.00 231:  0.00 232:  0.00
 233:  0.00 234:  0.00 235:  0.00 236:  0.00 237:  0.00 238:  0.00 239:  0.00 240:  0.00
 241:  0.00 242:  0.00 243:  0.00 244:  0.00 245:  0.00 246:  0.00 247:  0.00 248:  0.00
 249:  0.00 250:  0.00 251:  0.00 252:  0.00 253:  0.00 254:  0.00 255:  0.00 256:  0.00
 257:  0.00 258:  0.00 259:  0.00 260:  0.00 261:  0.00 262:  0.00 263:  0.00 264:  0.00
 265:  0.00 266:  0.00 267:  0.00 268:  0.00 269:  0.00 270:  0.00 271:  0.00 272:  0.00
 273:  0.00 274:  0.00 275:  0.00 276:  0.00 277:  0.00 278:  0.00 279:  0.00 280:  0.00
 281:  0.00 282:  0.00 283:  0.00 284:  0.00 285:  0.00 286:  0.00 287:  0.00 288:  0.00
 289:  0.00 290:  0.00 291:  0.00 292:  0.00 293:  0.00 294:  0.00 295:  0.00 296:  0.00
 297:  0.00 298:  0.00 299:  0.00 300:  0.00 301:  0.00 302:  0.00 303:  0.00 304:  0.00
 305:  0.00 306:  0.00 307:  0.00 308:  0.00 309:  0.00 310:  0.00 311:  0.00 312:  0.00
 313:  0.00 314:  0.00 315:  0.00 316:  0.00 317:  0.00 318:  0.00 319:  0.00 320:  0.00
 321:  0.00 322:  0.00 323:  0.00 324:  0.00 325:  0.00 326:  0.00 327:  0.00 328:  0.00
 329:  0.00 330:  0.00 331:  0.00 332:  0.00 333:  0.00 334:  0.00 335:  0.00 336:  0.00
 337:  0.00 338:  0.00 339:  0.00 340:  0.00 341:  0.00 342:  0.00 343:  0.00 344:  0.00
 345:  0.00 346:  0.00 347:  0.00 348:  0.00 349:  0.00 350:  0.00 351:  0.00 352:  0.00
 353:  0.00 354:  0.00 355:  0.00 356:  0.00 357:  0.00 358:  0.00 359:  0.00 360:  0.00
 361:  0.00 362:  0.00 363:  0.00 364:  0.00 365:  0.00 366:  0.00 367:  0.00 368:  0.00
 369:  0.00 370:  0.00 371:  0.00 372:  0.00 373:  0.00 374:  0.00 375:  0.00 376:  0.00
 377:  0.00 378:  0.00 379:  0.00 380:  0.00 381:  0.00 382:  0.00 383:  0.00 384:  0.00
 385:  0.00 386:  0.00 387:  0.00 388:  0.00 389:  0.00 390:  0.00 391:  0.00 392:  0.00
 393:  0.00 394:  0.00 395:  0.00 396:  0.00 397:  0.00 398:  0.00 399:  0.00 400:  0.00
 401:  0.00 402:  0.00 403:  0.00 404:  0.00 405:  0.00 406:  0.00 407:  0.00 408:  0.00
 409:  0.00 410:  0.00 411:  0.00 412:  0.00 413:  0.00 414:  0.00 415:  0.00 416:  0.00
 417:  0.00 418:  0.00 419:  0.00 420:  0.00 421:  0.00 422:  0.00 423:  0.00 424:  0.00
 425:  0.00 426:  0.00 427:  0.00 428:  0.00 429:  0.00 430:  0.00 431:  0.00 432:  0.00
 433:  0.00 434:  0.00 435:  0.00 436:  0.00 437:  0.00 438:  0.00 439:  0.00 440:  0.00
 441:  0.00 442:  0.00 443:  0.00 444:  0.00 445:  0.00 446:  0.00 447:  0.00 448:  0.00
 449:  0.00 450:  0.00 451:  0.00 452:  0.00 453:  0.00 454:  0.00 455:  0.00 456:  0.00
 457:  0.00 458:  0.00 459:  0.00 460:  0.00 461:  0.00 462:  0.00 463:  0.00 464:  0.00
 465:  0.00 466:  0.00 467:  0.00 468:  0.00 469:  0.00 470:  0.00 471:  0.00 472:  0.00
 473:  0.00 474:  0.00 475:  0.00 476:  0.00 477:  0.00 478:  0.00 479:  0.00 480:  0.00
 481:  0.00 482:  0.00 483:  0.00 484:  0.00 485:  0.00 486:  0.00 487:  0.00 488:  0.00
 489:  0.00 490:  0.00 491:  0.00 492:  0.00 493:  0.00 494:  0.00 495:  0.00 496:  0.00
 497:  0.00 498:  0.00 499:  0.00 500:  0.00 501:  0.00 502:  0.00 503:  0.00 504:  0.00
 505:  0.00 506:  0.00 507:  0.00 508:  0.00 509:  0.00 510:  0.00 511:  0.00 512:  0.00
 513:  0.00 514:  0.00 515:  0.00 516:  0.00 517:  0.00 518:  0.00 519:  0.00 520:  0.00
 521:  0.00 522:  0.00 523:  0.00 524:  0.00 525:  0.00 526:  0.00 527:  0.00 528:  0.00
 529:  0.00 530:  0.00 531:  0.00 532:  0.00 533:  0.00 534:  0.00 535:  0.00 536:  0.00
 537:  0.00 538:  0.00 539:  0.00 540:  0.00 541:  0.00 542:  0.00 543:  0.00 544:  0.00
 545:  0.00 546:  0.00 547:  0.00 548:  0.00 549:  0.00 550:  0.00 551:  0.00 552:  0.00
 553:  0.00 554:  0.00 555:  0.00 556:  0.00 557:  0.00 558:  0.00 559:  0.00 560:  0.00
 561:  0.00 562:  0.00 563:  0.00 564:  0.00 565:  0.00 566:  0.00 567:  0.00 568:  0.00
 569:  0.00 570:  0.00 571:  0.00 572:  0.00 573:  0.00 574:  0.00 575:  0.00 576:  0.00
 577:  0.00 578:  0.00 579:  0.00 580:  0.00 581:  0.00 582:  0.00 583:  0.00 584:  0.00
 585:  0.00 586:  0.00 587:  0.00 588:  0.00 589:  0.00 590:  0.00 591:  0.00 592:  0.00
 593:  0.00 594:  0.00 595:  0.00 596:  0.00 597:  0.00 598:  0.00 599:  0.00 600:  0.00
 601:  0.00 602:  0.00 603:  0.00
 output can be read by thermo (or use thermo option).
 writing <g98.out> molden fake output.
 recommended (thermochemical) frequency scaling factor: 1.0
           -------------------------------------------------
          |             Thermodynamic Functions             |
           -------------------------------------------------
 symmetry recognition skipped because # atoms >         200
 inverting freq            1   3.4804281492363671     
 inverting freq            2   1.8070112500987996     
 inverting freq            3   1.3505614471121057     

          ...................................................
          :                      SETUP                      :
          :.................................................:
          :  # frequencies                         596      :
          :  # imaginary freq.                       0      :
          :  linear?                             false      :
          :  only rotor calc.                    false      :
          :  symmetry                               C1      :
          :  rotational number                       1      :
          :  scaling factor                  1.0000000      :
          :  rotor cutoff                   50.0000000 cm⁻¹ :
          :  imag. cutoff                  -20.0000000 cm⁻¹ :
          :.................................................:

    mode    ω/cm⁻¹     T·S(HO)/kcal·mol⁻¹    T·S(FR)/kcal·mol⁻¹   T·S(vib)
   ------------------------------------------------------------------------
       1      3.48    -3.01377 (  0.00%)    -1.84599 (100.00%)    -1.84602
       2      1.81    -3.40212 (  0.00%)    -2.04017 (100.00%)    -2.04018
       3      1.35    -3.57463 (  0.00%)    -2.12642 (100.00%)    -2.12643
       4      1.02    -3.74107 (  0.00%)    -2.20965 (100.00%)    -2.20965
       5      1.69    -3.44123 (  0.00%)    -2.05973 (100.00%)    -2.05973
       6      2.74    -3.15537 (  0.00%)    -1.91680 (100.00%)    -1.91681
       7      3.09    -3.08414 (  0.00%)    -1.88118 (100.00%)    -1.88120
       8      3.20    -3.06413 (  0.00%)    -1.87118 (100.00%)    -1.87120
       9      4.69    -2.83688 (  0.01%)    -1.75755 ( 99.99%)    -1.75764
      10      7.40    -2.56716 (  0.05%)    -1.62268 ( 99.95%)    -1.62313
      11      8.04    -2.51745 (  0.07%)    -1.59782 ( 99.93%)    -1.59844
      12      9.25    -2.43450 (  0.12%)    -1.55634 ( 99.88%)    -1.55737
      13     12.62    -2.25087 (  0.40%)    -1.46451 ( 99.60%)    -1.46768
      14     15.26    -2.13825 (  0.86%)    -1.40817 ( 99.14%)    -1.41445
      15     16.87    -2.07885 (  1.28%)    -1.37846 ( 98.72%)    -1.38741
      16     20.06    -1.97629 (  2.52%)    -1.32715 ( 97.48%)    -1.34353
      17     22.22    -1.91572 (  3.75%)    -1.29684 ( 96.25%)    -1.32006
      18     24.72    -1.85261 (  5.64%)    -1.26525 ( 94.36%)    -1.29835
      19     24.89    -1.84857 (  5.78%)    -1.26322 ( 94.22%)    -1.29708
      20     27.39    -1.79189 (  8.26%)    -1.23485 ( 91.74%)    -1.28086
      21     28.87    -1.76077 ( 10.00%)    -1.21927 ( 90.00%)    -1.27342
      22     33.47    -1.67334 ( 16.72%)    -1.17547 ( 83.28%)    -1.25871
      23     37.01    -1.61396 ( 23.08%)    -1.14571 ( 76.92%)    -1.25378
      24     37.23    -1.61034 ( 23.52%)    -1.14389 ( 76.48%)    -1.25359
      25     37.48    -1.60649 ( 23.99%)    -1.14196 ( 76.01%)    -1.25340
      26     38.57    -1.58944 ( 26.16%)    -1.13341 ( 73.84%)    -1.25270
      27     38.66    -1.58819 ( 26.32%)    -1.13278 ( 73.68%)    -1.25265
      28     39.95    -1.56868 ( 28.96%)    -1.12300 ( 71.04%)    -1.25208
      29     47.01    -1.47262 ( 43.87%)    -1.07479 ( 56.13%)    -1.24933
      30     49.93    -1.43719 ( 49.85%)    -1.05699 ( 50.15%)    -1.24652
      31     53.62    -1.39508 ( 56.95%)    -1.03583 ( 43.05%)    -1.24042
      32     63.89    -1.29193 ( 72.73%)    -0.98391 ( 27.27%)    -1.20792
      33     71.27    -1.22780 ( 80.50%)    -0.95156 ( 19.50%)    -1.17392
      34     75.61    -1.19314 ( 83.94%)    -0.93405 ( 16.06%)    -1.15154
      35     76.51    -1.18619 ( 84.57%)    -0.93054 ( 15.43%)    -1.14675
      36     78.56    -1.17066 ( 85.91%)    -0.92268 ( 14.09%)    -1.13571
      37     84.27    -1.12967 ( 88.97%)    -0.90192 ( 11.03%)    -1.10455
      38     84.55    -1.12769 ( 89.10%)    -0.90092 ( 10.90%)    -1.10298
      39     86.05    -1.11741 ( 89.77%)    -0.89570 ( 10.23%)    -1.09473
      40     86.20    -1.11644 ( 89.83%)    -0.89521 ( 10.17%)    -1.09394
      41     88.75    -1.09940 ( 90.85%)    -0.88657 (  9.15%)    -1.07992
      42     90.14    -1.09034 ( 91.35%)    -0.88196 (  8.65%)    -1.07232
      43     92.12    -1.07768 ( 92.01%)    -0.87553 (  7.99%)    -1.06153
      44     94.87    -1.06056 ( 92.84%)    -0.86683 (  7.16%)    -1.04668
      45     97.11    -1.04698 ( 93.43%)    -0.85991 (  6.57%)    -1.03470
      46    100.80    -1.02526 ( 94.29%)    -0.84885 (  5.71%)    -1.01519
      47    107.87    -0.98594 ( 95.59%)    -0.82876 (  4.41%)    -0.97900
      48    115.58    -0.94600 ( 96.62%)    -0.80831 (  3.38%)    -0.94134
      49    116.27    -0.94259 ( 96.69%)    -0.80656 (  3.31%)    -0.93809
      50    116.53    -0.94127 ( 96.72%)    -0.80588 (  3.28%)    -0.93684
      51    116.57    -0.94111 ( 96.73%)    -0.80580 (  3.27%)    -0.93668
      52    121.00    -0.91960 ( 97.17%)    -0.79474 (  2.83%)    -0.91606
      53    121.07    -0.91924 ( 97.17%)    -0.79456 (  2.83%)    -0.91572
      54    123.05    -0.90993 ( 97.35%)    -0.78977 (  2.65%)    -0.90674
      55    128.68    -0.88422 ( 97.77%)    -0.77651 (  2.23%)    -0.88182
      56    131.29    -0.87270 ( 97.94%)    -0.77056 (  2.06%)    -0.87060
      57    132.25    -0.86854 ( 98.00%)    -0.76841 (  2.00%)    -0.86653
      58    154.34    -0.78058 ( 98.91%)    -0.72265 (  1.09%)    -0.77995
      59    160.78    -0.75749 ( 99.07%)    -0.71054 (  0.93%)    -0.75705
      60    160.91    -0.75701 ( 99.08%)    -0.71029 (  0.92%)    -0.75658
      61    161.24    -0.75586 ( 99.08%)    -0.70969 (  0.92%)    -0.75544
      62    161.55    -0.75479 ( 99.09%)    -0.70912 (  0.91%)    -0.75438
      63    164.89    -0.74325 ( 99.16%)    -0.70305 (  0.84%)    -0.74292
      64    164.94    -0.74308 ( 99.16%)    -0.70296 (  0.84%)    -0.74275
      65    165.86    -0.73998 ( 99.18%)    -0.70133 (  0.82%)    -0.73967
      66    166.25    -0.73866 ( 99.19%)    -0.70063 (  0.81%)    -0.73835
      67    166.52    -0.73774 ( 99.19%)    -0.70014 (  0.81%)    -0.73743
      68    178.82    -0.69788 ( 99.39%)    -0.67904 (  0.61%)    -0.69777
      69    178.85    -0.69778 ( 99.39%)    -0.67898 (  0.61%)    -0.69767
      70    181.42    -0.68986 ( 99.43%)    -0.67476 (  0.57%)    -0.68977
      71    183.88    -0.68235 ( 99.46%)    -0.67076 (  0.54%)    -0.68229
      72    184.40    -0.68081 ( 99.46%)    -0.66994 (  0.54%)    -0.68075
      73    184.54    -0.68039 ( 99.46%)    -0.66971 (  0.54%)    -0.68033
      74    184.58    -0.68025 ( 99.46%)    -0.66964 (  0.54%)    -0.68019
      75    185.07    -0.67878 ( 99.47%)    -0.66885 (  0.53%)    -0.67872
      76    185.26    -0.67821 ( 99.47%)    -0.66855 (  0.53%)    -0.67816
      77    187.23    -0.67234 ( 99.49%)    -0.66541 (  0.51%)    -0.67230
      78    197.16    -0.64384 ( 99.59%)    -0.65011 (  0.41%)    -0.64387
      79    197.81    -0.64202 ( 99.59%)    -0.64913 (  0.41%)    -0.64204
      80    200.52    -0.63456 ( 99.61%)    -0.64510 (  0.39%)    -0.63460
      81    202.48    -0.62924 ( 99.63%)    -0.64222 (  0.37%)    -0.62928
      82    204.07    -0.62496 ( 99.64%)    -0.63991 (  0.36%)    -0.62501
      83    204.58    -0.62357 ( 99.64%)    -0.63916 (  0.36%)    -0.62363
      84    204.60    -0.62352 ( 99.64%)    -0.63913 (  0.36%)    -0.62358
      85    205.00    -0.62247 ( 99.65%)    -0.63856 (  0.35%)    -0.62252
      86    208.20    -0.61402 ( 99.67%)    -0.63397 (  0.33%)    -0.61409
      87    208.31    -0.61373 ( 99.67%)    -0.63382 (  0.33%)    -0.61380
      88    209.39    -0.61090 ( 99.68%)    -0.63228 (  0.32%)    -0.61097
      89    209.56    -0.61045 ( 99.68%)    -0.63203 (  0.32%)    -0.61052
      90    213.49    -0.60036 ( 99.70%)    -0.62653 (  0.30%)    -0.60043
      91    215.05    -0.59640 ( 99.71%)    -0.62437 (  0.29%)    -0.59649
      92    215.60    -0.59503 ( 99.71%)    -0.62362 (  0.29%)    -0.59511
      93    216.09    -0.59380 ( 99.71%)    -0.62295 (  0.29%)    -0.59388
      94    216.99    -0.59155 ( 99.72%)    -0.62172 (  0.28%)    -0.59164
      95    218.32    -0.58824 ( 99.73%)    -0.61991 (  0.27%)    -0.58833
      96    219.18    -0.58612 ( 99.73%)    -0.61874 (  0.27%)    -0.58620
      97    219.95    -0.58423 ( 99.73%)    -0.61771 (  0.27%)    -0.58432
      98    221.24    -0.58106 ( 99.74%)    -0.61597 (  0.26%)    -0.58115
      99    221.38    -0.58072 ( 99.74%)    -0.61578 (  0.26%)    -0.58081
     100    223.37    -0.57590 ( 99.75%)    -0.61313 (  0.25%)    -0.57600
     101    226.41    -0.56863 ( 99.76%)    -0.60912 (  0.24%)    -0.56873
     102    227.58    -0.56588 ( 99.77%)    -0.60761 (  0.23%)    -0.56598
     103    230.87    -0.55820 ( 99.78%)    -0.60336 (  0.22%)    -0.55830
     104    239.49    -0.53866 ( 99.81%)    -0.59249 (  0.19%)    -0.53876
     105    258.98    -0.49750 ( 99.86%)    -0.56931 (  0.14%)    -0.49760
     106    259.14    -0.49717 ( 99.86%)    -0.56913 (  0.14%)    -0.49727
     107    259.28    -0.49690 ( 99.86%)    -0.56897 (  0.14%)    -0.49700
     108    259.52    -0.49642 ( 99.86%)    -0.56870 (  0.14%)    -0.49652
     109    259.55    -0.49636 ( 99.86%)    -0.56866 (  0.14%)    -0.49646
     110    272.04    -0.47203 ( 99.89%)    -0.55473 (  0.11%)    -0.47212
     111    277.61    -0.46164 ( 99.89%)    -0.54873 (  0.11%)    -0.46173
     112    285.31    -0.44772 ( 99.91%)    -0.54063 (  0.09%)    -0.44780
     113    290.07    -0.43934 ( 99.91%)    -0.53573 (  0.09%)    -0.43942
     114    293.85    -0.43281 ( 99.92%)    -0.53189 (  0.08%)    -0.43290
     115    299.62    -0.42309 ( 99.92%)    -0.52614 (  0.08%)    -0.42317
   ------------------------------------------------------------------------

   temp. (K)  partition function   enthalpy   heat capacity  entropy
                                   cal/mol     cal/K/mol   cal/K/mol   J/K/mol
 298.15  VIB  0.224E+70            76303.862    478.100    494.787
         ROT  0.779E+10              888.752      2.981     48.243
         INT  0.174E+80            77192.615    481.081    543.030
         TR   0.958E+29             1481.254      4.968     48.827
         TOT                       78673.8687   486.0492   591.8568  2476.3288

       T/K    H(0)-H(T)+PV         H(T)/Eh          T*S/Eh         G(T)/Eh
   ------------------------------------------------------------------------
    298.15    0.125375E+00    0.148053E+01    0.281210E+00    0.119932E+01
   ------------------------------------------------------------------------

         :::::::::::::::::::::::::::::::::::::::::::::::::::::
         ::                  THERMODYNAMIC                  ::
         :::::::::::::::::::::::::::::::::::::::::::::::::::::
         :: total free energy        -368.521250696504 Eh   ::
         ::.................................................::
         :: total energy             -369.720567149175 Eh   ::
         :: zero point energy           1.355151925831 Eh   ::
         :: G(RRHO) w/o ZPVE           -0.155835473160 Eh   ::
         :: G(RRHO) contrib.            1.199316452671 Eh   ::
         :::::::::::::::::::::::::::::::::::::::::::::::::::::

optimized geometry written to: xtbopt.xyz


           -------------------------------------------------
          | TOTAL ENERGY             -369.720567149175 Eh   |
          | TOTAL ENTHALPY           -368.240040433049 Eh   |
          | TOTAL FREE ENERGY        -368.521250696504 Eh   |
          | GRADIENT NORM               0.000601872043 Eh/α |
          | HOMO-LUMO GAP               0.001284091937 eV   |
           -------------------------------------------------

------------------------------------------------------------------------
 * finished run on 2021/11/19 at 21:05:22.577     
------------------------------------------------------------------------
 total:
 * wall-time:     0 d,  0 h, 39 min, 24.023 sec
 *  cpu-time:     0 d,  0 h, 39 min, 24.042 sec
 * ratio c/w:     1.000 speedup
 SCF:
 * wall-time:     0 d,  0 h,  0 min,  7.896 sec
 *  cpu-time:     0 d,  0 h,  0 min,  7.896 sec
 * ratio c/w:     1.000 speedup
 ANC optimizer:
 * wall-time:     0 d,  0 h,  3 min, 52.553 sec
 *  cpu-time:     0 d,  0 h,  3 min, 52.552 sec
 * ratio c/w:     1.000 speedup
 analytical hessian:
 * wall-time:     0 d,  0 h, 35 min, 23.311 sec
 *  cpu-time:     0 d,  0 h, 35 min, 23.332 sec
 * ratio c/w:     1.000 speedup

