201
 energy: -367.779791384876 gnorm: 1.748509032714 xtb: 6.4.1 (bd6e46d)
Cu       22.80709700000000    0.03646900000000   -0.01143500000000
C        25.13608800000000   -3.11032400000000    1.31125400000000
C        26.05219500000000   -2.16611700000000    1.26097200000000
C        25.64101600000000   -1.11221300000000    0.33968000000000
C        26.25988600000000    0.01213300000000   -0.00673000000000
C        25.55584400000000    1.23208200000000   -0.37083500000000
C        25.88395500000000    2.19213700000000   -1.21830900000000
C        24.84917500000000    3.20842200000000   -1.23520700000000
C        23.91290700000000    2.83196000000000   -0.38831500000000
N        24.31489700000000    1.59894900000000    0.17550200000000
C        22.65183300000000    3.47695900000000   -0.00916300000000
C        21.55661500000000    2.84217700000000    0.34159700000000
C        20.48299000000000    3.16013300000000    1.31062500000000
C        19.64542700000001    2.16337900000000    1.23345900000000
C        20.08372400000000    1.15969600000000    0.25300700000000
N        21.18866300000000    1.59854900000000   -0.23128600000000
C        19.47289000000000   -0.09357500000000   -0.16054100000000
C        20.13705000000000   -1.19808100000000   -0.41496600000000
C        19.76320200000000   -2.26102300000000   -1.37249300000000
C        20.71194900000000   -3.15477900000000   -1.28347400000000
C        21.69767300000000   -2.71732900000000   -0.30059600000000
N        21.34462700000000   -1.57152400000000    0.19620100000000
C        22.92856000000000   -3.37339900000000    0.14512500000000
C        24.05160200000000   -2.72753800000000    0.41224600000000
N        24.38020200000000   -1.48009700000000   -0.18615800000000
H        25.19635000000000   -4.02010500000000    1.92880000000000
H        26.96852300000000   -2.20606600000000    1.83902000000000
H        26.81132000000000    2.20893200000000   -1.81945200000000
H        24.86607400000000    4.11311100000000   -1.84782800000000
H        22.60411000000000    4.57176200000000   -0.01294100000000
H        20.43016800000000    4.03885800000000    1.93561700000000
H        18.73379700000000    2.12770900000000    1.85078300000000
H        18.37463900000000   -0.09066400000000   -0.25981200000000
H        18.89434600000000   -2.31348800000000   -2.02144300000000
H        20.70910300000000   -4.07108700000000   -1.88223300000000
H        22.89307800000000   -4.46920100000000    0.25705000000000
Cu       88.86141300000000   -0.01090700000000   -0.01586800000000
C        86.53242200000000    2.83588500000000    1.86763700000000
C        85.61631500000000    1.91739600000000    1.64306300000000
C        86.02749400000000    1.05269900000000    0.54224900000000
C        85.40862400000000    0.01213300000000   -0.00673000000000
C        86.11266600000000   -1.11909100000000   -0.59083300000000
C        85.78455599999999   -1.90526300000000   -1.60170000000000
C        86.81933500000000   -2.90077200000000   -1.80684000000000
C        87.75560299999999   -2.68795600000000   -0.90481000000000
N        87.35361300000000   -1.58094400000000   -0.12203800000000
C        89.01667800000000   -3.39209700000000   -0.65189600000000
C        90.11189500000002   -2.83340400000000   -0.18946300000000
C        91.18552000000000   -3.32561000000000    0.70375900000000
C        92.02308300000001   -2.33184300000000    0.81284400000000
C        91.58478599999999   -1.16369400000000    0.03560900000000
N        90.47984800000000   -1.50508600000000   -0.52169100000000
C        92.19562100000000    0.14454100000000   -0.13826100000000
C        91.53146000000000    1.27707500000000   -0.18336700000000
C        91.90530900000000    2.49920000000000   -0.92708200000000
C        90.95656200000001    3.36092800000000   -0.67380400000000
C        89.97083800000000    2.74873300000000    0.21086000000000
N        90.32388400000001    1.53065400000000    0.48647000000000
C        88.73994999999999    3.31072700000000    0.77055400000000
C        87.61690800000000    2.62652300000000    0.91322200000000
N        87.28830800000000    1.51174800000000    0.09378700000000
H        86.47216000000000    3.61530900000000    2.64324100000000
H        84.69998800000000    1.84941500000000    2.21848900000000
H        84.85719000000000   -1.81024600000000   -2.19552400000000
H        86.80243600000000   -3.67610700000000   -2.57666000000000
H        89.06440000000001   -4.46719500000000   -0.85871000000000
H        91.23834200000000   -4.30502600000000    1.15488600000000
H        92.93471400000001   -2.41131500000000    1.42606900000000
H        93.29387100000000    0.16009700000000   -0.23634800000000
H        92.77416500000000    2.67114400000000   -1.55503500000000
H        90.95940800000001    4.37240900000000   -1.09218100000000
H        88.77543200000000    4.36674400000000    1.08382300000000
C        29.23189800000000    0.02326500000000   -0.00268900000000
C        30.44743100000000   -0.00207900000000   -0.01316800000000
C        31.86894800000000   -0.02350200000000   -0.01734400000000
C        33.07750900000000   -0.02571300000000   -0.01723900000000
C        34.49858500000000   -0.00675400000000   -0.01786600000000
C        35.70972700000000    0.02326500000000   -0.00268900000000
C        44.80707400000000    0.02326500000000   -0.00268900000000
C        46.02260600000000   -0.00207900000000   -0.01316800000000
C        47.44412300000000   -0.02350200000000   -0.01734400000000
C        48.65268500000000   -0.02571300000000   -0.01723900000000
C        50.07376000000000   -0.00675400000000   -0.01786600000000
C        51.28490200000001    0.02326500000000   -0.00268900000000
C        60.38224900000001    0.02326500000000   -0.00268900000000
C        61.59778200000000   -0.00207900000000   -0.01316800000000
C        63.01929900000000   -0.02350200000000   -0.01734400000000
C        64.22786100000000   -0.02571300000000   -0.01723900000000
C        65.64893600000001   -0.00675400000000   -0.01786600000000
C        66.86007800000000    0.02326500000000   -0.00268900000000
C        75.95742500000000    0.02326500000000   -0.00268900000000
C        77.17295799999999   -0.00207900000000   -0.01316800000000
C        78.59447500000000   -0.02350200000000   -0.01734400000000
C        79.80303600000001   -0.02571300000000   -0.01723900000000
C        81.22411100000001   -0.00675400000000   -0.01786600000000
C        82.43525400000000    0.02326500000000   -0.00268900000000
Cu       40.29831700000000    0.03488200000000    0.00213900000000
C        38.01850600000000   -3.22656600000000   -0.90752600000000
C        37.06229700000000   -2.32721500000000   -1.00955300000000
C        37.45467100000000   -1.16491000000000   -0.20703700000000
C        36.81955500000001   -0.01363800000000    0.00522900000000
C        37.50501200000000    1.26096200000000    0.23145900000000
C        37.16972200000001    2.33956200000000    0.93569900000000
C        38.19426300000000    3.35887800000000    0.84511700000000
C        39.14486000000000    2.86195400000000    0.07175300000000
N        38.76786600000000    1.54534900000000   -0.34439000000000
C        40.39200000000000    3.47365500000000   -0.34511300000000
C        41.49355100000000    2.80639800000000   -0.67688400000000
C        42.48709800000000    3.05838300000000   -1.71105400000000
C        43.38098100000000    2.09752400000000   -1.60957000000000
C        43.00128300000001    1.18564000000000   -0.50559300000000
N        41.90636800000000    1.63495900000000    0.00177400000000
C        43.65849000000000   -0.01363800000000    0.00522900000000
C        43.03507800000000   -1.08282000000000    0.46674600000000
C        43.41379100000001   -2.01493500000000    1.54222200000000
C        42.47312200000000   -2.92908100000000    1.62808800000000
C        41.46482100000000   -2.63330200000000    0.63066100000000
N        41.80259600000000   -1.57992500000000   -0.01863400000000
C        40.21242800000001   -3.34031000000000    0.29946700000000
C        39.09855100000000   -2.74361300000000   -0.04787400000000
N        38.71643900000000   -1.46085600000000    0.36980900000000
H        38.01885100000000   -4.21764000000000   -1.39876100000000
H        36.15376300000000   -2.44890900000000   -1.59070100000000
H        36.24486900000000    2.45791300000000    1.51262500000000
H        38.22155800000000    4.34804300000000    1.30176800000000
H        40.47794000000000    4.57103300000000   -0.40713600000000
H        42.51977000000000    3.86459900000000   -2.43787800000000
H        44.27404200000000    1.98455500000000   -2.24334400000000
H        44.32854100000000   -1.94052900000000    2.15239100000000
H        42.49216900000000   -3.74268900000000    2.33635500000000
H        40.25091200000000   -4.44026900000000    0.35850400000000
Cu       55.87349300000000    0.03488200000000    0.00213900000000
C        53.59368200000000   -3.22656600000000   -0.90752600000000
C        52.63747300000000   -2.32721500000000   -1.00955300000000
C        53.02984700000000   -1.16491000000000   -0.20703700000000
C        52.39473000000000   -0.01363800000000    0.00522900000000
C        53.08018700000000    1.26096200000000    0.23145900000000
C        52.74489700000000    2.33956200000000    0.93569900000000
C        53.76943800000000    3.35887800000000    0.84511700000000
C        54.72003600000000    2.86195400000000    0.07175300000000
N        54.34304200000000    1.54534900000000   -0.34439000000000
C        55.96717500000000    3.47365500000000   -0.34511300000000
C        57.06872700000000    2.80639800000000   -0.67688400000000
C        58.06227300000000    3.05838300000000   -1.71105400000000
C        58.95615700000000    2.09752400000000   -1.60957000000000
C        58.57645800000000    1.18564000000000   -0.50559300000000
N        57.48154300000001    1.63495900000000    0.00177400000000
C        59.23366500000000   -0.01363800000000    0.00522900000000
C        58.61025400000000   -1.08282000000000    0.46674600000000
C        58.98896700000001   -2.01493500000000    1.54222200000000
C        58.04829800000000   -2.92908100000000    1.62808800000000
C        57.03999700000000   -2.63330200000000    0.63066100000000
N        57.37777100000000   -1.57992500000000   -0.01863400000000
C        55.78760300000000   -3.34031000000000    0.29946700000000
C        54.67372700000000   -2.74361300000000   -0.04787400000000
N        54.29161500000000   -1.46085600000000    0.36980900000000
H        53.59402700000000   -4.21764000000000   -1.39876100000000
H        51.72893800000000   -2.44890900000000   -1.59070100000000
H        51.82004500000000    2.45791300000000    1.51262500000000
H        53.79673300000001    4.34804300000000    1.30176800000000
H        56.05311500000000    4.57103300000000   -0.40713600000000
H        58.09494600000000    3.86459900000000   -2.43787800000000
H        59.84921800000000    1.98455500000000   -2.24334400000000
H        59.90371700000000   -1.94052900000000    2.15239100000000
H        58.06734400000000   -3.74268900000000    2.33635500000000
H        55.82608800000000   -4.44026900000000    0.35850400000000
Cu       71.44866800000000    0.03488200000000    0.00213900000000
C        69.16885700000000   -3.22656600000000   -0.90752600000000
C        68.21264800000000   -2.32721500000000   -1.00955300000000
C        68.60502200000001   -1.16491000000000   -0.20703700000000
C        67.96990599999999   -0.01363800000000    0.00522900000000
C        68.65536300000001    1.26096200000000    0.23145900000000
C        68.32007299999999    2.33956200000000    0.93569900000000
C        69.34461400000001    3.35887800000000    0.84511700000000
C        70.29521099999999    2.86195400000000    0.07175300000000
N        69.91821700000000    1.54534900000000   -0.34439000000000
C        71.54235100000000    3.47365500000000   -0.34511300000000
C        72.64390200000000    2.80639800000000   -0.67688400000000
C        73.63744900000000    3.05838300000000   -1.71105400000000
C        74.53133200000001    2.09752400000000   -1.60957000000000
C        74.15163400000000    1.18564000000000   -0.50559300000000
N        73.05671900000000    1.63495900000000    0.00177400000000
C        74.80884100000000   -0.01363800000000    0.00522900000000
C        74.18543000000000   -1.08282000000000    0.46674600000000
C        74.56414200000000   -2.01493500000000    1.54222200000000
C        73.62347300000000   -2.92908100000000    1.62808800000000
C        72.61517200000000   -2.63330200000000    0.63066100000000
N        72.95294699999999   -1.57992500000000   -0.01863400000000
C        71.36277900000000   -3.34031000000000    0.29946700000000
C        70.24890200000000   -2.74361300000000   -0.04787400000000
N        69.86678999999999   -1.46085600000000    0.36980900000000
H        69.16920200000000   -4.21764000000000   -1.39876100000000
H        67.30411400000000   -2.44890900000000   -1.59070100000000
H        67.39522100000001    2.45791300000000    1.51262500000000
H        69.37190900000000    4.34804300000000    1.30176800000000
H        71.62829100000000    4.57103300000000   -0.40713600000000
H        73.67012099999999    3.86459900000000   -2.43787800000000
H        75.42439400000001    1.98455500000000   -2.24334400000000
H        75.47889200000000   -1.94052900000000    2.15239100000000
H        73.64252000000002   -3.74268900000000    2.33635500000000
H        71.40126300000000   -4.44026900000000    0.35850400000000
201
 energy: -368.451302014987 gnorm: 0.709035781496 xtb: 6.4.1 (bd6e46d)
Cu       22.81201149968311    0.03652741124156   -0.01062387266894
C        25.13453432243620   -3.11725626241884    1.30749743679028
C        26.06031886064964   -2.16413748279303    1.26076543848880
C        25.63507723966239   -1.11504696126618    0.34359243116592
C        26.24831747355571    0.02462615945985   -0.01119442131561
C        25.54804199386202    1.22616586555858   -0.36190934846824
C        25.89156764846044    2.21170244098049   -1.23202095807781
C        24.87002558521630    3.20961574743885   -1.24661309004061
C        23.90594842228743    2.81691142021765   -0.38054487658797
N        24.29980043619756    1.58860388216060    0.17795963721167
C        22.66431620529250    3.47863430893102   -0.01036894670921
C        21.54687214321537    2.83223186772007    0.34283036317428
C        20.48695949641641    3.16651022602212    1.30181397018430
C        19.62947524258712    2.15630968948679    1.23736981130354
C        20.07880642158644    1.16123897093262    0.26214200557980
N        21.20887193786754    1.58920739889409   -0.22573394766132
C        19.46481322892364   -0.07934925868592   -0.15689613655699
C        20.13991423701195   -1.20354362156714   -0.41795245554643
C        19.75663853062172   -2.25821724017598   -1.36548633797034
C        20.71822211715667   -3.16781391045384   -1.28381422284624
C        21.70383664226241   -2.72436129489397   -0.30448060565051
N        21.35027471979504   -1.55751298407453    0.18511241931951
C        22.91543420650180   -3.37911644481808    0.14066478975196
C        24.05882944224061   -2.71708436263055    0.41163366912637
N        24.37772025914983   -1.47925734570174   -0.17158581953846
H        25.19269000840286   -4.01685128273874    1.92484317873468
H        26.96993336370646   -2.20174789475952    1.83744077563894
H        26.80862208621776    2.21212157242983   -1.81950212611812
H        24.86861784734931    4.11100125626692   -1.84783299035162
H        22.61053418340407    4.57013365000646   -0.00989000350395
H        20.43305412586447    4.03808610475661    1.93334193685905
H        18.73319444297464    2.12363666650020    1.84943534834191
H        18.37641964014987   -0.08765311153004   -0.26265378910790
H        18.89546793311242   -2.30925666929912   -2.01816007355824
H        20.71385826727989   -4.07172707151499   -1.88015430719178
H        22.89104755181873   -4.46658269565624    0.25826081735242
Cu       88.85650155767925   -0.01112957875500   -0.01506997861089
C        86.53400003762121    2.84337142852809    1.86525659875094
C        85.60816228928840    1.91551246297005    1.64245487306092
C        86.03335660794438    1.05490397199137    0.54655319066114
C        85.41977451079408    0.00067414651440   -0.01328873497544
C        86.12044716727056   -1.11488717845145   -0.58103965188264
C        85.77696102966948   -1.92192817582533   -1.61877041114765
C        86.79851898837985   -2.89986603757582   -1.81824361839329
C        87.76255145015341   -2.67466155278328   -0.89439137970246
N        87.36864831341447   -1.57117085701074   -0.11777166948677
C        89.00417787232284   -3.39352209552064   -0.65340900840846
C        90.12164470565268   -2.82383667018013   -0.18640137062758
C        91.18154027965439   -3.33022421446867    0.69393214670342
C        92.03905855944849   -2.32562715377171    0.81796737233479
C        91.58972389909937   -1.16688388327188    0.04429383376387
N        90.45961183620233   -1.49696889033470   -0.51448334727002
C        92.20369771852982    0.12984976827946   -0.13729724343749
C        91.52856401710567    1.28301541180336   -0.18528842886883
C        91.91184822638880    2.49513268622743   -0.92073681573161
C        90.95029179242671    3.37381963684369   -0.67169472977617
C        89.96467498911490    2.75638594767629    0.20836102900277
N        90.31827297397724    1.51892035778712    0.47296500012575
C        88.75309267818747    3.31716512611121    0.76720771570755
C        87.60968761040948    2.61630285194435    0.91074390676508
N        87.29080424870330    1.50820479834606    0.10796052879340
H        86.47582416125087    3.61284096811873    2.63874838369245
H        84.69857348552055    1.84547384407463    2.21614423760404
H        84.85988328761529   -1.81337743612114   -2.19616949639617
H        86.79989595082878   -3.67403560294635   -2.57627735560112
H        89.05798043534706   -4.46615944329197   -0.85542994710968
H        91.23545479181541   -4.30384364754828    1.15279390297698
H        92.93531789574374   -2.40706144320899    1.42550039046348
H        93.29209133986612    0.15766332370077   -0.23967555884185
H        92.77303895740785    2.66637619051689   -1.55259365116821
H        90.95465042079184    4.37265467353089   -1.09001847134245
H        88.77744723340592    4.36395888851033    1.08447817508589
C        29.23041075259861    0.02310293352705   -0.00232828970937
C        30.45842101980383   -0.00239786768109   -0.01310590168877
C        31.85489028450765   -0.02302001700969   -0.01740321359043
C        33.08199221630304   -0.02515898692591   -0.01727789691723
C        34.44391663917494   -0.00704252694700   -0.01757352297568
C        35.63639224390081    0.03180011012127   -0.00400568752519
C        44.87137283338418    0.02979136618209   -0.00230784413519
C        46.06918151503422   -0.00247504698278   -0.01268066731704
C        47.43483174932575   -0.02288442822694   -0.01797067430073
C        48.65952100769416   -0.02509942958862   -0.01728907623542
C        50.01958503350864   -0.00701518816164   -0.01759000768523
C        51.21172318467472    0.03172690273350   -0.00437725871059
C        60.44666412844568    0.02980750195395   -0.00216889522774
C        61.64411177659132   -0.00244116706495   -0.01266826390043
C        63.01015625733580   -0.02289001084719   -0.01800004369069
C        64.23456603692139   -0.02510594499336   -0.01728796682518
C        65.59484353450085   -0.00701848094899   -0.01759132727298
C        66.78683391554605    0.03170338329775   -0.00438044155422
C        76.02235034075183    0.02988722353015   -0.00203401300192
C        77.21945601194011   -0.00229817440391   -0.01248295650292
C        78.58915931337185   -0.02288359713012   -0.01797992299501
C        79.81514643810507   -0.02524323021020   -0.01750880576176
C        81.21344986969022   -0.00718811190924   -0.01759673988058
C        82.43747139612428    0.02290431997552   -0.00237334368661
Cu       40.29440028140064    0.03603601711604    0.00061177170356
C        38.02145685587049   -3.23976544136211   -0.90514364234439
C        37.05916708014590   -2.32413007658081   -1.00656599381767
C        37.49187114854205   -1.18623142052348   -0.20919947603051
C        36.88703817622350   -0.00191728865189    0.00636676954300
C        37.53697420298700    1.26679907480502    0.22796908826673
C        37.16453846437629    2.35780587155713    0.94463392075267
C        38.17742259865438    3.36066758239278    0.85196678878112
C        39.15379110043919    2.84921730147767    0.06576118600628
N        38.78408620324129    1.54030939684801   -0.33918918015890
C        40.38233828092503    3.47574921540907   -0.34490524651072
C        41.50060305122102    2.79951723774439   -0.67756327373327
C        42.48804675857480    3.06465298094063   -1.70530877142673
C        43.39314420682946    2.08824288756516   -1.60973445275296
C        42.99145759284771    1.19165199881916   -0.51697294416347
N        41.88351646864249    1.62988446571511   -0.00390433696328
C        43.61221683548491   -0.00245685885467   -0.00080709670585
C        43.00690302618077   -1.10173786283891    0.47557886375094
C        43.42129431318797   -2.01008821517501    1.53750617520021
C        42.46856086754786   -2.94061051824737    1.62869115451673
C        41.45692625913945   -2.64317951377325    0.63681179499453
N        41.79328976534912   -1.56050744527369   -0.01595660851231
C        40.22801937501365   -3.34649038414128    0.30621507988371
C        39.08741859787914   -2.73526516765567   -0.05247251875170
N        38.72375395689132   -1.45720244539077    0.35569984551424
H        38.02095342814209   -4.21486478172977   -1.39663012541007
H        36.15458999578090   -2.44390893973760   -1.58846929666629
H        36.24563250000053    2.45879817920581    1.51252674564226
H        38.21702841213427    4.34491051928321    1.30257561387939
H        40.47068304544192    4.56819539490815   -0.40967526302469
H        42.51640714538551    3.86375046065984   -2.43446264582309
H        44.27277703133414    1.98172885628748   -2.24102382716649
H        44.32490196019116   -1.93790233483200    2.14806239588129
H        42.48888889108187   -3.74524487491043    2.33658842253447
H        40.25306001661856   -4.43848358148876    0.35727228958881
Cu       55.86935949341019    0.03607128245268    0.00069310994586
C        53.59613423727166   -3.23982472058662   -0.90516938194892
C        52.63434961274881   -2.32459992266230   -1.00653852605194
C        53.06699570362461   -1.18601800427298   -0.20827154869292
C        52.46236308178497   -0.00238886882978    0.00621522889303
C        53.11244788024208    1.26718712121644    0.22758380823566
C        52.73989627666960    2.35777254347094    0.94476632091279
C        53.75255557204201    3.36085787219031    0.85186729910540
C        54.72906326602418    2.84939353972661    0.06573117891472
N        54.35872374056815    1.54035643296299   -0.33932137325395
C        55.95733937351035    3.47568651268890   -0.34470411357452
C        57.07593136649847    2.79935819028228   -0.67752912934435
C        58.06317871243460    3.06457000668362   -1.70540206268947
C        58.96838647303834    2.08825731564342   -1.60976486716730
C        58.56664912718264    1.19162626172469   -0.51710261047842
N        57.45877977697802    1.63010800439664   -0.00381725092335
C        59.18716996694961   -0.00256758248471   -0.00069361305000
C        58.58235859166280   -1.10157436304501    0.47558219168960
C        58.99673448993785   -2.01023830568900    1.53745395004022
C        58.04373427014519   -2.94030701473928    1.62898726365283
C        57.03245806271756   -2.64260136899985    0.63688334191292
N        57.36838761956123   -1.56117325996099   -0.01606346250711
C        55.80263674641272   -3.34649264182527    0.30578440953267
C        54.66302516440523   -2.73529861200595   -0.05230060228787
N        54.29877210107816   -1.45730290911830    0.35574352617749
H        53.59608345859404   -4.21490626588141   -1.39667359295227
H        51.72975735679594   -2.44393954384126   -1.58852844041004
H        51.82076554048164    2.45881416436694    1.51251299456842
H        53.79220460609021    4.34497028727660    1.30260950204071
H        56.04586308312870    4.56819249095681   -0.40959071191445
H        58.09158334051797    3.86375289264889   -2.43447272431125
H        59.84797654326256    1.98173286501460   -2.24105183830772
H        59.90014585359678   -1.93791820305567    2.14808116319391
H        58.06408087249820   -3.74523277128314    2.33660467585959
H        55.82825370148983   -4.43848203865010    0.35697854686406
Cu       71.44450830177271    0.03601500785533    0.00066786922748
C        69.17125195195641   -3.23989105024202   -0.90501436128479
C        68.20962624299516   -2.32458582609277   -1.00654267747281
C        68.64216942055180   -1.18586338395164   -0.20833221546147
C        68.03750570895274   -0.00241664047516    0.00618822883711
C        68.68751212003684    1.26717781478438    0.22777615125826
C        68.31508974186126    2.35760276181467    0.94470502989118
C        69.32786167303230    3.36084720224355    0.85179566212179
C        70.30434270015007    2.84954171798351    0.06580925107071
N        69.93410321985792    1.54020856942875   -0.33921843071848
C        71.53250395647557    3.47575193067130   -0.34469315665610
C        72.65116078044825    2.79950015010087   -0.67747189812340
C        73.63828653045020    3.06459379434903   -1.70533593708538
C        74.54353333257139    2.08820816422755   -1.60976343755858
C        74.14165794006460    1.19115152279919   -0.51765846121219
N        73.03376144162067    1.62979221784122   -0.00392716164347
C        74.76232924147817   -0.00280946177362   -0.00064653486509
C        74.15784830177122   -1.10111838972324    0.47606676638131
C        74.57208822783704   -2.01011665881729    1.53712952101185
C        73.61855721212854   -2.94004214127034    1.62899843207589
C        72.60802735003524   -2.64241640087169    0.63705356657136
N        72.94307694769179   -1.56109426170468   -0.01577403065466
C        71.37736693685076   -3.34671953997630    0.30546714203206
C        70.23844809247494   -2.73566311820798   -0.05213030679921
N        69.87410138232143   -1.45685213947760    0.35565525964526
H        69.17126266453609   -4.21489305866990   -1.39666408516759
H        67.30496570992770   -2.44393337922773   -1.58852055476800
H        67.39595798062726    2.45879339679388    1.51246561099537
H        69.36739173666881    4.34496122718265    1.30257368254061
H        71.62102598760391    4.56820416437635   -0.40963998094049
H        73.66675544488946    3.86374315610544   -2.43445549091828
H        75.42312876716788    1.98173369753216   -2.24101596323998
H        75.47532289510339   -1.93793467283576    2.14803240262407
H        73.63921811665068   -3.74518275509393    2.33654383063768
H        71.40342240318928   -4.43854719274162    0.35675005432035
201
 energy: -368.724898530145 gnorm: 0.342611598054 xtb: 6.4.1 (bd6e46d)
Cu       22.81993328090415    0.03557836835417   -0.00895211648945
C        25.13479300329366   -3.12434568914307    1.29723121221075
C        26.07049494396314   -2.16226413742696    1.25778927167747
C        25.62415800251335   -1.11445858714067    0.35318498303586
C        26.22138405574112    0.04473699880519   -0.01761949043810
C        25.53319362313901    1.22360821200388   -0.35512968519961
C        25.89824823536537    2.23647427721861   -1.24299094717282
C        24.89690783690599    3.20739661920245   -1.25408393267114
C        23.90086660501071    2.79416323437695   -0.37410310533319
N        24.27476841773467    1.57116697429550    0.17297231200785
C        22.68233713642801    3.47355390788083   -0.01026090868945
C        21.54158527386288    2.81591583303042    0.34516492831959
C        20.48916858742120    3.17073196191744    1.28294055628387
C        19.61072262608078    2.15060111075012    1.23791328301057
C        20.07525274177531    1.16242994155043    0.27754249150893
N        21.24073180658538    1.56822317478719   -0.20434423773287
C        19.45756532537512   -0.06148852078066   -0.15146195576183
C        20.14362620700992   -1.20382080297259   -0.42418479072990
C        19.75112908954012   -2.25796376681099   -1.34983357506586
C        20.72337126783956   -3.18330936510072   -1.27929993705448
C        21.71223792135558   -2.73028492201456   -0.31293561915714
N        21.36386520424167   -1.53255521155665    0.15604607223729
C        22.90132855577948   -3.38251884673635    0.13428924823000
C        24.06288982688213   -2.70438036584138    0.41178925040329
N        24.36976398957480   -1.47539670618272   -0.14223308567713
H        25.18497616325526   -4.01226982233657    1.91606038211784
H        26.97487200655405   -2.19237545141746    1.83388883484275
H        26.80603212240099    2.21856743048200   -1.82044678107947
H        24.87348329918642    4.10695677497001   -1.84713267149316
H        22.62524977920540    4.56349611848868   -0.00555425723988
H        20.43918010965842    4.03504508904643    1.92546383189642
H        18.72854196616481    2.11517546669319    1.84771994363777
H        18.37828652329548   -0.08101533093522   -0.26706935685877
H        18.89804183726248   -2.30096650086582   -2.00946469536912
H        20.72380976664770   -4.07591315819652   -1.87610513062886
H        22.88776996993932   -4.46209068537239    0.25967484569700
Cu       88.84860603334658   -0.01055602615463   -0.01322017976274
C        86.53379340068045    2.85218406225001    1.85654871289151
C        85.59790292874918    1.91429712809859    1.63911015027614
C        86.04402953177507    1.05274523801789    0.55572931702341
C        85.44595840930207   -0.01786564265347   -0.02312539559798
C        86.13515176662146   -1.11352218116194   -0.57395621535314