      -----------------------------------------------------------      
     |                   =====================                   |     
     |                           x T B                           |     
     |                   =====================                   |     
     |                         S. Grimme                         |     
     |          Mulliken Center for Theoretical Chemistry        |     
     |                    University of Bonn                     |     
      -----------------------------------------------------------      

   * xtb version 6.4.1 (bd6e46d) compiled by 'conda@4901f00b25ba' on 2021-06-10

   xtb is free software: you can redistribute it and/or modify it under
   the terms of the GNU Lesser General Public License as published by
   the Free Software Foundation, either version 3 of the License, or
   (at your option) any later version.
   
   xtb is distributed in the hope that it will be useful,
   but WITHOUT ANY WARRANTY; without even the implied warranty of
   MERCHANTABILITY or FITNESS FOR A PARTICULAR PURPOSE.  See the
   GNU Lesser General Public License for more details.
   
   Cite this work as:
   * C. Bannwarth, E. Caldeweyher, S. Ehlert, A. Hansen, P. Pracht,
     J. Seibert, S. Spicher, S. Grimme, WIREs Comput. Mol. Sci., 2020, 11,
     e01493. DOI: 10.1002/wcms.1493
   
   for GFN2-xTB:
   * C. Bannwarth, S. Ehlert and S. Grimme., J. Chem. Theory Comput., 2019,
     15, 1652-1671. DOI: 10.1021/acs.jctc.8b01176
   for GFN1-xTB:
   * S. Grimme, C. Bannwarth, P. Shushkov, J. Chem. Theory Comput., 2017,
     13, 1989-2009. DOI: 10.1021/acs.jctc.7b00118
   for GFN0-xTB:
   * P. Pracht, E. Caldeweyher, S. Ehlert, S. Grimme, ChemRxiv, 2019, preprint.
     DOI: 10.26434/chemrxiv.8326202.v1
   for GFN-FF:
   * S. Spicher and S. Grimme, Angew. Chem. Int. Ed., 2020, 59, 15665-15673.
     DOI: 10.1002/anie.202004239
   
   for DFT-D4:
   * E. Caldeweyher, C. Bannwarth and S. Grimme, J. Chem. Phys., 2017,
     147, 034112. DOI: 10.1063/1.4993215
   * E. Caldeweyher, S. Ehlert, A. Hansen, H. Neugebauer, S. Spicher,
     C. Bannwarth and S. Grimme, J. Chem. Phys., 2019, 150, 154122.
     DOI: 10.1063/1.5090222
   * E. Caldeweyher, J.-M. Mewes, S. Ehlert and S. Grimme, Phys. Chem. Chem. Phys.
     2020, 22, 8499-8512. DOI: 10.1039/D0CP00502A
   
   for sTDA-xTB:
   * S. Grimme and C. Bannwarth, J. Chem. Phys., 2016, 145, 054103.
     DOI: 10.1063/1.4959605
   
   in the mass-spec context:
   * V. Asgeirsson, C. Bauer and S. Grimme, Chem. Sci., 2017, 8, 4879.
     DOI: 10.1039/c7sc00601b
   * J. Koopman and S. Grimme, ACS Omega 2019, 4, 12, 15120-15133.
     DOI: 10.1021/acsomega.9b02011
   
   for metadynamics refer to:
   * S. Grimme, J. Chem. Theory Comput., 2019, 155, 2847-2862
     DOI: 10.1021/acs.jctc.9b00143
   
   for SPH calculations refer to:
   * S. Spicher and S. Grimme, J. Chem. Theory Comput., 2021, 17, 1701-1714
     DOI: 10.1021/acs.jctc.0c01306
   
   with help from (in alphabetical order)
   P. Atkinson, C. Bannwarth, F. Bohle, G. Brandenburg, E. Caldeweyher
   M. Checinski, S. Dohm, S. Ehlert, S. Ehrlich, I. Gerasimov, J. Koopman
   C. Lavigne, S. Lehtola, F. März, M. Müller, F. Musil, H. Neugebauer
   J. Pisarek, C. Plett, P. Pracht, J. Seibert, P. Shushkov, S. Spicher
   M. Stahn, M. Steiner, T. Strunk, J. Stückrath, T. Rose, and J. Unsleber
   
 * started run on 2021/11/19 at 19:41:53.555     

           -------------------------------------------------
          |                Calculation Setup                |
           -------------------------------------------------

          program call               : /home/jeff/miniconda3/bin/xtb input_structure_1.xyz --gfn 2 --ohess normal --parallel 1 --etemp 300 --chrg 0 --uhf 0 -I det_control.in
          hostname                   : jelfscompute1
          coordinate file            : input_structure_1.xyz
          omp threads                :                     1
          number of atoms            :                   201
          number of electrons        :                   698
          charge                     :                     0
          spin                       :                   0.0
          first test random number   :      0.95960797029005

   ID    Z sym.   atoms
    1   28 Ni     1, 37, 97, 132, 167
    2    6 C      2-9, 11-15, 17-21, 23, 24, 38-45, 47-51, 53-57, 59, 60,
                  73-96, 98-105, 107-111, 113-117, 119, 120, 133-140,
                  142-146, 148-152, 154, 155, 168-175, 177-181, 183-187, 189,
                  190
    3    7 N      10, 16, 22, 25, 46, 52, 58, 61, 106, 112, 118, 121, 141,
                  147, 153, 156, 176, 182, 188, 191
    4    1 H      26-36, 62-72, 122-131, 157-166, 192-201

molecular fragmentation (1/2 indicates fragments):
111111111111111111111111111111111111222222222222222222222222222222222222
222222222222222222222222222222222222222222222222222222222222222222222222
222222222222222222222222222222222222222222222222222222222
# atoms in fragment 1/2:    36   165
 fragment masses (1/2) :      366.02     1749.32
CMA distance (Bohr)    :  75.502
constraining FC (au)   :  0.0500

           -------------------------------------------------
          |                 G F N 2 - x T B                 |
           -------------------------------------------------

        Reference                      10.1021/acs.jctc.8b01176
      * Hamiltonian:
        H0-scaling (s, p, d)           1.850000    2.230000    2.230000
        zeta-weighting                 0.500000
      * Dispersion:
        s8                             2.700000
        a1                             0.520000
        a2                             5.000000
        s9                             5.000000
      * Repulsion:
        kExp                           1.500000    1.000000
        rExp                           1.000000
      * Coulomb:
        alpha                          2.000000
        third order                    shell-resolved
        anisotropic                    true
        a3                             3.000000
        a5                             4.000000
        cn-shift                       1.200000
        cn-exp                         4.000000
        max-rad                        5.000000


          ...................................................
          :                      SETUP                      :
          :.................................................:
          :  # basis functions                 678          :
          :  # atomic orbitals                 673          :
          :  # shells                          355          :
          :  # electrons                       698          :
          :  max. iterations                   250          :
          :  Hamiltonian                  GFN2-xTB          :
          :  restarted?                      false          :
          :  GBSA solvation                  false          :
          :  PC potential                    false          :
          :  electronic temp.          300.0000000     K    :
          :  accuracy                    1.0000000          :
          :  -> integral cutoff          0.2500000E+02      :
          :  -> integral neglect         0.1000000E-07      :
          :  -> SCF convergence          0.1000000E-05 Eh   :
          :  -> wf. convergence          0.1000000E-03 e    :
          :  Broyden damping             0.4000000          :
          ...................................................

 iter      E             dE          RMSdq      gap      omega  full diag
   1   -378.7774496 -0.378777E+03  0.916E+00    0.67       0.0  T
   2   -361.6283750  0.171491E+02  0.816E+00    0.01       1.0  T
   3   -149.1768915  0.212451E+03  0.163E+01    0.05       1.0  T
   4   -171.2198633 -0.220430E+02  0.142E+01    0.08       1.0  T
   5   -309.0281195 -0.137808E+03  0.789E+00    0.03       1.0  T
   6   -226.3906830  0.826374E+02  0.972E+00    0.07       1.0  T
   7   -265.6189461 -0.392283E+02  0.921E+00    0.02       1.0  T
   8   -373.4214862 -0.107803E+03  0.479E+00    0.18       1.0  T
   9   -351.5863499  0.218351E+02  0.590E+00    0.04       1.0  T
  10   -377.4488800 -0.258625E+02  0.365E+00    0.20       1.0  T
  11   -374.7943444  0.265454E+01  0.357E+00    0.05       1.0  T
  12   -377.6353654 -0.284102E+01  0.274E+00    0.03       1.0  T
  13   -378.4468191 -0.811454E+00  0.252E+00    0.01       1.0  T
  14   -378.9805497 -0.533731E+00  0.249E+00    0.05       1.0  T
  15   -378.3865838  0.593966E+00  0.267E+00    0.03       1.0  T
  16   -378.7800321 -0.393448E+00  0.254E+00    0.04       1.0  T
  17   -378.7121605  0.678716E-01  0.257E+00    0.04       1.0  T
  18   -378.6986628  0.134977E-01  0.258E+00    0.05       1.0  T
  19   -378.9865539 -0.287891E+00  0.241E+00    0.05       1.0  T
  20   -379.4682145 -0.481661E+00  0.211E+00    0.02       1.0  T
  21   -378.9317672  0.536447E+00  0.238E+00    0.02       1.0  T
  22   -378.9184004  0.133668E-01  0.232E+00    0.05       1.0  T
  23   -375.9461983  0.297220E+01  0.263E+00    0.02       1.0  T
  24   -376.4515909 -0.505393E+00  0.268E+00    0.05       1.0  T
  25   -376.4570793 -0.548837E-02  0.269E+00    0.05       1.0  T
  26   -378.1448199 -0.168774E+01  0.202E+00    0.05       1.0  T
  27   -376.5075398  0.163728E+01  0.256E+00    0.02       1.0  T
  28   -376.2204612  0.287079E+00  0.229E+00    0.02       1.0  T
  29   -376.1380203  0.824410E-01  0.231E+00    0.03       1.0  T
  30   -371.1801249  0.495790E+01  0.519E+00    0.02       1.0  T
  31   -373.2454530 -0.206533E+01  0.416E+00    0.01       1.0  T
  32   -374.4092392 -0.116379E+01  0.434E+00    0.02       1.0  T
  33   -370.0117150  0.439752E+01  0.546E+00    0.07       1.0  T
  34   -369.8001025  0.211613E+00  0.494E+00    0.04       1.0  T
  35   -370.4486011 -0.648499E+00  0.490E+00    0.04       1.0  T
  36   -370.6217493 -0.173148E+00  0.486E+00    0.04       1.0  T
  37   -371.0286899 -0.406941E+00  0.482E+00    0.04       1.0  T
  38   -373.3486373 -0.231995E+01  0.446E+00    0.01       1.0  T
  39   -373.0373474  0.311290E+00  0.426E+00    0.00       1.0  T
  40   -374.6009275 -0.156358E+01  0.385E+00    0.02       1.0  T
  41   -378.0170831 -0.341616E+01  0.252E+00    0.01       1.0  T
  42   -377.0616245  0.955459E+00  0.322E+00    0.00       1.0  T
  43   -373.0897869  0.397184E+01  0.375E+00    0.02       1.0  T
  44   -372.6289485  0.460838E+00  0.397E+00    0.00       1.0  T
  45   -372.6739329 -0.449844E-01  0.405E+00    0.00       1.0  T
  46   -372.6712545  0.267841E-02  0.442E+00    0.03       1.0  T
  47   -373.2214852 -0.550231E+00  0.426E+00    0.02       1.0  T
  48   -374.5583677 -0.133688E+01  0.396E+00    0.02       1.0  T
  49   -376.7038351 -0.214547E+01  0.328E+00    0.03       1.0  T
  50   -375.3108888  0.139295E+01  0.401E+00    0.02       1.0  T
  51   -372.0804107  0.323048E+01  0.531E+00    0.03       1.0  T
  52   -372.2897862 -0.209375E+00  0.528E+00    0.04       1.0  T
  53   -370.1131637  0.217662E+01  0.583E+00    0.04       1.0  T
  54   -368.2936895  0.181947E+01  0.624E+00    0.08       1.0  T
  55   -369.1686274 -0.874938E+00  0.606E+00    0.05       1.0  T
  56   -373.8828718 -0.471424E+01  0.509E+00    0.01       1.0  T
  57   -373.6120415  0.270830E+00  0.525E+00    0.08       1.0  T
  58   -373.6176058 -0.556434E-02  0.527E+00    0.10       1.0  T
  59   -373.2156564  0.401949E+00  0.542E+00    0.11       1.0  T
  60   -373.5852359 -0.369580E+00  0.530E+00    0.12       1.0  T
  61   -373.6489673 -0.637314E-01  0.528E+00    0.11       1.0  T
  62   -374.7789181 -0.112995E+01  0.488E+00    0.04       1.0  T
  63   -373.2084027  0.157052E+01  0.540E+00    0.02       1.0  T
  64   -374.0642296 -0.855827E+00  0.518E+00    0.01       1.0  T
  65   -372.1169507  0.194728E+01  0.575E+00    0.04       1.0  T
  66   -370.3832816  0.173367E+01  0.642E+00    0.02       1.0  T
  67   -368.0118465  0.237144E+01  0.654E+00    0.05       1.0  T
  68   -369.3406565 -0.132881E+01  0.636E+00    0.06       1.0  T
  69   -369.4406614 -0.100005E+00  0.632E+00    0.05       1.0  T
  70   -372.1116944 -0.267103E+01  0.582E+00    0.04       1.0  T
  71   -371.7544659  0.357229E+00  0.590E+00    0.03       1.0  T
  72   -373.5719928 -0.181753E+01  0.543E+00    0.05       1.0  T
  73   -372.1454621  0.142653E+01  0.584E+00    0.04       1.0  T
  74   -371.8373044  0.308158E+00  0.589E+00    0.05       1.0  T
  75   -371.8322325  0.507186E-02  0.589E+00    0.05       1.0  T
  76   -370.3023684  0.152986E+01  0.618E+00    0.01       1.0  T
  77   -374.2968319 -0.399446E+01  0.522E+00    0.05       1.0  T
  78   -374.4688752 -0.172043E+00  0.515E+00    0.05       1.0  T
  79   -374.3864117  0.824635E-01  0.518E+00    0.05       1.0  T
  80   -373.9650798  0.421332E+00  0.531E+00    0.04       1.0  T
  81   -373.9754113 -0.103315E-01  0.531E+00    0.04       1.0  T
  82   -372.7750786  0.120033E+01  0.567E+00    0.04       1.0  T
  83   -371.4845851  0.129049E+01  0.598E+00    0.00       1.0  T
  84   -370.4394904  0.104509E+01  0.607E+00    0.04       1.0  T
  85   -370.2574266  0.182064E+00  0.613E+00    0.05       1.0  T
  86   -370.2848151 -0.273885E-01  0.617E+00    0.04       1.0  T
  87   -370.9445127 -0.659698E+00  0.605E+00    0.02       1.0  T
  88   -371.0254449 -0.809322E-01  0.604E+00    0.02       1.0  T
  89   -371.6520960 -0.626651E+00  0.600E+00    0.03       1.0  T
  90   -370.0346611  0.161743E+01  0.618E+00    0.04       1.0  T
  91   -371.0666446 -0.103198E+01  0.598E+00    0.02       1.0  T
  92   -369.9619140  0.110473E+01  0.618E+00    0.06       1.0  T
  93   -370.4704972 -0.508583E+00  0.599E+00    0.00       1.0  T
  94   -370.1378940  0.332603E+00  0.608E+00    0.02       1.0  T
  95   -369.9018564  0.236038E+00  0.617E+00    0.05       1.0  T
  96   -370.1013800 -0.199524E+00  0.611E+00    0.01       1.0  T
  97   -370.2492133 -0.147833E+00  0.607E+00    0.00       1.0  T
  98   -370.2691099 -0.198966E-01  0.606E+00    0.00       1.0  T
  99   -370.9569747 -0.687865E+00  0.594E+00    0.02       1.0  T
 100   -370.8952849  0.616898E-01  0.596E+00    0.02       1.0  T
 101   -373.1050605 -0.220978E+01  0.547E+00    0.07       1.0  T
 102   -373.7712915 -0.666231E+00  0.527E+00    0.01       1.0  T
 103   -374.9545047 -0.118321E+01  0.481E+00    0.01       1.0  T
 104   -375.8986948 -0.944190E+00  0.443E+00    0.01       1.0  T
 105   -375.8223674  0.763274E-01  0.453E+00    0.01       1.0  T
 106   -376.0274038 -0.205036E+00  0.445E+00    0.01       1.0  T
 107   -376.0507934 -0.233896E-01  0.444E+00    0.01       1.0  T
 108   -375.7937748  0.257019E+00  0.456E+00    0.00       1.0  T
 109   -375.8087702 -0.149955E-01  0.455E+00    0.00       1.0  T
 110   -375.8406945 -0.319243E-01  0.454E+00    0.00       1.0  T
 111   -375.6298721  0.210822E+00  0.466E+00    0.03       1.0  T
 112   -375.4204174  0.209455E+00  0.478E+00    0.01       1.0  T
 113   -376.8546337 -0.143422E+01  0.411E+00    0.04       1.0  T
 114   -374.7900755  0.206456E+01  0.497E+00    0.04       1.0  T
 115   -375.4169359 -0.626860E+00  0.469E+00    0.02       1.0  T
 116   -374.7259952  0.690941E+00  0.497E+00    0.04       1.0  T
 117   -372.8151828  0.191081E+01  0.553E+00    0.06       1.0  T
 118   -373.3858623 -0.570679E+00  0.532E+00    0.06       1.0  T
 119   -373.6291996 -0.243337E+00  0.524E+00    0.06       1.0  T
 120   -374.5483678 -0.919168E+00  0.488E+00    0.03       1.0  T
 121   -375.0275852 -0.479217E+00  0.468E+00    0.03       1.0  T
 122   -375.0128046  0.147806E-01  0.468E+00    0.03       1.0  T
 123   -375.4415005 -0.428696E+00  0.450E+00    0.01       1.0  T
 124   -375.2667465  0.174754E+00  0.456E+00    0.02       1.0  T
 125   -375.2942370 -0.274905E-01  0.455E+00    0.02       1.0  T
 126   -375.2840373  0.101997E-01  0.456E+00    0.02       1.0  T
 127   -375.2855740 -0.153669E-02  0.456E+00    0.02       1.0  T
 128   -375.2856653 -0.913191E-04  0.456E+00    0.02       1.0  T
 129   -374.9148422  0.370823E+00  0.474E+00    0.03       1.0  T
 130   -374.9241705 -0.932821E-02  0.473E+00    0.03       1.0  T
 131   -374.9467079 -0.225375E-01  0.474E+00    0.03       1.0  T
 132   -375.0790732 -0.132365E+00  0.473E+00    0.02       1.0  T
 133   -375.0579192  0.211540E-01  0.479E+00    0.02       1.0  T
 134   -374.9222772  0.135642E+00  0.489E+00    0.02       1.0  T
 135   -374.9925213 -0.702441E-01  0.472E+00    0.04       1.0  T
 136   -374.9370618  0.554594E-01  0.474E+00    0.04       1.0  T
 137   -374.7830516  0.154010E+00  0.484E+00    0.05       1.0  T
 138   -374.7789932  0.405840E-02  0.485E+00    0.05       1.0  T
 139   -375.1756708 -0.396678E+00  0.457E+00    0.03       1.0  T
 140   -375.9891827 -0.813512E+00  0.415E+00    0.00       1.0  T
 141   -376.5069011 -0.517718E+00  0.381E+00    0.03       1.0  T
 142   -377.0990530 -0.592152E+00  0.329E+00    0.02       1.0  T
 143   -377.1402700 -0.412170E-01  0.326E+00    0.02       1.0  T
 144   -377.2843661 -0.144096E+00  0.319E+00    0.03       1.0  T
 145   -377.5426009 -0.258235E+00  0.305E+00    0.02       1.0  T
 146   -378.5620311 -0.101943E+01  0.237E+00    0.05       1.0  T
 147   -378.8087562 -0.246725E+00  0.216E+00    0.06       1.0  T
 148   -379.1722073 -0.363451E+00  0.187E+00    0.05       1.0  T
 149   -379.1522944  0.199129E-01  0.191E+00    0.06       1.0  T
 150   -379.3623393 -0.210045E+00  0.174E+00    0.02       1.0  T
 151   -379.2656360  0.967033E-01  0.193E+00    0.02       1.0  T
 152   -379.3546903 -0.890543E-01  0.173E+00    0.03       1.0  T
 153   -379.5380876 -0.183397E+00  0.143E+00    0.01       1.0  T
 154   -379.5379936  0.940815E-04  0.143E+00    0.01       1.0  T
 155   -379.5066140  0.313795E-01  0.147E+00    0.01       1.0  T
 156   -379.6498891 -0.143275E+00  0.123E+00    0.03       1.0  T
 157   -379.6544530 -0.456392E-02  0.122E+00    0.03       1.0  T
 158   -379.6087739  0.456791E-01  0.129E+00    0.02       1.0  T
 159   -379.6285054 -0.197316E-01  0.127E+00    0.02       1.0  T
 160   -379.6343049 -0.579947E-02  0.126E+00    0.02       1.0  T
 161   -379.6383237 -0.401878E-02  0.125E+00    0.02       1.0  T
 162   -379.5795970  0.587267E-01  0.138E+00    0.01       1.0  T
 163   -379.5911267 -0.115297E-01  0.139E+00    0.00       1.0  T
 164   -379.6017227 -0.105961E-01  0.138E+00    0.00       1.0  T
 165   -379.6367351 -0.350124E-01  0.133E+00    0.01       1.0  T
 166   -379.6317389  0.499620E-02  0.133E+00    0.01       1.0  T
 167   -379.6786213 -0.468824E-01  0.125E+00    0.01       1.0  T
 168   -379.7085530 -0.299317E-01  0.121E+00    0.01       1.0  T
 169   -379.5057924  0.202761E+00  0.157E+00    0.01       1.0  T
 170   -379.4455548  0.602376E-01  0.172E+00    0.01       1.0  T
 171   -379.7746081 -0.329053E+00  0.120E+00    0.03       1.0  T
 172   -379.4625135  0.312095E+00  0.169E+00    0.02       1.0  T
 173   -379.7634024 -0.300889E+00  0.123E+00    0.03       1.0  T
 174   -379.8333743 -0.699719E-01  0.106E+00    0.03       1.0  T
 175   -379.8571691 -0.237949E-01  0.977E-01    0.04       1.0  T
 176   -379.9424602 -0.852911E-01  0.723E-01    0.06       1.0  T
 177   -379.9532053 -0.107451E-01  0.695E-01    0.07       1.0  T
 178   -379.9683449 -0.151395E-01  0.653E-01    0.07       1.0  T
 179   -379.9722896 -0.394468E-02  0.641E-01    0.07       1.0  T
 180   -379.9716461  0.643440E-03  0.650E-01    0.07       1.0  T
 181   -379.9710554  0.590694E-03  0.651E-01    0.07       1.0  T
 182   -380.0047587 -0.337033E-01  0.558E-01    0.09       1.0  T
 183   -380.0164886 -0.117298E-01  0.538E-01    0.10       1.0  T
 184   -380.0217134 -0.522487E-02  0.546E-01    0.11       1.0  T
 185   -380.0091913  0.125221E-01  0.637E-01    0.10       1.0  T
 186   -379.9961791  0.130122E-01  0.695E-01    0.08       1.0  T
 187   -379.9983017 -0.212256E-02  0.686E-01    0.08       1.0  T
 188   -379.9756867  0.226149E-01  0.768E-01    0.07       1.0  T
 189   -380.0005378 -0.248511E-01  0.672E-01    0.08       1.0  T
 190   -379.9991408  0.139702E-02  0.679E-01    0.08       1.0  T
 191   -380.0239867 -0.248459E-01  0.567E-01    0.10       1.0  T
 192   -380.0347587 -0.107720E-01  0.507E-01    0.11       1.0  T
 193   -380.0388341 -0.407543E-02  0.483E-01    0.12       1.0  T
 194   -380.0378744  0.959657E-03  0.487E-01    0.12       1.0  T
 195   -380.0384844 -0.609933E-03  0.472E-01    0.12       1.0  T
 196   -380.0455207 -0.703632E-02  0.422E-01    0.13       1.0  T
 197   -380.0473112 -0.179049E-02  0.409E-01    0.13       1.0  T
 198   -380.0470369  0.274306E-03  0.407E-01    0.13       1.0  T
 199   -380.0497517 -0.271487E-02  0.377E-01    0.14       1.0  T
 200   -380.0507382 -0.986412E-03  0.367E-01    0.14       1.0  T
 201   -380.0546705 -0.393231E-02  0.334E-01    0.13       1.0  T
 202   -380.0553499 -0.679455E-03  0.318E-01    0.13       1.0  T
 203   -380.0553301  0.198521E-04  0.319E-01    0.13       1.0  T
 204   -380.0590323 -0.370225E-02  0.279E-01    0.12       1.0  T
 205   -380.0605361 -0.150376E-02  0.260E-01    0.12       1.0  T
 206   -380.0610241 -0.487984E-03  0.258E-01    0.12       1.0  T
 207   -380.0616197 -0.595649E-03  0.245E-01    0.12       1.0  T
 208   -380.0616721 -0.524139E-04  0.244E-01    0.12       1.0  T
 209   -380.0622871 -0.614953E-03  0.226E-01    0.12       1.0  T
 210   -380.0627858 -0.498711E-03  0.212E-01    0.12       1.0  T
 211   -380.0637262 -0.940395E-03  0.184E-01    0.13       1.0  T
 212   -380.0640592 -0.332985E-03  0.176E-01    0.13       1.0  T
 213   -380.0644766 -0.417378E-03  0.167E-01    0.13       1.0  T
 214   -380.0647118 -0.235285E-03  0.161E-01    0.13       1.0  T
 215   -380.0649252 -0.213374E-03  0.153E-01    0.13       1.0  T
 216   -380.0651542 -0.229032E-03  0.146E-01    0.13       1.0  T
 217   -380.0654748 -0.320583E-03  0.134E-01    0.13       1.0  T
 218   -380.0657381 -0.263282E-03  0.123E-01    0.13       1.0  T
 219   -380.0659935 -0.255352E-03  0.109E-01    0.12       1.0  T
 220   -380.0661398 -0.146382E-03  0.100E-01    0.12       1.0  T
 221   -380.0662871 -0.147254E-03  0.922E-02    0.12       1.0  T
 222   -380.0664374 -0.150286E-03  0.857E-02    0.12       1.0  T
 223   -380.0666276 -0.190233E-03  0.763E-02    0.12       1.0  T
 224   -380.0667993 -0.171660E-03  0.655E-02    0.12       1.0  T
 225   -380.0670416 -0.242345E-03  0.478E-02    0.12       1.0  T
 226   -380.0671030 -0.614304E-04  0.408E-02    0.12       1.0  T
 227   -380.0671641 -0.610165E-04  0.325E-02    0.12       1.0  T
 228   -380.0671638  0.254129E-06  0.268E-02    0.12       1.0  T
 229   -380.0671367  0.271139E-04  0.254E-02    0.11       1.0  T
 230   -380.0671441 -0.744594E-05  0.250E-02    0.11       1.0  T
 231   -380.0671695 -0.253182E-04  0.243E-02    0.11       1.0  T
 232   -380.0672086 -0.390936E-04  0.216E-02    0.12       1.0  T
 233   -380.0672354 -0.268692E-04  0.192E-02    0.12       1.0  T
 234   -380.0672330  0.240936E-05  0.178E-02    0.12       1.0  T
 235   -380.0672400 -0.697397E-05  0.165E-02    0.12       1.0  T
 236   -380.0672355  0.445121E-05  0.153E-02    0.11       1.0  T
 237   -380.0672519 -0.163809E-04  0.134E-02    0.12       1.0  T
 238   -380.0672505  0.146556E-05  0.127E-02    0.11       1.0  T
 239   -380.0672586 -0.816012E-05  0.117E-02    0.12       1.0  T
 240   -380.0672529  0.571359E-05  0.114E-02    0.12       1.0  T
 241   -380.0672545 -0.157842E-05  0.112E-02    0.12       1.0  T
 242   -380.0672447  0.981528E-05  0.121E-02    0.12       1.0  T
 243   -380.0672534 -0.874719E-05  0.113E-02    0.12       1.0  T
 244   -380.0672573 -0.390749E-05  0.105E-02    0.12       1.0  T
 245   -380.0672623 -0.502975E-05  0.101E-02    0.12       1.0  T
 246   -380.0672665 -0.411991E-05  0.950E-03    0.12       1.0  T
 247   -380.0672692 -0.277544E-05  0.938E-03    0.12       1.0  T
 248   -380.0672733 -0.410546E-05  0.873E-03    0.12       1.0  T
 249   -380.0672795 -0.615723E-05  0.776E-03    0.12       1.0  T
 250   -380.0672878 -0.829172E-05  0.600E-03    0.12       1.2  T

   *** convergence criteria cannot be satisfied within 250 iterations ***

         #    Occupation            Energy/Eh            Energy/eV
      -------------------------------------------------------------
         1        2.0000           -0.6903638             -18.7858
       ...           ...                  ...                  ...
       343        1.9982           -0.3529318              -9.6038
       344        1.9967           -0.3523227              -9.5872
       345        1.9952           -0.3519826              -9.5779
       346        1.9924           -0.3515383              -9.5658
       347        1.9494           -0.3497183              -9.5163
       348        1.8887           -0.3489407              -9.4952
       349        1.8143           -0.3484157              -9.4809 (HOMO)
       350        0.1902           -0.3441100              -9.3637 (LUMO)
       351        0.1783           -0.3440423              -9.3619
       352        0.0000           -0.3323813              -9.0446
       353        0.0000           -0.3323510              -9.0437
       354        0.0000           -0.3312288              -9.0132
       ...           ...                  ...                  ...
       673                          2.2635437              61.5942
      -------------------------------------------------------------
                  HL-Gap            0.0043057 Eh            0.1172 eV
             Fermi-level           -0.3462503 Eh           -9.4220 eV

 SCC (total)                   0 d,  0 h,  0 min, 31.315 sec
 SCC setup                      ...        0 min,  0.009 sec (  0.028%)
 Dispersion                     ...        0 min,  0.016 sec (  0.050%)
 classical contributions        ...        0 min,  0.002 sec (  0.007%)
 integral evaluation            ...        0 min,  0.128 sec (  0.409%)
 iterations                     ...        0 min, 30.829 sec ( 98.449%)
 molecular gradient             ...        0 min,  0.316 sec (  1.008%)
 printout                       ...        0 min,  0.015 sec (  0.048%)

########################################################################
[ERROR] Program stopped due to fatal error
-3- Single point calculation terminated
-2- xtb_calculator_singlepoint: Electronic structure method terminated
-1- scf: Self consistent charge iterator did not converge
########################################################################
