 Entering Gaussian System
 *********************************************
 Gaussian 98:
 frequency output generated by the xtb code
 *********************************************
                         Standard orientation:
 --------------------------------------------------------------------
  Center     Atomic     Atomic              Coordinates (Angstroms)
  Number     Number      Type              X           Y           Z
 --------------------------------------------------------------------
    1         28             0        6.662779   -0.052795    0.008889
    2          6             0        9.118538   -3.495540    0.086535
    3          6             0       10.081483   -2.546944    0.122543
    4          6             0        9.408298   -1.283527    0.091139
    5          6             0       10.089875   -0.062661    0.092169
    6          6             0        9.416348    1.162152    0.053463
    7          6             0       10.097921    2.421430    0.040479
    8          6             0        9.140308    3.375489    0.007480
    9          6             0        7.881699    2.692039    0.003703
   10          7             0        8.065983    1.335175    0.027870
   11          6             0        6.668945    3.349531   -0.007624
   12          6             0        5.453543    2.697117   -0.001479
   13          6             0        4.194026    3.384140    0.002498
   14          6             0        3.235911    2.432337    0.002305
   15          6             0        3.914300    1.167800   -0.005352
   16          7             0        5.268455    1.343725   -0.003046
   17          6             0        3.252594   -0.042919   -0.030001
   18          6             0        3.907789   -1.257235   -0.050533
   19          6             0        3.222824   -2.517458   -0.094158
   20          6             0        4.175640   -3.474546   -0.097190
   21          6             0        5.438501   -2.795119   -0.051876
   22          7             0        5.260730   -1.440958   -0.029111
   23          6             0        6.649515   -3.454772   -0.018289
   24          6             0        7.865034   -2.804587    0.036511
   25          7             0        8.057445   -1.448637    0.044070
   26          1             0        9.224086   -4.562965    0.093113
   27          1             0       11.146782   -2.665452    0.164212
   28          1             0       11.164569    2.533935    0.054405
   29          1             0        9.252591    4.442049   -0.011040
   30          1             0        6.672677    4.428770   -0.017517
   31          1             0        4.085919    4.451540    0.005826
   32          1             0        2.169276    2.547621    0.004763
   33          1             0        2.173498   -0.039817   -0.039082
   34          1             0        2.155850   -2.626678   -0.119525
   35          1             0        4.061870   -4.540984   -0.125044
   36          1             0        6.647125   -4.533984   -0.030841
   37          6             0       11.486343   -0.065353    0.123352
   38          6             0       12.705620   -0.062919    0.143006
   39          6             0       14.042268   -0.057851    0.158617
   40          6             0       15.266148   -0.047036    0.167374
   41          6             0       16.602768   -0.031934    0.170241
   42          6             0       17.822041   -0.014272    0.171303
   43         28             0       22.634865    0.053926   -0.026812
   44          6             0       20.143498    3.448371    0.310007
   45          6             0       19.191239    2.489719    0.251801
   46          6             0       19.880160    1.238023    0.156567
   47          6             0       19.218353    0.005776    0.157520
   48          6             0       19.915530   -1.206505    0.187429
   49          6             0       19.264479   -2.474815    0.320765
   50          6             0       20.243767   -3.406905    0.357395
   51          6             0       21.483971   -2.703374    0.221943
   52          7             0       21.267699   -1.354157    0.130919
   53          6             0       22.705665   -3.338522    0.131033
   54          6             0       23.888792   -2.669128   -0.106445
   55          6             0       25.141913   -3.335589   -0.316023
   56          6             0       26.054771   -2.371498   -0.564634
   57          6             0       25.360659   -1.118229   -0.481697
   58          7             0       24.036828   -1.315403   -0.211187
   59          6             0       25.990260    0.104402   -0.600788
   60          6             0       25.336194    1.305487   -0.413405
   61          6             0       26.005078    2.575026   -0.420055
   62          6             0       25.065693    3.507933   -0.152046
   63          6             0       23.822000    2.807268   -0.008049
   64          7             0       24.003488    1.462133   -0.161023
   65          6             0       22.614330    3.443276    0.194566
   66          6             0       21.405883    2.777522    0.223335
   67          7             0       21.228914    1.422637    0.131870
   68          1             0       20.024276    4.511232    0.391592
   69          1             0       18.124019    2.594252    0.280954
   70          1             0       18.202011   -2.607295    0.386405
   71          1             0       20.156378   -4.471645    0.453436
   72          1             0       22.730460   -4.414649    0.209383
   73          1             0       25.275964   -4.399519   -0.282566
   74          1             0       27.102195   -2.471647   -0.774168
   75          1             0       27.048897    0.121037   -0.809389
   76          1             0       27.054967    2.706076   -0.597788
   77          1             0       25.175579    4.571813   -0.067695
   78          1             0       22.609385    4.517973    0.293843
 --------------------------------------------------------------------
     1 basis functions        1 primitive gaussians
     1 alpha electrons        1 beta electrons

 Harmonic frequencies (cm**-1), IR intensities (km*mol⁻¹),
 Raman scattering activities (A**4/amu), Raman depolarization ratios,
 reduced masses (AMU), force constants (mDyne/A) and normal coordinates:
                      1                      2                      3
                        a                      a                      a 
 Frequencies --    -4.8716                 2.9626                 6.4254
 Red. masses --    11.2930                11.2317                11.5625
 Frc consts  --     0.0000                 0.0000                 0.0000
 IR Inten    --     0.0064                 0.8894                 0.1709
 Raman Activ --     0.0000                 0.0000                 0.0000
 Depolar     --     0.0000                 0.0000                 0.0000
 Atom AN      X      Y      Z        X      Y      Z        X      Y      Z
   1  28    -0.00   0.00   0.04     0.00   0.00  -0.00     0.00   0.04   0.00
   2   6    -0.00   0.00   0.26    -0.01  -0.00   0.20    -0.12  -0.07  -0.00
   3   6    -0.00   0.00   0.18    -0.01  -0.00   0.14    -0.09  -0.11  -0.00
   4   6    -0.00   0.00   0.11    -0.00  -0.00   0.07    -0.04  -0.08  -0.00
   5   6    -0.00   0.00   0.08     0.00  -0.00   0.00     0.00  -0.11   0.00
   6   6    -0.00   0.00   0.11     0.00  -0.00  -0.06     0.05  -0.08   0.00
   7   6    -0.00   0.00   0.19     0.01  -0.01  -0.13     0.09  -0.11   0.00
   8   6    -0.00   0.00   0.26     0.01  -0.01  -0.19     0.12  -0.07   0.01
   9   6    -0.00   0.00   0.21     0.01  -0.00  -0.15     0.10  -0.03   0.00
  10   7    -0.00   0.00   0.13     0.00  -0.00  -0.08     0.06  -0.04   0.00
  11   6    -0.00   0.00   0.19     0.01   0.00  -0.19     0.12   0.02   0.01
  12   6    -0.00   0.00   0.04     0.01   0.00  -0.16     0.10   0.06   0.00
  13   6    -0.00  -0.00  -0.07     0.01   0.01  -0.21     0.13   0.11   0.00
  14   6    -0.00  -0.00  -0.28     0.01   0.01  -0.15     0.09   0.14   0.00
  15   6    -0.00  -0.00  -0.26     0.00   0.01  -0.08     0.05   0.12  -0.00
  16   7    -0.00   0.00  -0.08     0.00   0.00  -0.09     0.06   0.07   0.00
  17   6     0.00  -0.00  -0.38     0.00   0.01  -0.01     0.00   0.14  -0.00
  18   6     0.01  -0.00  -0.27    -0.00   0.01   0.06    -0.04   0.12  -0.00
  19   6     0.01  -0.00  -0.29    -0.01   0.00   0.14    -0.09   0.14  -0.00
  20   6     0.01  -0.00  -0.09    -0.01   0.00   0.20    -0.12   0.11  -0.00
  21   6     0.00  -0.00   0.03    -0.01   0.00   0.16    -0.10   0.06  -0.00
  22   7     0.00  -0.00  -0.08    -0.00   0.00   0.08    -0.05   0.07  -0.00
  23   6    -0.00  -0.00   0.18    -0.01  -0.00   0.20    -0.12   0.02  -0.00
  24   6    -0.00   0.00   0.20    -0.01  -0.00   0.16    -0.10  -0.03  -0.00
  25   7    -0.00   0.00   0.12    -0.00  -0.00   0.09    -0.05  -0.04  -0.00
  26   1    -0.00   0.00   0.10    -0.00  -0.00   0.08    -0.05  -0.02  -0.00
  27   1    -0.00   0.00   0.06    -0.00  -0.00   0.04    -0.03  -0.04  -0.00
  28   1    -0.00   0.00   0.06     0.00  -0.00  -0.04     0.03  -0.04   0.00
  29   1    -0.00   0.00   0.10     0.00  -0.00  -0.07     0.05  -0.02   0.00
  30   1    -0.00   0.00   0.08     0.00  -0.00  -0.07     0.05   0.00   0.00
  31   1    -0.00  -0.00  -0.00     0.00   0.00  -0.08     0.05   0.03   0.00
  32   1    -0.00  -0.00  -0.12     0.00   0.00  -0.05     0.03   0.05  -0.00
  33   1     0.00  -0.00  -0.15     0.00   0.00  -0.00     0.00   0.05  -0.00
  34   1     0.00  -0.00  -0.12    -0.00   0.00   0.04    -0.03   0.05  -0.00
  35   1     0.00  -0.00  -0.01    -0.00   0.00   0.07    -0.05   0.03  -0.00
  36   1    -0.00  -0.00   0.08    -0.00  -0.00   0.07    -0.05   0.00  -0.00
  37   6    -0.00   0.00   0.05     0.00  -0.01   0.01     0.00  -0.15   0.00
  38   6     0.00   0.00   0.03     0.00  -0.01   0.01     0.00  -0.18   0.00
  39   6     0.00   0.00   0.01     0.00  -0.01   0.01     0.00  -0.20  -0.00
  40   6     0.00  -0.00   0.00     0.00  -0.01   0.01     0.00  -0.20  -0.00
  41   6     0.00  -0.00  -0.01     0.00  -0.01   0.01     0.00  -0.18  -0.00
  42   6     0.00  -0.00  -0.01     0.00  -0.01   0.01     0.00  -0.15  -0.00
  43  28     0.00  -0.00  -0.05    -0.00   0.00  -0.00    -0.00   0.04  -0.00
  44   6     0.00   0.00  -0.03     0.00  -0.02   0.20    -0.13  -0.07  -0.02
  45   6     0.00  -0.00  -0.02     0.00  -0.02   0.14    -0.09  -0.11  -0.02
  46   6     0.00  -0.00  -0.02     0.00  -0.01   0.07    -0.04  -0.08  -0.01
  47   6     0.00  -0.00  -0.02     0.00  -0.01   0.00    -0.00  -0.11  -0.00
  48   6     0.00  -0.00  -0.02    -0.00  -0.01  -0.06     0.04  -0.08   0.01
  49   6     0.00  -0.00  -0.02     0.00  -0.02  -0.13     0.09  -0.10   0.01
  50   6     0.00  -0.00  -0.02     0.00  -0.02  -0.19     0.12  -0.07   0.02
  51   6     0.00  -0.00  -0.02     0.00  -0.01  -0.15     0.10  -0.02   0.02
  52   7     0.00  -0.00  -0.02    -0.00  -0.01  -0.08     0.05  -0.03   0.01
  53   6    -0.00  -0.00  -0.02    -0.00  -0.01  -0.19     0.12   0.02   0.02
  54   6     0.00  -0.00  -0.02    -0.00   0.00  -0.16     0.10   0.06   0.02
  55   6     0.00  -0.00  -0.02    -0.00   0.02  -0.20     0.12   0.11   0.03
  56   6     0.00  -0.00  -0.02    -0.00   0.03  -0.15     0.09   0.14   0.02
  57   6     0.00  -0.00  -0.02    -0.00   0.03  -0.08     0.04   0.11   0.01
  58   7     0.00  -0.00  -0.02    -0.00   0.01  -0.09     0.05   0.07   0.01
  59   6     0.00  -0.00  -0.02    -0.00   0.03  -0.01    -0.00   0.14   0.00
  60   6     0.00  -0.00  -0.02    -0.00   0.02   0.06    -0.05   0.11  -0.01
  61   6     0.00  -0.00  -0.02    -0.00   0.02   0.14    -0.09   0.14  -0.02
  62   6     0.00  -0.00  -0.02     0.00   0.01   0.19    -0.13   0.11  -0.03
  63   6     0.00  -0.00  -0.03     0.00  -0.00   0.15    -0.10   0.06  -0.02
  64   7     0.00  -0.00  -0.02    -0.00   0.01   0.08    -0.06   0.07  -0.01
  65   6    -0.00   0.00  -0.03     0.00  -0.01   0.19    -0.13   0.02  -0.02
  66   6     0.00   0.00  -0.03     0.00  -0.01   0.16    -0.10  -0.03  -0.02
  67   7     0.00  -0.00  -0.03     0.00  -0.01   0.09    -0.06  -0.04  -0.01
  68   1     0.00   0.00  -0.01     0.00  -0.01   0.07    -0.05  -0.02  -0.01
  69   1     0.00  -0.00  -0.01     0.00  -0.00   0.04    -0.03  -0.04  -0.00
  70   1     0.00  -0.00  -0.01     0.00  -0.01  -0.04     0.03  -0.04   0.00
  71   1     0.00  -0.00  -0.01     0.00  -0.01  -0.07     0.05  -0.02   0.01
  72   1    -0.00  -0.00  -0.01    -0.00  -0.00  -0.07     0.05   0.01   0.01
  73   1     0.00  -0.00  -0.01    -0.00   0.00  -0.08     0.05   0.03   0.01
  74   1     0.00  -0.00  -0.00    -0.00   0.01  -0.05     0.03   0.05   0.01
  75   1     0.00  -0.00  -0.00    -0.00   0.01  -0.00    -0.00   0.05   0.00
  76   1     0.00  -0.00  -0.01    -0.00   0.01   0.04    -0.03   0.05  -0.01
  77   1     0.00   0.00  -0.01     0.00   0.00   0.07    -0.05   0.03  -0.01
  78   1    -0.00   0.00  -0.01     0.00  -0.01   0.07    -0.05   0.01  -0.01
                      4                      5                      6
                        a                      a                      a 
 Frequencies --     6.9868                16.8045                23.5733
 Red. masses --    11.6153                11.7192                12.1642
 Frc consts  --     0.0000                 0.0000                 0.0000
 IR Inten    --     0.8188                 0.8188                 0.0918
 Raman Activ --     0.0000                 0.0000                 0.0000
 Depolar     --     0.0000                 0.0000                 0.0000
 Atom AN      X      Y      Z        X      Y      Z        X      Y      Z
   1  28     0.02  -0.00  -0.07    -0.01   0.00   0.03    -0.00   0.09  -0.00
   2   6     0.01  -0.00  -0.04    -0.00   0.00   0.03     0.12   0.13  -0.01
   3   6     0.01  -0.00   0.01     0.00   0.00  -0.09     0.08   0.16  -0.01
   4   6     0.01  -0.00   0.02     0.00   0.00  -0.11     0.04   0.14  -0.00
   5   6     0.01  -0.00   0.05     0.00   0.00  -0.17    -0.00   0.16   0.01
   6   6     0.01  -0.00   0.03     0.00   0.00  -0.11    -0.04   0.14   0.01
   7   6     0.01  -0.00   0.02    -0.00   0.00  -0.09    -0.08   0.16   0.01
   8   6     0.01  -0.00  -0.02    -0.00   0.00   0.03    -0.12   0.13   0.00
   9   6     0.01  -0.00  -0.04    -0.00   0.00   0.07    -0.09   0.08  -0.00
  10   7     0.01  -0.00  -0.02    -0.00   0.00  -0.01    -0.05   0.10   0.00
  11   6     0.01  -0.00  -0.07    -0.00   0.00   0.15    -0.12   0.04  -0.01
  12   6     0.01  -0.00  -0.07    -0.00   0.00   0.11    -0.10  -0.00  -0.01
  13   6     0.01   0.00  -0.07    -0.00  -0.00   0.11    -0.12  -0.05  -0.02
  14   6     0.01   0.00  -0.04    -0.00  -0.00   0.02    -0.09  -0.08  -0.01
  15   6     0.01   0.00  -0.03    -0.00   0.00  -0.02    -0.04  -0.06  -0.00
  16   7     0.01   0.00  -0.05    -0.00   0.00   0.04    -0.05  -0.01  -0.00
  17   6     0.01   0.00  -0.02    -0.00   0.00  -0.07    -0.00  -0.08   0.01
  18   6     0.01   0.00  -0.03    -0.00   0.00  -0.02     0.04  -0.06   0.01
  19   6     0.01   0.00  -0.05    -0.00  -0.00   0.02     0.08  -0.08   0.02
  20   6     0.01   0.00  -0.08    -0.00  -0.00   0.12     0.12  -0.05   0.01
  21   6     0.01   0.00  -0.08    -0.00  -0.00   0.12     0.09  -0.00   0.00
  22   7     0.01   0.00  -0.05    -0.00  -0.00   0.04     0.05  -0.01   0.00
  23   6     0.01   0.00  -0.09    -0.01  -0.00   0.16     0.12   0.04  -0.00
  24   6     0.01  -0.00  -0.05    -0.00  -0.00   0.08     0.09   0.08  -0.01
  25   7     0.01  -0.00  -0.02    -0.00   0.00  -0.01     0.05   0.10  -0.00
  26   1     0.00  -0.00  -0.02    -0.00   0.00   0.03     0.04   0.04  -0.00
  27   1     0.00  -0.00   0.01     0.00   0.00  -0.05     0.03   0.06  -0.00
  28   1     0.00  -0.00   0.02    -0.00   0.00  -0.05    -0.03   0.06   0.00
  29   1     0.00  -0.00  -0.01    -0.00   0.00   0.02    -0.04   0.04   0.00
  30   1     0.00  -0.00  -0.03    -0.00   0.00   0.06    -0.05   0.01  -0.00
  31   1     0.00   0.00  -0.02    -0.00  -0.00   0.05    -0.05  -0.01  -0.01
  32   1     0.00   0.00  -0.01    -0.00  -0.00  -0.01    -0.03  -0.03  -0.00
  33   1     0.00   0.00  -0.00    -0.00   0.00  -0.03    -0.00  -0.03   0.00
  34   1     0.00   0.00  -0.01    -0.00  -0.00  -0.00     0.03  -0.03   0.01
  35   1     0.00   0.00  -0.03    -0.00  -0.00   0.05     0.04  -0.01   0.00
  36   1     0.00   0.00  -0.03    -0.00  -0.00   0.06     0.04   0.01  -0.00
  37   6     0.01  -0.00   0.09     0.00   0.00  -0.26    -0.00   0.18   0.01
  38   6     0.00  -0.00   0.12     0.01  -0.00  -0.30    -0.00   0.13   0.01
  39   6     0.00  -0.00   0.15     0.01  -0.00  -0.32    -0.00   0.06   0.01
  40   6     0.00  -0.00   0.17     0.01  -0.00  -0.30     0.00  -0.05   0.01
  41   6     0.00  -0.00   0.17     0.01  -0.00  -0.25     0.00  -0.12   0.00
  42   6     0.00   0.00   0.17     0.01  -0.00  -0.17     0.00  -0.18   0.00
  43  28    -0.02   0.00   0.01     0.01  -0.00   0.08     0.00  -0.09  -0.00
  44   6     0.02  -0.01   0.21     0.02  -0.01   0.17    -0.11  -0.13   0.07
  45   6     0.01  -0.00   0.21     0.01  -0.00   0.05    -0.08  -0.16   0.07
  46   6     0.01   0.00   0.15     0.01  -0.00  -0.01    -0.04  -0.14   0.03
  47   6     0.00   0.00   0.15     0.01  -0.00  -0.08     0.00  -0.16  -0.00
  48   6     0.01   0.00   0.14     0.01  -0.00  -0.02     0.04  -0.14  -0.03
  49   6     0.02   0.00   0.21     0.01   0.00   0.02     0.08  -0.16  -0.07
  50   6     0.02   0.01   0.21     0.02   0.01   0.14     0.11  -0.13  -0.07
  51   6     0.01   0.01   0.14     0.02   0.01   0.15     0.09  -0.08  -0.03
  52   7     0.01   0.00   0.11     0.01   0.01   0.06     0.05  -0.10  -0.02
  53   6     0.01   0.01   0.09     0.03   0.02   0.20     0.12  -0.04   0.01
  54   6    -0.01   0.01  -0.03     0.01   0.01   0.11     0.10   0.00   0.04
  55   6    -0.03   0.00  -0.13     0.00   0.01   0.07     0.13   0.05   0.08
  56   6    -0.06   0.00  -0.26    -0.03   0.00  -0.08     0.10   0.08   0.08
  57   6    -0.05   0.00  -0.22    -0.03   0.00  -0.10     0.05   0.05   0.04
  58   7    -0.03   0.00  -0.10    -0.01   0.01   0.02     0.06   0.01   0.02
  59   6    -0.07   0.00  -0.31    -0.05   0.00  -0.19     0.00   0.07   0.00
  60   6    -0.05  -0.00  -0.23    -0.03   0.00  -0.11    -0.05   0.05  -0.04
  61   6    -0.05  -0.00  -0.27    -0.03  -0.00  -0.11    -0.10   0.08  -0.08
  62   6    -0.02  -0.01  -0.15     0.00  -0.01   0.04    -0.13   0.05  -0.08
  63   6    -0.00  -0.01  -0.04     0.01  -0.01   0.10    -0.10   0.00  -0.04
  64   7    -0.02  -0.00  -0.10    -0.01  -0.01   0.01    -0.05   0.01  -0.02
  65   6     0.01  -0.01   0.08     0.02  -0.02   0.20    -0.12  -0.04  -0.01
  66   6     0.01  -0.01   0.13     0.02  -0.01   0.16    -0.09  -0.08   0.03
  67   7     0.01  -0.00   0.11     0.01  -0.01   0.07    -0.05  -0.10   0.01
  68   1     0.01  -0.00   0.07     0.01  -0.01   0.07    -0.04  -0.04   0.03
  69   1     0.00   0.00   0.07     0.00   0.00   0.00    -0.02  -0.06   0.03
  70   1     0.01   0.00   0.07     0.00  -0.00  -0.01     0.02  -0.06  -0.03
  71   1     0.01   0.00   0.07     0.01   0.01   0.06     0.04  -0.04  -0.03
  72   1     0.01   0.00   0.04     0.01   0.01   0.08     0.04  -0.01   0.00
  73   1    -0.01   0.00  -0.03     0.01   0.00   0.04     0.05   0.02   0.03
  74   1    -0.02  -0.00  -0.10    -0.01  -0.00  -0.04     0.03   0.03   0.03
  75   1    -0.03   0.00  -0.12    -0.02   0.00  -0.08    -0.00   0.03   0.00
  76   1    -0.02   0.00  -0.11    -0.01   0.00  -0.06    -0.03   0.03  -0.03
  77   1    -0.00  -0.00  -0.04     0.00  -0.01   0.03    -0.05   0.02  -0.03
  78   1     0.01  -0.00   0.03     0.01  -0.01   0.08    -0.04  -0.01  -0.00
                      7                      8                      9
                        a                      a                      a 
 Frequencies --    25.5121                27.3266                40.4359
 Red. masses --    10.9414                11.0287                11.3959
 Frc consts  --     0.0000                 0.0000                 0.0000
 IR Inten    --     0.0775                 1.8773                 0.6921
 Raman Activ --     0.0000                 0.0000                 0.0000
 Depolar     --     0.0000                 0.0000                 0.0000
 Atom AN      X      Y      Z        X      Y      Z        X      Y      Z
   1  28     0.00   0.01  -0.00    -0.00  -0.03   0.00    -0.00  -0.00   0.05
   2   6    -0.00   0.01   0.30    -0.03  -0.03   0.03    -0.00  -0.00   0.01
   3   6    -0.00   0.01   0.30    -0.03  -0.04   0.04    -0.01  -0.00   0.16
   4   6    -0.00   0.01   0.14    -0.01  -0.04   0.02    -0.01  -0.00   0.17
   5   6    -0.00   0.01  -0.00    -0.00  -0.04   0.01    -0.01  -0.00   0.23
   6   6    -0.00   0.01  -0.14     0.01  -0.04  -0.00    -0.00  -0.00   0.17
   7   6    -0.00   0.01  -0.31     0.02  -0.04  -0.02    -0.00  -0.00   0.16
   8   6    -0.00   0.00  -0.30     0.03  -0.04  -0.03     0.00  -0.00   0.01
   9   6    -0.00   0.00  -0.14     0.02  -0.02  -0.02     0.00  -0.00  -0.05
  10   7    -0.00   0.00  -0.08     0.01  -0.03  -0.00    -0.00  -0.00   0.06
  11   6    -0.01   0.00   0.00     0.03  -0.01  -0.01     0.00  -0.00  -0.17
  12   6    -0.01  -0.00   0.14     0.02  -0.00   0.00     0.00  -0.00  -0.13
  13   6    -0.01  -0.01   0.30     0.03   0.01   0.02     0.00  -0.00  -0.14
  14   6    -0.00  -0.01   0.29     0.02   0.02   0.02     0.00   0.00  -0.01
  15   6    -0.00  -0.01   0.14     0.01   0.01   0.01     0.00  -0.00   0.06
  16   7    -0.00  -0.00   0.08     0.01   0.00   0.00     0.00  -0.00  -0.02
  17   6     0.00  -0.01   0.00    -0.00   0.02   0.01    -0.00  -0.00   0.13
  18   6     0.01  -0.00  -0.14    -0.01   0.01  -0.01     0.00  -0.00   0.06
  19   6     0.02   0.00  -0.29    -0.02   0.02  -0.03     0.00   0.00  -0.01
  20   6     0.02   0.00  -0.29    -0.03   0.01  -0.03     0.00   0.00  -0.15
  21   6     0.01   0.00  -0.14    -0.03   0.00  -0.02     0.00   0.00  -0.13
  22   7     0.01   0.00  -0.08    -0.01   0.00  -0.01     0.00   0.00  -0.02
  23   6     0.01   0.00  -0.00    -0.03  -0.01  -0.01     0.00   0.00  -0.17
  24   6     0.00   0.01   0.14    -0.03  -0.02   0.01     0.00   0.00  -0.05
  25   7     0.00   0.01   0.07    -0.02  -0.03   0.01    -0.00   0.00   0.06
  26   1    -0.00   0.00   0.11    -0.01  -0.01   0.01    -0.00  -0.00  -0.01
  27   1    -0.00   0.00   0.11    -0.01  -0.02   0.01    -0.00  -0.00   0.07
  28   1    -0.00   0.00  -0.12     0.01  -0.02  -0.01    -0.00  -0.00   0.07
  29   1    -0.00   0.00  -0.11     0.01  -0.01  -0.01     0.00  -0.00  -0.01
  30   1    -0.00   0.00   0.00     0.01  -0.00  -0.00     0.00  -0.00  -0.08
  31   1    -0.00  -0.00   0.11     0.01   0.00   0.01     0.00   0.00  -0.07
  32   1    -0.00  -0.00   0.11     0.01   0.01   0.01     0.00   0.00   0.01
  33   1     0.00  -0.00   0.00    -0.00   0.01   0.00    -0.00  -0.00   0.05
  34   1     0.01  -0.00  -0.11    -0.01   0.01  -0.01     0.00   0.00   0.01
  35   1     0.01   0.00  -0.11    -0.01   0.00  -0.01     0.00   0.00  -0.07
  36   1     0.00   0.00   0.00    -0.01  -0.00  -0.00     0.00   0.00  -0.08
  37   6    -0.00   0.01  -0.00    -0.00  -0.05   0.02    -0.01  -0.00   0.24
  38   6    -0.00   0.01  -0.00    -0.00  -0.03   0.02    -0.01  -0.00   0.15
  39   6    -0.00   0.00  -0.00    -0.00  -0.00   0.02    -0.00  -0.00   0.03
  40   6    -0.00  -0.00  -0.00    -0.00   0.03   0.01    -0.00   0.00  -0.11
  41   6    -0.00  -0.01  -0.00    -0.00   0.05   0.00    -0.00   0.00  -0.21
  42   6    -0.00  -0.01   0.00    -0.00   0.07  -0.00    -0.00   0.00  -0.27
  43  28    -0.00  -0.01   0.00     0.00   0.02  -0.01     0.00   0.00  -0.04
  44   6    -0.01  -0.01  -0.02     0.06   0.02   0.28     0.01  -0.01   0.01
  45   6    -0.01  -0.01  -0.02     0.04   0.04   0.28     0.00   0.00  -0.15
  46   6    -0.00  -0.01  -0.01     0.02   0.04   0.13     0.00   0.00  -0.17
  47   6    -0.00  -0.01   0.00    -0.00   0.05  -0.01    -0.00   0.00  -0.24
  48   6     0.00  -0.01   0.01    -0.02   0.04  -0.14    -0.00   0.00  -0.16
  49   6     0.01  -0.01   0.02    -0.05   0.03  -0.30    -0.00   0.00  -0.14
  50   6     0.01  -0.01   0.02    -0.07   0.02  -0.30     0.00   0.02   0.03
  51   6     0.01  -0.00   0.01    -0.05   0.01  -0.14     0.01   0.02   0.08
  52   7     0.00  -0.01   0.01    -0.02   0.02  -0.08     0.00   0.01  -0.05
  53   6     0.01  -0.00  -0.00    -0.04   0.01  -0.01     0.02   0.02   0.20
  54   6     0.00   0.00  -0.01    -0.01  -0.00   0.13     0.02   0.02   0.14
  55   6     0.00   0.00  -0.02     0.01  -0.01   0.28     0.02   0.01   0.13
  56   6     0.00   0.01  -0.02     0.03  -0.03   0.29    -0.01   0.00  -0.02
  57   6    -0.00   0.00  -0.01     0.02  -0.02   0.14    -0.02   0.00  -0.08
  58   7     0.00   0.00  -0.01    -0.00  -0.01   0.08    -0.00   0.01   0.01
  59   6    -0.00   0.01  -0.00     0.01  -0.03   0.01    -0.04   0.00  -0.16
  60   6    -0.00   0.00   0.01    -0.00  -0.02  -0.12    -0.02   0.00  -0.07
  61   6    -0.00   0.00   0.02    -0.01  -0.01  -0.27    -0.01  -0.00  -0.00
  62   6    -0.01   0.00   0.02     0.00   0.00  -0.28     0.02  -0.02   0.15
  63   6    -0.01  -0.00   0.01     0.02   0.01  -0.13     0.01  -0.02   0.15
  64   7    -0.00   0.00   0.01     0.01  -0.00  -0.07    -0.00  -0.01   0.02
  65   6    -0.01  -0.00   0.00     0.04   0.01  -0.00     0.02  -0.03   0.20
  66   6    -0.01  -0.00  -0.01     0.04   0.02   0.13     0.01  -0.02   0.07
  67   7    -0.00  -0.01  -0.00     0.02   0.03   0.07     0.00  -0.01  -0.05
  68   1    -0.00  -0.00  -0.01     0.02   0.01   0.11     0.00  -0.01   0.02
  69   1    -0.00  -0.00  -0.01     0.01   0.01   0.11     0.00   0.00  -0.07
  70   1     0.00  -0.00   0.01    -0.02   0.01  -0.11    -0.00  -0.00  -0.06
  71   1     0.00  -0.00   0.01    -0.03   0.00  -0.11     0.00   0.01   0.03
  72   1     0.00  -0.00  -0.00    -0.02   0.00  -0.00     0.01   0.01   0.09
  73   1     0.00   0.00  -0.01     0.00  -0.00   0.11     0.01   0.01   0.07
  74   1    -0.00   0.00  -0.01     0.01  -0.01   0.11    -0.01  -0.00  -0.02
  75   1    -0.00   0.00  -0.00     0.00  -0.01   0.00    -0.02   0.00  -0.07
  76   1    -0.00   0.00   0.01    -0.01  -0.01  -0.10    -0.01   0.00  -0.02
  77   1    -0.00   0.00   0.01     0.00   0.00  -0.10     0.01  -0.01   0.07
  78   1    -0.00  -0.00   0.00     0.02   0.00  -0.00     0.01  -0.01   0.09
                     10                     11                     12
                        a                      a                      a 
 Frequencies --    71.9285                74.9269                91.4559
 Red. masses --    12.4972                19.4026                12.4530
 Frc consts  --     0.0000                 0.0000                 0.0000
 IR Inten    --     1.3297                 0.0179                 0.4159
 Raman Activ --     0.0000                 0.0000                 0.0000
 Depolar     --     0.0000                 0.0000                 0.0000
 Atom AN      X      Y      Z        X      Y      Z        X      Y      Z
   1  28    -0.00  -0.00  -0.11    -0.28  -0.00   0.01     0.01  -0.07   0.01
   2   6     0.00  -0.00  -0.07    -0.13   0.01   0.00    -0.04  -0.07  -0.00
   3   6     0.00  -0.00  -0.14    -0.11  -0.01   0.00    -0.03  -0.09  -0.00
   4   6     0.00  -0.00  -0.12    -0.08   0.01   0.01    -0.01  -0.08   0.00
   5   6     0.00  -0.00  -0.10    -0.04  -0.01   0.01    -0.00  -0.08   0.00
   6   6     0.00  -0.00  -0.12    -0.08  -0.02   0.00     0.01  -0.08   0.01
   7   6     0.00  -0.00  -0.14    -0.11  -0.00   0.00     0.04  -0.09   0.00
   8   6     0.00  -0.00  -0.07    -0.13  -0.02  -0.01     0.05  -0.07  -0.00
   9   6    -0.00  -0.00  -0.01    -0.11  -0.04  -0.00     0.04  -0.05   0.00
  10   7     0.00  -0.00  -0.07    -0.10  -0.04   0.00     0.02  -0.06   0.01
  11   6    -0.00   0.00   0.13    -0.12  -0.04  -0.01     0.06  -0.02  -0.00
  12   6    -0.00   0.00   0.13    -0.13  -0.02  -0.01     0.05  -0.01  -0.00
  13   6    -0.00   0.00   0.17    -0.12  -0.01  -0.01     0.06   0.02  -0.01
  14   6    -0.00   0.00   0.02    -0.14   0.01  -0.00     0.05   0.03  -0.00
  15   6    -0.00   0.00  -0.08    -0.15  -0.00   0.00     0.03   0.02   0.00
  16   7    -0.00   0.00  -0.01    -0.16  -0.02  -0.00     0.03  -0.00   0.00
  17   6    -0.00   0.00  -0.16    -0.16   0.00   0.01     0.01   0.03   0.00
  18   6    -0.00   0.00  -0.08    -0.15   0.01   0.00    -0.01   0.02  -0.00
  19   6    -0.01  -0.00   0.02    -0.14  -0.00  -0.01    -0.03   0.03  -0.01
  20   6    -0.01  -0.00   0.17    -0.13   0.01  -0.02    -0.05   0.02  -0.01
  21   6    -0.01  -0.00   0.12    -0.14   0.02  -0.01    -0.04  -0.01  -0.00
  22   7    -0.00  -0.00  -0.01    -0.16   0.02  -0.00    -0.02  -0.00   0.00
  23   6    -0.01  -0.00   0.13    -0.13   0.04  -0.01    -0.05  -0.03  -0.00
  24   6    -0.00  -0.00  -0.01    -0.12   0.03  -0.00    -0.03  -0.05   0.00
  25   7     0.00  -0.00  -0.07    -0.10   0.03   0.00    -0.01  -0.06   0.01
  26   1    -0.00  -0.00  -0.02    -0.05   0.00  -0.00    -0.02  -0.02  -0.00
  27   1     0.00  -0.00  -0.06    -0.03  -0.01   0.00    -0.01  -0.03  -0.00
  28   1     0.00  -0.00  -0.06    -0.03   0.01   0.00     0.01  -0.03   0.00
  29   1    -0.00  -0.00  -0.02    -0.04  -0.01  -0.00     0.02  -0.02  -0.00
  30   1    -0.00   0.00   0.06    -0.03  -0.01  -0.01     0.02  -0.01  -0.00
  31   1     0.00   0.00   0.08    -0.03  -0.00  -0.01     0.02   0.01  -0.00
  32   1    -0.00   0.00  -0.00    -0.04   0.01  -0.00     0.01   0.01  -0.00
  33   1    -0.00   0.00  -0.06    -0.05   0.00   0.00     0.00   0.01  -0.00
  34   1    -0.00   0.00  -0.00    -0.04  -0.00  -0.00    -0.01   0.02  -0.00
  35   1    -0.00  -0.00   0.08    -0.03   0.00  -0.01    -0.02   0.01  -0.00
  36   1    -0.00  -0.00   0.06    -0.03   0.01  -0.00    -0.02  -0.01  -0.00
  37   6    -0.00   0.00   0.03    -0.03  -0.00   0.00    -0.00  -0.01   0.00
  38   6    -0.00   0.01   0.24    -0.02   0.01   0.00    -0.00   0.36  -0.01
  39   6    -0.01   0.02   0.34    -0.00   0.02   0.00    -0.00   0.51  -0.01
  40   6    -0.01   0.02   0.34     0.00   0.02   0.01    -0.00   0.51  -0.01
  41   6    -0.00   0.01   0.23     0.02   0.01   0.02    -0.00   0.36  -0.01
  42   6    -0.00   0.00   0.01     0.03  -0.00   0.02     0.00  -0.01  -0.00
  43  28    -0.01  -0.00  -0.12     0.28   0.00  -0.05    -0.01  -0.07   0.03
  44   6     0.00  -0.01  -0.06     0.13  -0.02   0.03    -0.05  -0.07  -0.02
  45   6     0.00   0.00  -0.15     0.11  -0.00   0.04    -0.03  -0.09  -0.03
  46   6    -0.00  -0.00  -0.13     0.08  -0.02   0.01    -0.01  -0.08  -0.00
  47   6    -0.00  -0.00  -0.11     0.04  -0.00   0.02     0.00  -0.08   0.00
  48   6    -0.00  -0.00  -0.13     0.08   0.01   0.01     0.01  -0.08   0.01
  49   6    -0.00  -0.01  -0.14     0.12  -0.01   0.05     0.03  -0.09   0.01
  50   6     0.00   0.00  -0.06     0.14   0.02   0.04     0.05  -0.07   0.01
  51   6     0.01   0.01   0.00     0.12   0.04   0.01     0.04  -0.05   0.00
  52   7    -0.00   0.00  -0.07     0.10   0.03  -0.01     0.01  -0.06   0.01
  53   6     0.02   0.02   0.14     0.13   0.04   0.00     0.05  -0.03  -0.01
  54   6     0.02   0.02   0.13     0.13   0.02  -0.01     0.04  -0.01  -0.01
  55   6     0.03   0.02   0.18     0.13   0.01  -0.00     0.05   0.02  -0.02
  56   6     0.00   0.01   0.02     0.14  -0.00  -0.00     0.03   0.03  -0.01
  57   6    -0.01   0.00  -0.08     0.15   0.01  -0.02     0.01   0.02   0.00
  58   7    -0.00   0.01  -0.01     0.16   0.02  -0.03     0.02  -0.00   0.00
  59   6    -0.03   0.01  -0.16     0.16   0.00  -0.01    -0.01   0.03   0.00
  60   6    -0.02   0.00  -0.08     0.15  -0.00  -0.01    -0.03   0.02   0.00
  61   6    -0.00  -0.01   0.02     0.14   0.01   0.00    -0.05   0.03  -0.01
  62   6     0.02  -0.03   0.18     0.13  -0.01   0.00    -0.06   0.02  -0.01
  63   6     0.02  -0.02   0.13     0.13  -0.02  -0.01    -0.05  -0.00   0.00
  64   7    -0.00  -0.01  -0.01     0.16  -0.02  -0.02    -0.03  -0.00   0.01
  65   6     0.02  -0.03   0.14     0.12  -0.04  -0.00    -0.06  -0.02   0.00
  66   6     0.00  -0.01  -0.00     0.12  -0.04   0.00    -0.04  -0.05  -0.00
  67   7    -0.00  -0.01  -0.07     0.10  -0.04  -0.01    -0.02  -0.06   0.01
  68   1     0.00  -0.00  -0.01     0.04  -0.01   0.01    -0.02  -0.02  -0.01
  69   1    -0.00   0.00  -0.06     0.03   0.01   0.02    -0.01  -0.03  -0.01
  70   1    -0.00  -0.00  -0.06     0.03  -0.01   0.02     0.01  -0.03   0.00
  71   1     0.00   0.00  -0.01     0.05   0.00   0.02     0.02  -0.02   0.00
  72   1     0.01   0.01   0.07     0.03   0.01   0.00     0.02  -0.01  -0.01
  73   1     0.02   0.01   0.09     0.04   0.00   0.00     0.02   0.01  -0.01
  74   1    -0.00   0.00  -0.00     0.04  -0.00   0.00     0.01   0.02  -0.00
  75   1    -0.01   0.00  -0.07     0.05   0.00  -0.00    -0.00   0.01  -0.00
  76   1    -0.00   0.00  -0.00     0.04   0.01   0.00    -0.02   0.01  -0.00
  77   1     0.01  -0.01   0.09     0.03  -0.00   0.00    -0.02   0.01  -0.00
  78   1     0.01  -0.01   0.07     0.03  -0.01   0.00    -0.02  -0.01  -0.00
                     13                     14                     15
                        a                      a                      a 
 Frequencies --    99.7393                99.8675               109.7599
 Red. masses --    29.4400                28.4515                11.2813
 Frc consts  --     0.0000                 0.0000                 0.0000
 IR Inten    --     0.6949                 4.6182                 1.5052
 Raman Activ --     0.0000                 0.0000                 0.0000
 Depolar     --     0.0000                 0.0000                 0.0000
 Atom AN      X      Y      Z        X      Y      Z        X      Y      Z
   1  28     0.01  -0.00   0.55    -0.03   0.00   0.29     0.00  -0.00   0.05
   2   6     0.02  -0.00  -0.22    -0.00   0.00  -0.14    -0.01  -0.00   0.18
   3   6     0.02  -0.00  -0.20    -0.00   0.00  -0.13    -0.00  -0.00   0.07
   4   6     0.01  -0.00   0.01    -0.00   0.00   0.01     0.00  -0.00  -0.05
   5   6    -0.00  -0.00   0.02     0.00   0.00   0.02     0.00  -0.00  -0.16
   6   6     0.00  -0.00   0.01    -0.00   0.00   0.01     0.00  -0.00  -0.05
   7   6     0.01  -0.01  -0.20    -0.01   0.00  -0.13    -0.00   0.00   0.07
   8   6     0.01  -0.00  -0.22    -0.01  -0.00  -0.14    -0.00   0.00   0.18
   9   6     0.01   0.00  -0.00    -0.01  -0.01  -0.01    -0.00   0.00   0.08
  10   7     0.00   0.00   0.14    -0.01  -0.01   0.07     0.00   0.00  -0.00
  11   6     0.01   0.00  -0.00    -0.01  -0.01   0.01    -0.00  -0.00  -0.03
  12   6     0.01   0.00   0.03    -0.02  -0.00   0.03    -0.00  -0.00  -0.11
  13   6     0.01   0.00  -0.16    -0.02  -0.00  -0.07    -0.00  -0.00  -0.20
  14   6     0.01   0.00  -0.19    -0.02   0.00  -0.10    -0.00  -0.00  -0.03
  15   6     0.01   0.00  -0.01    -0.02  -0.00  -0.02     0.00  -0.00   0.11
  16   7     0.01   0.00   0.14    -0.02  -0.00   0.07     0.00  -0.00   0.04
  17   6     0.01   0.00  -0.05    -0.02   0.00  -0.05    -0.00  -0.00   0.21
  18   6     0.01   0.00  -0.01    -0.02   0.00  -0.02     0.00  -0.00   0.11
  19   6     0.02   0.01  -0.19    -0.01   0.00  -0.10     0.00   0.00  -0.03
  20   6     0.01   0.01  -0.16    -0.01   0.00  -0.07     0.01   0.01  -0.20
  21   6     0.01   0.00   0.03    -0.01   0.01   0.03     0.00   0.00  -0.11
  22   7     0.01  -0.00   0.14    -0.02   0.00   0.07     0.00   0.00   0.04
  23   6     0.01  -0.00  -0.00    -0.01   0.01   0.01     0.00   0.00  -0.03
  24   6     0.01  -0.01  -0.00    -0.01   0.01  -0.01    -0.00  -0.00   0.08
  25   7     0.00  -0.01   0.14    -0.01   0.01   0.07    -0.00  -0.00  -0.00
  26   1     0.01  -0.00  -0.11    -0.00   0.00  -0.07    -0.00  -0.00   0.08
  27   1     0.01  -0.00  -0.10     0.00  -0.00  -0.06    -0.00  -0.00   0.03
  28   1     0.00  -0.00  -0.10    -0.00   0.00  -0.06    -0.00   0.00   0.03
  29   1     0.00  -0.00  -0.11    -0.01  -0.00  -0.07    -0.00   0.00   0.08
  30   1     0.00   0.00  -0.03    -0.00  -0.00  -0.01    -0.00  -0.00  -0.02
  31   1     0.00   0.00  -0.08    -0.00  -0.00  -0.03    -0.00  -0.00  -0.10
  32   1     0.00   0.00  -0.10    -0.01   0.00  -0.05    -0.00  -0.00  -0.01
  33   1     0.00   0.00  -0.05    -0.01  -0.00  -0.04    -0.00  -0.00   0.09
  34   1     0.01   0.00  -0.10    -0.00  -0.00  -0.05     0.00   0.00  -0.01
  35   1     0.00   0.00  -0.08    -0.00   0.00  -0.03     0.00   0.00  -0.10
  36   1     0.00  -0.00  -0.03    -0.00   0.00  -0.01     0.00   0.00  -0.02
  37   6    -0.00   0.00  -0.03     0.01   0.00   0.01     0.01  -0.00  -0.27
  38   6    -0.00   0.00  -0.02     0.01  -0.02   0.03     0.01  -0.00  -0.26
  39   6    -0.00   0.00  -0.01     0.01  -0.02   0.03     0.00  -0.00  -0.13
  40   6    -0.01   0.00   0.02     0.01  -0.02   0.02     0.00   0.00   0.13
  41   6    -0.01   0.00   0.03     0.01  -0.02   0.01     0.00   0.01   0.27
  42   6    -0.01  -0.00   0.03     0.01   0.00  -0.01     0.00   0.00   0.26
  43  28    -0.05   0.00  -0.30     0.08  -0.00   0.53    -0.02   0.00  -0.04
  44   6    -0.00  -0.01   0.11     0.01   0.02  -0.23    -0.00   0.02  -0.18
  45   6    -0.01  -0.01   0.11     0.01   0.01  -0.21    -0.00   0.01  -0.08
  46   6    -0.01   0.00  -0.01     0.02   0.00   0.01    -0.00   0.00   0.05
  47   6    -0.01   0.00  -0.00     0.02   0.00   0.02     0.00   0.00   0.15
  48   6    -0.01   0.00  -0.01     0.01   0.00   0.01    -0.00  -0.00   0.05
  49   6    -0.00   0.01   0.11    -0.00  -0.01  -0.21    -0.00  -0.01  -0.08
  50   6     0.00   0.01   0.11    -0.01  -0.02  -0.22    -0.01  -0.02  -0.18
  51   6    -0.01   0.01  -0.00     0.01  -0.01  -0.01    -0.00  -0.01  -0.08
  52   7    -0.01  -0.00  -0.08     0.02   0.00   0.13    -0.00  -0.00   0.01
  53   6    -0.01   0.01   0.00     0.01  -0.01   0.00     0.01   0.01   0.03
  54   6    -0.01   0.00  -0.01     0.01  -0.00   0.04     0.02   0.01   0.11
  55   6     0.01   0.01   0.10    -0.02  -0.01  -0.14     0.04   0.02   0.19
  56   6     0.02   0.00   0.11    -0.04  -0.00  -0.18     0.01   0.01   0.03
  57   6    -0.00  -0.00   0.00    -0.01   0.00  -0.02    -0.02   0.01  -0.10
  58   7    -0.02  -0.00  -0.08     0.02   0.00   0.13    -0.01   0.01  -0.03
  59   6     0.00  -0.00   0.02    -0.02   0.00  -0.07    -0.04   0.01  -0.21
  60   6    -0.00  -0.00   0.00    -0.00   0.00  -0.02    -0.02  -0.00  -0.11
  61   6     0.01  -0.01   0.11    -0.02   0.01  -0.18     0.00  -0.01   0.03
  62   6     0.01  -0.01   0.10    -0.01   0.02  -0.14     0.03  -0.03   0.19
  63   6    -0.01  -0.01  -0.01     0.02   0.01   0.04     0.02  -0.02   0.11
  64   7    -0.02  -0.00  -0.08     0.03   0.00   0.13    -0.01  -0.01  -0.03
  65   6    -0.01  -0.01   0.00     0.02   0.01   0.00     0.01  -0.01   0.03
  66   6    -0.01  -0.00  -0.00     0.02   0.01  -0.01    -0.00   0.01  -0.08
  67   7    -0.02   0.00  -0.08     0.03   0.00   0.13    -0.00   0.00   0.01
  68   1     0.00  -0.00   0.06    -0.00   0.01  -0.11    -0.00   0.01  -0.09
  69   1    -0.00  -0.00   0.05     0.00   0.01  -0.10    -0.00   0.01  -0.03
  70   1     0.00   0.00   0.05    -0.00  -0.01  -0.10    -0.00  -0.01  -0.03
  71   1     0.00   0.01   0.05    -0.01  -0.01  -0.11    -0.00  -0.01  -0.09
  72   1     0.00   0.00   0.02    -0.00  -0.01  -0.03     0.01   0.00   0.02
  73   1     0.01   0.00   0.05    -0.01  -0.00  -0.07     0.02   0.01   0.10
  74   1     0.01   0.00   0.05    -0.02  -0.00  -0.09     0.00   0.00   0.01
  75   1     0.00  -0.00   0.02    -0.01   0.00  -0.06    -0.02   0.00  -0.08
  76   1     0.01  -0.00   0.05    -0.01   0.00  -0.09    -0.00  -0.00   0.00
  77   1     0.00  -0.01   0.05    -0.00   0.01  -0.07     0.02  -0.01   0.10
  78   1    -0.00  -0.00   0.02     0.00   0.01  -0.03     0.01  -0.00   0.02
                     16                     17                     18
                        a                      a                      a 
 Frequencies --   120.1694               120.4289               134.2744
 Red. masses --    10.5090                10.5532                11.2176
 Frc consts  --     0.0000                 0.0000                 0.0000
 IR Inten    --     0.1826                 7.8308                 1.5256
 Raman Activ --     0.0000                 0.0000                 0.0000
 Depolar     --     0.0000                 0.0000                 0.0000
 Atom AN      X      Y      Z        X      Y      Z        X      Y      Z
   1  28    -0.00  -0.00   0.00    -0.00   0.00   0.00    -0.00   0.00  -0.04
   2   6     0.00  -0.00  -0.05     0.00   0.00  -0.01     0.01   0.00  -0.17
   3   6     0.01  -0.00  -0.30     0.00   0.00  -0.06    -0.00   0.00   0.03
   4   6     0.01  -0.00  -0.14     0.00   0.00  -0.03    -0.00   0.00   0.16
   5   6     0.00   0.00   0.00     0.00   0.00   0.00    -0.00   0.00   0.24
   6   6    -0.00   0.00   0.15    -0.00   0.00   0.03    -0.00   0.00   0.16
   7   6    -0.01   0.01   0.30    -0.00   0.00   0.06    -0.00  -0.00   0.03
   8   6    -0.00   0.00   0.05    -0.00   0.00   0.01     0.00  -0.01  -0.17
   9   6     0.00  -0.00  -0.18    -0.00   0.00  -0.04     0.00  -0.00  -0.10
  10   7    -0.00  -0.00  -0.07    -0.00   0.00  -0.02    -0.00  -0.00   0.06
  11   6     0.00  -0.00  -0.34    -0.00  -0.00  -0.07     0.00  -0.00  -0.05
  12   6     0.00  -0.00  -0.16    -0.00  -0.00  -0.03     0.00  -0.00   0.06
  13   6     0.00  -0.00   0.05    -0.00  -0.00   0.01     0.00   0.00   0.19
  14   6     0.00  -0.00   0.30    -0.00  -0.00   0.06     0.00   0.00   0.06
  15   6     0.00  -0.00   0.15    -0.00  -0.00   0.03    -0.00   0.00  -0.10
  16   7     0.00  -0.00  -0.05    -0.00  -0.00  -0.01    -0.00   0.00  -0.07
  17   6     0.00   0.00  -0.00    -0.00  -0.00  -0.00    -0.00   0.00  -0.20
  18   6     0.00   0.00  -0.15     0.00   0.00  -0.03    -0.00   0.00  -0.10
  19   6     0.00   0.01  -0.30     0.00   0.00  -0.06    -0.00  -0.00   0.06
  20   6    -0.00   0.00  -0.05     0.00   0.00  -0.01    -0.01  -0.01   0.19
  21   6    -0.01  -0.00   0.16    -0.00  -0.00   0.03    -0.00  -0.00   0.06
  22   7    -0.00   0.00   0.05    -0.00   0.00   0.01    -0.00   0.00  -0.07
  23   6    -0.01  -0.00   0.34    -0.00   0.00   0.07     0.00   0.00  -0.05
  24   6    -0.00  -0.00   0.18    -0.00   0.00   0.04     0.00   0.00  -0.10
  25   7    -0.00  -0.00   0.07    -0.00   0.00   0.02    -0.00   0.00   0.06
  26   1     0.00  -0.00  -0.01     0.00   0.00  -0.00     0.00   0.00  -0.09
  27   1     0.01  -0.00  -0.16     0.00   0.00  -0.03    -0.00  -0.00   0.02
  28   1    -0.00   0.00   0.16    -0.00   0.00   0.03    -0.00  -0.00   0.02
  29   1    -0.00   0.00   0.01    -0.00   0.00   0.00     0.00  -0.00  -0.09
  30   1     0.00  -0.00  -0.14    -0.00  -0.00  -0.03     0.00  -0.00  -0.02
  31   1     0.00  -0.00   0.01    -0.00  -0.00   0.00     0.00  -0.00   0.10
  32   1     0.00  -0.00   0.15    -0.00  -0.00   0.03     0.00   0.00   0.03
  33   1     0.00   0.00  -0.00    -0.00  -0.00  -0.00    -0.00   0.00  -0.08
  34   1     0.00   0.00  -0.15     0.00   0.00  -0.03    -0.00  -0.00   0.03
  35   1    -0.00   0.00  -0.01     0.00  -0.00  -0.00    -0.00  -0.00   0.10
  36   1    -0.00  -0.00   0.14    -0.00   0.00   0.03     0.00   0.00  -0.02
  37   6     0.00   0.00   0.00     0.00  -0.00   0.00    -0.00   0.00   0.18
  38   6     0.00   0.00   0.00     0.00  -0.02   0.00     0.00   0.00  -0.08
  39   6     0.00   0.00   0.00     0.00  -0.02   0.00     0.00  -0.00  -0.21
  40   6     0.00  -0.00   0.00     0.00  -0.01  -0.00     0.00  -0.00  -0.21
  41   6     0.00  -0.00  -0.00     0.00   0.00  -0.00     0.00  -0.00  -0.08
  42   6     0.00  -0.00  -0.00     0.00   0.02  -0.00     0.00   0.00   0.18
  43  28    -0.00   0.01  -0.00     0.00  -0.03  -0.00    -0.03   0.00  -0.04
  44   6    -0.00  -0.00   0.01     0.02   0.00  -0.05    -0.00   0.03  -0.17
  45   6    -0.00  -0.00   0.06     0.01   0.03  -0.30     0.00   0.01   0.03
  46   6    -0.00  -0.00   0.03     0.01   0.01  -0.14     0.00   0.00   0.16
  47   6     0.00  -0.00  -0.00     0.00   0.02  -0.00     0.00   0.00   0.24
  48   6     0.00  -0.00  -0.03    -0.00   0.02   0.14     0.00  -0.00   0.16
  49   6    -0.00  -0.01  -0.06    -0.00   0.03   0.30     0.00  -0.02   0.03
  50   6     0.00  -0.00  -0.01    -0.01   0.01   0.05    -0.01  -0.03  -0.17
  51   6     0.00   0.00   0.03    -0.03  -0.02  -0.17    -0.01  -0.02  -0.10
  52   7     0.00   0.00   0.01    -0.02  -0.01  -0.07    -0.00  -0.01   0.07
  53   6     0.01   0.01   0.07    -0.04  -0.03  -0.33     0.01  -0.00  -0.05
  54   6     0.00   0.00   0.03    -0.02  -0.02  -0.16     0.02   0.01   0.05
  55   6    -0.01  -0.00  -0.01     0.03   0.00   0.05     0.05   0.02   0.19
  56   6    -0.02  -0.00  -0.06     0.08   0.02   0.29     0.02   0.01   0.06
  57   6    -0.01  -0.00  -0.03     0.04   0.01   0.15    -0.02   0.00  -0.10
  58   7    -0.00   0.00   0.01     0.00  -0.01  -0.06    -0.01   0.00  -0.07
  59   6    -0.00  -0.00   0.00    -0.00   0.02   0.00    -0.04   0.00  -0.20
  60   6     0.01  -0.00   0.03    -0.04   0.02  -0.14    -0.02  -0.00  -0.10
  61   6     0.01  -0.01   0.06    -0.07   0.03  -0.29     0.02  -0.02   0.06
  62   6     0.01  -0.00   0.01    -0.03   0.01  -0.05     0.04  -0.03   0.19
  63   6    -0.00   0.00  -0.03     0.01  -0.02   0.16     0.01  -0.01   0.06
  64   7     0.00   0.00  -0.01    -0.00  -0.01   0.06    -0.01  -0.00  -0.07
  65   6    -0.01   0.01  -0.07     0.03  -0.03   0.33     0.01   0.01  -0.05
  66   6    -0.00   0.00  -0.03     0.02  -0.02   0.17    -0.00   0.02  -0.10
  67   7    -0.00   0.00  -0.01     0.01  -0.01   0.07    -0.00   0.01   0.07
  68   1    -0.00  -0.00   0.00     0.01   0.00  -0.01    -0.00   0.01  -0.09
  69   1    -0.00  -0.00   0.03     0.00   0.01  -0.15     0.00   0.00   0.02
  70   1    -0.00  -0.00  -0.03     0.00   0.02   0.16     0.00  -0.00   0.02
  71   1     0.00  -0.00  -0.00    -0.01   0.00   0.02    -0.00  -0.01  -0.09
  72   1     0.00   0.00   0.03    -0.02  -0.01  -0.13     0.00  -0.00  -0.02
  73   1    -0.00  -0.00  -0.00     0.01   0.00   0.01     0.02   0.01   0.10
  74   1    -0.01  -0.00  -0.03     0.04   0.01   0.15     0.01   0.01   0.03
  75   1    -0.00  -0.00   0.00    -0.00   0.01   0.00    -0.01   0.00  -0.07
  76   1     0.01  -0.00   0.03    -0.03   0.02  -0.15     0.01  -0.01   0.03
  77   1     0.00  -0.00   0.00    -0.01   0.00  -0.01     0.02  -0.01   0.10
  78   1    -0.00   0.00  -0.03     0.01  -0.01   0.13     0.00   0.00  -0.02
                     19                     20                     21
                        a                      a                      a 
 Frequencies --   174.0892               175.8771               176.2380
 Red. masses --    12.1153                12.2417                12.2335
 Frc consts  --     0.0000                 0.0000                 0.0000
 IR Inten    --     1.4273                 0.1577                 0.2155
 Raman Activ --     0.0000                 0.0000                 0.0000
 Depolar     --     0.0000                 0.0000                 0.0000
 Atom AN      X      Y      Z        X      Y      Z        X      Y      Z
   1  28     0.04   0.01   0.05     0.02  -0.02  -0.03    -0.04  -0.00   0.03
   2   6     0.02  -0.02  -0.06     0.14  -0.16   0.02     0.03  -0.02  -0.05
   3   6    -0.03   0.02   0.06     0.12  -0.14  -0.01     0.07  -0.06   0.06
   4   6    -0.09  -0.01   0.11     0.08  -0.15  -0.02     0.12  -0.03   0.11
   5   6    -0.12   0.01   0.09    -0.06  -0.08  -0.02     0.11  -0.03   0.08
   6   6    -0.07   0.04   0.11    -0.16  -0.13  -0.03     0.03  -0.07   0.11
   7   6    -0.01   0.01   0.06    -0.14  -0.14  -0.01    -0.03  -0.05   0.06
   8   6     0.04   0.05  -0.06    -0.12  -0.12   0.01    -0.07  -0.09  -0.06
   9   6     0.01   0.10  -0.04    -0.13  -0.08   0.01    -0.04  -0.13  -0.04
  10   7    -0.06   0.10   0.08    -0.17  -0.11  -0.02     0.01  -0.13   0.08
  11   6     0.02   0.11  -0.08    -0.06   0.05   0.02    -0.04  -0.11  -0.07
  12   6     0.04   0.07  -0.01    -0.11   0.16   0.00    -0.08  -0.03  -0.01
  13   6     0.02   0.01   0.08    -0.12   0.15  -0.02    -0.05   0.03   0.08
  14   6     0.06  -0.02   0.05    -0.11   0.13  -0.01    -0.09   0.06   0.05
  15   6     0.11   0.00  -0.05    -0.07   0.14   0.01    -0.14   0.04  -0.05
  16   7     0.10   0.06  -0.06    -0.09   0.18   0.01    -0.14  -0.01  -0.06
  17   6     0.12  -0.01  -0.10     0.06   0.08   0.03    -0.12   0.03  -0.09
  18   6     0.08  -0.03  -0.05     0.17   0.13   0.02    -0.04   0.07  -0.05
  19   6     0.03  -0.01   0.05     0.15   0.14  -0.01     0.01   0.04   0.05
  20   6    -0.00  -0.04   0.08     0.13   0.12  -0.02     0.04   0.08   0.08
  21   6     0.02  -0.09  -0.01     0.14   0.08   0.01     0.02   0.12  -0.01
  22   7     0.08  -0.08  -0.06     0.18   0.11   0.02    -0.03   0.12  -0.06
  23   6     0.01  -0.11  -0.08     0.07  -0.06   0.02     0.02   0.11  -0.07
  24   6    -0.01  -0.07  -0.04     0.13  -0.17   0.02     0.06   0.04  -0.04
  25   7    -0.08  -0.06   0.08     0.11  -0.19  -0.01     0.12   0.02   0.08
  26   1     0.02  -0.00  -0.04     0.05  -0.05   0.01    -0.00  -0.01  -0.04
  27   1    -0.01   0.02   0.03     0.04  -0.03  -0.01     0.02  -0.03   0.03
  28   1    -0.00  -0.01   0.03    -0.04  -0.05  -0.01    -0.01  -0.00   0.03
  29   1     0.02   0.01  -0.04    -0.03  -0.04   0.01    -0.03  -0.02  -0.04
  30   1     0.00   0.03  -0.04     0.02   0.02   0.01     0.01  -0.03  -0.04
  31   1    -0.01   0.00   0.05    -0.04   0.04  -0.01    -0.00   0.01   0.05
  32   1     0.02  -0.02   0.03    -0.03   0.03  -0.01    -0.03   0.03   0.03
  33   1     0.04   0.00  -0.03     0.02  -0.01   0.01    -0.03  -0.01  -0.03
  34   1     0.01   0.01   0.03     0.04   0.05  -0.01     0.00  -0.00   0.03
  35   1    -0.01  -0.01   0.05     0.03   0.04  -0.01     0.02   0.02   0.05
  36   1     0.01  -0.03  -0.04    -0.02  -0.02   0.01    -0.01   0.03  -0.04
  37   6    -0.13  -0.01  -0.09    -0.06   0.06   0.02     0.12   0.02  -0.09
  38   6    -0.13  -0.03  -0.28    -0.07   0.10   0.06     0.13   0.03  -0.26
  39   6    -0.13  -0.03  -0.19    -0.07   0.08   0.04     0.13   0.02  -0.17
  40   6    -0.13   0.02   0.18    -0.06  -0.09  -0.05     0.13  -0.03   0.18
  41   6    -0.13   0.03   0.28    -0.06  -0.12  -0.07     0.12  -0.03   0.26
  42   6    -0.13   0.01   0.11    -0.06  -0.03  -0.02     0.12  -0.01   0.08
  43  28     0.05  -0.01  -0.01     0.02   0.02   0.04    -0.03   0.00  -0.07
  44   6     0.04  -0.06   0.05    -0.02   0.03  -0.02    -0.04   0.04   0.07
  45   6    -0.01  -0.01  -0.06    -0.04   0.05   0.02    -0.00   0.01  -0.05
  46   6    -0.07  -0.04  -0.10    -0.07   0.03   0.04     0.05   0.04  -0.12
  47   6    -0.12  -0.01  -0.07    -0.06   0.03   0.03     0.11   0.01  -0.09
  48   6    -0.09   0.01  -0.10    -0.00   0.06   0.03     0.09   0.00  -0.12
  49   6    -0.03  -0.02  -0.06     0.03   0.04   0.01     0.03   0.04  -0.05
  50   6     0.01   0.03   0.05     0.04   0.06  -0.02    -0.00   0.00   0.06
  51   6    -0.01   0.08   0.04     0.03   0.08  -0.01     0.02  -0.05   0.03
  52   7    -0.08   0.07  -0.07     0.01   0.09   0.02     0.08  -0.05  -0.09
  53   6     0.01   0.12   0.08     0.02   0.06  -0.02     0.00  -0.10   0.07
  54   6     0.02   0.08   0.01     0.05   0.00  -0.01    -0.02  -0.09   0.01
  55   6    -0.03   0.03  -0.09     0.04  -0.02   0.01    -0.01  -0.05  -0.07
  56   6     0.02  -0.01  -0.07     0.06  -0.04   0.00    -0.04  -0.02  -0.04
  57   6     0.09   0.03   0.04     0.08  -0.03  -0.02    -0.07  -0.04   0.06
  58   7     0.09   0.08   0.06     0.08  -0.00  -0.02    -0.06  -0.08   0.06
  59   6     0.13   0.01   0.08     0.05  -0.02  -0.03    -0.10  -0.01   0.10
  60   6     0.11   0.00   0.04     0.01  -0.05  -0.02    -0.10  -0.01   0.06
  61   6     0.04   0.04  -0.07    -0.01  -0.04   0.00    -0.07  -0.02  -0.03
  62   6    -0.01   0.00  -0.09    -0.02  -0.06   0.02    -0.04   0.02  -0.06
  63   6     0.04  -0.06   0.01    -0.01  -0.07   0.00    -0.05   0.06   0.02
  64   7     0.11  -0.06   0.06     0.01  -0.07  -0.01    -0.10   0.04   0.07
  65   6     0.02  -0.12   0.08    -0.01  -0.05  -0.01    -0.02   0.10   0.07
  66   6     0.01  -0.11   0.04    -0.04   0.00  -0.01    -0.01   0.09   0.04
  67   7    -0.05  -0.10  -0.07    -0.07   0.01   0.03     0.04   0.09  -0.09
  68   1     0.02  -0.02   0.03     0.00   0.01  -0.01    -0.02   0.01   0.04
  69   1    -0.00   0.01  -0.03    -0.01   0.02   0.01    -0.00  -0.01  -0.02
  70   1    -0.01  -0.02  -0.03     0.01   0.01   0.00     0.01   0.02  -0.02
  71   1     0.02   0.01   0.03     0.02   0.02  -0.01    -0.01   0.00   0.04
  72   1     0.00   0.04   0.04    -0.01   0.02  -0.01    -0.00  -0.03   0.03
  73   1    -0.03   0.01  -0.05     0.00  -0.01   0.01     0.00  -0.01  -0.04
  74   1    -0.00  -0.02  -0.04     0.02  -0.02   0.00    -0.01   0.01  -0.02
  75   1     0.04  -0.00   0.02     0.02   0.00  -0.01    -0.03   0.00   0.03
  76   1     0.01   0.03  -0.04    -0.00  -0.01   0.00    -0.02  -0.01  -0.02
  77   1    -0.02   0.00  -0.05    -0.01  -0.02   0.01    -0.01   0.01  -0.04
  78   1     0.00  -0.04   0.04     0.01  -0.01  -0.01     0.00   0.03   0.04
                     22                     23                     24
                        a                      a                      a 
 Frequencies --   177.1729               185.6584               226.3226
 Red. masses --    12.1466                12.4630                12.0594
 Frc consts  --     0.0000                 0.0000                 0.0000
 IR Inten    --     0.5408                 0.0158                 5.1293
 Raman Activ --     0.0000                 0.0000                 0.0000
 Depolar     --     0.0000                 0.0000                 0.0000
 Atom AN      X      Y      Z        X      Y      Z        X      Y      Z
   1  28    -0.00   0.01  -0.01     0.00  -0.07   0.01    -0.00   0.00  -0.00
   2   6     0.05  -0.04   0.00    -0.05  -0.01  -0.00     0.01   0.00  -0.03
   3   6     0.05  -0.04  -0.00    -0.04  -0.02   0.00     0.01   0.00  -0.00
   4   6     0.05  -0.04  -0.00    -0.02  -0.01   0.00     0.01   0.00   0.04
   5   6     0.01  -0.02  -0.00    -0.00  -0.01   0.00     0.01   0.00  -0.00
   6   6    -0.03  -0.04  -0.01     0.01  -0.01   0.00     0.01  -0.00  -0.04
   7   6    -0.05  -0.04  -0.00     0.03  -0.02   0.00     0.01   0.00   0.01
   8   6    -0.05  -0.04   0.00     0.05  -0.01   0.00     0.00  -0.00   0.03
   9   6    -0.05  -0.05   0.00     0.04   0.00  -0.00     0.01  -0.01  -0.02
  10   7    -0.04  -0.05  -0.00     0.02   0.00   0.00     0.01  -0.01  -0.07
  11   6    -0.03  -0.01   0.00     0.04  -0.01  -0.00     0.00  -0.01   0.01
  12   6    -0.06   0.04   0.00     0.06  -0.03   0.00     0.00  -0.01  -0.01
  13   6    -0.05   0.05  -0.00     0.07  -0.02   0.00     0.01  -0.00   0.04
  14   6    -0.06   0.05  -0.00     0.06  -0.01   0.00    -0.00   0.00  -0.00
  15   6    -0.05   0.05   0.00     0.04  -0.02  -0.00    -0.01  -0.00  -0.05
  16   7    -0.06   0.05   0.00     0.05  -0.04  -0.00    -0.01  -0.01  -0.07
  17   6    -0.01   0.02   0.01     0.00   0.00  -0.00    -0.02  -0.00  -0.00
  18   6     0.04   0.05   0.00    -0.04  -0.02  -0.00    -0.01   0.00   0.05
  19   6     0.05   0.04  -0.00    -0.06  -0.01   0.00     0.00  -0.00   0.00
  20   6     0.05   0.05  -0.00    -0.07  -0.02   0.00     0.01   0.01  -0.04
  21   6     0.05   0.05   0.00    -0.06  -0.03  -0.00     0.00   0.01   0.01
  22   7     0.05   0.06   0.00    -0.05  -0.04  -0.00    -0.01   0.01   0.07
  23   6     0.03   0.01   0.01    -0.04  -0.01  -0.01     0.00   0.02  -0.01
  24   6     0.05  -0.03   0.00    -0.04   0.00  -0.00     0.01   0.01   0.02
  25   7     0.05  -0.04  -0.00    -0.03  -0.00   0.00     0.01   0.01   0.07
  26   1     0.01  -0.01   0.00    -0.02  -0.00  -0.00     0.00   0.00  -0.02
  27   1     0.01  -0.01  -0.00    -0.01  -0.01   0.00     0.00  -0.00  -0.01
  28   1    -0.01  -0.01  -0.00     0.01  -0.01   0.00     0.00   0.00   0.01
  29   1    -0.02  -0.01   0.00     0.02  -0.00  -0.00    -0.00  -0.00   0.03
  30   1     0.00  -0.00   0.00     0.01  -0.00  -0.00    -0.00  -0.00   0.02
  31   1    -0.02   0.01  -0.00     0.02  -0.01   0.00     0.00  -0.00   0.03
  32   1    -0.02   0.01  -0.00     0.02   0.00   0.00     0.00   0.00   0.01
  33   1    -0.00  -0.01   0.00     0.00   0.01  -0.00    -0.00  -0.00  -0.00
  34   1     0.01   0.01  -0.00    -0.02   0.00   0.00     0.00  -0.00  -0.01
  35   1     0.02   0.01  -0.00    -0.02  -0.01   0.00     0.01   0.00  -0.03
  36   1    -0.00   0.00   0.00    -0.01  -0.00  -0.00     0.00   0.00  -0.02
  37   6     0.01   0.00   0.01    -0.00   0.08  -0.00     0.01  -0.00   0.00
  38   6     0.01  -0.08   0.01    -0.00   0.53  -0.02     0.01  -0.01   0.00
  39   6     0.01  -0.07   0.01    -0.00   0.38  -0.01     0.00  -0.00  -0.00
  40   6     0.01   0.04  -0.01     0.00  -0.38   0.01     0.00   0.01  -0.00
  41   6     0.01   0.05  -0.01     0.01  -0.53   0.02    -0.00   0.01   0.00
  42   6     0.01   0.05  -0.00    -0.00  -0.08   0.00    -0.00  -0.02   0.00
  43  28    -0.01  -0.01  -0.03    -0.00   0.07  -0.01     0.02   0.05  -0.01
  44   6     0.14  -0.14  -0.01     0.05   0.00   0.01    -0.01  -0.02   0.15
  45   6     0.15  -0.14  -0.02     0.04   0.02  -0.01    -0.02  -0.01   0.01
  46   6     0.14  -0.14  -0.01     0.02   0.01  -0.01    -0.02   0.00  -0.20
  47   6     0.01  -0.08   0.01    -0.00   0.01  -0.00    -0.00  -0.01   0.01
  48   6    -0.12  -0.15   0.03    -0.02   0.01   0.00     0.01   0.01   0.21
  49   6    -0.14  -0.15   0.03    -0.04   0.01   0.00    -0.01  -0.01  -0.03
  50   6    -0.14  -0.15   0.01    -0.05   0.00  -0.00    -0.02  -0.02  -0.15
  51   6    -0.14  -0.15   0.01    -0.05  -0.00  -0.00    -0.00   0.01   0.10
  52   7    -0.14  -0.17   0.02    -0.03  -0.00   0.00     0.02   0.02   0.35
  53   6    -0.08  -0.01   0.01    -0.05   0.01  -0.00    -0.02  -0.00  -0.07
  54   6    -0.14   0.12   0.02    -0.06   0.04   0.00    -0.00   0.01   0.05
  55   6    -0.14   0.14   0.03    -0.07   0.02   0.01    -0.06  -0.02  -0.20
  56   6    -0.15   0.14   0.02    -0.06   0.01   0.01    -0.00  -0.01   0.02
  57   6    -0.14   0.14   0.01    -0.04   0.02   0.01     0.05   0.00   0.24
  58   7    -0.16   0.15   0.02    -0.05   0.04   0.01     0.07   0.03   0.33
  59   6    -0.01   0.08   0.00     0.00  -0.00   0.00     0.02  -0.00   0.00
  60   6     0.12   0.15  -0.01     0.04   0.02  -0.01    -0.03   0.01  -0.25
  61   6     0.14   0.14  -0.00     0.06   0.01  -0.02    -0.00   0.00  -0.01
  62   6     0.14   0.15  -0.01     0.07   0.03  -0.01     0.02  -0.04   0.20
  63   6     0.14   0.14  -0.02     0.06   0.04  -0.00    -0.02  -0.02  -0.07
  64   7     0.14   0.16  -0.02     0.05   0.04  -0.00    -0.05   0.01  -0.36
  65   6     0.08   0.01  -0.01     0.05   0.01   0.01     0.00  -0.04   0.08
  66   6     0.14  -0.13  -0.01     0.05  -0.01   0.00    -0.02  -0.01  -0.08
  67   7     0.16  -0.15  -0.01     0.03  -0.00  -0.01    -0.03   0.01  -0.32
  68   1     0.04  -0.04  -0.00     0.02   0.00   0.00    -0.00  -0.01   0.11
  69   1     0.04  -0.04  -0.01     0.01   0.01  -0.00    -0.00  -0.00   0.04
  70   1    -0.04  -0.04   0.01    -0.01   0.01   0.00    -0.00  -0.00  -0.05
  71   1    -0.04  -0.04   0.00    -0.02   0.00  -0.00    -0.01  -0.01  -0.12
  72   1     0.02  -0.00  -0.00    -0.01   0.00  -0.00    -0.02  -0.01  -0.10
  73   1    -0.04   0.04   0.01    -0.02   0.01   0.00    -0.04  -0.01  -0.14
  74   1    -0.04   0.04   0.00    -0.02  -0.00   0.00    -0.01  -0.01  -0.02
  75   1    -0.00  -0.02   0.00     0.00  -0.01   0.00     0.01  -0.00   0.01
  76   1     0.04   0.04   0.00     0.02   0.00  -0.01     0.00   0.00   0.03
  77   1     0.04   0.04  -0.00     0.02   0.01  -0.00     0.02  -0.02   0.14
  78   1    -0.02   0.00   0.00     0.01   0.00   0.01     0.01  -0.02   0.11
                     25                     26                     27
                        a                      a                      a 
 Frequencies --   226.7389               229.0100               230.0148
 Red. masses --    11.9434                12.2421                13.2919
 Frc consts  --     0.0000                 0.0000                 0.0000
 IR Inten    --     0.6015                 0.9244                 0.4217
 Raman Activ --     0.0000                 0.0000                 0.0000
 Depolar     --     0.0000                 0.0000                 0.0000
 Atom AN      X      Y      Z        X      Y      Z        X      Y      Z
   1  28    -0.03  -0.01   0.00    -0.01  -0.02  -0.01     0.02  -0.02   0.12
   2   6     0.01   0.00  -0.15    -0.00  -0.00   0.00     0.01   0.01   0.03
   3   6     0.01   0.00  -0.02    -0.01   0.01   0.09     0.01   0.01   0.20
   4   6    -0.00   0.00   0.20    -0.02   0.00  -0.04     0.02   0.01  -0.07
   5   6     0.00   0.00  -0.00    -0.02   0.00   0.02     0.02   0.00  -0.03
   6   6     0.01  -0.00  -0.20    -0.01   0.01  -0.05     0.03   0.00  -0.06
   7   6     0.01  -0.00   0.03    -0.01   0.01   0.09     0.01   0.01   0.20
   8   6     0.01   0.00   0.15    -0.01   0.01   0.01     0.00  -0.00   0.02
   9   6     0.01  -0.00  -0.10    -0.01   0.01  -0.12     0.01  -0.03  -0.22
  10   7     0.01  -0.01  -0.34    -0.01   0.01  -0.19     0.03  -0.02  -0.28
  11   6     0.01  -0.01   0.07    -0.00   0.02   0.00     0.00  -0.04  -0.08
  12   6     0.01  -0.01  -0.06    -0.00   0.02   0.12     0.00  -0.04   0.17
  13   6     0.01  -0.00   0.21    -0.01   0.01  -0.00     0.02  -0.01   0.03
  14   6     0.01   0.01  -0.02     0.00   0.00  -0.10    -0.00   0.01  -0.11
  15   6    -0.01   0.00  -0.25     0.01   0.01   0.04    -0.03  -0.00   0.04
  16   7    -0.00  -0.01  -0.36     0.01   0.02   0.18    -0.02  -0.03   0.27
  17   6    -0.01   0.00  -0.00     0.02   0.00  -0.03    -0.04   0.01  -0.13
  18   6    -0.01  -0.00   0.25     0.01  -0.00   0.05    -0.02   0.01   0.03
  19   6     0.00  -0.00   0.01     0.00   0.01  -0.10    -0.00   0.01  -0.11
  20   6     0.02   0.01  -0.20    -0.01  -0.01  -0.01     0.01   0.02   0.04
  21   6     0.00   0.01   0.06    -0.01  -0.02   0.12    -0.00   0.03   0.16
  22   7    -0.01   0.00   0.36     0.01  -0.02   0.19    -0.02   0.03   0.24
  23   6     0.01   0.01  -0.07    -0.00  -0.03  -0.00     0.01   0.04  -0.08
  24   6     0.01   0.00   0.09    -0.00  -0.02  -0.12     0.02   0.02  -0.22
  25   7    -0.01   0.00   0.33    -0.01  -0.01  -0.18     0.03   0.02  -0.29
  26   1     0.01   0.00  -0.11     0.00  -0.00   0.02    -0.00   0.00   0.05
  27   1     0.00   0.00  -0.04    -0.01   0.00   0.07    -0.00   0.00   0.14
  28   1     0.00  -0.00   0.05    -0.00   0.00   0.07     0.00   0.01   0.14
  29   1     0.00   0.00   0.12    -0.00   0.00   0.02    -0.00  -0.00   0.04
  30   1     0.00  -0.00   0.11     0.00   0.01   0.00    -0.00  -0.01  -0.04
  31   1     0.01  -0.00   0.15    -0.00   0.00  -0.02     0.01  -0.00  -0.01
  32   1     0.00   0.00   0.02     0.00  -0.00  -0.07    -0.00   0.01  -0.09
  33   1    -0.00   0.00  -0.00     0.01   0.00  -0.05    -0.01   0.00  -0.12
  34   1     0.00  -0.00  -0.03     0.00   0.01  -0.07     0.00  -0.00  -0.08
  35   1     0.01   0.00  -0.15    -0.01  -0.00  -0.02     0.01   0.00   0.00
  36   1     0.00   0.00  -0.11     0.00  -0.01  -0.00     0.00   0.01  -0.03
  37   6    -0.00   0.00   0.00    -0.01   0.00   0.12     0.01   0.00   0.06
  38   6    -0.00   0.00  -0.00    -0.01  -0.00   0.00     0.01  -0.00  -0.04
  39   6    -0.00  -0.00  -0.00    -0.01  -0.00  -0.06     0.01  -0.00  -0.05
  40   6    -0.00  -0.00  -0.00    -0.00  -0.00  -0.07     0.00   0.00  -0.00
  41   6    -0.00  -0.00   0.00     0.00  -0.00  -0.02    -0.01   0.00   0.04
  42   6    -0.00   0.00   0.00     0.00   0.00   0.13    -0.01  -0.00   0.03
  43  28    -0.01  -0.01  -0.00     0.06  -0.03   0.05    -0.05   0.01  -0.14
  44   6     0.00   0.00  -0.03     0.00   0.00   0.02    -0.00  -0.00  -0.03
  45   6    -0.00   0.00  -0.01     0.01  -0.01   0.18    -0.01   0.01  -0.13
  46   6    -0.00  -0.00   0.04     0.01   0.01  -0.08    -0.02  -0.00   0.05
  47   6    -0.01   0.00   0.00     0.01   0.01  -0.00    -0.02  -0.00   0.05
  48   6    -0.01  -0.00  -0.04     0.01   0.00  -0.06    -0.02   0.00   0.03
  49   6    -0.00   0.00   0.00     0.01   0.03   0.18    -0.01  -0.02  -0.14
  50   6     0.00   0.01   0.03    -0.01   0.00   0.01     0.00   0.00  -0.02
  51   6    -0.00   0.01  -0.02    -0.01  -0.03  -0.20     0.00   0.03   0.13
  52   7    -0.01   0.00  -0.06    -0.00  -0.03  -0.28    -0.01   0.03   0.15
  53   6     0.00   0.01   0.02    -0.00  -0.04  -0.05     0.01   0.05   0.09
  54   6    -0.00   0.01  -0.01     0.03  -0.03   0.18    -0.02   0.04  -0.08
  55   6     0.01   0.01   0.04     0.02  -0.01   0.01    -0.03   0.01  -0.04
  56   6     0.00   0.00  -0.00    -0.04   0.01  -0.13     0.01  -0.01   0.04
  57   6    -0.01   0.00  -0.05    -0.02   0.00   0.06     0.03   0.00  -0.01
  58   7    -0.01   0.00  -0.08     0.03  -0.02   0.30    -0.00   0.03  -0.14
  59   6     0.01   0.00   0.00    -0.06   0.01  -0.09     0.06  -0.01   0.11
  60   6     0.01  -0.00   0.05    -0.02   0.01   0.04     0.03  -0.01   0.01
  61   6     0.00   0.00   0.00    -0.03   0.02  -0.13     0.01  -0.00   0.03
  62   6    -0.01   0.00  -0.04     0.01   0.02   0.03    -0.03  -0.01  -0.05
  63   6     0.00  -0.00   0.01     0.03   0.02   0.17    -0.02  -0.03  -0.07
  64   7     0.01  -0.01   0.07     0.03   0.01   0.26     0.00  -0.03  -0.11
  65   6    -0.00  -0.00  -0.01    -0.00   0.03  -0.04     0.00  -0.05   0.09
  66   6     0.00  -0.00   0.02    -0.00   0.02  -0.21    -0.00  -0.03   0.14
  67   7    -0.00  -0.01   0.07     0.00   0.03  -0.30    -0.02  -0.03   0.17
  68   1     0.00   0.00  -0.02     0.00  -0.00   0.04     0.00   0.00  -0.04
  69   1    -0.00   0.00  -0.01     0.00  -0.01   0.13    -0.00   0.01  -0.09
  70   1    -0.00  -0.00   0.01     0.01   0.02   0.12    -0.01  -0.01  -0.09
  71   1     0.00   0.00   0.02    -0.00   0.00   0.03     0.00  -0.00  -0.03
  72   1     0.00   0.00   0.02    -0.01  -0.01  -0.02     0.01   0.02   0.04
  73   1     0.01   0.00   0.03     0.01  -0.00  -0.02    -0.02   0.00  -0.01
  74   1     0.00  -0.00   0.01    -0.02   0.00  -0.10     0.01  -0.01   0.03
  75   1     0.00   0.00   0.00    -0.03   0.00  -0.10     0.03  -0.00   0.08
  76   1    -0.00   0.00  -0.00    -0.02   0.01  -0.09     0.00   0.00   0.03
  77   1    -0.01   0.00  -0.03     0.00   0.01  -0.01    -0.02  -0.00  -0.02
  78   1    -0.00   0.00  -0.02    -0.01   0.01  -0.02     0.01  -0.01   0.03
                     28                     29                     30
                        a                      a                      a 
 Frequencies --   234.4776               237.0920               237.3474
 Red. masses --    18.7642                14.8763                12.4014
 Frc consts  --     0.0000                 0.0000                 0.0000
 IR Inten    --     3.2088                 1.2222                 0.2867
 Raman Activ --     0.0000                 0.0000                 0.0000
 Depolar     --     0.0000                 0.0000                 0.0000
 Atom AN      X      Y      Z        X      Y      Z        X      Y      Z
   1  28    -0.05  -0.00   0.30     0.03   0.00   0.16     0.00  -0.00   0.03
   2   6    -0.02  -0.03   0.05     0.01   0.02   0.03     0.00   0.00   0.02
   3   6    -0.05   0.00   0.12     0.04  -0.00  -0.05     0.00   0.00   0.12
   4   6    -0.07  -0.01  -0.03     0.05   0.00   0.04     0.01   0.00  -0.07
   5   6    -0.06  -0.00  -0.12     0.04  -0.00  -0.07     0.01  -0.00  -0.01
   6   6    -0.07   0.01  -0.03     0.05  -0.01  -0.07     0.01  -0.00   0.07
   7   6    -0.05  -0.00   0.10     0.03   0.00   0.13     0.01  -0.00  -0.11
   8   6    -0.02   0.02   0.06     0.01  -0.02   0.04     0.00  -0.00  -0.00
   9   6    -0.04   0.06  -0.08     0.03  -0.05  -0.15     0.00  -0.01   0.16
  10   7    -0.07   0.05  -0.06     0.06  -0.04  -0.22     0.01  -0.00   0.26
  11   6    -0.02   0.11  -0.16     0.01  -0.09  -0.07     0.00  -0.01  -0.02
  12   6    -0.01   0.11  -0.05     0.01  -0.08   0.10     0.00  -0.01  -0.17
  13   6    -0.05   0.05   0.09     0.04  -0.03   0.02     0.01  -0.00   0.02
  14   6     0.00  -0.01   0.07    -0.00   0.01  -0.05    -0.00   0.00   0.13
  15   6     0.07   0.03  -0.07    -0.05  -0.02   0.03    -0.01  -0.00  -0.07
  16   7     0.06   0.10  -0.06    -0.04  -0.08   0.19    -0.01  -0.01  -0.27
  17   6     0.11   0.00  -0.16    -0.08   0.00  -0.08    -0.02   0.00  -0.02
  18   6     0.07  -0.02  -0.04    -0.05   0.02  -0.10    -0.01   0.00   0.06
  19   6     0.00   0.01   0.04    -0.00  -0.01   0.15     0.00   0.00  -0.11
  20   6    -0.05  -0.04   0.07     0.04   0.03   0.06     0.01   0.01  -0.01
  21   6    -0.01  -0.10  -0.01     0.02   0.09  -0.18    -0.00   0.01   0.16
  22   7     0.06  -0.10   0.01    -0.03   0.08  -0.28    -0.01   0.01   0.26
  23   6    -0.01  -0.11  -0.16     0.02   0.09  -0.08     0.00   0.01  -0.01
  24   6    -0.03  -0.06  -0.10     0.03   0.05   0.11     0.01   0.01  -0.17
  25   7    -0.07  -0.06  -0.08     0.05   0.04   0.20     0.02   0.01  -0.27
  26   1     0.00  -0.01   0.04    -0.00   0.00  -0.01    -0.00   0.00   0.04
  27   1    -0.02   0.01   0.08     0.01  -0.01  -0.05    -0.00  -0.00   0.09
  28   1    -0.01  -0.01   0.06     0.01   0.01   0.10     0.00  -0.00  -0.09
  29   1     0.00   0.01   0.04    -0.00  -0.00   0.04    -0.00  -0.00  -0.03
  30   1     0.00   0.03  -0.06    -0.00  -0.03  -0.03    -0.00  -0.00  -0.01
  31   1    -0.03   0.01   0.06     0.02  -0.01  -0.01     0.00  -0.00   0.04
  32   1    -0.00  -0.02   0.04     0.00   0.02  -0.05     0.00   0.00   0.10
  33   1     0.03   0.00  -0.07    -0.02  -0.00  -0.03    -0.00   0.00  -0.01
  34   1    -0.00   0.02   0.02    -0.00  -0.02   0.11     0.00  -0.00  -0.09
  35   1    -0.03  -0.01   0.04     0.02   0.01   0.06     0.00   0.00  -0.03
  36   1     0.00  -0.03  -0.07    -0.00   0.03  -0.03    -0.00   0.00  -0.00
  37   6    -0.04  -0.00  -0.20     0.03  -0.00  -0.11     0.01  -0.00  -0.02
  38   6    -0.03  -0.00  -0.02     0.02   0.00   0.01     0.01  -0.00   0.00
  39   6    -0.01  -0.00   0.10    -0.00   0.00   0.06     0.00  -0.00   0.01
  40   6     0.00   0.00   0.13    -0.01   0.00   0.04     0.00   0.00   0.01
  41   6     0.02  -0.00   0.01    -0.03   0.00  -0.02    -0.00   0.00  -0.00
  42   6     0.03  -0.00  -0.22    -0.03  -0.00  -0.10    -0.00  -0.01  -0.02
  43  28     0.06   0.01   0.25    -0.01  -0.01   0.18    -0.00   0.00   0.03
  44   6     0.02   0.01   0.06    -0.02  -0.03   0.04    -0.00  -0.01   0.02
  45   6     0.04  -0.01   0.03    -0.04  -0.01   0.15    -0.01  -0.01   0.12
  46   6     0.07   0.00  -0.02    -0.06  -0.01  -0.07    -0.01   0.00  -0.08
  47   6     0.06  -0.00  -0.13    -0.05  -0.00  -0.06    -0.01  -0.00  -0.01
  48   6     0.06  -0.01  -0.02    -0.05   0.01   0.03    -0.00   0.00   0.07
  49   6     0.04   0.01   0.06    -0.04  -0.00   0.00    -0.01  -0.01  -0.09
  50   6     0.02  -0.02   0.05    -0.02   0.02   0.02    -0.00  -0.00  -0.01
  51   6     0.03  -0.07  -0.03    -0.03   0.05   0.04     0.00   0.02   0.14
  52   7     0.07  -0.05  -0.00    -0.05   0.05   0.13     0.00   0.02   0.25
  53   6     0.00  -0.12  -0.13    -0.03   0.08  -0.09    -0.01   0.02  -0.02
  54   6     0.01  -0.10  -0.06    -0.03   0.08  -0.12    -0.03   0.01  -0.16
  55   6     0.07  -0.03   0.05    -0.02   0.04   0.07    -0.00   0.01   0.03
  56   6     0.02   0.02   0.08     0.03   0.01   0.10     0.03   0.01   0.11
  57   6    -0.07  -0.02  -0.04     0.04   0.02  -0.09    -0.00   0.00  -0.08
  58   7    -0.06  -0.10  -0.05     0.01   0.07  -0.20    -0.04   0.01  -0.26
  59   6    -0.13   0.00  -0.11     0.06   0.01  -0.10     0.01   0.00  -0.02
  60   6    -0.08   0.02  -0.08     0.06  -0.02   0.02     0.02  -0.01   0.07
  61   6     0.03  -0.03   0.11    -0.01   0.01  -0.05    -0.02   0.01  -0.11
  62   6     0.08   0.03   0.08    -0.03  -0.03   0.02    -0.01  -0.00  -0.01
  63   6     0.00   0.11  -0.10     0.01  -0.09   0.10     0.02  -0.03   0.15
  64   7    -0.08   0.11  -0.15     0.08  -0.09   0.19     0.05  -0.04   0.26
  65   6     0.01   0.12  -0.12    -0.02  -0.08  -0.09     0.00  -0.02  -0.01
  66   6     0.04   0.06   0.00    -0.04  -0.04  -0.16    -0.01   0.00  -0.17
  67   7     0.07   0.05   0.03    -0.07  -0.03  -0.23    -0.02   0.01  -0.27
  68   1    -0.01   0.00   0.03     0.00  -0.01   0.04     0.00  -0.00   0.04
  69   1     0.01  -0.01   0.01    -0.01  -0.00   0.10    -0.00  -0.01   0.09
  70   1     0.01   0.01   0.04    -0.01  -0.01  -0.01    -0.01  -0.01  -0.08
  71   1    -0.00  -0.00   0.03    -0.00   0.00  -0.00    -0.00  -0.00  -0.03
  72   1    -0.01  -0.04  -0.06    -0.00   0.02  -0.04    -0.00   0.01  -0.01
  73   1     0.04  -0.01   0.03    -0.01   0.01   0.06     0.00   0.00   0.04
  74   1     0.01   0.03   0.05     0.02  -0.01   0.07     0.02   0.00   0.09
  75   1    -0.04  -0.00  -0.03     0.01   0.00  -0.05     0.00   0.00  -0.01
  76   1     0.02  -0.03   0.07    -0.01   0.02  -0.05    -0.02   0.01  -0.09
  77   1     0.05   0.00   0.06    -0.02  -0.01  -0.01    -0.01   0.00  -0.03
  78   1    -0.01   0.04  -0.05    -0.00  -0.02  -0.04    -0.00  -0.01  -0.00
                     31                     32                     33
                        a                      a                      a 
 Frequencies --   238.0174               245.8856               246.8244
 Red. masses --    14.5360                10.6516                10.9451
 Frc consts  --     0.0000                 0.0000                 0.0000
 IR Inten    --     0.9696                 0.0720                 2.1008
 Raman Activ --     0.0000                 0.0000                 0.0000
 Depolar     --     0.0000                 0.0000                 0.0000
 Atom AN      X      Y      Z        X      Y      Z        X      Y      Z
   1  28    -0.04  -0.00  -0.15    -0.00  -0.00  -0.00     0.00  -0.00  -0.06
   2   6    -0.02  -0.03  -0.04     0.01   0.00  -0.27    -0.00   0.00   0.02
   3   6    -0.05   0.00  -0.09    -0.00   0.00   0.20     0.00   0.00  -0.03
   4   6    -0.08  -0.01   0.06    -0.01   0.00   0.29     0.00   0.00  -0.03
   5   6    -0.07   0.00   0.06     0.00  -0.00   0.00     0.00   0.00   0.03
   6   6    -0.07   0.01  -0.03     0.01  -0.01  -0.28     0.00   0.00   0.05
   7   6    -0.05   0.00   0.03     0.01  -0.01  -0.20     0.00   0.00   0.02
   8   6    -0.02   0.03  -0.02    -0.00   0.00   0.27     0.00  -0.00  -0.05
   9   6    -0.04   0.07  -0.07    -0.00   0.00   0.15     0.00  -0.00  -0.02
  10   7    -0.08   0.06  -0.15     0.00  -0.00  -0.15     0.00   0.00   0.03
  11   6    -0.02   0.12   0.08    -0.00  -0.00   0.01     0.00  -0.00   0.02
  12   6    -0.02   0.12   0.12    -0.00  -0.00  -0.16     0.00  -0.00   0.04
  13   6    -0.06   0.05  -0.04    -0.00  -0.00  -0.24     0.00  -0.00   0.02
  14   6     0.00  -0.01  -0.11    -0.00  -0.00   0.20     0.00   0.00  -0.04
  15   6     0.08   0.02   0.07    -0.00  -0.00   0.24    -0.00  -0.00  -0.02
  16   7     0.06   0.11   0.18    -0.00  -0.00   0.09    -0.00  -0.00   0.01
  17   6     0.12  -0.00   0.07    -0.00   0.00   0.00    -0.00  -0.00   0.02
  18   6     0.08  -0.03   0.00     0.00   0.01  -0.24    -0.00  -0.00   0.04
  19   6    -0.00   0.01   0.02     0.00   0.01  -0.20    -0.00  -0.00   0.01
  20   6    -0.06  -0.05  -0.03    -0.01  -0.00   0.24     0.00   0.00  -0.04
  21   6    -0.02  -0.12  -0.05    -0.00   0.00   0.17    -0.00   0.00  -0.00
  22   7     0.06  -0.11  -0.09    -0.00   0.00  -0.08    -0.00   0.00   0.04
  23   6    -0.02  -0.12   0.06     0.00   0.00  -0.01    -0.00   0.00   0.02
  24   6    -0.05  -0.07   0.10     0.01   0.00  -0.15    -0.00   0.00   0.02
  25   7    -0.09  -0.06   0.16    -0.00   0.00   0.15     0.00   0.00  -0.02
  26   1     0.00  -0.01  -0.04     0.01   0.00  -0.17    -0.00   0.00   0.02
  27   1    -0.01   0.01  -0.07    -0.00   0.00   0.09     0.00   0.00  -0.01
  28   1    -0.01  -0.01   0.03     0.00  -0.00  -0.09     0.00   0.00   0.01
  29   1     0.00   0.01   0.01    -0.00   0.00   0.16     0.00  -0.00  -0.03
  30   1     0.00   0.04   0.03    -0.00  -0.00   0.01    -0.00  -0.00   0.01
  31   1    -0.04   0.01  -0.04    -0.00  -0.00  -0.14     0.00  -0.00   0.01
  32   1    -0.00  -0.02  -0.08    -0.00  -0.00   0.10     0.00   0.00  -0.03
  33   1     0.04  -0.00   0.02    -0.00   0.00   0.00    -0.00   0.00   0.00
  34   1    -0.00   0.02   0.02     0.00   0.00  -0.10    -0.00  -0.00  -0.00
  35   1    -0.04  -0.01  -0.01    -0.00  -0.00   0.14     0.00   0.00  -0.03
  36   1     0.00  -0.04   0.02     0.00   0.00  -0.01    -0.00   0.00   0.01
  37   6    -0.04   0.00   0.10     0.00  -0.00   0.00    -0.00   0.00   0.02
  38   6    -0.03  -0.01  -0.01     0.00   0.00  -0.00     0.00  -0.00  -0.03
  39   6    -0.00  -0.00  -0.06     0.00   0.00  -0.00     0.00   0.00  -0.03
  40   6     0.01   0.00  -0.03    -0.00  -0.00   0.00    -0.00  -0.00   0.02
  41   6     0.04   0.00   0.02    -0.00  -0.00   0.00    -0.00   0.00   0.03
  42   6     0.05  -0.00   0.08    -0.00   0.00  -0.00    -0.00   0.00  -0.02
  43  28     0.02   0.01  -0.17     0.00  -0.00   0.00     0.01  -0.00   0.06
  44   6     0.03   0.03  -0.00    -0.00  -0.00   0.04    -0.00  -0.03   0.28
  45   6     0.05  -0.00   0.00    -0.00   0.00  -0.03    -0.01   0.01  -0.20
  46   6     0.07   0.01  -0.05    -0.00   0.00  -0.04    -0.01   0.02  -0.29
  47   6     0.07  -0.00   0.05    -0.00   0.00  -0.00    -0.00   0.01  -0.02
  48   6     0.08  -0.01   0.08     0.00   0.00   0.03     0.01   0.03   0.26
  49   6     0.05  -0.02  -0.15     0.00   0.00   0.03     0.01   0.03   0.20
  50   6     0.03  -0.04  -0.04    -0.00  -0.00  -0.03    -0.01  -0.02  -0.25
  51   6     0.06  -0.05   0.18    -0.00  -0.00  -0.02    -0.01  -0.01  -0.16
  52   7     0.10  -0.04   0.26     0.00   0.00   0.01     0.01   0.01   0.13
  53   6     0.03  -0.12   0.07     0.00   0.00  -0.00     0.01   0.00  -0.03
  54   6    -0.01  -0.12  -0.11     0.01   0.00   0.02     0.04   0.01   0.15
  55   6     0.04  -0.05  -0.03     0.01   0.00   0.03     0.05   0.02   0.24
  56   6     0.01   0.01   0.07    -0.00  -0.00  -0.03    -0.03  -0.01  -0.18
  57   6    -0.08  -0.03  -0.01    -0.01  -0.00  -0.03    -0.04  -0.01  -0.24
  58   7    -0.10  -0.12  -0.18    -0.00  -0.00  -0.01    -0.01  -0.00  -0.09
  59   6    -0.11  -0.00   0.10     0.00  -0.00  -0.00     0.00  -0.01  -0.02
  60   6    -0.07   0.02   0.08     0.01  -0.00   0.03     0.04  -0.03   0.21
  61   6    -0.03   0.00  -0.09     0.01  -0.00   0.03     0.04  -0.03   0.22
  62   6     0.04   0.06  -0.05    -0.01   0.00  -0.03    -0.04   0.02  -0.22
  63   6     0.03   0.11   0.11    -0.00   0.00  -0.03    -0.03   0.01  -0.19
  64   7    -0.04   0.10   0.18     0.00  -0.00   0.01     0.01  -0.01   0.05
  65   6     0.03   0.12   0.09    -0.00  -0.00  -0.00    -0.02  -0.01  -0.01
  66   6     0.04   0.07  -0.05    -0.00  -0.00   0.02    -0.00  -0.02   0.16
  67   7     0.08   0.07  -0.15    -0.00   0.00  -0.01    -0.01   0.00  -0.13
  68   1    -0.00   0.01   0.01     0.00  -0.00   0.02     0.00  -0.01   0.17
  69   1     0.02  -0.01   0.02    -0.00   0.00  -0.01    -0.00   0.01  -0.10
  70   1     0.01  -0.00  -0.11     0.00   0.00   0.01     0.00   0.01   0.10
[...]
 Frc consts  --     0.0000                 0.0000                 0.0000
 IR Inten    --    11.1900               117.3775               130.3151
 Raman Activ --     0.0000                 0.0000                 0.0000
 Depolar     --     0.0000                 0.0000                 0.0000
 Atom AN      X      Y      Z        X      Y      Z        X      Y      Z
   1  28    -0.00  -0.00  -0.00    -0.00   0.00   0.00     0.00  -0.00   0.00
   2   6     0.01  -0.08   0.00    -0.00  -0.00  -0.00     0.00  -0.01   0.00
   3   6    -0.06   0.01  -0.00     0.00  -0.00   0.00     0.02  -0.00   0.00
   4   6    -0.00  -0.00  -0.00     0.00   0.00  -0.00    -0.00   0.00  -0.00
   5   6    -0.00   0.00  -0.00    -0.00  -0.00  -0.00     0.00  -0.00   0.00
   6   6    -0.00   0.00  -0.00    -0.00   0.00   0.00    -0.00   0.00  -0.00
   7   6    -0.14  -0.02  -0.00    -0.00  -0.00  -0.00    -0.02  -0.00  -0.00
   8   6     0.02   0.20  -0.00     0.00  -0.00   0.00    -0.00  -0.01   0.00
   9   6    -0.01   0.00  -0.00     0.00  -0.00   0.00     0.00  -0.00   0.00
  10   7     0.00  -0.00   0.00     0.00  -0.00   0.00     0.00  -0.00   0.00
  11   6    -0.00   0.01  -0.00    -0.00   0.00  -0.00    -0.00   0.00  -0.00
  12   6     0.00   0.00   0.00     0.00   0.00   0.00     0.01   0.00  -0.00
  13   6    -0.00   0.00   0.00    -0.00   0.00   0.00    -0.01   0.15   0.00
  14   6     0.01  -0.00  -0.00    -0.00   0.00   0.00    -0.15   0.01   0.00
  15   6     0.00   0.00   0.00    -0.00  -0.00  -0.00    -0.00  -0.01  -0.00
  16   7    -0.00  -0.00   0.00     0.00  -0.00   0.00     0.00  -0.00  -0.00
  17   6     0.00  -0.00   0.00    -0.00   0.00   0.00    -0.00   0.00   0.00
  18   6     0.00  -0.00   0.00     0.00  -0.00  -0.00     0.00  -0.01  -0.00
  19   6     0.00   0.00   0.00     0.00   0.00   0.00     0.14   0.01   0.00
  20   6    -0.00  -0.00  -0.00     0.00   0.00   0.00     0.01   0.14   0.00
  21   6     0.00  -0.00   0.00    -0.00   0.00  -0.00    -0.01   0.00  -0.00
  22   7    -0.00   0.00  -0.00    -0.00  -0.00  -0.00    -0.00  -0.00  -0.00
  23   6    -0.00  -0.00  -0.00     0.00   0.00   0.00     0.00   0.00   0.00
  24   6    -0.00  -0.00  -0.00    -0.00  -0.00  -0.00    -0.00  -0.00  -0.00
  25   7     0.00   0.00   0.00    -0.00  -0.00  -0.00    -0.00  -0.00   0.00
  26   1    -0.03   0.27  -0.00    -0.00   0.00  -0.00    -0.00   0.02  -0.00
  27   1     0.20  -0.02   0.01    -0.00   0.00  -0.00    -0.05   0.01  -0.00
  28   1     0.52   0.06   0.01     0.00   0.00   0.00     0.06   0.01   0.00
  29   1    -0.07  -0.71   0.01     0.00   0.00  -0.00     0.00   0.02  -0.00
  30   1     0.00  -0.03   0.00    -0.00  -0.00   0.00    -0.00  -0.01   0.00
  31   1     0.00  -0.02  -0.00     0.00  -0.01  -0.00     0.05  -0.50  -0.00
  32   1    -0.04   0.00   0.00     0.01  -0.00  -0.00     0.49  -0.05  -0.00
  33   1    -0.00  -0.00  -0.00     0.00   0.00   0.00     0.00   0.00   0.00
  34   1    -0.01  -0.00  -0.00    -0.01  -0.00  -0.00    -0.45  -0.05  -0.01
  35   1     0.00   0.01   0.00    -0.00  -0.01  -0.00    -0.05  -0.46  -0.01
  36   1     0.00   0.01   0.00     0.00  -0.00  -0.00     0.00  -0.01  -0.00
  37   6     0.00  -0.00   0.00     0.00  -0.00  -0.00    -0.00  -0.00   0.00
  38   6    -0.00   0.00  -0.00    -0.00   0.00  -0.00    -0.00   0.00  -0.00
  39   6     0.00   0.00   0.00     0.00   0.00  -0.00     0.00   0.00  -0.00
  40   6    -0.00  -0.00  -0.00     0.00  -0.00  -0.00    -0.00  -0.00  -0.00
  41   6     0.00  -0.00   0.00    -0.00  -0.00   0.00     0.00   0.00  -0.00
  42   6    -0.00  -0.00  -0.00     0.00   0.00   0.00    -0.00   0.00  -0.00
  43  28     0.00  -0.00  -0.00    -0.00   0.00   0.00     0.00  -0.00  -0.00
  44   6    -0.00   0.02   0.00    -0.00   0.01   0.00     0.00  -0.00  -0.00
  45   6     0.02  -0.00  -0.00    -0.02   0.00   0.00     0.00  -0.00  -0.00
  46   6     0.00   0.00   0.00     0.00  -0.00  -0.00    -0.00   0.00   0.00
  47   6     0.00   0.00   0.00    -0.00   0.00  -0.00     0.00  -0.00   0.00
  48   6     0.00  -0.00   0.00    -0.00  -0.00   0.00    -0.00   0.00  -0.00
  49   6     0.02   0.00  -0.00     0.02   0.00  -0.00    -0.00  -0.00   0.00
  50   6    -0.00  -0.02   0.00     0.00   0.01  -0.00    -0.00  -0.00   0.00
  51   6     0.00  -0.00  -0.00    -0.00   0.00   0.00     0.00  -0.00  -0.00
  52   7    -0.00   0.00  -0.00    -0.00   0.00  -0.00     0.00   0.00   0.00
  53   6     0.00  -0.00   0.00     0.00  -0.00   0.00    -0.00   0.00  -0.00
  54   6    -0.00  -0.00  -0.00    -0.01  -0.00   0.00     0.00   0.00  -0.00
  55   6     0.00  -0.00  -0.00     0.01  -0.15   0.01    -0.00   0.01  -0.00
  56   6    -0.00   0.00   0.00     0.14  -0.01  -0.03    -0.01   0.00   0.00
  57   6    -0.00  -0.00   0.00     0.00   0.01  -0.00    -0.00  -0.00   0.00
  58   7     0.00   0.00  -0.00    -0.00   0.00   0.00     0.00  -0.00  -0.00
  59   6    -0.00  -0.00   0.00     0.00  -0.00  -0.00    -0.00   0.00   0.00
  60   6    -0.00   0.00   0.00    -0.00   0.01   0.00     0.00  -0.00  -0.00
  61   6    -0.00  -0.00   0.00    -0.14  -0.01   0.02     0.00   0.00  -0.00
  62   6     0.00   0.00  -0.00    -0.01  -0.15  -0.01     0.00   0.00   0.00
  63   6    -0.00   0.00  -0.00     0.01  -0.00  -0.00    -0.00   0.00   0.00
  64   7     0.00  -0.00  -0.00     0.00   0.00  -0.00    -0.00  -0.00   0.00
  65   6     0.00   0.00   0.00    -0.00  -0.00  -0.00     0.00  -0.00   0.00
  66   6     0.00   0.00   0.00     0.00   0.00  -0.00    -0.00   0.00   0.00
  67   7    -0.00  -0.00  -0.00     0.00   0.00   0.00     0.00  -0.00  -0.00
  68   1     0.01  -0.08  -0.01     0.00  -0.02  -0.00    -0.00   0.00   0.00
  69   1    -0.07   0.01   0.00     0.06  -0.01  -0.00    -0.00   0.00   0.00
  70   1    -0.06  -0.01   0.00    -0.05  -0.01   0.00     0.00   0.00  -0.00
  71   1     0.01   0.08  -0.01    -0.00  -0.02   0.00     0.00   0.00  -0.00
  72   1    -0.00   0.00  -0.00     0.00   0.01  -0.00    -0.00  -0.00   0.00
  73   1    -0.00   0.00  -0.00    -0.06   0.48  -0.02     0.00  -0.02   0.00
  74   1     0.01  -0.00  -0.00    -0.46   0.04   0.09     0.02  -0.00  -0.00
  75   1     0.00   0.00  -0.00    -0.00  -0.00   0.00     0.00   0.00  -0.00
  76   1     0.01   0.00  -0.00     0.46   0.06  -0.08    -0.00  -0.00   0.00
  77   1    -0.00  -0.00  -0.00     0.05   0.47   0.04    -0.00  -0.00  -0.00
  78   1    -0.00  -0.00  -0.00    -0.00   0.01   0.00     0.00   0.00  -0.00
                    223                    224                    225
                        a                      a                      a 
 Frequencies --  3164.7514              3165.0972              3168.9060
 Red. masses --     1.9797                 1.9797                 1.9740
 Frc consts  --     0.0000                 0.0000                 0.0000
 IR Inten    --   380.0098                 8.1318                42.6210
 Raman Activ --     0.0000                 0.0000                 0.0000
 Depolar     --     0.0000                 0.0000                 0.0000
 Atom AN      X      Y      Z        X      Y      Z        X      Y      Z
   1  28    -0.00  -0.00   0.00    -0.00  -0.00  -0.00     0.00   0.00   0.00
   2   6     0.00  -0.00   0.00    -0.00  -0.00   0.00     0.00  -0.03   0.00
   3   6     0.01  -0.00   0.00     0.01  -0.00   0.00     0.04  -0.00   0.00
   4   6     0.00   0.00   0.00     0.00   0.00   0.00     0.00   0.00   0.00
   5   6    -0.00  -0.00  -0.00     0.00  -0.00   0.00    -0.00  -0.00   0.00
   6   6     0.00  -0.00   0.00     0.00  -0.00   0.00    -0.00   0.00  -0.00
   7   6     0.00   0.00   0.00     0.00   0.00   0.00    -0.03  -0.00  -0.00
   8   6     0.00   0.00  -0.00    -0.00   0.00  -0.00    -0.00  -0.03   0.00
   9   6    -0.00   0.00  -0.00    -0.00   0.00  -0.00     0.00  -0.00   0.00
  10   7    -0.00   0.00   0.00    -0.00   0.00  -0.00     0.00   0.00  -0.00
  11   6     0.00  -0.00   0.00     0.00  -0.00   0.00    -0.00  -0.00   0.00
  12   6    -0.00  -0.00   0.00    -0.00  -0.00   0.00    -0.00  -0.00  -0.00
  13   6     0.00  -0.08  -0.00     0.01  -0.11  -0.00     0.00  -0.00  -0.00
  14   6     0.09  -0.01  -0.00     0.12  -0.01  -0.00     0.00  -0.00  -0.00
  15   6     0.00   0.00   0.00     0.00   0.00   0.00     0.00   0.00   0.00
  16   7    -0.00   0.00   0.00    -0.00   0.00   0.00    -0.00   0.00  -0.00
  17   6     0.00   0.00   0.00     0.01   0.00   0.00     0.00  -0.00  -0.00
  18   6     0.00  -0.00  -0.00     0.00  -0.00  -0.00    -0.00   0.00   0.00
  19   6     0.10   0.01   0.00     0.12   0.01   0.00    -0.00  -0.00  -0.00
  20   6     0.01   0.09   0.00     0.01   0.12   0.00    -0.00  -0.00  -0.00
  21   6    -0.00   0.00  -0.00    -0.00   0.00  -0.00     0.00  -0.00   0.00
  22   7    -0.00  -0.00  -0.00    -0.00  -0.00  -0.00     0.00   0.00   0.00
  23   6     0.00   0.00   0.00     0.00   0.00   0.00     0.00  -0.00  -0.00
  24   6    -0.00  -0.00  -0.00    -0.00  -0.00  -0.00    -0.00  -0.00  -0.00
  25   7    -0.00  -0.00  -0.00    -0.00  -0.00  -0.00    -0.00   0.00  -0.00
  26   1    -0.00   0.01  -0.00    -0.00   0.00  -0.00    -0.01   0.09  -0.00
  27   1    -0.02   0.00  -0.00    -0.02   0.00  -0.00    -0.12   0.01  -0.00
  28   1    -0.01  -0.00  -0.00    -0.02  -0.00  -0.00     0.11   0.01   0.00
  29   1    -0.00  -0.01   0.00    -0.00  -0.00   0.00     0.01   0.08  -0.00
  30   1     0.00   0.01  -0.00     0.00   0.01  -0.00    -0.00   0.00  -0.00
  31   1    -0.03   0.27   0.00    -0.04   0.36   0.00    -0.00   0.01   0.00
  32   1    -0.28   0.03   0.00    -0.37   0.04   0.00    -0.01   0.00   0.00
  33   1    -0.02   0.00  -0.00    -0.02   0.00  -0.00    -0.00  -0.00  -0.00
  34   1    -0.31  -0.03  -0.01    -0.39  -0.04  -0.01     0.01   0.00   0.00
  35   1    -0.03  -0.30  -0.01    -0.04  -0.38  -0.01     0.00   0.01   0.00
  36   1     0.00  -0.01  -0.00     0.00  -0.01  -0.00     0.00   0.00   0.00
  37   6     0.00  -0.00   0.00     0.00  -0.00   0.00     0.00  -0.00   0.00
  38   6    -0.00   0.00  -0.00    -0.00   0.00   0.00    -0.00   0.00  -0.00
  39   6     0.00   0.00   0.00    -0.00   0.00   0.00    -0.00   0.00  -0.00
  40   6    -0.00   0.00  -0.00     0.00   0.00   0.00     0.00  -0.00   0.00
  41   6    -0.00  -0.00   0.00     0.00  -0.00  -0.00    -0.00  -0.00   0.00
  42   6     0.00   0.00  -0.00    -0.00  -0.00   0.00     0.00   0.00  -0.00
  43  28    -0.00  -0.00   0.00     0.00   0.00  -0.00     0.00  -0.00  -0.00
  44   6     0.00  -0.00  -0.00     0.00   0.00   0.00    -0.01   0.15   0.01
  45   6     0.01  -0.00  -0.00    -0.00   0.00   0.00    -0.19   0.01   0.00
  46   6     0.00   0.00   0.00    -0.00  -0.00   0.00    -0.00  -0.01  -0.00
  47   6    -0.00   0.00   0.00    -0.00   0.00  -0.00    -0.00   0.00  -0.00
  48   6     0.00  -0.00   0.00    -0.00   0.00   0.00     0.00  -0.00   0.00
  49   6     0.01   0.00  -0.00    -0.00  -0.00   0.00     0.13   0.01  -0.01
  50   6     0.00   0.00  -0.00     0.00  -0.00   0.00     0.00   0.10  -0.01
  51   6    -0.00   0.00  -0.00     0.00  -0.00   0.00    -0.00   0.00   0.00
  52   7    -0.00   0.00   0.00     0.00  -0.00  -0.00    -0.00  -0.00   0.00
  53   6     0.00  -0.00   0.00    -0.00   0.00  -0.00     0.00   0.00  -0.00
  54   6    -0.00  -0.00   0.00     0.00   0.00  -0.00     0.00   0.00  -0.00
  55   6     0.01  -0.12   0.00    -0.01   0.09  -0.00    -0.00   0.01  -0.00
  56   6     0.12  -0.01  -0.02    -0.09   0.00   0.02    -0.01   0.00   0.00
  57   6     0.00   0.00  -0.00    -0.00  -0.00   0.00    -0.00  -0.00   0.00
  58   7    -0.00   0.00   0.00     0.00  -0.00  -0.00     0.00  -0.00  -0.00
  59   6     0.01   0.00  -0.00    -0.01  -0.00   0.00     0.00   0.00  -0.00
  60   6     0.00  -0.00  -0.00    -0.00   0.00   0.00     0.00  -0.00  -0.00
  61   6     0.12   0.01  -0.02    -0.09  -0.01   0.02     0.01   0.00  -0.00
  62   6     0.01   0.12   0.01    -0.01  -0.09  -0.01     0.00   0.01   0.00
  63   6    -0.00   0.00   0.00     0.00  -0.00  -0.00    -0.00   0.00   0.00
  64   7    -0.00  -0.00   0.00     0.00   0.00  -0.00    -0.00  -0.00  -0.00
  65   6     0.00   0.00   0.00    -0.00  -0.00  -0.00    -0.00   0.00   0.00
  66   6    -0.00  -0.00  -0.00     0.00   0.00   0.00     0.01   0.00  -0.00
  67   7    -0.00  -0.00   0.00     0.00   0.00  -0.00     0.00  -0.00  -0.00
  68   1    -0.00   0.01   0.00     0.00  -0.00  -0.00     0.05  -0.47  -0.04
  69   1    -0.02   0.00   0.00     0.01  -0.00  -0.00     0.60  -0.06  -0.02
  70   1    -0.02  -0.00   0.00     0.01   0.00  -0.00    -0.41  -0.05   0.03
  71   1    -0.00  -0.01   0.00     0.00   0.00  -0.00    -0.03  -0.32   0.03
  72   1     0.00   0.01  -0.00    -0.00  -0.01   0.00     0.00  -0.01   0.00
  73   1    -0.05   0.37  -0.01     0.04  -0.28   0.01     0.00  -0.04   0.00
  74   1    -0.37   0.04   0.07     0.29  -0.03  -0.06     0.03  -0.00  -0.01
  75   1    -0.02  -0.00   0.00     0.02   0.00  -0.00    -0.00   0.00   0.00
  76   1    -0.38  -0.05   0.06     0.29   0.04  -0.05    -0.04  -0.00   0.01
  77   1    -0.04  -0.37  -0.03     0.03   0.29   0.02    -0.00  -0.05  -0.00
  78   1     0.00  -0.01  -0.00    -0.00   0.01   0.00    -0.00  -0.01  -0.00
                    226                    227                    228
                        a                      a                      a 
 Frequencies --  3169.1028              3169.2562              3169.6105
 Red. masses --     1.9737                 1.9737                 1.9734
 Frc consts  --     0.0000                 0.0000                 0.0000
 IR Inten    --    26.3455                85.2823                13.9066
 Raman Activ --     0.0000                 0.0000                 0.0000
 Depolar     --     0.0000                 0.0000                 0.0000
 Atom AN      X      Y      Z        X      Y      Z        X      Y      Z
   1  28    -0.00   0.00   0.00     0.00  -0.00  -0.00    -0.00  -0.00  -0.00
   2   6     0.01  -0.12   0.00    -0.01   0.11  -0.00     0.00  -0.08   0.00
   3   6     0.15  -0.01   0.01    -0.14   0.01  -0.01     0.10  -0.01   0.00
   4   6     0.00   0.01   0.00    -0.00  -0.00  -0.00     0.00   0.00   0.00
   5   6     0.00  -0.00   0.00     0.00   0.00  -0.00     0.00   0.00  -0.00
   6   6    -0.00   0.00  -0.00     0.00  -0.00   0.00     0.00  -0.01   0.00
   7   6    -0.03  -0.00  -0.00     0.11   0.01   0.00     0.20   0.01   0.00
   8   6    -0.00  -0.02   0.00     0.00   0.08  -0.00     0.01   0.16  -0.00
   9   6     0.00  -0.00   0.00    -0.00   0.00  -0.00    -0.01   0.00  -0.00
  10   7     0.00   0.00  -0.00    -0.00  -0.00   0.00    -0.00  -0.00  -0.00
  11   6    -0.00  -0.00   0.00     0.00   0.00  -0.00     0.00   0.00  -0.00
  12   6    -0.00   0.00   0.00     0.00   0.00  -0.00     0.00   0.00   0.00
  13   6     0.00  -0.00  -0.00    -0.00   0.01   0.00    -0.00   0.01   0.00
  14   6     0.00  -0.00  -0.00    -0.01   0.00   0.00    -0.01   0.00   0.00
  15   6     0.00   0.00   0.00    -0.00  -0.00  -0.00    -0.00  -0.00  -0.00
  16   7    -0.00   0.00  -0.00     0.00  -0.00  -0.00     0.00  -0.00  -0.00
  17   6    -0.00  -0.00  -0.00    -0.00   0.00   0.00    -0.00   0.00  -0.00
  18   6    -0.00   0.00   0.00     0.00  -0.00  -0.00     0.00   0.00   0.00
  19   6    -0.01  -0.00  -0.00     0.01   0.00   0.00     0.00   0.00   0.00
  20   6    -0.00  -0.01  -0.00     0.00   0.01   0.00    -0.00  -0.00  -0.00
  21   6     0.00  -0.00   0.00    -0.00   0.00  -0.00     0.00   0.00   0.00
  22   7     0.00   0.00   0.00    -0.00  -0.00  -0.00    -0.00   0.00  -0.00
  23   6     0.00  -0.00  -0.00    -0.00   0.00   0.00     0.00  -0.00  -0.00
  24   6    -0.00  -0.00  -0.00     0.00   0.00   0.00    -0.00  -0.00  -0.00
  25   7    -0.00   0.00  -0.00     0.00  -0.00   0.00    -0.00   0.00  -0.00
  26   1    -0.04   0.37  -0.00     0.03  -0.34   0.00    -0.02   0.24  -0.00
  27   1    -0.50   0.06  -0.02     0.45  -0.05   0.02    -0.32   0.04  -0.01
  28   1     0.09   0.01   0.00    -0.34  -0.04  -0.00    -0.67  -0.07  -0.01
  29   1     0.01   0.07  -0.00    -0.03  -0.25   0.00    -0.05  -0.49   0.01
  30   1    -0.00   0.00  -0.00     0.00  -0.01   0.00     0.00  -0.01   0.00
  31   1    -0.00   0.01   0.00     0.00  -0.03  -0.00     0.00  -0.03  -0.00
  32   1    -0.01   0.00   0.00     0.03  -0.00  -0.00     0.02  -0.00  -0.00
  33   1     0.00  -0.00   0.00    -0.00   0.00  -0.00     0.00   0.00   0.00
  34   1     0.03   0.00   0.00    -0.03  -0.00  -0.00    -0.00  -0.00  -0.00
  35   1     0.00   0.03   0.00    -0.00  -0.03  -0.00     0.00   0.00   0.00
  36   1     0.00   0.01   0.00    -0.00  -0.01  -0.00     0.00   0.01   0.00
  37   6    -0.00  -0.00  -0.00    -0.00   0.00  -0.00    -0.00   0.00  -0.00
  38   6     0.00   0.00  -0.00    -0.00  -0.00   0.00     0.00  -0.00   0.00
  39   6    -0.00   0.00  -0.00     0.00  -0.00   0.00    -0.00  -0.00   0.00
  40   6    -0.00  -0.00   0.00    -0.00  -0.00   0.00     0.00   0.00  -0.00
  41   6     0.00  -0.00   0.00     0.00  -0.00   0.00    -0.00  -0.00  -0.00
  42   6    -0.00  -0.00  -0.00    -0.00   0.00  -0.00    -0.00   0.00   0.00
  43  28    -0.00  -0.00   0.00    -0.00  -0.00   0.00     0.00  -0.00  -0.00
  44   6     0.01  -0.09  -0.01     0.00  -0.04  -0.00    -0.00   0.03   0.00
  45   6     0.12  -0.01  -0.00     0.05  -0.00  -0.00    -0.04   0.00   0.00
  46   6     0.00   0.00   0.00     0.00   0.00   0.00    -0.00  -0.00  -0.00
  47   6     0.00   0.00  -0.00     0.00   0.00  -0.00     0.00   0.00   0.00
  48   6     0.00  -0.00   0.00     0.00  -0.01   0.00    -0.00   0.00  -0.00
  49   6     0.12   0.01  -0.01     0.14   0.01  -0.01    -0.04  -0.00   0.00
  50   6     0.00   0.10  -0.01     0.00   0.11  -0.01    -0.00  -0.03   0.00
  51   6    -0.00   0.00   0.00    -0.00   0.00   0.00     0.00  -0.00  -0.00
  52   7    -0.00  -0.00   0.00    -0.00  -0.00   0.00     0.00   0.00  -0.00
  53   6     0.00   0.00  -0.00     0.00   0.00  -0.00    -0.00  -0.00   0.00
  54   6     0.00   0.00  -0.00     0.00   0.00  -0.00     0.00   0.00   0.00
  55   6    -0.00   0.01  -0.00    -0.00   0.01  -0.00     0.00  -0.00   0.00
  56   6    -0.00   0.00   0.00    -0.01   0.00   0.00     0.00  -0.00  -0.00
  57   6    -0.00  -0.00   0.00    -0.00  -0.00   0.00     0.00   0.00   0.00
  58   7     0.00  -0.00   0.00     0.00  -0.00   0.00    -0.00   0.00  -0.00
  59   6    -0.00  -0.00   0.00    -0.00   0.00   0.00     0.00   0.00  -0.00
  60   6    -0.00   0.00  -0.00    -0.00   0.00  -0.00     0.00  -0.00   0.00
  61   6    -0.00  -0.00   0.00     0.00   0.00  -0.00     0.00   0.00  -0.00
  62   6    -0.00  -0.01  -0.00    -0.00  -0.00   0.00     0.00   0.00   0.00
  63   6     0.00  -0.00  -0.00     0.00  -0.00  -0.00    -0.00  -0.00   0.00
  64   7     0.00   0.00   0.00    -0.00   0.00   0.00    -0.00  -0.00  -0.00
  65   6     0.00  -0.00  -0.00     0.00  -0.00  -0.00    -0.00   0.00   0.00
  66   6    -0.00  -0.00   0.00    -0.00  -0.00   0.00     0.00   0.00  -0.00
  67   7    -0.00   0.00   0.00    -0.00   0.00   0.00     0.00  -0.00  -0.00
  68   1    -0.03   0.30   0.02    -0.01   0.13   0.01     0.01  -0.11  -0.01
  69   1    -0.39   0.04   0.01    -0.17   0.02   0.00     0.13  -0.01  -0.00
  70   1    -0.40  -0.05   0.02    -0.47  -0.06   0.03     0.11   0.01  -0.01
  71   1    -0.02  -0.31   0.03    -0.03  -0.36   0.03     0.01   0.09  -0.01
  72   1     0.00  -0.01   0.00     0.00  -0.01   0.00    -0.00   0.00  -0.00
  73   1     0.00  -0.02   0.00     0.00  -0.02   0.00    -0.00   0.00  -0.00
  74   1     0.01  -0.00  -0.00     0.02  -0.00  -0.00    -0.00   0.00   0.00
  75   1     0.00   0.00  -0.00     0.00   0.00  -0.00    -0.00   0.00   0.00
  76   1     0.01   0.00  -0.00    -0.00  -0.00   0.00    -0.00  -0.00   0.00
  77   1     0.00   0.02   0.00     0.00   0.00   0.00    -0.00  -0.00  -0.00
  78   1     0.00   0.01   0.00     0.00   0.00   0.00    -0.00  -0.00  -0.00
