      -----------------------------------------------------------      
     |                   =====================                   |     
     |                           x T B                           |     
     |                   =====================                   |     
     |                         S. Grimme                         |     
     |          Mulliken Center for Theoretical Chemistry        |     
     |                    University of Bonn                     |     
      -----------------------------------------------------------      

   * xtb version 6.4.1 (bd6e46d) compiled by 'conda@4901f00b25ba' on 2021-06-10

   xtb is free software: you can redistribute it and/or modify it under
   the terms of the GNU Lesser General Public License as published by
   the Free Software Foundation, either version 3 of the License, or
   (at your option) any later version.
   
   xtb is distributed in the hope that it will be useful,
   but WITHOUT ANY WARRANTY; without even the implied warranty of
   MERCHANTABILITY or FITNESS FOR A PARTICULAR PURPOSE.  See the
   GNU Lesser General Public License for more details.
   
   Cite this work as:
   * C. Bannwarth, E. Caldeweyher, S. Ehlert, A. Hansen, P. Pracht,
     J. Seibert, S. Spicher, S. Grimme, WIREs Comput. Mol. Sci., 2020, 11,
     e01493. DOI: 10.1002/wcms.1493
   
   for GFN2-xTB:
   * C. Bannwarth, S. Ehlert and S. Grimme., J. Chem. Theory Comput., 2019,
     15, 1652-1671. DOI: 10.1021/acs.jctc.8b01176
   for GFN1-xTB:
   * S. Grimme, C. Bannwarth, P. Shushkov, J. Chem. Theory Comput., 2017,
     13, 1989-2009. DOI: 10.1021/acs.jctc.7b00118
   for GFN0-xTB:
   * P. Pracht, E. Caldeweyher, S. Ehlert, S. Grimme, ChemRxiv, 2019, preprint.
     DOI: 10.26434/chemrxiv.8326202.v1
   for GFN-FF:
   * S. Spicher and S. Grimme, Angew. Chem. Int. Ed., 2020, 59, 15665-15673.
     DOI: 10.1002/anie.202004239
   
   for DFT-D4:
   * E. Caldeweyher, C. Bannwarth and S. Grimme, J. Chem. Phys., 2017,
     147, 034112. DOI: 10.1063/1.4993215
   * E. Caldeweyher, S. Ehlert, A. Hansen, H. Neugebauer, S. Spicher,
     C. Bannwarth and S. Grimme, J. Chem. Phys., 2019, 150, 154122.
     DOI: 10.1063/1.5090222
   * E. Caldeweyher, J.-M. Mewes, S. Ehlert and S. Grimme, Phys. Chem. Chem. Phys.
     2020, 22, 8499-8512. DOI: 10.1039/D0CP00502A
   
   for sTDA-xTB:
   * S. Grimme and C. Bannwarth, J. Chem. Phys., 2016, 145, 054103.
     DOI: 10.1063/1.4959605
   
   in the mass-spec context:
   * V. Asgeirsson, C. Bauer and S. Grimme, Chem. Sci., 2017, 8, 4879.
     DOI: 10.1039/c7sc00601b
   * J. Koopman and S. Grimme, ACS Omega 2019, 4, 12, 15120-15133.
     DOI: 10.1021/acsomega.9b02011
   
   for metadynamics refer to:
   * S. Grimme, J. Chem. Theory Comput., 2019, 155, 2847-2862
     DOI: 10.1021/acs.jctc.9b00143
   
   for SPH calculations refer to:
   * S. Spicher and S. Grimme, J. Chem. Theory Comput., 2021, 17, 1701-1714
     DOI: 10.1021/acs.jctc.0c01306
   
   with help from (in alphabetical order)
   P. Atkinson, C. Bannwarth, F. Bohle, G. Brandenburg, E. Caldeweyher
   M. Checinski, S. Dohm, S. Ehlert, S. Ehrlich, I. Gerasimov, J. Koopman
   C. Lavigne, S. Lehtola, F. März, M. Müller, F. Musil, H. Neugebauer
   J. Pisarek, C. Plett, P. Pracht, J. Seibert, P. Shushkov, S. Spicher
   M. Stahn, M. Steiner, T. Strunk, J. Stückrath, T. Rose, and J. Unsleber
   
 * started run on 2021/11/19 at 10:49:12.908     

           -------------------------------------------------
          |                Calculation Setup                |
           -------------------------------------------------

          program call               : /home/jeff/miniconda3/bin/xtb input_structure_1.xyz --gfn 2 --ohess normal --parallel 1 --etemp 300 --chrg 0 --uhf 0 -I det_control.in
          hostname                   : jelfscompute1
          coordinate file            : input_structure_1.xyz
          omp threads                :                     1
          number of atoms            :                    78
          number of electrons        :                   266
          charge                     :                     0
          spin                       :                   0.0
          first test random number   :      0.58293598007895

   ID    Z sym.   atoms
    1   28 Ni     1, 43
    2    6 C      2-9, 11-15, 17-21, 23, 24, 37-42, 44-51, 53-57, 59-63, 65,
                  66
    3    7 N      10, 16, 22, 25, 52, 58, 64, 67
    4    1 H      26-36, 68-78

           -------------------------------------------------
          |                 G F N 2 - x T B                 |
           -------------------------------------------------

        Reference                      10.1021/acs.jctc.8b01176
      * Hamiltonian:
        H0-scaling (s, p, d)           1.850000    2.230000    2.230000
        zeta-weighting                 0.500000
      * Dispersion:
        s8                             2.700000
        a1                             0.520000
        a2                             5.000000
        s9                             5.000000
      * Repulsion:
        kExp                           1.500000    1.000000
        rExp                           1.000000
      * Coulomb:
        alpha                          2.000000
        third order                    shell-resolved
        anisotropic                    true
        a3                             3.000000
        a5                             4.000000
        cn-shift                       1.200000
        cn-exp                         4.000000
        max-rad                        5.000000


          ...................................................
          :                      SETUP                      :
          :.................................................:
          :  # basis functions                 258          :
          :  # atomic orbitals                 256          :
          :  # shells                          136          :
          :  # electrons                       266          :
          :  max. iterations                   250          :
          :  Hamiltonian                  GFN2-xTB          :
          :  restarted?                      false          :
          :  GBSA solvation                  false          :
          :  PC potential                    false          :
          :  electronic temp.          300.0000000     K    :
          :  accuracy                    1.0000000          :
          :  -> integral cutoff          0.2500000E+02      :
          :  -> integral neglect         0.1000000E-07      :
          :  -> SCF convergence          0.1000000E-05 Eh   :
          :  -> wf. convergence          0.1000000E-03 e    :
          :  Broyden damping             0.4000000          :
          ...................................................

 iter      E             dE          RMSdq      gap      omega  full diag
   1   -144.5789102 -0.144579E+03  0.870E+00    0.45       0.0  T
   2   -144.6646235 -0.857133E-01  0.388E+00    0.12       1.0  T
   3   -139.3881949  0.527643E+01  0.544E+00    0.30       1.0  T
   4   -143.1905624 -0.380237E+01  0.428E+00    0.11       1.0  T
   5   -140.7582990  0.243226E+01  0.629E+00    0.01       1.0  T
   6   -144.4754419 -0.371714E+01  0.174E+00    0.07       1.0  T
   7   -144.9723340 -0.496892E+00  0.950E-01    0.22       1.0  T
   8   -145.0114762 -0.391422E-01  0.558E-01    0.31       1.0  T
   9   -145.0165586 -0.508241E-02  0.552E-01    0.36       1.0  T
  10   -145.0256814 -0.912277E-02  0.323E-01    0.30       1.0  T
  11   -145.0294589 -0.377753E-02  0.156E-01    0.34       1.0  T
  12   -145.0300345 -0.575575E-03  0.109E-01    0.36       1.0  T
  13   -145.0302012 -0.166737E-03  0.890E-02    0.37       1.0  T
  14   -145.0301967  0.454115E-05  0.800E-02    0.36       1.0  T
  15   -145.0303205 -0.123837E-03  0.598E-02    0.37       1.0  T
  16   -145.0303395 -0.189734E-04  0.447E-02    0.36       1.0  T
  17   -145.0303597 -0.201929E-04  0.383E-02    0.36       1.0  T
  18   -145.0303649 -0.524034E-05  0.325E-02    0.36       1.0  T
  19   -145.0303716 -0.665318E-05  0.284E-02    0.36       1.0  T
  20   -145.0303758 -0.422544E-05  0.262E-02    0.36       1.0  T
  21   -145.0303801 -0.429602E-05  0.214E-02    0.36       1.0  T
  22   -145.0303879 -0.772909E-05  0.164E-02    0.37       1.0  T
  23   -145.0303911 -0.322220E-05  0.132E-02    0.37       1.0  T
  24   -145.0303927 -0.161957E-05  0.113E-02    0.37       1.0  T
  25   -145.0303939 -0.117270E-05  0.101E-02    0.37       1.1  T
  26   -145.0303946 -0.762716E-06  0.969E-03    0.37       1.2  T
  27   -145.0303957 -0.110939E-05  0.853E-03    0.37       1.3  T
  28   -145.0303969 -0.120688E-05  0.748E-03    0.37       1.5  T
  29   -145.0303982 -0.128284E-05  0.629E-03    0.37       1.8  T
  30   -145.0304000 -0.178448E-05  0.413E-03    0.37       2.7  T
  31   -145.0304010 -0.101058E-05  0.199E-03    0.37       5.7  T
  32   -145.0304013 -0.240707E-06  0.110E-03    0.38      10.3  T
  33   -145.0304013 -0.779571E-07  0.494E-04    0.38      22.9  T
  34   -145.0304014 -0.196943E-07  0.124E-04    0.38      91.5  T

   *** convergence criteria satisfied after 34 iterations ***

         #    Occupation            Energy/Eh            Energy/eV
      -------------------------------------------------------------
         1        2.0000           -0.6909434             -18.8015
       ...           ...                  ...                  ...
       127        2.0000           -0.3579792              -9.7411
       128        2.0000           -0.3551283              -9.6635
       129        2.0000           -0.3531308              -9.6092
       130        2.0000           -0.3474342              -9.4542
       131        2.0000           -0.3462997              -9.4233
       132        1.9999           -0.3452907              -9.3958
       133        1.9987           -0.3423993              -9.3172 (HOMO)
       134        0.0014           -0.3285611              -8.9406 (LUMO)
       135                         -0.3193479              -8.6899
       136                         -0.3127947              -8.5116
       137                         -0.3077742              -8.3750
       138                         -0.3015173              -8.2047
       ...                                ...                  ...
       256                          2.9358002              79.8872
      -------------------------------------------------------------
                  HL-Gap            0.0138381 Eh            0.3766 eV
             Fermi-level           -0.3354484 Eh           -9.1280 eV

 SCC (total)                   0 d,  0 h,  0 min,  0.561 sec
 SCC setup                      ...        0 min,  0.001 sec (  0.207%)
 Dispersion                     ...        0 min,  0.003 sec (  0.448%)
 classical contributions        ...        0 min,  0.000 sec (  0.076%)
 integral evaluation            ...        0 min,  0.026 sec (  4.671%)
 iterations                     ...        0 min,  0.444 sec ( 79.132%)
 molecular gradient             ...        0 min,  0.086 sec ( 15.259%)
 printout                       ...        0 min,  0.001 sec (  0.204%)

         :::::::::::::::::::::::::::::::::::::::::::::::::::::
         ::                     SUMMARY                     ::
         :::::::::::::::::::::::::::::::::::::::::::::::::::::
         :: total energy            -141.998287933597 Eh    ::
         :: gradient norm              1.599076762594 Eh/a0 ::
         :: HOMO-LUMO gap              0.376554828142 eV    ::
         ::.................................................::
         :: SCC energy              -145.030401363037 Eh    ::
         :: -> isotropic ES            0.067273165578 Eh    ::
         :: -> anisotropic ES          0.011421697372 Eh    ::
         :: -> anisotropic XC          0.067068761085 Eh    ::
         :: -> dispersion             -0.119414795747 Eh    ::
         :: repulsion energy           3.032300104932 Eh    ::
         :: add. restraining           0.000000000000 Eh    ::
         :: total charge               0.000000000000 e     ::
         :::::::::::::::::::::::::::::::::::::::::::::::::::::

      ----------------------------------------------------------- 
     |                   =====================                   |
     |                        A N C O P T                        |
     |                   =====================                   |
     |               Approximate Normal Coordinate               |
     |                Rational Function Optimizer                |
      ----------------------------------------------------------- 

          ...................................................
          :                      SETUP                      :
          :.................................................:
          :   optimization level            normal          :
          :   max. optcycles                   234          :
          :   ANC micro-cycles                  20          :
          :   degrees of freedom               228          :
          :.................................................:
          :   RF solver                   davidson          :
          :   write xtbopt.log                true          :
          :   linear?                        false          :
          :   energy convergence         0.5000000E-05 Eh   :
          :   grad. convergence          0.1000000E-02 Eh/α :
          :   maximium RF displ.         1.0000000          :
          :   Hlow (freq-cutoff)         0.1000000E-01      :
          :   Hmax (freq-cutoff)         5.0000000          :
          :   S6 in model hess.         20.0000000          :
          ...................................................

generating ANC from model Hessian ...
Using Lindh-Hessian (1995)
 Shifting diagonal of input Hessian by    1.0028689730541536E-002
 Lowest  eigenvalues of input Hessian
    0.010000    0.010003    0.010007    0.000000    0.000000    0.000000
    0.000000    0.000000    0.000000    0.010079    0.010228    0.010781
    0.011079    0.011231    0.011470    0.011769    0.011898    0.012193
 Highest eigenvalues
    2.226775    2.628022    2.844493    2.912028    3.722891    3.821033


........................................................................
.............................. CYCLE    1 ..............................
........................................................................
   1   -145.0304014 -0.145030E+03  0.120E-04    0.38       0.0  T
   2   -145.0304014  0.278459E-08  0.253E-04    0.38      44.8  T
   3   -145.0304014 -0.318468E-08  0.144E-04    0.38      78.8  T
     SCC iter.                  ...        0 min,  0.039 sec
     gradient                   ...        0 min,  0.095 sec
 * total energy  :  -141.9982879 Eh     change       -0.5361187E-09 Eh
   gradient norm :     1.5990768 Eh/α   predicted     0.0000000E+00 (-100.00%)
   displ. norm   :     0.5343544 α      lambda       -0.7658007E+00
   maximum displ.:     0.2222626 α      in ANC's #228, #182, #227, ...

........................................................................
.............................. CYCLE    2 ..............................
........................................................................
   1   -145.0633470 -0.145063E+03  0.552E-01    0.46       0.0  T
   2   -145.0610989  0.224816E-02  0.535E-01    0.53       1.0  T
   3   -145.0786326 -0.175337E-01  0.244E-01    0.49       1.0  T
   4   -145.0752449  0.338772E-02  0.190E-01    0.49       1.0  T
   5   -145.0791290 -0.388408E-02  0.541E-02    0.51       1.0  T
   6   -145.0794166 -0.287655E-03  0.318E-02    0.49       1.0  T
   7   -145.0794649 -0.482288E-04  0.205E-02    0.49       1.0  T
   8   -145.0794618  0.302665E-05  0.127E-02    0.49       1.0  T
   9   -145.0794706 -0.875292E-05  0.772E-03    0.49       1.5  T
  10   -145.0794731 -0.250726E-05  0.433E-03    0.49       2.6  T
  11   -145.0794745 -0.136878E-05  0.211E-03    0.49       5.4  T
  12   -145.0794746 -0.937402E-07  0.128E-03    0.49       8.9  T
  13   -145.0794746 -0.685579E-07  0.708E-04    0.49      16.0  T
  14   -145.0794746 -0.979017E-08  0.424E-04    0.49      26.7  T
     SCC iter.                  ...        0 min,  0.165 sec
     gradient                   ...        0 min,  0.081 sec
 * total energy  :  -142.4310913 Eh     change       -0.4328033E+00 Eh
   gradient norm :     0.4116702 Eh/α   predicted    -0.4922418E+00 (  13.73%)
   displ. norm   :     0.5545868 α      lambda       -0.1603214E+00
   maximum displ.:     0.2230473 α      in ANC's #79, #71, #70, ...

........................................................................
.............................. CYCLE    3 ..............................
........................................................................
   1   -145.0887457 -0.145089E+03  0.451E-01    0.56       0.0  T
   2   -145.0883667  0.378916E-03  0.330E-01    0.71       1.0  T
   3   -145.0928655 -0.449877E-02  0.217E-01    0.60       1.0  T
   4   -145.0934071 -0.541570E-03  0.142E-01    0.62       1.0  T
   5   -145.0957555 -0.234838E-02  0.431E-02    0.64       1.0  T
   6   -145.0958314 -0.759228E-04  0.312E-02    0.63       1.0  T
   7   -145.0958395 -0.810728E-05  0.226E-02    0.63       1.0  T
   8   -145.0958576 -0.180617E-04  0.118E-02    0.63       1.0  T
   9   -145.0958649 -0.735694E-05  0.729E-03    0.63       1.6  T
  10   -145.0958662 -0.124643E-05  0.506E-03    0.63       2.2  T
  11   -145.0958680 -0.181370E-05  0.175E-03    0.63       6.5  T
  12   -145.0958681 -0.814000E-07  0.107E-03    0.63      10.6  T
  13   -145.0958681 -0.235805E-07  0.593E-04    0.63      19.1  T
  14   -145.0958681 -0.927088E-08  0.300E-04    0.63      37.7  T
     SCC iter.                  ...        0 min,  0.165 sec
     gradient                   ...        0 min,  0.081 sec
 * total energy  :  -142.5529606 Eh     change       -0.1218693E+00 Eh
   gradient norm :     0.2062843 Eh/α   predicted    -0.1048174E+00 ( -13.99%)
   displ. norm   :     0.6628294 α      lambda       -0.9317852E-01
   maximum displ.:     0.2721176 α      in ANC's #79, #55, #39, ...

........................................................................
.............................. CYCLE    4 ..............................
........................................................................
   1   -145.1311868 -0.145131E+03  0.472E-01    0.72       0.0  T
   2   -145.1326737 -0.148688E-02  0.292E-01    0.92       1.0  T
   3   -145.1338353 -0.116158E-02  0.217E-01    0.81       1.0  T
   4   -145.1346265 -0.791143E-03  0.129E-01    0.85       1.0  T
   5   -145.1365740 -0.194752E-02  0.379E-02    0.87       1.0  T
   6   -145.1366239 -0.499673E-04  0.275E-02    0.87       1.0  T
   7   -145.1366160  0.793327E-05  0.233E-02    0.86       1.0  T
   8   -145.1366524 -0.364084E-04  0.104E-02    0.87       1.1  T
   9   -145.1366550 -0.253369E-05  0.702E-03    0.87       1.6  T
  10   -145.1366566 -0.163172E-05  0.425E-03    0.87       2.7  T
  11   -145.1366576 -0.102030E-05  0.162E-03    0.87       7.0  T
  12   -145.1366577 -0.972555E-07  0.862E-04    0.87      13.1  T
  13   -145.1366577 -0.278726E-08  0.583E-04    0.87      19.4  T
     SCC iter.                  ...        0 min,  0.154 sec
     gradient                   ...        0 min,  0.081 sec
 * total energy  :  -142.6230367 Eh     change       -0.7007613E-01 Eh
   gradient norm :     0.0889261 Eh/α   predicted    -0.6705821E-01 (  -4.31%)
   displ. norm   :     0.7078438 α      lambda       -0.4971993E-01
   maximum displ.:     0.2908781 α      in ANC's #55, #39, #79, ...

........................................................................
.............................. CYCLE    5 ..............................
........................................................................
   1   -145.1700438 -0.145170E+03  0.437E-01    0.93       0.0  T
   2   -145.1711658 -0.112196E-02  0.258E-01    1.09       1.0  T
   3   -145.1703451  0.820677E-03  0.186E-01    1.01       1.0  T
   4   -145.1712143 -0.869136E-03  0.919E-02    1.09       1.0  T
   5   -145.1723001 -0.108588E-02  0.286E-02    1.10       1.0  T
   6   -145.1723291 -0.289761E-04  0.180E-02    1.10       1.0  T
   7   -145.1723281  0.102211E-05  0.136E-02    1.10       1.0  T
   8   -145.1723461 -0.179925E-04  0.451E-03    1.10       2.5  T
   9   -145.1723463 -0.260280E-06  0.293E-03    1.10       3.9  T
  10   -145.1723464 -0.242508E-07  0.215E-03    1.10       5.3  T
  11   -145.1723466 -0.252860E-06  0.106E-03    1.10      10.7  T
  12   -145.1723467 -0.539335E-07  0.537E-04    1.10      21.1  T
  13   -145.1723467 -0.501441E-08  0.305E-04    1.10      37.2  T
     SCC iter.                  ...        0 min,  0.152 sec
     gradient                   ...        0 min,  0.081 sec
 * total energy  :  -142.6626272 Eh     change       -0.3959046E-01 Eh
   gradient norm :     0.0641981 Eh/α   predicted    -0.3731586E-01 (  -5.75%)
   displ. norm   :     0.7244042 α      lambda       -0.3208285E-01
   maximum displ.:     0.3111590 α      in ANC's #39, #55, #17, ...

........................................................................
.............................. CYCLE    6 ..............................
........................................................................
   1   -145.2005772 -0.145201E+03  0.410E-01    1.13       0.0  T
   2   -145.2012114 -0.634157E-03  0.247E-01    1.20       1.0  T
   3   -145.1996946  0.151679E-02  0.162E-01    1.18       1.0  T
   4   -145.2008297 -0.113515E-02  0.819E-02    1.20       1.0  T
   5   -145.2017691 -0.939394E-03  0.217E-02    1.20       1.0  T
   6   -145.2017748 -0.562426E-05  0.154E-02    1.21       1.0  T
   7   -145.2017826 -0.784937E-05  0.880E-03    1.20       1.3  T
   8   -145.2017898 -0.719927E-05  0.252E-03    1.20       4.5  T
   9   -145.2017901 -0.304102E-06  0.141E-03    1.20       8.0  T
  10   -145.2017902 -0.811397E-07  0.837E-04    1.20      13.5  T
  11   -145.2017902 -0.120260E-07  0.526E-04    1.20      21.5  T
     SCC iter.                  ...        0 min,  0.131 sec
     gradient                   ...        0 min,  0.081 sec
 * total energy  :  -142.6886319 Eh     change       -0.2600473E-01 Eh
   gradient norm :     0.0536060 Eh/α   predicted    -0.2445935E-01 (  -5.94%)
   displ. norm   :     0.7170133 α      lambda       -0.2139405E-01
   maximum displ.:     0.2999903 α      in ANC's #39, #55, #17, ...

........................................................................
.............................. CYCLE    7 ..............................
........................................................................
   1   -145.2251493 -0.145225E+03  0.368E-01    1.26       0.0  T
   2   -145.2254571 -0.307740E-03  0.227E-01    1.26       1.0  T
   3   -145.2239436  0.151345E-02  0.133E-01    1.27       1.0  T
   4   -145.2251601 -0.121647E-02  0.659E-02    1.27       1.0  T
   5   -145.2257306 -0.570541E-03  0.203E-02    1.27       1.0  T
   6   -145.2257273  0.330245E-05  0.155E-02    1.27       1.0  T
   7   -145.2257393 -0.119887E-04  0.762E-03    1.27       1.5  T
   8   -145.2257441 -0.481035E-05  0.282E-03    1.27       4.0  T
   9   -145.2257443 -0.235828E-06  0.182E-03    1.27       6.2  T
  10   -145.2257444 -0.794770E-07  0.108E-03    1.27      10.4  T
  11   -145.2257444 -0.214491E-07  0.622E-04    1.27      18.2  T
  12   -145.2257445 -0.159980E-07  0.262E-04    1.27      43.2  T
     SCC iter.                  ...        0 min,  0.142 sec
     gradient                   ...        0 min,  0.081 sec
 * total energy  :  -142.7057152 Eh     change       -0.1708323E-01 Eh
   gradient norm :     0.0371092 Eh/α   predicted    -0.1619646E-01 (  -5.19%)
   displ. norm   :     0.6974674 α      lambda       -0.1321448E-01
   maximum displ.:     0.3052344 α      in ANC's #17, #9, #39, ...

........................................................................
.............................. CYCLE    8 ..............................
........................................................................
   1   -145.2434654 -0.145243E+03  0.305E-01    1.30       0.0  T
   2   -145.2435908 -0.125388E-03  0.191E-01    1.30       1.0  T
   3   -145.2425861  0.100463E-02  0.100E-01    1.30       1.0  T
   4   -145.2434546 -0.868436E-03  0.478E-02    1.30       1.0  T
   5   -145.2437098 -0.255247E-03  0.204E-02    1.30       1.0  T
   6   -145.2437044  0.542778E-05  0.151E-02    1.30       1.0  T
   7   -145.2437161 -0.116825E-04  0.749E-03    1.30       1.5  T
   8   -145.2437212 -0.509703E-05  0.288E-03    1.30       3.9  T
   9   -145.2437213 -0.134051E-06  0.196E-03    1.30       5.8  T
  10   -145.2437214 -0.471432E-07  0.114E-03    1.30       9.9  T
  11   -145.2437214 -0.615507E-07  0.553E-04    1.30      20.5  T
  12   -145.2437214 -0.119269E-07  0.289E-04    1.30      39.1  T
     SCC iter.                  ...        0 min,  0.143 sec
     gradient                   ...        0 min,  0.081 sec
 * total energy  :  -142.7160941 Eh     change       -0.1037893E-01 Eh
   gradient norm :     0.0257681 Eh/α   predicted    -0.9821417E-02 (  -5.37%)
   displ. norm   :     0.7024099 α      lambda       -0.8516276E-02
   maximum displ.:     0.3586794 α      in ANC's #9, #17, #8, ...

........................................................................
.............................. CYCLE    9 ..............................
........................................................................
   1   -145.2540016 -0.145254E+03  0.252E-01    1.31       0.0  T
   2   -145.2540588 -0.571819E-04  0.162E-01    1.31       1.0  T
   3   -145.2532508  0.807922E-03  0.864E-02    1.31       1.0  T
   4   -145.2540083 -0.757414E-03  0.404E-02    1.31       1.0  T
   5   -145.2541330 -0.124732E-03  0.240E-02    1.31       1.0  T
   6   -145.2541370 -0.398689E-05  0.157E-02    1.31       1.0  T
   7   -145.2541477 -0.106883E-04  0.769E-03    1.31       1.5  T
   8   -145.2541528 -0.518153E-05  0.340E-03    1.31       3.3  T
   9   -145.2541529 -0.960387E-08  0.241E-03    1.31       4.7  T
  10   -145.2541529 -0.578872E-07  0.123E-03    1.31       9.2  T
  11   -145.2541530 -0.116346E-06  0.609E-04    1.31      18.6  T
  12   -145.2541530 -0.952622E-08  0.366E-04    1.31      31.0  T
     SCC iter.                  ...        0 min,  0.142 sec
     gradient                   ...        0 min,  0.081 sec
 * total energy  :  -142.7224402 Eh     change       -0.6346137E-02 Eh
   gradient norm :     0.0244652 Eh/α   predicted    -0.6359026E-02 (   0.20%)
   displ. norm   :     0.7672624 α      lambda       -0.7883999E-02
   maximum displ.:     0.4230934 α      in ANC's #9, #17, #8, ...

........................................................................
.............................. CYCLE   10 ..............................
........................................................................
   1   -145.2597754 -0.145260E+03  0.260E-01    1.31       0.0  T
   2   -145.2598713 -0.959056E-04  0.171E-01    1.32       1.0  T
   3   -145.2594971  0.374275E-03  0.764E-02    1.31       1.0  T
   4   -145.2599234 -0.426356E-03  0.383E-02    1.32       1.0  T
   5   -145.2599516 -0.281525E-04  0.269E-02    1.31       1.0  T
   6   -145.2599642 -0.126224E-04  0.134E-02    1.31       1.0  T
   7   -145.2599723 -0.814258E-05  0.676E-03    1.31       1.7  T
   8   -145.2599748 -0.245508E-05  0.480E-03    1.31       2.4  T
   9   -145.2599748 -0.456399E-07  0.329E-03    1.31       3.4  T
  10   -145.2599753 -0.488856E-06  0.121E-03    1.31       9.3  T
  11   -145.2599754 -0.591897E-07  0.755E-04    1.31      15.0  T
  12   -145.2599754 -0.116389E-07  0.397E-04    1.31      28.5  T
     SCC iter.                  ...        0 min,  0.141 sec
     gradient                   ...        0 min,  0.081 sec
 * total energy  :  -142.7270405 Eh     change       -0.4600227E-02 Eh
   gradient norm :     0.0270939 Eh/α   predicted    -0.6262650E-02 (  36.14%)
   displ. norm   :     0.6063176 α      lambda       -0.5290639E-02
   maximum displ.:     0.4031352 α      in ANC's #9, #17, #8, ...

........................................................................
.............................. CYCLE   11 ..............................
........................................................................
   1   -145.2604166 -0.145260E+03  0.161E-01    1.32       0.0  T
   2   -145.2604413 -0.247842E-04  0.104E-01    1.32       1.0  T
   3   -145.2602346  0.206779E-03  0.474E-02    1.32       1.0  T
   4   -145.2604508 -0.216206E-03  0.221E-02    1.32       1.0  T
   5   -145.2604667 -0.159654E-04  0.154E-02    1.32       1.0  T
   6   -145.2604723 -0.558912E-05  0.707E-03    1.32       1.6  T
   7   -145.2604737 -0.133310E-05  0.360E-03    1.32       3.1  T
   8   -145.2604741 -0.431371E-06  0.265E-03    1.32       4.3  T
   9   -145.2604742 -0.880573E-07  0.170E-03    1.32       6.6  T
  10   -145.2604743 -0.113353E-06  0.817E-04    1.32      13.9  T
  11   -145.2604743 -0.290878E-07  0.488E-04    1.32      23.2  T
     SCC iter.                  ...        0 min,  0.129 sec
     gradient                   ...        0 min,  0.081 sec
 * total energy  :  -142.7314437 Eh     change       -0.4403200E-02 Eh
   gradient norm :     0.0228535 Eh/α   predicted    -0.3617803E-02 ( -17.84%)
   displ. norm   :     0.6974485 α      lambda       -0.5160590E-02
   maximum displ.:     0.4796766 α      in ANC's #9, #8, #17, ...

........................................................................
.............................. CYCLE   12 ..............................
........................................................................
   1   -145.2631830 -0.145263E+03  0.182E-01    1.32       0.0  T
   2   -145.2632177 -0.346544E-04  0.117E-01    1.32       1.0  T
   3   -145.2628681  0.349578E-03  0.605E-02    1.32       1.0  T
   4   -145.2632201 -0.351985E-03  0.253E-02    1.32       1.0  T
   5   -145.2632605 -0.403684E-04  0.145E-02    1.32       1.0  T
   6   -145.2632600  0.435872E-06  0.829E-03    1.32       1.4  T
   7   -145.2632630 -0.299938E-05  0.472E-03    1.32       2.4  T
   8   -145.2632648 -0.178204E-05  0.224E-03    1.32       5.1  T
   9   -145.2632649 -0.836619E-07  0.134E-03    1.32       8.4  T
  10   -145.2632649  0.381203E-08  0.851E-04    1.32      13.3  T
  11   -145.2632649 -0.579575E-07  0.444E-04    1.32      25.5  T
     SCC iter.                  ...        0 min,  0.131 sec
     gradient                   ...        0 min,  0.081 sec
 * total energy  :  -142.7354769 Eh     change       -0.4033243E-02 Eh
   gradient norm :     0.0185307 Eh/α   predicted    -0.3835442E-02 (  -4.90%)
   displ. norm   :     0.7673196 α      lambda       -0.5043919E-02
   maximum displ.:     0.5236018 α      in ANC's #9, #8, #17, ...

........................................................................
.............................. CYCLE   13 ..............................
........................................................................
   1   -145.2607414 -0.145261E+03  0.214E-01    1.31       0.0  T
   2   -145.2607774 -0.360209E-04  0.139E-01    1.31       1.0  T
   3   -145.2598350  0.942394E-03  0.877E-02    1.31       1.0  T
   4   -145.2608188 -0.983730E-03  0.316E-02    1.31       1.0  T
   5   -145.2608671 -0.483466E-04  0.208E-02    1.31       1.0  T
   6   -145.2608621  0.502715E-05  0.161E-02    1.31       1.0  T
   7   -145.2608804 -0.183245E-04  0.522E-03    1.31       2.2  T
   8   -145.2608818 -0.141793E-05  0.277E-03    1.31       4.1  T
   9   -145.2608819 -0.926521E-07  0.173E-03    1.31       6.5  T
  10   -145.2608820 -0.390032E-07  0.946E-04    1.31      12.0  T
  11   -145.2608820 -0.363909E-07  0.542E-04    1.31      20.9  T
     SCC iter.                  ...        0 min,  0.129 sec
     gradient                   ...        0 min,  0.081 sec
 * total energy  :  -142.7387458 Eh     change       -0.3268902E-02 Eh
   gradient norm :     0.0216337 Eh/α   predicted    -0.4006837E-02 (  22.57%)
   displ. norm   :     0.6846183 α      lambda       -0.4071497E-02
   maximum displ.:     0.4961941 α      in ANC's #9, #8, #17, ...

........................................................................
.............................. CYCLE   14 ..............................
........................................................................
   1   -145.2484188 -0.145248E+03  0.167E-01    1.32       0.0  T
   2   -145.2484362 -0.173259E-04  0.106E-01    1.32       1.0  T
   3   -145.2481020  0.334191E-03  0.526E-02    1.32       1.0  T
   4   -145.2484398 -0.337834E-03  0.223E-02    1.32       1.0  T
   5   -145.2484655 -0.256939E-04  0.152E-02    1.32       1.0  T
   6   -145.2484672 -0.165408E-05  0.927E-03    1.32       1.2  T
   7   -145.2484723 -0.511489E-05  0.417E-03    1.32       2.7  T
   8   -145.2484734 -0.108653E-05  0.236E-03    1.32       4.8  T
   9   -145.2484734 -0.156139E-07  0.170E-03    1.32       6.7  T
  10   -145.2484735 -0.122642E-06  0.873E-04    1.32      13.0  T
  11   -145.2484735 -0.353119E-07  0.419E-04    1.32      27.0  T
     SCC iter.                  ...        0 min,  0.131 sec
     gradient                   ...        0 min,  0.081 sec
 * total energy  :  -142.7418132 Eh     change       -0.3067429E-02 Eh
   gradient norm :     0.0203888 Eh/α   predicted    -0.2989909E-02 (  -2.53%)
   displ. norm   :     0.6910526 α      lambda       -0.3428099E-02
   maximum displ.:     0.5245041 α      in ANC's #9, #8, #7, ...

........................................................................
.............................. CYCLE   15 ..............................
........................................................................
   1   -145.2515236 -0.145252E+03  0.167E-01    1.33       0.0  T
   2   -145.2515310 -0.744027E-05  0.105E-01    1.33       1.0  T
   3   -145.2509904  0.540601E-03  0.626E-02    1.33       1.0  T
   4   -145.2515537 -0.563290E-03  0.195E-02    1.33       1.0  T
   5   -145.2515770 -0.233245E-04  0.116E-02    1.33       1.0  T
   6   -145.2515733  0.371164E-05  0.912E-03    1.33       1.2  T
   7   -145.2515793 -0.600842E-05  0.368E-03    1.33       3.1  T
   8   -145.2515801 -0.805802E-06  0.195E-03    1.33       5.8  T
   9   -145.2515801  0.153104E-07  0.144E-03    1.33       7.9  T
  10   -145.2515802 -0.739699E-07  0.771E-04    1.33      14.7  T
  11   -145.2515802 -0.380606E-07  0.378E-04    1.33      30.0  T
     SCC iter.                  ...        0 min,  0.131 sec
     gradient                   ...        0 min,  0.080 sec
 * total energy  :  -142.7442001 Eh     change       -0.2386908E-02 Eh
   gradient norm :     0.0181611 Eh/α   predicted    -0.2532602E-02 (   6.10%)
   displ. norm   :     0.7040278 α      lambda       -0.2659522E-02
   maximum displ.:     0.4990371 α      in ANC's #9, #8, #7, ...

........................................................................
.............................. CYCLE   16 ..............................
........................................................................
   1   -145.2535108 -0.145254E+03  0.171E-01    1.32       0.0  T
   2   -145.2535222 -0.114564E-04  0.103E-01    1.32       1.0  T
   3   -145.2534322  0.900549E-04  0.336E-02    1.32       1.0  T
   4   -145.2535231 -0.909426E-04  0.125E-02    1.32       1.0  T
   5   -145.2535297 -0.655353E-05  0.802E-03    1.32       1.4  T
   6   -145.2535292  0.483081E-06  0.540E-03    1.32       2.1  T
   7   -145.2535318 -0.258308E-05  0.196E-03    1.32       5.8  T
   8   -145.2535321 -0.315078E-06  0.835E-04    1.32      13.6  T
   9   -145.2535321 -0.127039E-07  0.499E-04    1.32      22.7  T
     SCC iter.                  ...        0 min,  0.107 sec
     gradient                   ...        0 min,  0.080 sec
 * total energy  :  -142.7461659 Eh     change       -0.1965724E-02 Eh
   gradient norm :     0.0130326 Eh/α   predicted    -0.1988869E-02 (   1.18%)
   displ. norm   :     0.7111667 α      lambda       -0.2214687E-02
   maximum displ.:     0.5608290 α      in ANC's #9, #7, #8, ...

........................................................................
.............................. CYCLE   17 ..............................
........................................................................
   1   -145.2530987 -0.145253E+03  0.175E-01    1.33       0.0  T
   2   -145.2531008 -0.212420E-05  0.108E-01    1.33       1.0  T
   3   -145.2525789  0.521864E-03  0.596E-02    1.33       1.0  T
   4   -145.2531182 -0.539317E-03  0.165E-02    1.33       1.0  T
   5   -145.2531375 -0.192683E-04  0.976E-03    1.33       1.2  T
   6   -145.2531365  0.100180E-05  0.747E-03    1.33       1.5  T
   7   -145.2531395 -0.304397E-05  0.286E-03    1.33       4.0  T
   8   -145.2531400 -0.433805E-06  0.165E-03    1.33       6.9  T
   9   -145.2531400 -0.662014E-07  0.113E-03    1.33      10.1  T
  10   -145.2531401 -0.601470E-07  0.593E-04    1.33      19.1  T
  11   -145.2531401 -0.124367E-07  0.331E-04    1.33      34.2  T
     SCC iter.                  ...        0 min,  0.128 sec
     gradient                   ...        0 min,  0.080 sec
 * total energy  :  -142.7476110 Eh     change       -0.1445162E-02 Eh
   gradient norm :     0.0168600 Eh/α   predicted    -0.1667392E-02 (  15.38%)
   displ. norm   :     0.6362122 α      lambda       -0.1895310E-02
   maximum displ.:     0.4762444 α      in ANC's #9, #8, #7, ...

........................................................................
.............................. CYCLE   18 ..............................
........................................................................
   1   -145.2519575 -0.145252E+03  0.147E-01    1.33       0.0  T
   2   -145.2519601 -0.259572E-05  0.893E-02    1.33       1.0  T
   3   -145.2517574  0.202712E-03  0.362E-02    1.33       1.0  T
   4   -145.2519666 -0.209162E-03  0.109E-02    1.33       1.0  T
   5   -145.2519724 -0.587413E-05  0.729E-03    1.33       1.6  T
   6   -145.2519722  0.275350E-06  0.510E-03    1.33       2.2  T
   7   -145.2519739 -0.174200E-05  0.192E-03    1.33       5.9  T
   8   -145.2519741 -0.181242E-06  0.112E-03    1.33      10.1  T
   9   -145.2519741 -0.246618E-07  0.748E-04    1.33      15.1  T
  10   -145.2519741 -0.272607E-07  0.380E-04    1.33      29.8  T
     SCC iter.                  ...        0 min,  0.118 sec
     gradient                   ...        0 min,  0.080 sec
 * total energy  :  -142.7488655 Eh     change       -0.1254468E-02 Eh
   gradient norm :     0.0178624 Eh/α   predicted    -0.1331236E-02 (   6.12%)
   displ. norm   :     0.5690969 α      lambda       -0.1675391E-02
   maximum displ.:     0.4059684 α      in ANC's #9, #7, #8, ...

........................................................................
.............................. CYCLE   19 ..............................
........................................................................
   1   -145.2629467 -0.145263E+03  0.116E-01    1.32       0.0  T
   2   -145.2629541 -0.735856E-05  0.704E-02    1.32       1.0  T
   3   -145.2627191  0.234978E-03  0.408E-02    1.32       1.0  T
   4   -145.2629428 -0.223728E-03  0.167E-02    1.32       1.0  T
   5   -145.2629736 -0.307191E-04  0.654E-03    1.32       1.7  T
   6   -145.2629749 -0.139184E-05  0.437E-03    1.32       2.6  T
   7   -145.2629753 -0.336338E-06  0.199E-03    1.32       5.7  T
   8   -145.2629755 -0.220902E-06  0.113E-03    1.32      10.1  T
   9   -145.2629755 -0.336053E-07  0.795E-04    1.32      14.2  T
  10   -145.2629756 -0.250792E-07  0.379E-04    1.32      29.9  T
     SCC iter.                  ...        0 min,  0.118 sec
     gradient                   ...        0 min,  0.080 sec
 * total energy  :  -142.7500554 Eh     change       -0.1189939E-02 Eh
   gradient norm :     0.0159847 Eh/α   predicted    -0.1109001E-02 (  -6.80%)
   displ. norm   :     0.6443256 α      lambda       -0.1497965E-02
   maximum displ.:     0.4593286 α      in ANC's #9, #7, #8, ...

........................................................................
.............................. CYCLE   20 ..............................
........................................................................
   1   -145.2688627 -0.145269E+03  0.124E-01    1.32       0.0  T
   2   -145.2688671 -0.438150E-05  0.736E-02    1.32       1.0  T
   3   -145.2687846  0.825567E-04  0.252E-02    1.32       1.0  T
   4   -145.2688676 -0.830477E-04  0.844E-03    1.32       1.3  T
   5   -145.2688731 -0.548765E-05  0.454E-03    1.32       2.5  T
   6   -145.2688731 -0.471118E-07  0.329E-03    1.32       3.4  T
   7   -145.2688738 -0.632100E-06  0.147E-03    1.32       7.7  T
   8   -145.2688739 -0.127632E-06  0.699E-04    1.32      16.2  T
   9   -145.2688739  0.518241E-08  0.514E-04    1.32      22.0  T
     SCC iter.                  ...        0 min,  0.107 sec
     gradient                   ...        0 min,  0.080 sec
 * total energy  :  -142.7512121 Eh     change       -0.1156634E-02 Eh
   gradient norm :     0.0151810 Eh/α   predicted    -0.1059929E-02 (  -8.36%)
   displ. norm   :     0.7053256 α      lambda       -0.1667078E-02
   maximum displ.:     0.4789749 α      in ANC's #9, #7, #8, ...
 * RMSD in coord.:     1.1490493 α      energy gain  -0.7529241E+00 Eh

generating ANC from model Hessian ...
Using Lindh-Hessian (1995)
 Shifting diagonal of input Hessian by    1.0027108472252893E-002
 Lowest  eigenvalues of input Hessian
    0.010000    0.010009    0.010012    0.000000    0.000000    0.000000
    0.000000    0.000000    0.000000    0.010051    0.010139    0.010400
    0.011131    0.011307    0.011534    0.011865    0.012326    0.012532
 Highest eigenvalues
    2.143417    2.146480    2.150660    2.257486    2.690376    3.026431


........................................................................
.............................. CYCLE   21 ..............................
........................................................................
   1   -145.2647087 -0.145265E+03  0.137E-01    1.31       0.0  T
   2   -145.2647146 -0.593867E-05  0.820E-02    1.31       1.0  T
   3   -145.2645874  0.127189E-03  0.316E-02    1.31       1.0  T
   4   -145.2647132 -0.125775E-03  0.104E-02    1.31       1.1  T
   5   -145.2647235 -0.103246E-04  0.548E-03    1.31       2.1  T
   6   -145.2647241 -0.586943E-06  0.389E-03    1.31       2.9  T
   7   -145.2647247 -0.596639E-06  0.153E-03    1.31       7.4  T
   8   -145.2647248 -0.723192E-07  0.901E-04    1.31      12.6  T
   9   -145.2647248 -0.292321E-07  0.555E-04    1.31      20.4  T
     SCC iter.                  ...        0 min,  0.107 sec
     gradient                   ...        0 min,  0.080 sec
 * total energy  :  -142.7524367 Eh     change       -0.1224609E-02 Eh
   gradient norm :     0.0142974 Eh/α   predicted     0.0000000E+00 (-100.00%)
   displ. norm   :     0.1777132 α      lambda       -0.7803970E-03
   maximum displ.:     0.1060555 α      in ANC's #9, #17, #8, ...

........................................................................
.............................. CYCLE   22 ..............................
........................................................................
   1   -145.2678080 -0.145268E+03  0.560E-02    1.31       0.0  T
   2   -145.2678091 -0.116959E-05  0.342E-02    1.31       1.0  T
   3   -145.2677624  0.466919E-04  0.186E-02    1.31       1.0  T
   4   -145.2678089 -0.464908E-04  0.593E-03    1.31       1.9  T
   5   -145.2678127 -0.381370E-05  0.240E-03    1.31       4.7  T
   6   -145.2678127  0.800449E-07  0.173E-03    1.31       6.5  T
   7   -145.2678128 -0.143799E-06  0.632E-04    1.31      17.9  T
   8   -145.2678128 -0.269962E-07  0.285E-04    1.31      39.8  T
     SCC iter.                  ...        0 min,  0.094 sec
     gradient                   ...        0 min,  0.080 sec
 * total energy  :  -142.7530303 Eh     change       -0.5936024E-03 Eh
   gradient norm :     0.0060938 Eh/α   predicted    -0.4025315E-03 ( -32.19%)
   displ. norm   :     0.3820572 α      lambda       -0.9289968E-03
   maximum displ.:     0.2412242 α      in ANC's #9, #17, #15, ...

........................................................................
.............................. CYCLE   23 ..............................
........................................................................
   1   -145.2709017 -0.145271E+03  0.100E-01    1.31       0.0  T
   2   -145.2709039 -0.219100E-05  0.604E-02    1.31       1.0  T
   3   -145.2707617  0.142214E-03  0.326E-02    1.31       1.0  T
   4   -145.2709050 -0.143305E-03  0.908E-03    1.31       1.2  T
   5   -145.2709139 -0.887802E-05  0.341E-03    1.31       3.3  T
   6   -145.2709138  0.717683E-07  0.251E-03    1.31       4.5  T
   7   -145.2709140 -0.199733E-06  0.123E-03    1.31       9.2  T
   8   -145.2709141 -0.982243E-07  0.591E-04    1.31      19.2  T
   9   -145.2709141 -0.138351E-07  0.381E-04    1.31      29.7  T
     SCC iter.                  ...        0 min,  0.107 sec
     gradient                   ...        0 min,  0.080 sec
 * total energy  :  -142.7536275 Eh     change       -0.5972601E-03 Eh
   gradient norm :     0.0080858 Eh/α   predicted    -0.5323004E-03 ( -10.88%)
   displ. norm   :     0.4013629 α      lambda       -0.7392592E-03
   maximum displ.:     0.2546273 α      in ANC's #9, #8, #17, ...

........................................................................
.............................. CYCLE   24 ..............................
........................................................................
   1   -145.2709968 -0.145271E+03  0.116E-01    1.31       0.0  T
   2   -145.2709987 -0.184730E-05  0.696E-02    1.31       1.0  T
   3   -145.2709170  0.816640E-04  0.259E-02    1.31       1.0  T
   4   -145.2709998 -0.827924E-04  0.688E-03    1.31       1.6  T
   5   -145.2710035 -0.373568E-05  0.344E-03    1.31       3.3  T
   6   -145.2710035  0.275736E-07  0.251E-03    1.31       4.5  T
   7   -145.2710038 -0.282441E-06  0.130E-03    1.31       8.7  T
   8   -145.2710039 -0.120556E-06  0.529E-04    1.31      21.4  T
   9   -145.2710039 -0.558089E-08  0.360E-04    1.31      31.5  T
     SCC iter.                  ...        0 min,  0.107 sec
     gradient                   ...        0 min,  0.080 sec
 * total energy  :  -142.7539396 Eh     change       -0.3120982E-03 Eh
   gradient norm :     0.0125723 Eh/α   predicted    -0.4291744E-03 (  37.51%)
   displ. norm   :     0.2667268 α      lambda       -0.6229265E-03
   maximum displ.:     0.1812437 α      in ANC's #9, #8, #17, ...

........................................................................
.............................. CYCLE   25 ..............................
........................................................................
   1   -145.2731904 -0.145273E+03  0.909E-02    1.31       0.0  T
   2   -145.2731910 -0.590634E-06  0.543E-02    1.31       1.0  T
   3   -145.2731686  0.224748E-04  0.147E-02    1.31       1.0  T
   4   -145.2731918 -0.232721E-04  0.325E-03    1.31       3.5  T
   5   -145.2731922 -0.344451E-06  0.224E-03    1.31       5.1  T
   6   -145.2731923 -0.133611E-06  0.134E-03    1.31       8.5  T
   7   -145.2731924 -0.111008E-06  0.517E-04    1.31      21.9  T
   8   -145.2731924 -0.161950E-07  0.318E-04    1.31      35.7  T
     SCC iter.                  ...        0 min,  0.095 sec
     gradient                   ...        0 min,  0.080 sec
 * total energy  :  -142.7543398 Eh     change       -0.4002113E-03 Eh
   gradient norm :     0.0097370 Eh/α   predicted    -0.3336220E-03 ( -16.64%)
   displ. norm   :     0.3111860 α      lambda       -0.6605831E-03
   maximum displ.:     0.2140007 α      in ANC's #9, #8, #17, ...

........................................................................
.............................. CYCLE   26 ..............................
........................................................................
   1   -145.2750958 -0.145275E+03  0.108E-01    1.30       0.0  T
   2   -145.2750973 -0.151654E-05  0.644E-02    1.30       1.0  T
   3   -145.2750432  0.540945E-04  0.191E-02    1.30       1.0  T
   4   -145.2750979 -0.546701E-04  0.489E-03    1.30       2.3  T
   5   -145.2751008 -0.291828E-05  0.207E-03    1.30       5.5  T
   6   -145.2751008  0.281553E-07  0.160E-03    1.30       7.1  T
   7   -145.2751009 -0.129836E-06  0.647E-04    1.30      17.5  T
   8   -145.2751009 -0.174504E-07  0.338E-04    1.30      33.5  T
     SCC iter.                  ...        0 min,  0.095 sec
     gradient                   ...        0 min,  0.080 sec
 * total energy  :  -142.7546798 Eh     change       -0.3399292E-03 Eh
   gradient norm :     0.0055826 Eh/α   predicted    -0.3622777E-03 (   6.57%)
   displ. norm   :     0.2691484 α      lambda       -0.3646919E-03
   maximum displ.:     0.1931506 α      in ANC's #9, #8, #17, ...

........................................................................
.............................. CYCLE   27 ..............................
........................................................................
   1   -145.2768271 -0.145277E+03  0.640E-02    1.30       0.0  T
   2   -145.2768279 -0.751864E-06  0.382E-02    1.30       1.0  T
   3   -145.2768114  0.164875E-04  0.108E-02    1.30       1.1  T
   4   -145.2768280 -0.166652E-04  0.369E-03    1.30       3.1  T
   5   -145.2768291 -0.100845E-05  0.220E-03    1.30       5.1  T
   6   -145.2768290  0.100197E-06  0.172E-03    1.30       6.6  T
   7   -145.2768292 -0.222233E-06  0.588E-04    1.30      19.3  T
   8   -145.2768292 -0.181906E-07  0.314E-04    1.30      36.1  T
     SCC iter.                  ...        0 min,  0.095 sec
     gradient                   ...        0 min,  0.080 sec
 * total energy  :  -142.7549833 Eh     change       -0.3035262E-03 Eh
   gradient norm :     0.0049296 Eh/α   predicted    -0.1955582E-03 ( -35.57%)
   displ. norm   :     0.3572093 α      lambda       -0.4198719E-03
   maximum displ.:     0.2507000 α      in ANC's #9, #8, #5, ...

........................................................................
.............................. CYCLE   28 ..............................
........................................................................
   1   -145.2773907 -0.145277E+03  0.701E-02    1.30       0.0  T
   2   -145.2773918 -0.103145E-05  0.416E-02    1.30       1.0  T
   3   -145.2773789  0.128237E-04  0.990E-03    1.30       1.1  T
   4   -145.2773918 -0.129043E-04  0.352E-03    1.30       3.2  T
   5   -145.2773928 -0.949445E-06  0.203E-03    1.30       5.6  T
   6   -145.2773928  0.374760E-07  0.151E-03    1.30       7.5  T
   7   -145.2773929 -0.154266E-06  0.537E-04    1.30      21.1  T
   8   -145.2773929 -0.194549E-07  0.247E-04    1.30      45.8  T
     SCC iter.                  ...        0 min,  0.093 sec
     gradient                   ...        0 min,  0.080 sec
 * total energy  :  -142.7553304 Eh     change       -0.3470832E-03 Eh
   gradient norm :     0.0042543 Eh/α   predicted    -0.2367252E-03 ( -31.80%)
   displ. norm   :     0.3941372 α      lambda       -0.3669620E-03
   maximum displ.:     0.2772638 α      in ANC's #9, #8, #5, ...

........................................................................
.............................. CYCLE   29 ..............................
........................................................................
   1   -145.2772199 -0.145277E+03  0.680E-02    1.30       0.0  T
   2   -145.2772210 -0.108926E-05  0.403E-02    1.30       1.0  T
   3   -145.2772146  0.640443E-05  0.775E-03    1.30       1.5  T
   4   -145.2772208 -0.620254E-05  0.350E-03    1.30       3.2  T
   5   -145.2772215 -0.757048E-06  0.224E-03    1.30       5.1  T
   6   -145.2772216 -0.102704E-06  0.139E-03    1.30       8.1  T
   7   -145.2772217 -0.128251E-06  0.477E-04    1.30      23.8  T
   8   -145.2772218 -0.131911E-07  0.215E-04    1.30      52.6  T
     SCC iter.                  ...        0 min,  0.093 sec
     gradient                   ...        0 min,  0.080 sec
 * total energy  :  -142.7556537 Eh     change       -0.3233089E-03 Eh
   gradient norm :     0.0047516 Eh/α   predicted    -0.2119884E-03 ( -34.43%)
   displ. norm   :     0.4490514 α      lambda       -0.3872193E-03
   maximum displ.:     0.3120356 α      in ANC's #9, #8, #5, ...

........................................................................
.............................. CYCLE   30 ..............................
........................................................................
   1   -145.2765069 -0.145277E+03  0.750E-02    1.30       0.0  T
   2   -145.2765083 -0.131699E-05  0.444E-02    1.30       1.0  T
   3   -145.2765033  0.494413E-05  0.733E-03    1.30       1.5  T
   4   -145.2765076 -0.429775E-05  0.418E-03    1.30       2.7  T
   5   -145.2765088 -0.113941E-05  0.255E-03    1.30       4.4  T
   6   -145.2765089 -0.194105E-06  0.131E-03    1.30       8.6  T
   7   -145.2765090 -0.982514E-07  0.489E-04    1.30      23.1  T
   8   -145.2765091 -0.779457E-08  0.272E-04    1.30      41.6  T
     SCC iter.                  ...        0 min,  0.093 sec
     gradient                   ...        0 min,  0.080 sec
 * total energy  :  -142.7560029 Eh     change       -0.3491878E-03 Eh
   gradient norm :     0.0048258 Eh/α   predicted    -0.2326518E-03 ( -33.37%)
   displ. norm   :     0.5452195 α      lambda       -0.4373492E-03
   maximum displ.:     0.3758358 α      in ANC's #9, #8, #5, ...

........................................................................
.............................. CYCLE   31 ..............................
........................................................................
   1   -145.2752968 -0.145275E+03  0.902E-02    1.30       0.0  T
   2   -145.2752987 -0.188757E-05  0.534E-02    1.30       1.0  T
   3   -145.2752920  0.665258E-05  0.845E-03    1.30       1.3  T
   4   -145.2752983 -0.633030E-05  0.435E-03    1.30       2.6  T
   5   -145.2752994 -0.105610E-05  0.278E-03    1.30       4.1  T
   6   -145.2752995 -0.144406E-06  0.176E-03    1.30       6.4  T
   7   -145.2752998 -0.218261E-06  0.651E-04    1.30      17.4  T
   8   -145.2752998 -0.169427E-07  0.332E-04    1.30      34.1  T
     SCC iter.                  ...        0 min,  0.095 sec
     gradient                   ...        0 min,  0.080 sec
 * total energy  :  -142.7563885 Eh     change       -0.3856158E-03 Eh
   gradient norm :     0.0039682 Eh/α   predicted    -0.2836796E-03 ( -26.43%)
   displ. norm   :     0.6302215 α      lambda       -0.4275166E-03
   maximum displ.:     0.4337437 α      in ANC's #9, #8, #5, ...

........................................................................
.............................. CYCLE   32 ..............................
........................................................................
   1   -145.2739321 -0.145274E+03  0.102E-01    1.29       0.0  T
   2   -145.2739345 -0.242627E-05  0.604E-02    1.29       1.0  T
   3   -145.2739257  0.885576E-05  0.931E-03    1.29       1.2  T
   4   -145.2739347 -0.907548E-05  0.437E-03    1.29       2.6  T
   5   -145.2739358 -0.104593E-05  0.271E-03    1.29       4.2  T
   6   -145.2739359 -0.161006E-06  0.136E-03    1.29       8.3  T
   7   -145.2739360 -0.598280E-07  0.799E-04    1.29      14.2  T
   8   -145.2739360 -0.352444E-07  0.424E-04    1.29      26.7  T
     SCC iter.                  ...        0 min,  0.095 sec
     gradient                   ...        0 min,  0.080 sec
 * total energy  :  -142.7567502 Eh     change       -0.3616697E-03 Eh
   gradient norm :     0.0031443 Eh/α   predicted    -0.2986621E-03 ( -17.42%)
   displ. norm   :     0.6487761 α      lambda       -0.3423271E-03
   maximum displ.:     0.4488283 α      in ANC's #9, #8, #5, ...

........................................................................
.............................. CYCLE   33 ..............................
........................................................................
   1   -145.2731334 -0.145273E+03  0.103E-01    1.29       0.0  T
   2   -145.2731356 -0.224980E-05  0.609E-02    1.29       1.0  T
   3   -145.2731244  0.112316E-04  0.949E-03    1.29       1.2  T
   4   -145.2731361 -0.116618E-04  0.401E-03    1.29       2.8  T
   5   -145.2731370 -0.973312E-06  0.251E-03    1.29       4.5  T
   6   -145.2731371 -0.903895E-07  0.146E-03    1.29       7.8  T
   7   -145.2731372 -0.883776E-07  0.806E-04    1.29      14.1  T
   8   -145.2731373 -0.421990E-07  0.367E-04    1.29      30.8  T
     SCC iter.                  ...        0 min,  0.095 sec
     gradient                   ...        0 min,  0.080 sec
 * total energy  :  -142.7570286 Eh     change       -0.2784852E-03 Eh
   gradient norm :     0.0031764 Eh/α   predicted    -0.2432107E-03 ( -12.67%)
   displ. norm   :     0.6314749 α      lambda       -0.2529124E-03
   maximum displ.:     0.4403223 α      in ANC's #9, #8, #5, ...

........................................................................
.............................. CYCLE   34 ..............................
........................................................................
   1   -145.2734494 -0.145273E+03  0.989E-02    1.29       0.0  T
   2   -145.2734513 -0.185115E-05  0.582E-02    1.29       1.0  T
   3   -145.2734402  0.110697E-04  0.896E-03    1.29       1.3  T
   4   -145.2734519 -0.116897E-04  0.334E-03    1.29       3.4  T
   5   -145.2734525 -0.626400E-06  0.219E-03    1.29       5.2  T
   6   -145.2734526 -0.770624E-07  0.138E-03    1.29       8.2  T
   7   -145.2734527 -0.119710E-06  0.618E-04    1.29      18.3  T
   8   -145.2734527 -0.206502E-07  0.300E-04    1.29      37.7  T
     SCC iter.                  ...        0 min,  0.094 sec
     gradient                   ...        0 min,  0.080 sec
 * total energy  :  -142.7572272 Eh     change       -0.1985707E-03 Eh
   gradient norm :     0.0032875 Eh/α   predicted    -0.1768854E-03 ( -10.92%)
   displ. norm   :     0.5453417 α      lambda       -0.1709233E-03
   maximum displ.:     0.3827748 α      in ANC's #9, #8, #5, ...

........................................................................
.............................. CYCLE   35 ..............................
........................................................................
   1   -145.2753355 -0.145275E+03  0.843E-02    1.29       0.0  T
   2   -145.2753368 -0.133466E-05  0.495E-02    1.29       1.0  T
   3   -145.2753290  0.784698E-05  0.738E-03    1.29       1.5  T
   4   -145.2753374 -0.844647E-05  0.229E-03    1.29       4.9  T
   5   -145.2753378 -0.358270E-06  0.140E-03    1.29       8.1  T
   6   -145.2753378 -0.162241E-07  0.954E-04    1.29      11.9  T
   7   -145.2753379 -0.646520E-07  0.388E-04    1.29      29.2  T
     SCC iter.                  ...        0 min,  0.083 sec
     gradient                   ...        0 min,  0.080 sec
 * total energy  :  -142.7573594 Eh     change       -0.1321369E-03 Eh
   gradient norm :     0.0027904 Eh/α   predicted    -0.1108786E-03 ( -16.09%)
   displ. norm   :     0.4811157 α      lambda       -0.1142317E-03
   maximum displ.:     0.3396181 α      in ANC's #9, #8, #5, ...

........................................................................
.............................. CYCLE   36 ..............................
........................................................................
   1   -145.2771485 -0.145277E+03  0.741E-02    1.29       0.0  T
   2   -145.2771496 -0.106458E-05  0.434E-02    1.29       1.0  T
   3   -145.2771456  0.401262E-05  0.580E-03    1.29       2.0  T
   4   -145.2771500 -0.446056E-05  0.179E-03    1.29       6.3  T
   5   -145.2771503 -0.232953E-06  0.964E-04    1.29      11.7  T
   6   -145.2771503 -0.161535E-07  0.416E-04    1.29      27.2  T
     SCC iter.                  ...        0 min,  0.071 sec
     gradient                   ...        0 min,  0.080 sec
 * total energy  :  -142.7574453 Eh     change       -0.8591860E-04 Eh
   gradient norm :     0.0021589 Eh/α   predicted    -0.7034277E-04 ( -18.13%)
   displ. norm   :     0.3969043 α      lambda       -0.6835593E-04
   maximum displ.:     0.2820413 α      in ANC's #9, #8, #5, ...

........................................................................
.............................. CYCLE   37 ..............................
........................................................................
   1   -145.2787530 -0.145279E+03  0.611E-02    1.29       0.0  T
   2   -145.2787537 -0.738617E-06  0.359E-02    1.29       1.0  T
   3   -145.2787503  0.345424E-05  0.589E-03    1.29       1.9  T
   4   -145.2787539 -0.364824E-05  0.221E-03    1.29       5.1  T
   5   -145.2787542 -0.251043E-06  0.134E-03    1.29       8.4  T
   6   -145.2787542 -0.155512E-08  0.905E-04    1.29      12.5  T
   7   -145.2787542 -0.644905E-07  0.336E-04    1.29      33.7  T
     SCC iter.                  ...        0 min,  0.082 sec
     gradient                   ...        0 min,  0.080 sec
 * total energy  :  -142.7574939 Eh     change       -0.4865429E-04 Eh
   gradient norm :     0.0017178 Eh/α   predicted    -0.3956785E-04 ( -18.68%)
   displ. norm   :     0.3624666 α      lambda       -0.3004906E-04
   maximum displ.:     0.2604198 α      in ANC's #9, #8, #5, ...

........................................................................
.............................. CYCLE   38 ..............................
........................................................................
   1   -145.2805542 -0.145281E+03  0.567E-02    1.29       0.0  T
   2   -145.2805548 -0.605093E-06  0.335E-02    1.29       1.0  T
   3   -145.2805488  0.600633E-05  0.739E-03    1.29       1.5  T
   4   -145.2805551 -0.629449E-05  0.266E-03    1.29       4.3  T
   5   -145.2805553 -0.201792E-06  0.181E-03    1.29       6.3  T
   6   -145.2805553  0.141002E-07  0.126E-03    1.29       9.0  T
   7   -145.2805554 -0.117505E-06  0.430E-04    1.29      26.3  T
   8   -145.2805554 -0.824940E-08  0.235E-04    1.29      48.1  T
     SCC iter.                  ...        0 min,  0.095 sec
     gradient                   ...        0 min,  0.080 sec
 * total energy  :  -142.7575193 Eh     change       -0.2538119E-04 Eh
   gradient norm :     0.0015489 Eh/α   predicted    -0.1590441E-04 ( -37.34%)
   displ. norm   :     0.0816379 α      lambda       -0.7658695E-05
   maximum displ.:     0.0615205 α      in ANC's #9, #8, #11, ...

........................................................................
.............................. CYCLE   39 ..............................
........................................................................
   1   -145.2802073 -0.145280E+03  0.148E-02    1.29       0.0  T
   2   -145.2802073 -0.671795E-07  0.892E-03    1.29       1.3  T
   3   -145.2802062  0.109735E-05  0.304E-03    1.29       3.7  T
   4   -145.2802074 -0.110686E-05  0.114E-03    1.29       9.9  T
   5   -145.2802074 -0.673894E-07  0.769E-04    1.29      14.7  T
   6   -145.2802074  0.161947E-09  0.541E-04    1.29      20.9  T
     SCC iter.                  ...        0 min,  0.073 sec
     gradient                   ...        0 min,  0.080 sec
 * total energy  :  -142.7575268 Eh     change       -0.7479694E-05 Eh
   gradient norm :     0.0010977 Eh/α   predicted    -0.3842746E-05 ( -48.62%)
   displ. norm   :     0.0613614 α      lambda       -0.9742231E-05
   maximum displ.:     0.0289476 α      in ANC's #17, #8, #11, ...

........................................................................
.............................. CYCLE   40 ..............................
........................................................................
   1   -145.2820305 -0.145282E+03  0.156E-02    1.29       0.0  T
   2   -145.2820306 -0.119911E-06  0.965E-03    1.29       1.2  T
   3   -145.2820277  0.292513E-05  0.493E-03    1.29       2.3  T
   4   -145.2820306 -0.291254E-05  0.180E-03    1.29       6.3  T
   5   -145.2820308 -0.234702E-06  0.101E-03    1.29      11.2  T
   6   -145.2820308  0.338482E-07  0.858E-04    1.29      13.2  T
   7   -145.2820309 -0.539124E-07  0.256E-04    1.29      44.3  T
     SCC iter.                  ...        0 min,  0.083 sec
     gradient                   ...        0 min,  0.080 sec
 * total energy  :  -142.7575335 Eh     change       -0.6680905E-05 Eh
   gradient norm :     0.0011799 Eh/α   predicted    -0.4881022E-05 ( -26.94%)
   displ. norm   :     0.0339906 α      lambda       -0.4824869E-05
   maximum displ.:     0.0259709 α      in ANC's #9, #17, #11, ...

........................................................................
.............................. CYCLE   41 ..............................
........................................................................
   1   -145.2800280 -0.145280E+03  0.850E-03    1.29       0.0  T
   2   -145.2800281 -0.760165E-07  0.521E-03    1.29       2.2  T
   3   -145.2800278  0.207755E-06  0.159E-03    1.29       7.1  T
   4   -145.2800280 -0.137134E-06  0.997E-04    1.29      11.4  T
   5   -145.2800281 -0.921764E-07  0.410E-04    1.29      27.6  T
     SCC iter.                  ...        0 min,  0.059 sec
     gradient                   ...        0 min,  0.080 sec
 * total energy  :  -142.7575367 Eh     change       -0.3229557E-05 Eh
   gradient norm :     0.0011464 Eh/α   predicted    -0.2414626E-05 ( -25.23%)
   displ. norm   :     0.0356574 α      lambda       -0.4684793E-05
   maximum displ.:     0.0185731 α      in ANC's #9, #8, #7, ...

........................................................................
.............................. CYCLE   42 ..............................
........................................................................
   1   -145.2805373 -0.145281E+03  0.844E-03    1.29       0.0  T
   2   -145.2805374 -0.279285E-07  0.506E-03    1.29       2.2  T
   3   -145.2805370  0.400237E-06  0.194E-03    1.29       5.8  T
   4   -145.2805374 -0.387533E-06  0.688E-04    1.29      16.5  T
   5   -145.2805374 -0.430882E-07  0.320E-04    1.29      35.4  T
     SCC iter.                  ...        0 min,  0.059 sec
     gradient                   ...        0 min,  0.080 sec
 * total energy  :  -142.7575417 Eh     change       -0.5035365E-05 Eh
   gradient norm :     0.0009358 Eh/α   predicted    -0.2348394E-05 ( -53.36%)
   displ. norm   :     0.0664104 α      lambda       -0.6062755E-05
   maximum displ.:     0.0380555 α      in ANC's #9, #8, #7, ...
 * RMSD in coord.:     0.7887615 α      energy gain  -0.6329674E-02 Eh

generating ANC from model Hessian ...
Using Lindh-Hessian (1995)
 Shifting diagonal of input Hessian by    1.0031173884095178E-002
 Lowest  eigenvalues of input Hessian
    0.010000    0.010010    0.010018    0.000000    0.000000    0.000000
    0.000000    0.000000    0.000000    0.010068    0.010176    0.010594
    0.011175    0.011182    0.011263    0.011554    0.012115    0.012450
 Highest eigenvalues
    2.153308    2.154048    2.155489    2.266085    2.696664    3.031719


........................................................................
.............................. CYCLE   43 ..............................
........................................................................
   1   -145.2807984 -0.145281E+03  0.149E-02    1.29       0.0  T
   2   -145.2807984 -0.250670E-07  0.897E-03    1.29       1.3  T
   3   -145.2807967  0.171576E-05  0.357E-03    1.29       3.2  T
   4   -145.2807984 -0.174218E-05  0.115E-03    1.29       9.9  T
   5   -145.2807985 -0.639625E-07  0.747E-04    1.29      15.2  T
   6   -145.2807985 -0.431396E-08  0.474E-04    1.29      23.9  T
     SCC iter.                  ...        0 min,  0.072 sec
     gradient                   ...        0 min,  0.080 sec
 * total energy  :  -142.7575479 Eh     change       -0.6174604E-05 Eh
   gradient norm :     0.0010061 Eh/α   predicted     0.0000000E+00 (-100.00%)
   displ. norm   :     0.0173668 α      lambda       -0.3205172E-05
   maximum displ.:     0.0100252 α      in ANC's #8, #7, #17, ...

........................................................................
.............................. CYCLE   44 ..............................
........................................................................
   1   -145.2806204 -0.145281E+03  0.581E-03    1.29       0.0  T
   2   -145.2806205 -0.441087E-07  0.374E-03    1.29       3.0  T
   3   -145.2806203  0.165534E-06  0.160E-03    1.29       7.1  T
   4   -145.2806205 -0.175892E-06  0.826E-04    1.29      13.7  T
   5   -145.2806205 -0.228594E-07  0.563E-04    1.29      20.1  T
     SCC iter.                  ...        0 min,  0.059 sec
     gradient                   ...        0 min,  0.080 sec
 * total energy  :  -142.7575505 Eh     change       -0.2612259E-05 Eh
   gradient norm :     0.0005417 Eh/α   predicted    -0.1808717E-05 ( -30.76%)
   displ. norm   :     0.0292758 α      lambda       -0.3312209E-05
   maximum displ.:     0.0178760 α      in ANC's #8, #7, #17, ...

   *** GEOMETRY OPTIMIZATION CONVERGED AFTER 44 ITERATIONS ***

------------------------------------------------------------------------
 total energy gain   :        -0.7592626 Eh     -476.4445 kcal/mol
 total RMSD          :         1.7658088 a0        0.9344 Å
 total power (kW/mol):       -45.3055375 (step) -210.5711 (real)
------------------------------------------------------------------------

 ANCopt (total)                0 d,  0 h,  0 min,  9.467 sec
 optimizer setup                ...        0 min,  0.000 sec (  0.001%)
 model hessian                  ...        0 min,  0.039 sec (  0.417%)
 ANC generation                 ...        0 min,  0.017 sec (  0.183%)
 coordinate transformation      ...        0 min,  0.002 sec (  0.025%)
 single point calculation       ...        0 min,  9.384 sec ( 99.128%)
 optimization log               ...        0 min,  0.012 sec (  0.124%)
 hessian update                 ...        0 min,  0.002 sec (  0.020%)
 rational function              ...        0 min,  0.008 sec (  0.080%)

================
 final structure:
================
78
 xtb: 6.4.1 (bd6e46d)
Ni        6.66277907759898   -0.05276026312753    0.00891207995045
C         9.11855584632369   -3.49549238728680    0.08656106599903
C        10.08149542652688   -2.54689114458017    0.12257330720760
C         9.40830402365665   -1.28347795997825    0.09116997044359
C        10.08987544928232   -0.06260819017336    0.09220404272791
C         9.41634134035203    1.16220127625770    0.05349828904471
C        10.09790804550093    2.42148261182836    0.04051879523720
C         9.14029060884742    3.37553680722128    0.00751746531968
C         7.88168524994616    2.69208030189239    0.00373488386398
N         8.06597590763583    1.33521691051877    0.02790069315045
C         6.66892705613737    3.34956579860596   -0.00759472931153
C         5.45352932508633    2.69714543198397   -0.00145513070525
C         4.19400857240783    3.38416198546063    0.00251808512259
C         3.23589783898380    2.43235357914962    0.00232009741216
C         3.91429394142747    1.16782082399621   -0.00533652876215
N         5.26844767901089    1.34375273929976   -0.00302532208198
C         3.25259475883351   -0.04290202804816   -0.02999002392084
C         3.90779532595621   -1.25721437682759   -0.05052133086874
C         3.22283758123160   -2.51744141648354   -0.09415105983906
C         4.17565874198031   -3.47452400016509   -0.09718192095397
C         5.43851569766538   -2.79509041083615   -0.05186231710030
N         5.26073769571828   -1.44093035342922   -0.02909544395779
C         6.64953306770328   -3.45473748662511   -0.01827134830239
C         7.86504816278980   -2.80454545528841    0.03653350197399
N         8.05745212446431   -1.44859503949909    0.04409510569842
H         9.22410941770471   -4.56291662000141    0.09313686599703
H        11.14679518796155   -2.66539399785630    0.16424658944519
H        11.16455525571865    2.53399302835288    0.05444790310964
H         9.25256796398479    4.44209747713925   -0.01100013351862
H         6.67265363244479    4.42880502604313   -0.01748641953509
H         4.08589519918137    4.45156134105826    0.00584766482767
H         2.16926236060632    2.54763266203286    0.00477488884805
H         2.17349830249916   -0.03980561282923   -0.03907461317094
H         2.15586367130064   -2.62666698488862   -0.11952179553366
H         4.06189404809912   -4.54096229330643   -0.12503819470653
H         6.64714928692214   -4.53394923433704   -0.03082607346136
C        11.48634308229267   -0.06529265648992    0.12339204046498
C        12.70561988717082   -0.06285287674348    0.14304982428757
C        14.04226809800376   -0.05777785023574    0.15866623116918
C        15.26614727084661   -0.04695626023726    0.16742714380855
C        16.60276758896353   -0.03184777790821    0.17029894463846
C        17.82204055743872   -0.01417873519744    0.17136488836581
Ni       22.63486511545223    0.05404487062723   -0.02673322710044
C        20.14347892968622    3.44847628397329    0.31008375070072
C        19.19122539696433    2.48981953139756    0.25187207497702
C        19.88015333110461    1.23812643195882    0.15663884342232
C        19.21835253267498    0.00587606218557    0.15758735966005
C        19.91553520989939   -1.20640127298879    0.18749609056559
C        19.26449089232402   -2.47471429695187    0.32082781700110
C        20.24378393910725   -3.40679982202915    0.35746000767498
C        21.48398476988103   -2.70326235368379    0.22201288037852
N        21.26770591759832   -1.35404588122605    0.13099133990408
C        22.70568242104623   -3.33840286901402    0.13110609238677
C        23.88880589327063   -2.66900302183432   -0.10636600495548
C        25.14193184451034   -3.33545674594137   -0.31594102307454
C        26.05478571374707   -2.37136019915530   -0.56454757877327
C        25.36066608482703   -1.11809518644006   -0.48161042437669
N        24.03683609324424   -1.31527653005243   -0.21110517564642
C        25.99026184737334    0.10453894948650   -0.60069689476611
C        25.33618817444004    1.30562086516145   -0.41331474526759
C        26.00506580406479    2.57516255915815   -0.41995985976402
C        25.06567521837727    3.50806493364466   -0.15195280475427
C        23.82198541483933    2.80739275140000   -0.00796132313146
N        24.00348075801957    1.46225934604360   -0.16093622403739
C        22.61431087006801    3.44339414506816    0.19465076928747
C        21.40586777905680    2.77763412735510    0.22341492231532
N        21.22890621647976    1.42274831348539    0.13194618615789
H        20.02425067689395    4.51133665502259    0.39166948471687
H        18.12400410446152    2.59434647298520    0.28102155898697
H        18.20202290877379   -2.60720023319474    0.38646408657089
H        20.15639995525368   -4.47154050379734    0.45349842296405
H        22.73048274517544   -4.41452989178462    0.20945472852261
H        25.27598786718947   -4.39938630769050   -0.28248564019963
H        27.10221027218404   -2.47150330652108   -0.77407744184265
H        27.04889930459412    0.12118025108435   -0.80929466454826
H        27.05495527949794    2.70621911680259   -0.59768893554476
H        25.17555504545721    4.57194501172345   -0.06759891320400
H        22.60936031624409    4.51809135528042    0.29392948242146

 Bond Distances (Angstroems)
 ---------------------------
Ni1-N10=1.9738       Ni1-N16=1.9735       Ni1-N22=1.9734       Ni1-N25=1.9735       C2-C3=1.3522         C2-C24=1.4322        
C2-H26=1.0727        C3-C2=1.3522         C3-C4=1.4319         C3-H27=1.0727        C4-C3=1.4319         C4-C5=1.3982         
C4-N25=1.3617        C5-C4=1.3982         C5-C6=1.3983         C5-C37=1.3968        C6-C5=1.3983         C6-C7=1.4320         
C6-N10=1.3616        C7-C6=1.4320         C7-C8=1.3522         C7-H28=1.0727        C8-C7=1.3522         C8-C9=1.4322         
C8-H29=1.0726        C9-C8=1.4322         C9-N10=1.3695        C9-C11=1.3796        N10-Ni1=1.9738       N10-C6=1.3616        
N10-C9=1.3695        C11-C9=1.3796        C11-C12=1.3794       C11-H30=1.0793       C12-C11=1.3794       C12-C13=1.4347       
C12-N16=1.3660       C13-C12=1.4347       C13-C14=1.3505       C13-H31=1.0729       C14-C13=1.3505       C14-C15=1.4350       
C14-H32=1.0728       C15-C14=1.4350       C15-N16=1.3655       C15-C17=1.3800       N16-Ni1=1.9735       N16-C12=1.3660       
N16-C15=1.3655       C17-C15=1.3800       C17-C18=1.3800       C17-H33=1.0791       C18-C17=1.3800       C18-C19=1.4350       
C18-N22=1.3655       C19-C18=1.4350       C19-C20=1.3505       C19-H34=1.0729       C20-C19=1.3505       C20-C21=1.4347       
C20-H35=1.0729       C21-C20=1.4347       C21-N22=1.3660       C21-C23=1.3794       N22-Ni1=1.9734       N22-C18=1.3655       
N22-C21=1.3660       C23-C21=1.3794       C23-C24=1.3796       C23-H36=1.0793       C24-C2=1.4322        C24-C23=1.3796       
C24-N25=1.3696       N25-Ni1=1.9735       N25-C4=1.3617        N25-C24=1.3696       H26-C2=1.0727        H27-C3=1.0727        
H28-C7=1.0727        H29-C8=1.0726        H30-C11=1.0793       H31-C13=1.0729       H32-C14=1.0728       H33-C17=1.0791       
H34-C19=1.0729       H35-C20=1.0729       H36-C23=1.0793       C37-C5=1.3968        C37-C38=1.2194       C38-C37=1.2194       
C38-C39=1.3367       C39-C38=1.3367       C39-C40=1.2240       C40-C39=1.2240       C40-C41=1.3367       C41-C40=1.3367       
C41-C42=1.2194       C42-C41=1.2194       C42-C47=1.3965       Ni43-N52=1.9689      Ni43-N58=1.9684      Ni43-N64=1.9683      
Ni43-N67=1.9686      C44-C45=1.3525       C44-C66=1.4322       C44-H68=1.0726       C45-C44=1.3525       C45-C46=1.4319       
C45-H69=1.0727       C46-C45=1.4319       C46-C47=1.3987       C46-N67=1.3616       C47-C42=1.3965       C47-C46=1.3987       
C47-C48=1.3988       C48-C47=1.3988       C48-C49=1.4319       C48-N52=1.3614       C49-C48=1.4319       C49-C50=1.3525       
C49-H70=1.0727       C50-C49=1.3525       C50-C51=1.4323       C50-H71=1.0726       C51-C50=1.4323       C51-N52=1.3695       
C51-C53=1.3799       N52-Ni43=1.9689      N52-C48=1.3614       N52-C51=1.3695       C53-C51=1.3799       C53-C54=1.3800       
C53-H72=1.0793       C54-C53=1.3800       C54-C55=1.4347       C54-N58=1.3658       C55-C54=1.4347       C55-C56=1.3508       
C55-H73=1.0729       C56-C55=1.3508       C56-C57=1.4350       C56-H74=1.0729       C57-C56=1.4350       C57-N58=1.3655       
C57-C59=1.3804       N58-Ni43=1.9684      N58-C54=1.3658       N58-C57=1.3655       C59-C57=1.3804       C59-C60=1.3804       
C59-H75=1.0791       C60-C59=1.3804       C60-C61=1.4350       C60-N64=1.3654       C61-C60=1.4350       C61-C62=1.3508       
C61-H76=1.0729       C62-C61=1.3508       C62-C63=1.4347       C62-H77=1.0729       C63-C62=1.4347       C63-N64=1.3659       
C63-C65=1.3799       N64-Ni43=1.9683      N64-C60=1.3654       N64-C63=1.3659       C65-C63=1.3799       C65-C66=1.3800       
C65-H78=1.0793       C66-C44=1.4322       C66-C65=1.3800       C66-N67=1.3695       N67-Ni43=1.9686      N67-C46=1.3616       
N67-C66=1.3695       H68-C44=1.0726       H69-C45=1.0727       H70-C49=1.0727       H71-C50=1.0726       H72-C53=1.0793       
H73-C55=1.0729       H74-C56=1.0729       H75-C59=1.0791       H76-C61=1.0729       H77-C62=1.0729       H78-C65=1.0793       
 C  H  Rav=1.0745 sigma=0.0029  Rmin=1.0726  Rmax=1.0793    22
 C  C  Rav=1.3836 sigma=0.0532  Rmin=1.2194  Rmax=1.4350    47
 N  C  Rav=1.3656 sigma=0.0028  Rmin=1.3614  Rmax=1.3696    16
 Ni N  Rav=1.9710 sigma=0.0025  Rmin=1.9683  Rmax=1.9738     8

 selected bond angles (degree)
 --------------------
N16-Ni1-N10= 90.27             N22-Ni1-N10=179.45             N22-Ni1-N16= 89.75             N25-Ni1-N10= 89.70             
[...]
    59   6 C       60   6 C                                       1.3804065
    60   6 C       61   6 C                                       1.4349835
    61   6 C       62   6 C                                       1.3507736
    62   6 C       63   6 C                                       1.4347262
    60   6 C       64   7 N                                       1.3654082
    63   6 C       64   7 N                                       1.3659157
    63   6 C       65   6 C                                       1.3798649
    44   6 C       66   6 C                                       1.4321893
    65   6 C       66   6 C                                       1.3799994
    46   6 C       67   7 N                                       1.3615540
    66   6 C       67   7 N                                       1.3694515
    44   6 C       68   1 H                                       1.0726340
    45   6 C       69   1 H                                       1.0727240
    49   6 C       70   1 H                                       1.0727063
    50   6 C       71   1 H                                       1.0726286
    53   6 C       72   1 H                                       1.0792604
    55   6 C       73   1 H                                       1.0728636
    56   6 C       74   1 H                                       1.0728605
    59   6 C       75   1 H                                       1.0791215
    61   6 C       76   1 H                                       1.0728613
    62   6 C       77   1 H                                       1.0728607
    65   6 C       78   1 H                                       1.0792844

 * 3 distinct bonds (by element types)

   Z      Z             #   av. dist./Å        max./Å        min./Å
   1 H    6 C          22     1.0745245     1.0792910     1.0726140
   6 C    6 C          43     1.3851786     1.4350449     1.2194015
   6 C    7 N          16     1.3656231     1.3695539     1.3613807

           -------------------------------------------------
          |               Frequency Printout                |
           -------------------------------------------------
 projected vibrational frequencies (cm⁻¹)
eigval :       -0.00    -0.00    -0.00     0.00     0.00     0.00
eigval :       -4.87     2.96     6.43     6.99    16.80    23.57
eigval :       25.51    27.33    40.44    71.93    74.93    91.46
eigval :       99.74    99.87   109.76   120.17   120.43   134.27
eigval :      174.09   175.88   176.24   177.17   185.66   226.32
eigval :      226.74   229.01   230.01   234.48   237.09   237.35
eigval :      238.02   245.89   246.82   247.33   271.79   272.44
eigval :      273.78   274.45   294.91   306.38   311.99   315.89
eigval :      317.82   341.50   343.81   347.35   350.61   355.51
eigval :      357.40   361.34   381.51   382.71   384.42   388.70
eigval :      389.21   390.70   392.44   402.61   404.55   409.63
eigval :      422.33   422.69   435.50   436.02   458.31   458.81
eigval :      483.71   504.75   506.10   614.72   614.91   621.31
eigval :      621.45   626.35   626.37   639.15   639.53   644.84
eigval :      645.25   658.11   658.48   666.07   666.41   671.19
eigval :      671.40   706.87   722.16   722.47   723.68   727.16
eigval :      758.92   759.11   765.71   771.72   778.73   779.20
eigval :      781.36   782.37   797.39   797.96   800.69   800.76
eigval :      807.31   807.39   812.55   812.80   820.50   820.79
eigval :      828.08   828.39   835.56   835.89   838.59   838.98
eigval :      847.00   847.09   847.17   847.25   848.31   848.48
eigval :      848.75   848.92   896.45   959.22   987.36   989.08
eigval :     1001.99  1002.62  1015.20  1021.37  1022.92  1022.94
eigval :     1027.74  1027.83  1036.78  1037.00  1040.44  1040.63
eigval :     1067.64  1067.82  1069.96  1070.34  1072.18  1072.56
eigval :     1073.38  1073.72  1084.31  1135.10  1140.91  1141.25
eigval :     1150.13  1171.81  1174.18  1174.67  1180.66  1226.14
eigval :     1226.26  1243.87  1244.45  1271.38  1281.87  1282.04
eigval :     1304.05  1304.43  1304.53  1312.77  1316.88  1317.30
eigval :     1331.25  1331.47  1332.16  1332.32  1345.25  1348.08
eigval :     1354.35  1357.05  1358.89  1359.22  1431.86  1465.55
eigval :     1466.57  1468.26  1481.45  1487.57  1499.49  1514.21
eigval :     1514.24  1515.83  1519.32  1529.66  1531.50  1532.87
eigval :     1537.45  1543.84  1545.32  1560.35  1561.88  1570.16
eigval :     1572.07  1581.28  1583.31  1613.29  1615.76  2166.22
eigval :     2205.44  2267.95  3095.90  3096.05  3096.27  3096.46
eigval :     3097.43  3097.59  3150.33  3150.38  3150.70  3150.75
eigval :     3154.89  3154.95  3155.10  3155.29  3163.98  3164.07
eigval :     3164.75  3165.10  3168.91  3169.10  3169.26  3169.61
 reduced masses (amu)
   1: 18.41   2: 18.53   3: 18.18   4: 18.14   5: 17.71   6: 13.73   7: 11.29   8: 11.23
   9: 11.56  10: 11.62  11: 11.72  12: 12.16  13: 10.94  14: 11.03  15: 11.40  16: 12.50
  17: 19.40  18: 12.45  19: 29.44  20: 28.45  21: 11.28  22: 10.51  23: 10.55  24: 11.22
  25: 12.12  26: 12.24  27: 12.23  28: 12.15  29: 12.46  30: 12.06  31: 11.94  32: 12.24
  33: 13.29  34: 18.76  35: 14.88  36: 12.40  37: 14.54  38: 10.65  39: 10.95  40: 24.24
  41: 42.29  42: 42.26  43: 42.06  44: 41.80  45: 18.43  46: 16.38  47: 15.99  48: 12.38
  49: 12.60  50: 12.28  51: 12.16  52: 12.01  53: 12.01  54: 11.78  55: 11.56  56: 12.01
  57: 14.19  58: 14.38  59: 12.00  60: 10.16  61: 10.33  62: 15.42  63: 12.34  64: 15.61
  65: 15.83  66: 17.15  67:  9.98  68: 10.09  69: 10.27  70: 10.25  71: 11.77  72: 11.78
  73: 12.61  74: 11.72  75: 11.73  76: 11.30  77: 11.30  78: 10.87  79: 10.87  80: 10.84
  81: 10.83  82: 11.18  83: 11.18  84: 11.03  85: 11.03  86: 11.38  87: 11.38  88: 11.56
  89: 11.56  90: 11.43  91: 11.42  92: 11.68  93: 10.98  94: 10.99  95: 11.08  96: 11.00
  97: 11.17  98: 11.18  99: 11.30 100: 11.39 101: 11.37 102: 11.39 103: 10.98 104: 10.95
 105: 11.70 106: 11.76 107:  3.78 108:  3.86 109:  3.95 110:  3.87 111:  3.97 112:  3.96
 113:  4.30 114:  4.29 115:  3.87 116:  3.87 117:  3.95 118:  3.95 119:  4.08 120:  4.08
 121:  3.47 122:  3.39 123:  3.48 124:  3.39 125:  3.45 126:  3.45 127:  3.48 128:  3.49
 129: 11.50 130: 11.85 131: 12.39 132: 12.32 133: 12.14 134: 12.12 135: 11.66 136: 11.12
 137:  8.98 138:  8.98 139:  9.71 140:  9.70 141:  9.33 142:  9.33 143:  9.04 144:  9.05
 145:  1.54 146:  1.54 147:  1.75 148:  1.79 149:  1.87 150:  1.87 151:  2.14 152:  1.99
 153:  9.40 154:  5.37 155:  5.48 156:  5.51 157:  6.50 158:  6.24 159:  7.10 160:  7.13
 161:  6.98 162:  8.64 163:  8.65 164:  8.24 165:  8.46 166: 12.10 167:  8.96 168:  8.99
 169: 10.59 170: 10.76 171: 10.58 172: 10.75 173: 10.34 174: 10.31 175: 11.48 176: 11.39
 177: 10.16 178: 10.11 179: 12.21 180: 11.97 181:  9.65 182:  9.85 183:  9.23 184:  9.18
 185: 11.71 186: 11.52 187: 11.52 188: 11.56 189: 11.55 190: 11.69 191: 11.79 192: 11.67
 193: 11.55 194: 11.48 195: 11.75 196: 11.81 197: 11.82 198: 11.71 199: 11.79 200: 11.67
 201: 11.67 202: 11.59 203: 11.59 204: 11.60 205: 11.61 206: 11.62 207: 11.63 208: 11.77
 209: 11.77 210: 12.01 211: 12.01 212: 12.01 213:  1.82 214:  1.82 215:  1.82 216:  1.82
 217:  1.82 218:  1.82 219:  1.81 220:  1.81 221:  1.81 222:  1.81 223:  1.81 224:  1.81
 225:  1.81 226:  1.81 227:  1.98 228:  1.98 229:  1.98 230:  1.98 231:  1.97 232:  1.97
 233:  1.97 234:  1.97
 IR intensities (km·mol⁻¹)
   1:  0.03   2:  2.97   3:  0.28   4:  0.31   5:  0.10   6:  0.39   7:  0.01   8:  0.89
   9:  0.17  10:  0.82  11:  0.82  12:  0.09  13:  0.08  14:  1.88  15:  0.69  16:  1.33
  17:  0.02  18:  0.42  19:  0.69  20:  4.62  21:  1.51  22:  0.18  23:  7.83  24:  1.53
  25:  1.43  26:  0.16  27:  0.22  28:  0.54  29:  0.02  30:  5.13  31:  0.60  32:  0.92
  33:  0.42  34:  3.21  35:  1.22  36:  0.29  37:  0.97  38:  0.07  39:  2.10  40:  0.02
  41:  0.10  42:  1.13  43:  0.06  44:  0.82  45: 15.73  46:  7.40  47:  0.03  48:  4.20
  49:  0.00  50:  0.61  51:  6.23  52:  0.12  53:  0.01  54: 15.11  55:  0.16  56:  0.52
  57:  2.29  58:  0.69  59:  0.03  60:  0.51  61:  0.61  62:  8.72  63:  0.82  64: 12.45
  65: 15.10  66:  0.11  67:  1.12  68:  4.45  69:  0.13  70:  0.12  71:  0.13  72:  0.05
  73: 11.88  74:  1.52  75:  4.08  76:  2.30  77:  5.16  78:  1.91  79:  0.85  80:  0.32
  81:  0.08  82:  1.07  83:  0.02  84:  0.30  85:  1.24  86:  0.15  87:  0.63  88:  5.48
  89: 10.81  90:  3.25  91: 22.87  92:  0.01  93:  2.58  94:  4.85  95: 10.71  96:  0.03
  97:  0.04  98:  0.40  99:  0.00 100:  0.04 101: 12.99 102: 14.55 103:  0.46 104:  0.19
 105:  1.77 106: 10.36 107:  8.30 108: 26.41 109:  0.25 110:  0.05 111:  3.76 112:  8.25
 113:  3.35 114:  0.21 115:  2.60 116:  4.28 117:  0.60 118:  0.03 119: 58.16 120: 93.40
 121:  0.94 122:  0.03 123:  1.82 124:  0.06 125:  0.16 126:  0.29 127:  0.03 128:  0.05
 129: 10.53 130:  0.02 131: 28.40 132:  1.10 133: 15.73 134: 17.80 135:  9.80 136:  0.36
 137:  0.13 138:  0.20 139:  0.03 140:  0.12 141:  0.40 142:  0.34 143: 10.57 144: 38.59
 145:  3.45 146:  6.87 147:  1.46 148:  0.29 149:  3.86 150: 13.89 151:  7.08 152:  0.46
 153: 28.96 154:  0.25 155: 11.13 156: 10.12 157: 91.89 158:  0.13 159:  2.32 160:  3.31
 161:  0.29 162:  0.01 163:  1.10 164:  0.55 165:  4.29 166:  0.08 167: 16.30 168: 26.18
 169: 11.89 170: 15.75 171: 13.16 172:  0.20 173:  3.47 174:  3.68 175: 10.42 176:  0.42
 177: 10.87 178: 20.28 179: 56.01 180:  0.01 181: 40.80 182:  0.19 183:  1.84 184:  4.01
 185: 19.67 186: 18.76 187: 21.03 188:  0.24 189: 15.11 190:  0.03 191:  2.36 192:  0.39
 193:  0.85 194:  1.41 195:  5.32 196:  3.29 197:  4.10 198:  0.68 199: 11.88 200: 53.69
 201: 54.11 202:  3.09 203:  8.10 204:  1.33 205:  1.84 206: 79.73 207: 54.32 208:  0.40
 209:  0.72 210:  0.04 211:  0.00 212:  0.96 213:  0.07 214:  0.30 215:  1.44 216:  1.22
 217: 13.58 218: 12.33 219: 16.33 220: 19.19 221: 20.96 222: 18.81 223: 19.34 224: 36.63
 225: 14.84 226: 11.19 227:117.38 228:130.32 229:380.01 230:  8.13 231: 42.62 232: 26.35
 233: 85.28 234: 13.91
 Raman intensities (amu)
   1:  0.00   2:  0.00   3:  0.00   4:  0.00   5:  0.00   6:  0.00   7:  0.00   8:  0.00
   9:  0.00  10:  0.00  11:  0.00  12:  0.00  13:  0.00  14:  0.00  15:  0.00  16:  0.00
  17:  0.00  18:  0.00  19:  0.00  20:  0.00  21:  0.00  22:  0.00  23:  0.00  24:  0.00
  25:  0.00  26:  0.00  27:  0.00  28:  0.00  29:  0.00  30:  0.00  31:  0.00  32:  0.00
  33:  0.00  34:  0.00  35:  0.00  36:  0.00  37:  0.00  38:  0.00  39:  0.00  40:  0.00
  41:  0.00  42:  0.00  43:  0.00  44:  0.00  45:  0.00  46:  0.00  47:  0.00  48:  0.00
  49:  0.00  50:  0.00  51:  0.00  52:  0.00  53:  0.00  54:  0.00  55:  0.00  56:  0.00
  57:  0.00  58:  0.00  59:  0.00  60:  0.00  61:  0.00  62:  0.00  63:  0.00  64:  0.00
  65:  0.00  66:  0.00  67:  0.00  68:  0.00  69:  0.00  70:  0.00  71:  0.00  72:  0.00
  73:  0.00  74:  0.00  75:  0.00  76:  0.00  77:  0.00  78:  0.00  79:  0.00  80:  0.00
  81:  0.00  82:  0.00  83:  0.00  84:  0.00  85:  0.00  86:  0.00  87:  0.00  88:  0.00
  89:  0.00  90:  0.00  91:  0.00  92:  0.00  93:  0.00  94:  0.00  95:  0.00  96:  0.00
  97:  0.00  98:  0.00  99:  0.00 100:  0.00 101:  0.00 102:  0.00 103:  0.00 104:  0.00
 105:  0.00 106:  0.00 107:  0.00 108:  0.00 109:  0.00 110:  0.00 111:  0.00 112:  0.00
 113:  0.00 114:  0.00 115:  0.00 116:  0.00 117:  0.00 118:  0.00 119:  0.00 120:  0.00
 121:  0.00 122:  0.00 123:  0.00 124:  0.00 125:  0.00 126:  0.00 127:  0.00 128:  0.00
 129:  0.00 130:  0.00 131:  0.00 132:  0.00 133:  0.00 134:  0.00 135:  0.00 136:  0.00
 137:  0.00 138:  0.00 139:  0.00 140:  0.00 141:  0.00 142:  0.00 143:  0.00 144:  0.00
 145:  0.00 146:  0.00 147:  0.00 148:  0.00 149:  0.00 150:  0.00 151:  0.00 152:  0.00
 153:  0.00 154:  0.00 155:  0.00 156:  0.00 157:  0.00 158:  0.00 159:  0.00 160:  0.00
 161:  0.00 162:  0.00 163:  0.00 164:  0.00 165:  0.00 166:  0.00 167:  0.00 168:  0.00
 169:  0.00 170:  0.00 171:  0.00 172:  0.00 173:  0.00 174:  0.00 175:  0.00 176:  0.00
 177:  0.00 178:  0.00 179:  0.00 180:  0.00 181:  0.00 182:  0.00 183:  0.00 184:  0.00
 185:  0.00 186:  0.00 187:  0.00 188:  0.00 189:  0.00 190:  0.00 191:  0.00 192:  0.00
 193:  0.00 194:  0.00 195:  0.00 196:  0.00 197:  0.00 198:  0.00 199:  0.00 200:  0.00
 201:  0.00 202:  0.00 203:  0.00 204:  0.00 205:  0.00 206:  0.00 207:  0.00 208:  0.00
 209:  0.00 210:  0.00 211:  0.00 212:  0.00 213:  0.00 214:  0.00 215:  0.00 216:  0.00
 217:  0.00 218:  0.00 219:  0.00 220:  0.00 221:  0.00 222:  0.00 223:  0.00 224:  0.00
Refinement of some symmetry elements was terminated before convergence was reached.
Some symmetry elements may remain unidentified.
Molecule has no symmetry elements
It seems to be the C1 point group
 225:  0.00 226:  0.00 227:  0.00 228:  0.00 229:  0.00 230:  0.00 231:  0.00 232:  0.00
 233:  0.00 234:  0.00
 output can be read by thermo (or use thermo option).
 writing <g98.out> molden fake output.
 recommended (thermochemical) frequency scaling factor: 1.0
           -------------------------------------------------
          |             Thermodynamic Functions             |
           -------------------------------------------------

c1  symmetry found (for desy threshold:  0.10E+00) used in thermo
 inverting freq            1   4.8715955744087465     

          ...................................................
          :                      SETUP                      :
          :.................................................:
          :  # frequencies                         228      :
          :  # imaginary freq.                       0      :
          :  linear?                             false      :
          :  only rotor calc.                    false      :
          :  symmetry                               c1      :
          :  rotational number                       1      :
          :  scaling factor                  1.0000000      :
          :  rotor cutoff                   50.0000000 cm⁻¹ :
          :  imag. cutoff                  -20.0000000 cm⁻¹ :
          :.................................................:

    mode    ω/cm⁻¹     T·S(HO)/kcal·mol⁻¹    T·S(FR)/kcal·mol⁻¹   T·S(vib)
   ------------------------------------------------------------------------
       1      4.87    -2.81454 (  0.01%)    -1.74635 ( 99.99%)    -1.74645
       2      2.96    -3.10921 (  0.00%)    -1.89367 (100.00%)    -1.89369
       3      6.43    -2.65053 (  0.03%)    -1.66435 ( 99.97%)    -1.66462
       4      6.99    -2.60090 (  0.04%)    -1.63953 ( 99.96%)    -1.63990
       5     16.80    -2.08106 (  1.26%)    -1.37956 ( 98.74%)    -1.38840
       6     23.57    -1.88068 (  4.71%)    -1.27929 ( 95.29%)    -1.30761
       7     25.51    -1.83391 (  6.35%)    -1.25588 ( 93.65%)    -1.29257
       8     27.33    -1.79325 (  8.19%)    -1.23552 ( 91.81%)    -1.28121
       9     40.44    -1.56159 ( 29.96%)    -1.11944 ( 70.04%)    -1.25191
      10     71.93    -1.22237 ( 81.07%)    -0.94882 ( 18.93%)    -1.17059
      11     74.93    -1.19843 ( 83.45%)    -0.93672 ( 16.55%)    -1.15512
      12     91.46    -1.08189 ( 91.80%)    -0.87767 (  8.20%)    -1.06514
      13     99.74    -1.03142 ( 94.06%)    -0.85198 (  5.94%)    -1.02076
      14     99.87    -1.03067 ( 94.09%)    -0.85160 (  5.91%)    -1.02009
      15    109.76    -0.97589 ( 95.87%)    -0.82362 (  4.13%)    -0.96960
      16    120.17    -0.92356 ( 97.09%)    -0.79678 (  2.91%)    -0.91987
      17    120.43    -0.92232 ( 97.11%)    -0.79614 (  2.89%)    -0.91868
      18    134.27    -0.85983 ( 98.11%)    -0.76390 (  1.89%)    -0.85802
      19    174.09    -0.71284 ( 99.32%)    -0.68697 (  0.68%)    -0.71266
      20    175.88    -0.70713 ( 99.35%)    -0.68395 (  0.65%)    -0.70698
      21    176.24    -0.70599 ( 99.36%)    -0.68334 (  0.64%)    -0.70584
      22    177.17    -0.70303 ( 99.37%)    -0.68177 (  0.63%)    -0.70290
      23    185.66    -0.67702 ( 99.48%)    -0.66791 (  0.52%)    -0.67697
      24    226.32    -0.56885 ( 99.76%)    -0.60924 (  0.24%)    -0.56894
      25    226.74    -0.56786 ( 99.76%)    -0.60870 (  0.24%)    -0.56796
      26    229.01    -0.56252 ( 99.77%)    -0.60575 (  0.23%)    -0.56261
      27    230.01    -0.56017 ( 99.78%)    -0.60445 (  0.22%)    -0.56027
      28    234.48    -0.54991 ( 99.79%)    -0.59876 (  0.21%)    -0.55001
      29    237.09    -0.54400 ( 99.80%)    -0.59547 (  0.20%)    -0.54410
      30    237.35    -0.54343 ( 99.80%)    -0.59515 (  0.20%)    -0.54353
      31    238.02    -0.54193 ( 99.81%)    -0.59432 (  0.19%)    -0.54203
      32    245.89    -0.52471 ( 99.83%)    -0.58468 (  0.17%)    -0.52481
      33    246.82    -0.52270 ( 99.83%)    -0.58355 (  0.17%)    -0.52280
      34    247.33    -0.52162 ( 99.83%)    -0.58295 (  0.17%)    -0.52172
      35    271.79    -0.47252 ( 99.89%)    -0.55502 (  0.11%)    -0.47261
      36    272.44    -0.47128 ( 99.89%)    -0.55430 (  0.11%)    -0.47138
      37    273.78    -0.46877 ( 99.89%)    -0.55285 (  0.11%)    -0.46886
      38    274.45    -0.46750 ( 99.89%)    -0.55213 (  0.11%)    -0.46760
      39    294.91    -0.43102 ( 99.92%)    -0.53083 (  0.08%)    -0.43110
   ------------------------------------------------------------------------

   temp. (K)  partition function   enthalpy   heat capacity  entropy
                                   cal/mol     cal/K/mol   cal/K/mol   J/K/mol
 298.15  VIB  0.405E+22            26121.440    172.264    162.985
         ROT  0.244E+09              888.752      2.981     41.359
         INT  0.987E+30            27010.192    175.245    204.344
         TR   0.221E+29             1481.254      4.968     45.911
         TOT                       28491.4463   180.2129   250.2548  1047.0660

       T/K    H(0)-H(T)+PV         H(T)/Eh          T*S/Eh         G(T)/Eh
   ------------------------------------------------------------------------
    298.15    0.454040E-01    0.584885E+00    0.118904E+00    0.465980E+00
   ------------------------------------------------------------------------

         :::::::::::::::::::::::::::::::::::::::::::::::::::::
         ::                  THERMODYNAMIC                  ::
         :::::::::::::::::::::::::::::::::::::::::::::::::::::
         :: total free energy        -142.291570117639 Eh   ::
         ::.................................................::
         :: total energy             -142.757550534969 Eh   ::
         :: zero point energy           0.539480524558 Eh   ::
         :: G(RRHO) w/o ZPVE           -0.073500107228 Eh   ::
         :: G(RRHO) contrib.            0.465980417330 Eh   ::
         :::::::::::::::::::::::::::::::::::::::::::::::::::::

optimized geometry written to: xtbopt.xyz


           -------------------------------------------------
          | TOTAL ENERGY             -142.757550534969 Eh   |
          | TOTAL ENTHALPY           -142.172666000658 Eh   |
          | TOTAL FREE ENERGY        -142.291570117639 Eh   |
          | GRADIENT NORM               0.000542044015 Eh/α |
          | HOMO-LUMO GAP               1.292518702799 eV   |
           -------------------------------------------------

------------------------------------------------------------------------
 * finished run on 2021/11/19 at 10:50:39.490     
------------------------------------------------------------------------
 total:
 * wall-time:     0 d,  0 h,  1 min, 26.582 sec
 *  cpu-time:     0 d,  0 h,  1 min, 26.580 sec
 * ratio c/w:     1.000 speedup
 SCF:
 * wall-time:     0 d,  0 h,  0 min,  0.561 sec
 *  cpu-time:     0 d,  0 h,  0 min,  0.561 sec
 * ratio c/w:     1.000 speedup
 ANC optimizer:
 * wall-time:     0 d,  0 h,  0 min,  9.608 sec
 *  cpu-time:     0 d,  0 h,  0 min,  9.605 sec
 * ratio c/w:     1.000 speedup
 analytical hessian:
 * wall-time:     0 d,  0 h,  1 min, 16.344 sec
 *  cpu-time:     0 d,  0 h,  1 min, 16.345 sec
 * ratio c/w:     1.000 speedup

