78
 energy: -141.998287934133 gnorm: 1.599076779501 xtb: 6.4.1 (bd6e46d)
Ni        6.92102300000000    0.02323200000000   -0.00510600000000
C         9.25001400000000   -3.12356100000000    1.31758300000000
C        10.16612100000000   -2.17935300000000    1.26730100000000
C         9.75494200000000   -1.12544900000000    0.34600900000000
C        10.37381200000000   -0.00110300000000   -0.00040100000000
C         9.66977000000000    1.21884500000000   -0.36450600000000
C         9.99788000000000    2.17890000000000   -1.21197900000000
C         8.96310100000000    3.19518500000000   -1.22887700000000
C         8.02683300000000    2.81872300000000   -0.38198600000000
N         8.42882300000000    1.58571200000000    0.18183100000000
C         6.76575800000000    3.46372300000000   -0.00283400000000
C         5.67054100000000    2.82894000000000    0.34792600000000
C         4.59691500000000    3.14689600000000    1.31695400000000
C         3.75935300000000    2.15014200000000    1.23978800000000
C         4.19765000000000    1.14645900000000    0.25933600000000
N         5.30258800000000    1.58531200000000   -0.22495600000000
C         3.58681500000000   -0.10681200000000   -0.15421200000000
C         4.25097600000000   -1.21131800000000   -0.40863600000000
C         3.87712700000000   -2.27426000000000   -1.36616400000000
C         4.82587400000000   -3.16801600000000   -1.27714400000000
C         5.81159800000000   -2.73056600000000   -0.29426700000000
N         5.45855200000000   -1.58476100000000    0.20253100000000
C         7.04248600000000   -3.38663600000000    0.15145400000000
C         8.16552800000000   -2.74077500000000    0.41857500000000
N         8.49412800000000   -1.49333400000000   -0.17982800000000
H         9.31027600000000   -4.03334100000000    1.93513000000000
H        11.08244800000000   -2.21930300000000    1.84534900000000
H        10.92524600000000    2.19569600000000   -1.81312300000000
H         8.98000000000000    4.09987400000000   -1.84149900000000
H         6.71803500000000    4.55852500000000   -0.00661100000000
H         4.54409400000000    4.02562100000000    1.94194700000000
H         2.84772200000000    2.11447200000000    1.85711200000000
H         2.48856500000000   -0.10390100000000   -0.25348300000000
H         3.00827100000000   -2.32672500000000   -2.01511400000000
H         4.82302800000000   -4.08432400000000   -1.87590400000000
H         7.00700400000000   -4.48243800000000    0.26337900000000
C        11.41616500000000    0.01324000000000    0.00480700000000
C        12.63169800000000   -0.01210300000000   -0.00567300000000
C        14.05321500000000   -0.03352700000000   -0.00984800000000
C        15.26177600000000   -0.03573800000000   -0.00974300000000
C        16.68285200000000   -0.01677800000000   -0.01037000000000
C        17.89399400000000    0.01324000000000    0.00480700000000
Ni       22.42156600000000   -0.01037000000000   -0.16405400000000
C        19.87569700000000    3.22697400000000    1.12779700000000
C        18.94933700000000    2.29979900000000    0.98324900000000
C        19.55135000000000    1.13101900000000    0.32650500000000
C        18.95839800000000   -0.00110300000000   -0.00040100000000
C        19.59071200000000   -1.31429000000000   -0.02229200000000
C        19.07004900000000   -2.53385200000000    0.09922000000000
C        20.10559600000000   -3.53513400000000    0.01065300000000
C        21.25897100000000   -2.87966500000000   -0.16705900000000
N        20.97251800000000   -1.50894000000000   -0.19138400000000
C        22.60059500000000   -3.45128700000000   -0.31539800000000
C        23.74278900000000   -2.84605700000000   -0.14605100000000
C        25.02150100000000   -3.26490900000000    0.49050500000000
C        25.82137700000000   -2.25926100000000    0.35229500000000
C        25.17301500000000   -1.13369100000000   -0.35704900000000
N        23.98288600000000   -1.53123500000000   -0.61536200000000
C        25.68234000000000    0.18066200000000   -0.74387000000000
C        25.02295800000000    1.30982300000000   -0.64694100000000
C        25.42076500000000    2.59452800000000   -1.26735100000000
C        24.51356800000000    3.45765400000000   -0.92621000000000
C        23.50701000000000    2.78944100000000   -0.08781600000000
N        23.83693400000000    1.55074300000000    0.04962200000000
C        22.31156200000000    3.36070000000000    0.52574400000000
C        21.14493900000000    2.75031500000000    0.58523800000000
N        20.89392400000000    1.44795100000000    0.10090800000000
H        19.68407300000000    4.20917500000000    1.59557200000000
H        17.90702200000000    2.42465100000000    1.31518600000000
H        17.98403300000000   -2.70087600000000    0.24739700000000
H        19.93352000000000   -4.59664400000000    0.08019800000000
H        22.66152300000000   -4.51940300000000   -0.60147600000000
H        25.17465000000000   -4.22822900000000    0.95160700000000
H        26.84368300000000   -2.26201800000000    0.71926400000000
H        26.71640600000000    0.14733300000000   -1.14081700000000
H        26.29683000000000    2.79720700000000   -1.89031800000000
H        24.55322000000000    4.50889400000000   -1.24783700000000
H        22.39816000000000    4.35037600000000    0.95630400000000
78
 energy: -142.431091283743 gnorm: 0.411670189889 xtb: 6.4.1 (bd6e46d)
Ni        6.92461724047968    0.02325785335684   -0.00425371472323
C         9.24666118264799   -3.13426762126088    1.31302526483990
C        10.17198624462247   -2.17737380205307    1.26451790515328
C         9.70393155781750   -1.15059503058249    0.35427158724614
C        10.27160231326649    0.01035277122220   -0.00057389025486
C         9.62685632632793    1.22708904921830   -0.36323860204343
C        10.00323501907335    2.19996018157130   -1.22514490550545
C         8.98399309691016    3.19985945875268   -1.23973416908980
C         8.01726547510683    2.80674060327358   -0.37547798104237
N         8.40096393855043    1.57402156350229    0.18003490898862
C         6.77961213514625    3.46714637682926   -0.00409642938832
C         5.66059925677532    2.81725512958574    0.34924890676937
C         4.60044103021725    3.15342178598891    1.30628816104585
C         3.74047052891354    2.14322966551681    1.24284122198966
C         4.19250565040364    1.14686313693890    0.27023774792509
N         5.32970115910990    1.57123328145119   -0.21496585048026
C         3.57680014945619   -0.09010900954081   -0.14933453044119
C         4.25484191675998   -1.21644192834291   -0.41232895485742
C         3.87025974560495   -2.27179740249344   -1.35785792694943
C         4.83237338387764   -3.18336784139751   -1.27658081155898
C         5.81885865007051   -2.73817685657838   -0.29922649782705
N         5.46773628202969   -1.56578863104692    0.18743729835689
C         7.02728612925863   -3.39501063847076    0.14629594001099
C         8.16926146957175   -2.73378813416450    0.42132119984468
N         8.47796382043130   -1.49282334089536   -0.15894656599887
H         9.30571009253880   -4.03013055436587    1.93068214776740
H        11.08361615718270   -2.21221574103963    1.84256393104216
H        10.92206924420833    2.19823948954453   -1.81262623814811
H         8.98348925841451    4.09811943776507   -1.84190245924897
H         6.72585235356735    4.55738598512170   -0.00311275940980
H         4.54787231248289    4.02457840223722    1.93898232639222
H         2.84634503528642    2.10922791103544    1.85584370490625
H         2.48984359065320   -0.09995445355811   -0.25651938162929
H         3.00964350399776   -2.32136816712446   -2.01105040416497
H         4.82911337915669   -4.08565019305418   -1.87362828076632
H         7.00419207325473   -4.48063660494968    0.26395094561692
C        11.53087524048718    0.02409526160131    0.00346178479248
C        12.70887738183491   -0.01135644267842   -0.00510120157559
C        14.04904213466506   -0.03294133602825   -0.01025760570081
C        15.26670401404894   -0.03525005615219   -0.01026421454323
C        16.60998735558060   -0.02001048530127   -0.01259604352544
C        17.78918948384239    0.00505843690330    0.00203534002013
Ni       22.41737468921588   -0.00984014640042   -0.16548172579195
C        19.87981881069921    3.23643866398823    1.13063359607207
C        18.94649293023544    2.29761763347195    0.97883983019750
C        19.59803341194814    1.15803661135892    0.33256389650176
C        19.04957766634154   -0.01606262262003    0.00394700698674
C        19.63359208645523   -1.32122835158980   -0.02760603476550
C        19.06370687334658   -2.55210854618184    0.09978416933981
C        20.08623574037080   -3.53583468490351    0.00974472199784
C        21.26653890579777   -2.86802497278846   -0.17765417670747
N        20.99438137107474   -1.50154010866538   -0.18813906510378
C        22.58282962822435   -3.45786793505126   -0.31620486670631
C        23.75525456010480   -2.83252271144325   -0.14934560171786
C        25.01141960673406   -3.27172809162831    0.47792873689628
C        25.83918811810708   -2.24735182529711    0.34967581890216
C        25.17962324347787   -1.13566463055838   -0.35056089119033
N        23.95801648852764   -1.51802954828532   -0.59820532520717
C        25.69311141269004    0.16273102308212   -0.74307678899545
C        25.02100041502252    1.31481819606276   -0.65112972603586
C        25.42807428470442    2.58786543360683   -1.26557127874394
C        24.50636011159183    3.47273141618524   -0.91997969451179
C        23.50407673794088    2.79741307341754   -0.08673952416505
N        23.82915096166757    1.53382857169420    0.03772637313813
C        22.32437186189432    3.36636758424203    0.52247786506075
C        21.13777081826765    2.73952945418510    0.58866508089828
N        20.90720770614516    1.45019918857123    0.10562759141219
H        19.68974901649102    4.20607849587739    1.59331391625708
H        17.91186557593898    2.41733273529933    1.31073904048452
H        17.98965949823955   -2.70409734871796    0.24697383788815
H        19.93146147220988   -4.59632659095524    0.08058638310347
H        22.65379496333996   -4.51973466883475   -0.58918173403614
H        25.17112978688372   -4.22678613995405    0.95010369198124
H        26.84787329088761   -2.25683970381556    0.71996473180488
H        26.71403688553973    0.14764467718611   -1.13975921413270
H        26.29449254417994    2.79102639378102   -1.88751020349964
H        24.54674218476630    4.50848526273857   -1.24376102916928
H        22.39981402730605    4.35425870260462    0.95152268772253
78
 energy: -142.552960605071 gnorm: 0.206284293213 xtb: 6.4.1 (bd6e46d)
Ni        6.92599927286655    0.02166726528459   -0.00118276503767
C         9.24311783592043   -3.14989142480477    1.29699676383333
C        10.17623227741917   -2.18075957589244    1.25396982236915
C         9.66455433255333   -1.15975205897947    0.36913202563012
C        10.23515947280896    0.03422113208302    0.00285432534244
C         9.57964429936576    1.23412249087737   -0.36672154017650
C        10.00425789649858    2.23131219445471   -1.23333615376820
C         9.01000067274246    3.20736543101035   -1.24261981966398
C         8.00328933517403    2.78919566613003   -0.37775510530186
N         8.33988928558855    1.54252339240949    0.14392177967977
C         6.79924071426140    3.46210158075543   -0.00205851538559
C         5.66148111652716    2.79360455893509    0.35584429738473
C         4.59764039802789    3.15658465487526    1.27785545741938
C         3.71358364692795    2.14008599805250    1.23616164742141
C         4.19366321584417    1.14176165338904    0.29509031048542
N         5.38397405524638    1.52776241737510   -0.16375009870764
C         3.56858833270778   -0.06847579910629   -0.14111003602627
C         4.26180450359225   -1.20989194604357   -0.42409236816373
C         3.86390181625757   -2.27520730461221   -1.33471927444955
C         4.83451618817976   -3.20513219398689   -1.26572121476173
C         5.82967455752867   -2.74157852955644   -0.31555368808383
N         5.49713940867353   -1.52432460791394    0.13201599327748
C         7.00453449450847   -3.40665862611636    0.13943619127145
C         8.15614427139114   -2.73070290223068    0.43380147372300
N         8.43290636617694   -1.47932211632315   -0.09173134402413
H         9.29190392594599   -4.03063777686609    1.91692609013246
H        11.08585213450700   -2.19437889343150    1.83051537431569
H        10.91549076200135    2.20944312423845   -1.81100732195027
H         8.99420892938635    4.09893735135914   -1.84137276006053
H         6.74950126476291    4.54985120143751    0.00415498105957
H         4.55818295925586    4.02016861228486    1.92175334491916
H         2.83489169284973    2.09524255168649    1.85181013387533
H         2.49040665166337   -0.08600295693000   -0.26169304499408
H         3.01198039830054   -2.30788592954964   -1.99448031368644
H         4.84549729954083   -4.09582861366638   -1.86568252459455
H         6.99240436331545   -4.48306657215366    0.26183912032160
C        11.53852605716910    0.04393827371757    0.00053127552844
C        12.75073644066247   -0.00826212542506   -0.00309679793235
C        14.05242638690755   -0.03166324463499   -0.01123062785969
C        15.26259972338312   -0.03590877730886   -0.01422129495569
C        16.56485695382973   -0.02819750524856   -0.01678380244877
C        17.77541683322890   -0.01619582012607    0.01040051778664
Ni       22.40934884818917   -0.00560316216926   -0.17123458353788
C        19.89386380634400    3.24413131578481    1.13159385159304
C        18.95434969046405    2.29786134819177    0.96329590986392
C        19.63528409782389    1.17376079604840    0.33446765844409
C        19.08450615460240   -0.04135447225078    0.02079988269711
C        19.68344872007878   -1.32680547297058   -0.03772269200294
C        19.06761658073829   -2.57164765503973    0.09192527369639
C        20.06603681064591   -3.53126353641770   -0.00366363810115
C        21.27642480211379   -2.85370784972299   -0.19839565983105
N        21.03492917488570   -1.49064032794555   -0.17487966982641
C        22.56049144334749   -3.45732139092682   -0.31308653857495
C        23.75646857208703   -2.80832048386722   -0.15383135376981
C        25.00064052724783   -3.26916809924877    0.44151404842646
C        25.85884327474019   -2.23557980467952    0.33285748967453
C        25.18203228178754   -1.13324675284982   -0.33208014258323
N        23.91474916229409   -1.48032403380283   -0.53790525534741
C        25.70440755371614    0.13991333966995   -0.73786127400807
C        25.01559967949074    1.30984095569741   -0.66628791376448
C        25.43053412451386    2.57987997152665   -1.25327896984144
C        24.50341468569089    3.48604693353163   -0.89937294692505
C        23.50147432292515    2.80071708734565   -0.08943052289575
N        23.80588276204939    1.50473958338507   -0.00779692613557
C        22.34356198056686    3.37420403481893    0.51747900332809
C        21.14621137291638    2.72869046361952    0.60117839600326
N        20.93534609193347    1.45006638330923    0.12609013757876
H        19.71020019813317    4.20394342115380    1.58870086874743
H        17.92649204105865    2.39576442767208    1.29424521838636
H        18.00552839284546   -2.71288490594226    0.24560811593395
H        19.92705733292199   -4.59290083497015    0.07914278699292
H        22.62997240004463   -4.52128169277187   -0.54698805257021
H        25.15799030236725   -4.21596721852381    0.93493062273505
H        26.85923878470945   -2.24268186639904    0.71735589556604
H        26.71507843079925    0.14544184594800   -1.13284431732942
H        26.28899251776897    2.77355906364302   -1.87744718770905
H        24.52825927840633    4.51141365256374   -1.22710389155286
H        22.40597725625292    4.36945668714010    0.93006886289581
78
 energy: -142.623036739654 gnorm: 0.088926093987 xtb: 6.4.1 (bd6e46d)
Ni        6.91622761786002    0.02092223814320    0.00515014188566
C         9.23478911369416   -3.16135462170536    1.28154656646018
C        10.17082755492819   -2.17964549274784    1.24277836294801
C         9.61834742269140   -1.15396921564290    0.39615209613113
C        10.20070234322233    0.05634648982216    0.00542858709094
C         9.52288696810631    1.22944586994087   -0.37793940954156
C         9.99888015458260    2.25854551856750   -1.23244399612070
C         9.03176582196662    3.21931907939577   -1.23675903373430
C         7.97948337646597    2.77233023757718   -0.38701110867552
N         8.26991252538891    1.50628060320085    0.08197321518398
C         6.81490973886589    3.45198041376352   -0.00086044008492
C         5.67507255628119    2.75626384475208    0.37839340460420
C         4.60012163978765    3.15151551868240    1.25034868002234
C         3.69013434758765    2.13968159199919    1.21998903707746
C         4.19846913226480    1.12912997343685    0.32592244885933
N         5.44408017774869    1.47520381000055   -0.09406720300880
C         3.56845861168865   -0.04951514420037   -0.13226199909510
C         4.28051822553959   -1.19363396597724   -0.45217439325049
C         3.86259242843368   -2.27452119329901   -1.31420127469841
C         4.83085232338797   -3.22343903837334   -1.24753584768044
C         5.84109200370093   -2.73891388909031   -0.33773226413002
N         5.53377520023237   -1.47239896122442    0.05995408827714
C         6.97971880333050   -3.41399967462909    0.13356320995814
C         8.13045122096942   -2.72176471161803    0.46153609443204
N         8.37487666282831   -1.45816686575605   -0.01284003751202
H         9.27855221488513   -4.03981515480995    1.89376077250498
H        11.08756460059453   -2.17351230894714    1.80467360151303
H        10.91039117539248    2.21870247888025   -1.79812119993323
H         9.00250906892957    4.10941840072099   -1.83168267236767
H         6.76879886681230    4.53648114758889    0.00295635867732
H         4.56733983172104    4.01694107145030    1.89146595046387
H         2.81675397252563    2.08273426396936    1.83460439693399
H         2.49454209919953   -0.07548618690993   -0.25466967377495
H         3.00977126506627   -2.29449592111982   -1.96905345824484
H         4.85907289216023   -4.11163255325517   -1.84528219149673
H         6.97960505667284   -4.48630369625085    0.24978949062290
C        11.54411273842509    0.06181352675810   -0.00462292795819
C        12.75324056908523   -0.00587100639658   -0.00272270900438
C        14.04535054457773   -0.03062527237390   -0.01202721490265
C        15.26387775631902   -0.03613331379944   -0.02008235658656
C        16.55614342718727   -0.03721586017135   -0.02060919249358
C        17.76468897652262   -0.03907605582814    0.02210685671282
Ni       22.41108979191933   -0.00674452529733   -0.17252779112271
C        19.91716199596388    3.24547878191524    1.13116881266181
C        18.97468292441587    2.29126482699693    0.94631812038687
C        19.67299487385135    1.17865643391446    0.33781536448371
C        19.11445960539232   -0.06724725204835    0.04578951139233
C        19.73921384743293   -1.32471861100032   -0.04199642599446
C        19.08035362619645   -2.58254146736848    0.07713289642066
C        20.05309691953241   -3.52547570685249   -0.02437978757954
C        21.29474656969915   -2.84178323579971   -0.20980334882953
N        21.07892011293454   -1.48294335147754   -0.16028322774037
C        22.54249366420192   -3.45319769670024   -0.29934308403552
C        23.74859430546340   -2.77274599126220   -0.14473960639571
C        24.98440784116824   -3.25727865344498    0.40383231584849
C        25.87144057589782   -2.22518064718222    0.30563541630691
C        25.18135290518684   -1.12335312053584   -0.30775508597800
N        23.87129735040009   -1.43755329745772   -0.46918362927011
C        25.70951239605130    0.11997843521238   -0.72848082090244
C        24.99801059881426    1.30106267259688   -0.69549054489241
C        25.42724454248180    2.56804983729148   -1.24179416442032
C        24.50500544713130    3.49198460731540   -0.87150870437058
C        23.49705624508033    2.79966265067431   -0.09874607292002
N        23.77325872761890    1.47049521719277   -0.07035522146694
C        22.36574205986506    3.38180042808259    0.50865870499959
C        21.16484773837503    2.71684459035773    0.61872916086331
N        20.97307403745578    1.44181400826801    0.15677080226436
H        19.74027049185365    4.20296213234971    1.58101986460878
H        17.94746541138156    2.36628695616136    1.26575038458144
H        18.02579850965153   -2.71297849084442    0.24082075365274
H        19.93094126579920   -4.58898356014165    0.06918947384349
H        22.60883647276946   -4.51920458590156   -0.49461079569750
H        25.14285343855024   -4.20110623800713    0.90406988777578
H        26.86820350174619   -2.22821941489813    0.69974137511984
H        26.71972832311152    0.14591618042742   -1.11003592501990
H        26.28545910930056    2.75213577343255   -1.86237767801363
H        24.51096593387142    4.51468152131900   -1.19520198935543
H        22.41423181180443    4.38951081818847    0.89391130273062
78
 energy: -142.662627197084 gnorm: 0.064198150560 xtb: 6.4.1 (bd6e46d)
Ni        6.89421876241715    0.01965697202335    0.01467918313848
C         9.22198840816939   -3.16586055910359    1.27420808783250
C        10.15371894620916   -2.17463761088164    1.23444111712324
C         9.57081044276389   -1.13116157045097    0.43421188015518
C        10.16674230048664    0.07056896324246    0.00861840032289
C         9.47320855972038    1.21362722150080   -0.40227973063904
C         9.98921753739765    2.27042922989235   -1.23022263279702
C         9.03780143229230    3.23487342235471   -1.23191832786478
C         7.95140985974687    2.76066085264803   -0.41062963487098
N         8.20846794772048    1.47411585407843    0.00668152167956
C         6.81732753430097    3.44073303753751    0.00141885482015
C         5.69377216182551    2.71884240367030    0.41328545537947
C         4.59946181565320    3.14311491357593    1.23512924296600
C         3.67525181262326    2.13989405226923    1.20645403663764
C         4.20875767859675    1.10632297911253    0.36344276708399
N         5.48769117266000    1.42822559941516   -0.01908888022882
C         3.57556751603871   -0.04143165440447   -0.12610633273759
C         4.30222240400786   -1.17419260068476   -0.49007193312630
C         3.86060796749366   -2.27312387702867   -1.30559563535660
C         4.82080176020782   -3.23371734426831   -1.23321915613606
C         5.85103150736478   -2.72884939208412   -0.36808207749671
N         5.56536898262388   -1.43084692344308   -0.01285356977205
C         6.95861917599922   -3.41562520717122    0.13183777219347
C         8.09608089265999   -2.71168137485484    0.50043014600882
N         8.30882884896408   -1.42802690748584    0.07140474920174
H         9.27203452121763   -4.06135498799244    1.86032709789420
H        11.08949788426499   -2.15674211910976    1.76411274023603
H        10.91352011633659    2.22808169380735   -1.77416606637378
H         9.01189072079808    4.13689361226895   -1.80907085422191
H         6.77697056748885    4.52216899786448   -0.00088671533624
H         4.56585266957287    4.02436086307747    1.85063837937620
H         2.78680155504254    2.07992644276724    1.80070501938207
H         2.50099996090389   -0.06885133690476   -0.23697555101990
H         2.99312332361180   -2.28863853000013   -1.93761640369849
H         4.85871775095992   -4.13679864548276   -1.80912107975816
H         6.96318522726158   -4.48990365410510    0.22712222190935
C        11.53194174867290    0.07391620902798   -0.00962746664611
C        12.74183962300510   -0.00492245179445   -0.00324157233195
C        14.04457124710738   -0.02996587950288   -0.01530037843869
C        15.25665068232961   -0.03609993632834   -0.03002789680924
C        16.55963060945235   -0.04542948731952   -0.02183150326662
C        17.76897810607990   -0.05803998895510    0.04034454837105
Ni       22.42076458094671   -0.00920566056749   -0.16440867880906
C        19.94635022907583    3.23982921337335    1.13102444725370
C        19.00599190260526    2.28136356153856    0.93280819746733
C        19.70865604475850    1.16767998554772    0.35052774450497
C        19.13927190654758   -0.08459388165652    0.07310262934721
C        19.78140123100114   -1.31692577589096   -0.03869856999216
C        19.09664008212208   -2.58066991105075    0.05826466233786
C        20.05480161456687   -3.52481402171181   -0.04976317148027
C        21.31278008948593   -2.83680298481424   -0.21379955185476
N        21.11442974071515   -1.47915071722027   -0.14616177060244
C        22.54053385298576   -3.44993810703100   -0.27828979274319
C        23.73832216437618   -2.73931388928632   -0.12354535349930
C        24.97775598065556   -3.24328725033700    0.37543438120855
C        25.87809762308652   -2.21791763097772    0.28032557493972
C        25.17605672723344   -1.10338931607698   -0.27831287600700
N        23.84328868253592   -1.40041777346552   -0.40477176599823
C        25.70742460968826    0.11303437636777   -0.72095733805079
C        24.97527128043431    1.29223667792151   -0.73247747773714
C        25.42487593850067    2.55923143663435   -1.23766093502941
C        24.51292490527612    3.49103603981627   -0.84989720387862
C        23.49138861839041    2.79375944158168   -0.11953196558883
N        23.74284718844898    1.44619118355456   -0.13416833831746
C        22.38589783245869    3.38733737228541    0.49800856531758
C        21.19274096719815    2.70698797960613    0.63983041793774
N        21.01560510431792    1.42513398398912    0.19496249854361
H        19.77679601378097    4.20361031220087    1.57035214987127
H        17.97180381182588    2.33700982078821    1.22687135476629
H        18.04367407480858   -2.70322539593935    0.22943484622167
H        19.94272038663032   -4.58888688917209    0.04564115545956
H        22.60098260608272   -4.52225165661882   -0.42738035634083
H        25.13536397345474   -4.19412249140239    0.85562867027108
H        26.88042907506489   -2.21802099307445    0.66162234232330
H        26.72943662305372    0.14872014700008   -1.07061589058380
H        26.29276765039802    2.73331874183905   -1.84468882482307
H        24.50624565453219    4.52215262745427   -1.14624595367131
H        22.42655349090745    4.41268616401762    0.84110935445120
78
 energy: -142.688631930235 gnorm: 0.053606047591 xtb: 6.4.1 (bd6e46d)
Ni        6.87895410462207    0.01233521476136    0.01818062328038
C         9.20660635990887   -3.16312681213442    1.27272515202646
C        10.13257530073454   -2.16725707006533    1.23087760072620
C         9.53087272650918   -1.10183949279569    0.47858136826139
C        10.14254681905289    0.07715770876265    0.01218486794440
C         9.43879725460335    1.19433360665793   -0.43582417734350
C         9.97950514450965    2.27491498812964   -1.22916481869562
C         9.03352495022298    3.24345811159479   -1.23076655779215
C         7.92321510494481    2.74520180463779   -0.44511286396783
N         8.16272603273171    1.44494676909410   -0.07004921853442
C         6.80939913666787    3.42606054454572    0.00547142544066
C         5.70849150904220    2.68562613342509    0.45183033574908
C         4.59195693615557    3.13566732826324    1.22737667406973
C         3.66418598538276    2.13900473945767    1.19979878983124
C         4.21741165725359    1.07956680369921    0.40430154705726
N         5.51509286873905    1.38602056326703    0.05829155607195
C         3.58164771021760   -0.04165005793801   -0.12084921708743
C         4.31637953087587   -1.15724863654765   -0.52822014934840
C         3.85292208433727   -2.27273076681602   -1.30417459056842
C         4.80727187888345   -3.23683510956654   -1.22578672156321
C         5.85805167356777   -2.71393422780447   -0.40247734072145
N         5.58747267634501   -1.39990848360729   -0.08201103797435
C         6.94217826855575   -3.40666870279533    0.12951252697036
C         8.05933716282418   -2.69449366763460    0.54536480362472
N         8.25331544750120   -1.39473169221929    0.15343568140294
H         9.27070079536131   -4.08840912090626    1.81523577568336
H        11.09291144738796   -2.14632059609694    1.71683021818438
H        10.92165810859957    2.24401866407706   -1.74376370434682
H         9.02513333557113    4.16881121531073   -1.77405616662138
H         6.77631914075720    4.50539755198326   -0.00014787389775
H         4.55311160601089    4.04296474030127    1.80252464624291
H         2.74672430051218    2.08732187827346    1.75445599851461
H         2.50586831787417   -0.06528784293701   -0.21492907990672
H         2.96175311733808   -2.29042551007800   -1.90183181307769
H         4.84424144261849   -4.16749810997580   -1.76084561119120
H         6.94513853635782   -4.48425327004764    0.19854571016132
C        11.51824157674977    0.08055404686731   -0.01178848823660
C        12.72647656074345   -0.00123524506872   -0.00723638227339
C        14.03892636852261   -0.02851613102936   -0.01890099569841
C        15.25154378187728   -0.03609833073910   -0.04224237321294
C        16.56402798810499   -0.05356893782397   -0.01815030147258
C        17.77135383599942   -0.07272137419945    0.06430065453329
Ni       22.42930574624376   -0.00872179621384   -0.14685268575795
C        19.97525250041846    3.23109054229104    1.13152515258443
C        19.03706983141221    2.27307522387112    0.92557238059751
C        19.73600931183308    1.15005507647554    0.37145706538518
C        19.15052637760440   -0.09388955059170    0.10174419145083
C        19.80496112491974   -1.30967434015422   -0.03373411375449
C        19.11143664878786   -2.57537905231846    0.03748591300006
C        20.06377173462262   -3.52371467485839   -0.07476016720102
C        21.32638202096635   -2.83202363095471   -0.21192716817420