78
 energy: -142.757550534719 gnorm: 0.000542608335 xtb: 6.4.1 (bd6e46d)
Ni        6.66277883232439   -0.05279513380205    0.00888891454796
C         9.11853784596501   -3.49553998080434    0.08653533701897
C        10.08148251871460   -2.54694371719945    0.12254256131254
C         9.40829762144737   -1.28352706260343    0.09113936935807
C        10.08987544312087   -0.06266085971199    0.09216893168957
C         9.41634761217491    1.16215206576319    0.05346339138844
C        10.09792086557719    2.42142980998649    0.04047932060386
C         9.14030830915624    3.37548896184047    0.00747966826335
C         7.88169935851044    2.69203903996246    0.00370267302580
N         8.06598299603943    1.33517472584273    0.02787020718971
C         6.66894456775975    3.34953086687936   -0.00762385435358
C         5.45354344210299    2.69711687479047   -0.00147887452057
C         4.19402630052469    3.38414003002640    0.00249753879398
C         3.23591058277716    2.43233664004040    0.00230455673998
C         3.91430003741034    1.16780031946937   -0.00535223045739
N         5.26845470421088    1.34372514847162   -0.00304605772462
C         3.25259442944967   -0.04291911093576   -0.03000130274000
C         3.90778856677423   -1.25723492615236   -0.05053277739432
C         3.22282407124063   -2.51745845550619   -0.09415791589961
C         4.17564021012389   -3.47454603342289   -0.09719043256355
C         5.43850088148145   -2.79511897731105   -0.05187642274792
N         5.26073004936668   -1.44095794934604   -0.02911129249845
C         6.64951491485029   -3.45477233533540   -0.01828852989701
C         7.86503360561180   -2.80458657277926    0.03651094263168
N         8.05744469340906   -1.44863715123802    0.04406950815960
H         9.22408585128416   -4.56296475470309    0.09311263157219
H        11.14678180511700   -2.66545207563745    0.16421233177863
H        11.16456871349816    2.53393466586819    0.05440450880732
H         9.25259118414472    4.44204901154037   -0.01104018399625
H         6.67267676041530    4.42877005752372   -0.01751744121307
H         4.08591852780628    4.45153995749922    0.00582563292258
H         2.16927571658882    2.54762131209656    0.00476287023610
H         2.17349795763818   -0.03981706143647   -0.03908213063708
H         2.15584950086693   -2.62667848152710   -0.11952473651788
H         4.06186983515661   -4.54098377949530   -0.12504444791625
H         6.64712543951190   -4.53398409246135   -0.03084136315509
C        11.48634317091469   -0.06535258348318    0.12335205952007
C        12.70562005716213   -0.06291915354626    0.14300558300533
C        14.04226834905304   -0.05785109845677    0.15861731524679
C        15.26614760911473   -0.04703590138430    0.16737393685462
C        16.60276801633743   -0.03193441257092    0.17024104563015
C        17.82204108102411   -0.01427175209834    0.17130270245364
Ni       22.63486530466520    0.05392630809201   -0.02681233201073
C        20.14349806784529    3.44837135410431    0.31000741796580
C        19.19123931243546    2.48971948593354    0.25180073940611
C        19.88016036029241    1.23802261308402    0.15656728765656
C        19.21835311314650    0.00577571016588    0.15752026469749
C        19.91552954729665   -1.20650522322994    0.18742867779925
C        19.26447905428719   -2.47481460560830    0.32076489043095
C        20.24376734853910   -3.40690519430323    0.35739528952308
C        21.48397139019670   -2.70337445604230    0.22194260520556
N        21.26769928466504   -1.35415701003258    0.13091946486044
C        22.70566539842824   -3.33852152681741    0.13103266121452
C        23.88879154665837   -2.66912828893059   -0.10644473432906
C        25.14191327677706   -3.33558894015320   -0.31602296350010
C        26.05477132618469   -2.37149760696924   -0.56463438832397
C        25.36065854885707   -1.11822881512009   -0.48169699835352
N        24.03682846910651   -1.31540275505606   -0.21118678444053
C        25.99026029738954    0.10440181638922   -0.60078780034496
C        25.33619356740088    1.30548748380774   -0.41340546398344
C        26.00507782111353    2.57502566395223   -0.42005512907146
C        25.06569305562789    3.50793342481779   -0.15204642319382
C        23.82200008603429    2.80726800583831   -0.00804937737207
N        24.00348785213254    1.46213338320622   -0.16102256411441
C        22.61432957862998    3.44327607648701    0.19456582059291
C        21.40588310214156    2.77752243637972    0.22333535385313
N        21.22891412612379    1.42263738945782    0.13186960013062
H        20.02427566496146    4.51123249180756    0.39159171312515
H        18.12401866900609    2.59425206635212    0.28095376628699
H        18.20201060617845   -2.60729486422410    0.38640509994472
H        20.15637812496277   -4.47164525089683    0.45343586816213
H        22.73046036146464   -4.41464854268309    0.20938308897628
H        25.27596384551948   -4.39951914541178   -0.28256619166186
H        27.10219462885433   -2.47164656433043   -0.77416773281050
H        27.04889711357742    0.12103721090607   -0.80938929451192
H        27.05496736234249    2.70607641419373   -0.59778809839332
H        25.17557874761364    4.57181307477472   -0.06769477201816
H        22.60938499845004    4.51797348587617    0.29384267530636
