      -----------------------------------------------------------      
     |                   =====================                   |     
     |                           x T B                           |     
     |                   =====================                   |     
     |                         S. Grimme                         |     
     |          Mulliken Center for Theoretical Chemistry        |     
     |                    University of Bonn                     |     
      -----------------------------------------------------------      

   * xtb version 6.4.1 (bd6e46d) compiled by 'conda@4901f00b25ba' on 2021-06-10

   xtb is free software: you can redistribute it and/or modify it under
   the terms of the GNU Lesser General Public License as published by
   the Free Software Foundation, either version 3 of the License, or
   (at your option) any later version.
   
   xtb is distributed in the hope that it will be useful,
   but WITHOUT ANY WARRANTY; without even the implied warranty of
   MERCHANTABILITY or FITNESS FOR A PARTICULAR PURPOSE.  See the
   GNU Lesser General Public License for more details.
   
   Cite this work as:
   * C. Bannwarth, E. Caldeweyher, S. Ehlert, A. Hansen, P. Pracht,
     J. Seibert, S. Spicher, S. Grimme, WIREs Comput. Mol. Sci., 2020, 11,
     e01493. DOI: 10.1002/wcms.1493
   
   for GFN2-xTB:
   * C. Bannwarth, S. Ehlert and S. Grimme., J. Chem. Theory Comput., 2019,
     15, 1652-1671. DOI: 10.1021/acs.jctc.8b01176
   for GFN1-xTB:
   * S. Grimme, C. Bannwarth, P. Shushkov, J. Chem. Theory Comput., 2017,
     13, 1989-2009. DOI: 10.1021/acs.jctc.7b00118
   for GFN0-xTB:
   * P. Pracht, E. Caldeweyher, S. Ehlert, S. Grimme, ChemRxiv, 2019, preprint.
     DOI: 10.26434/chemrxiv.8326202.v1
   for GFN-FF:
   * S. Spicher and S. Grimme, Angew. Chem. Int. Ed., 2020, 59, 15665-15673.
     DOI: 10.1002/anie.202004239
   
   for DFT-D4:
   * E. Caldeweyher, C. Bannwarth and S. Grimme, J. Chem. Phys., 2017,
     147, 034112. DOI: 10.1063/1.4993215
   * E. Caldeweyher, S. Ehlert, A. Hansen, H. Neugebauer, S. Spicher,
     C. Bannwarth and S. Grimme, J. Chem. Phys., 2019, 150, 154122.
     DOI: 10.1063/1.5090222
   * E. Caldeweyher, J.-M. Mewes, S. Ehlert and S. Grimme, Phys. Chem. Chem. Phys.
     2020, 22, 8499-8512. DOI: 10.1039/D0CP00502A
   
   for sTDA-xTB:
   * S. Grimme and C. Bannwarth, J. Chem. Phys., 2016, 145, 054103.
     DOI: 10.1063/1.4959605
   
   in the mass-spec context:
   * V. Asgeirsson, C. Bauer and S. Grimme, Chem. Sci., 2017, 8, 4879.
     DOI: 10.1039/c7sc00601b
   * J. Koopman and S. Grimme, ACS Omega 2019, 4, 12, 15120-15133.
     DOI: 10.1021/acsomega.9b02011
   
   for metadynamics refer to:
   * S. Grimme, J. Chem. Theory Comput., 2019, 155, 2847-2862
     DOI: 10.1021/acs.jctc.9b00143
   
   for SPH calculations refer to:
   * S. Spicher and S. Grimme, J. Chem. Theory Comput., 2021, 17, 1701-1714
     DOI: 10.1021/acs.jctc.0c01306
   
   with help from (in alphabetical order)
   P. Atkinson, C. Bannwarth, F. Bohle, G. Brandenburg, E. Caldeweyher
   M. Checinski, S. Dohm, S. Ehlert, S. Ehrlich, I. Gerasimov, J. Koopman
   C. Lavigne, S. Lehtola, F. März, M. Müller, F. Musil, H. Neugebauer
   J. Pisarek, C. Plett, P. Pracht, J. Seibert, P. Shushkov, S. Spicher
   M. Stahn, M. Steiner, T. Strunk, J. Stückrath, T. Rose, and J. Unsleber
   
 * started run on 2021/11/21 at 01:41:35.246     

           -------------------------------------------------
          |                Calculation Setup                |
           -------------------------------------------------

          program call               : /home/jeff/miniconda3/bin/xtb /home/jeff/chem/final-year-proejct/Cu+2_6_4_outenergy/input_structure.xyz --gfn 2 --parallel 1 --etemp 300 --chrg 0 --uhf 0 -I det_control.in
          coordinate file            : /home/jeff/chem/final-year-proejct/Cu+2_6_4_outenergy/input_structure.xyz
          omp threads                :                     1
          number of atoms            :                   160
          number of electrons        :                   558
          charge                     :                     0
          spin                       :                   0.0
          first test random number   :      0.45591460528360

   ID    Z sym.   atoms
    1   29 Cu     1, 37, 91, 126
    2    6 C      2-9, 11-15, 17-21, 23, 24, 38-45, 47-51, 53-57, 59, 60,
                  73-90, 92-99, 101-105, 107-111, 113, 114, 127-134, 136-140,
                  142-146, 148, 149
    3    7 N      10, 16, 22, 25, 46, 52, 58, 61, 100, 106, 112, 115, 135,
                  141, 147, 150
    4    1 H      26-36, 62-72, 116-125, 151-160

           -------------------------------------------------
          |                 G F N 2 - x T B                 |
           -------------------------------------------------

        Reference                      10.1021/acs.jctc.8b01176
      * Hamiltonian:
        H0-scaling (s, p, d)           1.850000    2.230000    2.230000
        zeta-weighting                 0.500000
      * Dispersion:
        s8                             2.700000
        a1                             0.520000
        a2                             5.000000
        s9                             5.000000
      * Repulsion:
        kExp                           1.500000    1.000000
        rExp                           1.000000
      * Coulomb:
        alpha                          2.000000
        third order                    shell-resolved
        anisotropic                    true
        a3                             3.000000
        a5                             4.000000
        cn-shift                       1.200000
        cn-exp                         4.000000
        max-rad                        5.000000


          ...................................................
          :                      SETUP                      :
          :.................................................:
          :  # basis functions                 538          :
          :  # atomic orbitals                 534          :
          :  # shells                          282          :
          :  # electrons                       558          :
          :  max. iterations                   250          :
          :  Hamiltonian                  GFN2-xTB          :
          :  restarted?                      false          :
          :  GBSA solvation                  false          :
          :  PC potential                    false          :
          :  electronic temp.          300.0000000     K    :
          :  accuracy                    1.0000000          :
          :  -> integral cutoff          0.2500000E+02      :
          :  -> integral neglect         0.1000000E-07      :
          :  -> SCF convergence          0.1000000E-05 Eh   :
          :  -> wf. convergence          0.1000000E-03 e    :
          :  Broyden damping             0.4000000          :
          ...................................................

 iter      E             dE          RMSdq      gap      omega  full diag
   1   -298.7668094 -0.298767E+03  0.622E+00    0.02       0.0  T
   2   -298.2290299  0.537779E+00  0.393E+00    0.62       1.0  T
   3   -152.4885991  0.145740E+03  0.133E+01    0.07       1.0  T
   4   -296.5172171 -0.144029E+03  0.256E+00    0.44       1.0  T
   5   -297.8317808 -0.131456E+01  0.168E+00    0.05       1.0  T
   6   -298.2786041 -0.446823E+00  0.113E+00    0.27       1.0  T
   7   -298.2788570 -0.252940E-03  0.111E+00    0.53       1.0  T
   8   -298.3413154 -0.624584E-01  0.830E-01    0.30       1.0  T
   9   -298.4848287 -0.143513E+00  0.821E-01    0.12       1.0  T
  10   -298.5459636 -0.611349E-01  0.642E-01    0.06       1.0  T
  11   -298.2896029  0.256361E+00  0.875E-01    0.30       1.0  T
  12   -298.8044765 -0.514874E+00  0.327E-01    0.01       1.0  T
  13   -298.5097136  0.294763E+00  0.728E-01    0.12       1.0  T
  14   -298.7096063 -0.199893E+00  0.505E-01    0.03       1.0  T
  15   -298.8074889 -0.978825E-01  0.325E-01    0.02       1.0  T
  16   -298.8079463 -0.457425E-03  0.329E-01    0.03       1.0  T
  17   -298.8549917 -0.470454E-01  0.186E-01    0.01       1.0  T
  18   -298.8549858  0.584335E-05  0.181E-01    0.01       1.0  T
  19   -298.8712566 -0.162708E-01  0.905E-02    0.01       1.0  T
  20   -298.8753031 -0.404649E-02  0.483E-02    0.00       1.0  T
  21   -298.8736390  0.166407E-02  0.683E-02    0.00       1.0  T
  22   -298.8743015 -0.662481E-03  0.606E-02    0.00       1.0  T
  23   -298.8756078 -0.130623E-02  0.427E-02    0.00       1.0  T
  24   -298.8762542 -0.646403E-03  0.301E-02    0.00       1.0  T
  25   -298.8767795 -0.525366E-03  0.983E-03    0.00       1.0  T
  26   -298.8767910 -0.115006E-04  0.777E-03    0.00       1.0  T
  27   -298.8767857  0.536095E-05  0.873E-03    0.00       1.0  T
  28   -298.8767876 -0.196981E-05  0.836E-03    0.00       1.0  T
  29   -298.8768212 -0.335343E-04  0.342E-03    0.00       2.3  T
  30   -298.8768220 -0.850107E-06  0.250E-03    0.00       3.2  T
  31   -298.8768224 -0.379706E-06  0.231E-03    0.00       3.4  T
  32   -298.8768259 -0.354550E-05  0.933E-04    0.00       8.5  T
  33   -298.8768264 -0.422897E-06  0.402E-04    0.00      19.7  T
  34   -298.8768264 -0.429519E-07  0.297E-04    0.00      26.6  T

   *** convergence criteria satisfied after 34 iterations ***

         #    Occupation            Energy/Eh            Energy/eV
      -------------------------------------------------------------
         1        2.0000           -0.6799227             -18.5016
       ...           ...                  ...                  ...
       273        2.0000           -0.3698264             -10.0635
       274        2.0000           -0.3684392             -10.0257
       275        2.0000           -0.3635096              -9.8916
       276        2.0000           -0.3564834              -9.7004
       277        2.0000           -0.3503637              -9.5339
       278        1.0125           -0.3225436              -8.7769
       279        1.0121           -0.3225428              -8.7768 (HOMO)
       280        0.9872           -0.3224954              -8.7755 (LUMO)
       281        0.9864           -0.3224939              -8.7755
       282        0.0017           -0.3158077              -8.5936
       283        0.0000           -0.3097118              -8.4277
       284                         -0.3026924              -8.2367
       ...                                ...                  ...
       534                          1.7161259              46.6982
      -------------------------------------------------------------
                  HL-Gap            0.0000474 Eh            0.0013 eV
             Fermi-level           -0.3225197 Eh           -8.7762 eV

 SCC (total)                   0 d,  0 h,  0 min,  2.547 sec
 SCC setup                      ...        0 min,  0.005 sec (  0.189%)
 Dispersion                     ...        0 min,  0.010 sec (  0.379%)
 classical contributions        ...        0 min,  0.001 sec (  0.045%)
 integral evaluation            ...        0 min,  0.085 sec (  3.326%)
 iterations                     ...        0 min,  2.216 sec ( 87.005%)
 molecular gradient             ...        0 min,  0.223 sec (  8.750%)
 printout                       ...        0 min,  0.008 sec (  0.306%)

         :::::::::::::::::::::::::::::::::::::::::::::::::::::
         ::                     SUMMARY                     ::
         :::::::::::::::::::::::::::::::::::::::::::::::::::::
         :: total energy            -293.438348154389 Eh    ::
         :: gradient norm              0.000630001779 Eh/a0 ::
         :: HOMO-LUMO gap              0.001291144008 eV    ::
         ::.................................................::
         :: SCC energy              -298.876826412018 Eh    ::
         :: -> isotropic ES            0.111274309290 Eh    ::
         :: -> anisotropic ES          0.036635661423 Eh    ::
         :: -> anisotropic XC          0.145273719877 Eh    ::
         :: -> dispersion             -0.253148371341 Eh    ::
         :: repulsion energy           5.442328485057 Eh    ::
         :: add. restraining           0.000000000000 Eh    ::
         :: total charge              -0.000000000340 e     ::
         :::::::::::::::::::::::::::::::::::::::::::::::::::::

           -------------------------------------------------
          |                Property Printout                |
           -------------------------------------------------

    * Orbital Energies and Occupations

         #    Occupation            Energy/Eh            Energy/eV
      -------------------------------------------------------------
         1        2.0000           -0.6799227             -18.5016
       ...           ...                  ...                  ...
       267        2.0000           -0.3717738             -10.1165
       268        2.0000           -0.3715508             -10.1104
       269        2.0000           -0.3715482             -10.1103
       270        2.0000           -0.3710102             -10.0957
       271        2.0000           -0.3709969             -10.0953
       272        2.0000           -0.3698420             -10.0639
       273        2.0000           -0.3698264             -10.0635
       274        2.0000           -0.3684392             -10.0257
       275        2.0000           -0.3635096              -9.8916
       276        2.0000           -0.3564834              -9.7004
       277        2.0000           -0.3503637              -9.5339
       278        1.0125           -0.3225436              -8.7769
       279        1.0121           -0.3225428              -8.7768 (HOMO)
       280        0.9872           -0.3224954              -8.7755 (LUMO)
       281        0.9864           -0.3224939              -8.7755
       282        0.0017           -0.3158077              -8.5936
       283        0.0000           -0.3097118              -8.4277
       284                         -0.3026924              -8.2367
       285                         -0.3005039              -8.1771
       286                         -0.3005035              -8.1771
       287                         -0.3001811              -8.1683
       288                         -0.3001797              -8.1683
       289                         -0.2978008              -8.1036
       290                         -0.2762739              -7.5178
       ...                                ...                  ...
       534                          1.7161259              46.6982
      -------------------------------------------------------------
                  HL-Gap            0.0000474 Eh            0.0013 eV
             Fermi-level           -0.3225197 Eh           -8.7762 eV

     #   Z          covCN         q      C6AA      α(0)
     1  29 Cu       2.957     0.198   146.175    27.530
     2   6 C        3.023    -0.051    29.230     8.868
     3   6 C        3.020    -0.049    29.194     8.863
     4   6 C        3.165     0.079    25.915     8.319
     5   6 C        2.953     0.017    27.637     8.623
     6   6 C        3.165     0.079    25.916     8.320
     7   6 C        3.020    -0.049    29.193     8.863
     8   6 C        3.023    -0.051    29.230     8.868
     9   6 C        3.148     0.077    26.021     8.344
    10   7 N        2.620    -0.172    24.726     7.385
    11   6 C        2.901    -0.049    29.228     8.864
    12   6 C        3.144     0.078    26.008     8.344
    13   6 C        3.019    -0.050    29.207     8.865
    14   6 C        3.019    -0.050    29.211     8.866
    15   6 C        3.144     0.079    25.994     8.342
    16   7 N        2.623    -0.170    24.686     7.379
    17   6 C        2.901    -0.051    29.272     8.871
    18   6 C        3.144     0.079    25.994     8.342
    19   6 C        3.020    -0.050    29.211     8.866
    20   6 C        3.019    -0.050    29.207     8.865
    21   6 C        3.144     0.078    26.008     8.344
    22   7 N        2.623    -0.170    24.686     7.379
    23   6 C        2.901    -0.049    29.228     8.864
    24   6 C        3.148     0.077    26.020     8.344
    25   7 N        2.620    -0.172    24.726     7.385
    26   1 H        0.926     0.035     2.522     2.484
    27   1 H        0.926     0.037     2.494     2.469
    28   1 H        0.926     0.037     2.494     2.470
    29   1 H        0.926     0.035     2.522     2.484
    30   1 H        0.926     0.050     2.319     2.382
    31   1 H        0.926     0.035     2.513     2.479
    32   1 H        0.926     0.035     2.515     2.480
    33   1 H        0.926     0.049     2.328     2.386
    34   1 H        0.926     0.035     2.515     2.480
    35   1 H        0.926     0.035     2.514     2.479
    36   1 H        0.926     0.050     2.319     2.382
    37  29 Cu       2.956     0.198   146.175    27.530
    38   6 C        3.022    -0.051    29.230     8.868
    39   6 C        3.020    -0.049    29.194     8.863
    40   6 C        3.165     0.079    25.916     8.319
    41   6 C        2.953     0.017    27.637     8.623
    42   6 C        3.165     0.079    25.917     8.320
    43   6 C        3.020    -0.049    29.192     8.863
    44   6 C        3.023    -0.051    29.230     8.868
    45   6 C        3.148     0.077    26.021     8.344
    46   7 N        2.620    -0.172    24.727     7.385
    47   6 C        2.901    -0.050    29.229     8.865
    48   6 C        3.144     0.078    26.008     8.344
    49   6 C        3.019    -0.050    29.207     8.865
    50   6 C        3.019    -0.050    29.211     8.866
    51   6 C        3.144     0.079    25.994     8.342
    52   7 N        2.623    -0.170    24.686     7.379
    53   6 C        2.901    -0.051    29.273     8.871
    54   6 C        3.144     0.079    25.994     8.342
    55   6 C        3.019    -0.050    29.211     8.866
    56   6 C        3.019    -0.050    29.207     8.865
    57   6 C        3.144     0.078    26.008     8.344
    58   7 N        2.623    -0.170    24.686     7.379
    59   6 C        2.901    -0.050    29.228     8.864
    60   6 C        3.148     0.077    26.020     8.344
    61   7 N        2.620    -0.172    24.726     7.385
    62   1 H        0.926     0.035     2.522     2.483
    63   1 H        0.926     0.037     2.494     2.470
    64   1 H        0.926     0.037     2.494     2.470
    65   1 H        0.926     0.035     2.522     2.484
    66   1 H        0.926     0.050     2.320     2.382
    67   1 H        0.926     0.035     2.514     2.479
    68   1 H        0.926     0.035     2.515     2.480
    69   1 H        0.926     0.049     2.329     2.386
    70   1 H        0.926     0.035     2.515     2.480
    71   1 H        0.926     0.035     2.514     2.479
    72   1 H        0.926     0.050     2.319     2.382
    73   6 C        1.995    -0.019    31.553     9.072
    74   6 C        1.963    -0.010    31.329     9.039
    75   6 C        1.965    -0.002    31.123     9.009
    76   6 C        1.965    -0.002    31.118     9.009
    77   6 C        1.963    -0.010    31.332     9.039
    78   6 C        1.995    -0.019    31.545     9.070
    79   6 C        1.995    -0.019    31.547     9.071
    80   6 C        1.963    -0.010    31.329     9.039
    81   6 C        1.965    -0.002    31.120     9.009
    82   6 C        1.965    -0.002    31.119     9.009
    83   6 C        1.964    -0.010    31.329     9.039
    84   6 C        1.995    -0.019    31.547     9.071
    85   6 C        1.995    -0.019    31.544     9.070
    86   6 C        1.963    -0.010    31.331     9.039
    87   6 C        1.965    -0.002    31.117     9.008
    88   6 C        1.965    -0.002    31.122     9.009
    89   6 C        1.963    -0.010    31.329     9.039
    90   6 C        1.995    -0.019    31.552     9.071
    91  29 Cu       2.947     0.200   146.142    27.527
    92   6 C        3.023    -0.051    29.230     8.868
    93   6 C        3.020    -0.049    29.202     8.864
    94   6 C        3.166     0.079    25.903     8.317
    95   6 C        2.953     0.017    27.639     8.623
    96   6 C        3.166     0.079    25.902     8.317
    97   6 C        3.020    -0.049    29.201     8.864
    98   6 C        3.023    -0.051    29.230     8.868
    99   6 C        3.150     0.077    26.027     8.345
   100   7 N        2.619    -0.173    24.762     7.390
   101   6 C        2.901    -0.047    29.172     8.856
   102   6 C        3.150     0.077    26.028     8.345
   103   6 C        3.023    -0.051    29.230     8.868
   104   6 C        3.020    -0.049    29.201     8.864
   105   6 C        3.166     0.079    25.901     8.316
   106   7 N        2.619    -0.173    24.761     7.390
   107   6 C        2.953     0.017    27.637     8.623
   108   6 C        3.166     0.079    25.902     8.317
   109   6 C        3.020    -0.049    29.201     8.864
   110   6 C        3.023    -0.051    29.230     8.868
   111   6 C        3.150     0.077    26.028     8.345
   112   7 N        2.619    -0.173    24.761     7.390
   113   6 C        2.901    -0.047    29.172     8.856
   114   6 C        3.149     0.077    26.028     8.345
   115   7 N        2.619    -0.173    24.761     7.390
   116   1 H        0.926     0.034     2.530     2.487
   117   1 H        0.926     0.036     2.504     2.475
   118   1 H        0.926     0.036     2.504     2.475
   119   1 H        0.926     0.034     2.530     2.487
   120   1 H        0.926     0.050     2.317     2.380
   121   1 H        0.926     0.034     2.530     2.487
   122   1 H        0.926     0.036     2.503     2.474
   123   1 H        0.926     0.036     2.503     2.474
   124   1 H        0.926     0.034     2.530     2.487
   125   1 H        0.926     0.050     2.317     2.380
   126  29 Cu       2.947     0.200   146.143    27.527
   127   6 C        3.023    -0.051    29.230     8.868
   128   6 C        3.020    -0.049    29.201     8.864
   129   6 C        3.166     0.079    25.902     8.317
   130   6 C        2.953     0.017    27.637     8.623
   131   6 C        3.166     0.079    25.902     8.317
   132   6 C        3.020    -0.049    29.200     8.864
   133   6 C        3.023    -0.051    29.230     8.868
   134   6 C        3.149     0.077    26.028     8.345
   135   7 N        2.619    -0.173    24.761     7.390
   136   6 C        2.901    -0.047    29.173     8.856
   137   6 C        3.149     0.077    26.028     8.345
   138   6 C        3.023    -0.051    29.230     8.868
   139   6 C        3.020    -0.049    29.201     8.864
   140   6 C        3.166     0.079    25.903     8.317
   141   7 N        2.619    -0.173    24.762     7.390
   142   6 C        2.953     0.017    27.639     8.623
   143   6 C        3.166     0.079    25.904     8.317
   144   6 C        3.020    -0.049    29.201     8.864
   145   6 C        3.023    -0.051    29.230     8.868
   146   6 C        3.149     0.077    26.028     8.345
   147   7 N        2.619    -0.173    24.762     7.390
   148   6 C        2.901    -0.047    29.172     8.856
   149   6 C        3.149     0.077    26.028     8.345
   150   7 N        2.619    -0.173    24.761     7.390
   151   1 H        0.926     0.034     2.530     2.487
   152   1 H        0.926     0.036     2.503     2.474
   153   1 H        0.926     0.036     2.503     2.474
   154   1 H        0.926     0.034     2.530     2.487
   155   1 H        0.926     0.050     2.317     2.381
   156   1 H        0.926     0.034     2.530     2.487
   157   1 H        0.926     0.036     2.504     2.475
   158   1 H        0.926     0.036     2.504     2.475
   159   1 H        0.926     0.034     2.530     2.487
   160   1 H        0.926     0.050     2.317     2.380

 Mol. C6AA /au·bohr⁶  :     509721.369342
 Mol. C8AA /au·bohr⁸  :   14682759.023890
 Mol. α(0) /au        :       1184.928948


Wiberg/Mayer (AO) data.
largest (>0.10) Wiberg bond orders for each atom

 ---------------------------------------------------------------------------
     #   Z sym  total        # sym  WBO       # sym  WBO       # sym  WBO
 ---------------------------------------------------------------------------
     1  29 Cu   2.329 --    16 N    0.534    22 N    0.534    10 N    0.533
                            25 N    0.533
     2   6 C    3.946 --     3 C    1.650    24 C    1.167    26 H    0.972
     3   6 C    3.949 --     2 C    1.650     4 C    1.175    27 H    0.971
     4   6 C    3.908 --    25 N    1.289     5 C    1.248     3 C    1.175
     5   6 C    3.942 --     6 C    1.248     4 C    1.248    73 C    1.188
     6   6 C    3.908 --    10 N    1.289     5 C    1.248     7 C    1.175
     7   6 C    3.949 --     8 C    1.650     6 C    1.175    28 H    0.971
     8   6 C    3.946 --     7 C    1.650     9 C    1.167    29 H    0.972
     9   6 C    3.921 --    11 C    1.355    10 N    1.249     8 C    1.167
    10   7 N    3.382 --     6 C    1.289     9 C    1.249     1 Cu   0.533
    11   6 C    3.932 --     9 C    1.355    12 C    1.352    30 H    0.964
    12   6 C    3.927 --    11 C    1.352    16 N    1.263    13 C    1.158
    13   6 C    3.950 --    14 C    1.666    12 C    1.158    31 H    0.972
    14   6 C    3.947 --    13 C    1.666    15 C    1.158    32 H    0.972
    15   6 C    3.929 --    17 C    1.352    16 N    1.265    14 C    1.158
    16   7 N    3.377 --    15 C    1.265    12 C    1.263     1 Cu   0.534
    17   6 C    3.926 --    15 C    1.352    18 C    1.351    33 H    0.964
    18   6 C    3.929 --    17 C    1.351    22 N    1.265    19 C    1.158
    19   6 C    3.947 --    20 C    1.666    18 C    1.158    34 H    0.972
    20   6 C    3.950 --    19 C    1.666    21 C    1.158    35 H    0.972
    21   6 C    3.927 --    23 C    1.352    22 N    1.263    20 C    1.158
    22   7 N    3.377 --    18 C    1.265    21 C    1.263     1 Cu   0.534
    23   6 C    3.932 --    24 C    1.355    21 C    1.352    36 H    0.964
    24   6 C    3.921 --    23 C    1.355    25 N    1.249     2 C    1.167
    25   7 N    3.382 --     4 C    1.289    24 C    1.249     1 Cu   0.533
    26   1 H    0.998 --     2 C    0.972
    27   1 H    0.998 --     3 C    0.971
    28   1 H    0.998 --     7 C    0.971
    29   1 H    0.998 --     8 C    0.972
    30   1 H    0.996 --    11 C    0.964
    31   1 H    0.998 --    13 C    0.972
    32   1 H    0.998 --    14 C    0.972
    33   1 H    0.997 --    17 C    0.964
    34   1 H    0.998 --    19 C    0.972
    35   1 H    0.998 --    20 C    0.972
    36   1 H    0.996 --    23 C    0.964
    37  29 Cu   2.329 --    52 N    0.534    58 N    0.534    61 N    0.533
                            46 N    0.533
    38   6 C    3.946 --    39 C    1.650    60 C    1.167    62 H    0.972
    39   6 C    3.949 --    38 C    1.650    40 C    1.175    63 H    0.971
    40   6 C    3.908 --    61 N    1.288    41 C    1.248    39 C    1.175
    41   6 C    3.942 --    42 C    1.249    40 C    1.248    90 C    1.188
    42   6 C    3.908 --    46 N    1.288    41 C    1.249    43 C    1.175
    43   6 C    3.949 --    44 C    1.650    42 C    1.175    64 H    0.971
    44   6 C    3.946 --    43 C    1.650    45 C    1.167    65 H    0.972
    45   6 C    3.921 --    47 C    1.355    46 N    1.249    44 C    1.167
    46   7 N    3.382 --    42 C    1.288    45 C    1.249    37 Cu   0.533
    47   6 C    3.932 --    45 C    1.355    48 C    1.352    66 H    0.964
    48   6 C    3.927 --    47 C    1.352    52 N    1.263    49 C    1.158
    49   6 C    3.950 --    50 C    1.666    48 C    1.158    67 H    0.972
    50   6 C    3.947 --    49 C    1.666    51 C    1.158    68 H    0.972
    51   6 C    3.929 --    53 C    1.352    52 N    1.265    50 C    1.158
    52   7 N    3.377 --    51 C    1.265    48 C    1.263    37 Cu   0.534
    53   6 C    3.926 --    51 C    1.352    54 C    1.352    69 H    0.964
    54   6 C    3.929 --    53 C    1.352    58 N    1.265    55 C    1.158
    55   6 C    3.947 --    56 C    1.666    54 C    1.158    70 H    0.972
    56   6 C    3.950 --    55 C    1.666    57 C    1.158    71 H    0.972
    57   6 C    3.927 --    59 C    1.352    58 N    1.263    56 C    1.158
    58   7 N    3.377 --    54 C    1.265    57 C    1.263    37 Cu   0.534
    59   6 C    3.932 --    60 C    1.355    57 C    1.352    72 H    0.964
    60   6 C    3.921 --    59 C    1.355    61 N    1.249    38 C    1.167
    61   7 N    3.382 --    40 C    1.288    60 C    1.249    37 Cu   0.533
    62   1 H    0.998 --    38 C    0.972
    63   1 H    0.998 --    39 C    0.971
    64   1 H    0.998 --    43 C    0.971
    65   1 H    0.998 --    44 C    0.972
    66   1 H    0.996 --    47 C    0.964
    67   1 H    0.998 --    49 C    0.972
    68   1 H    0.998 --    50 C    0.972
    69   1 H    0.997 --    53 C    0.964
    70   1 H    0.998 --    55 C    0.972
    71   1 H    0.998 --    56 C    0.972
    72   1 H    0.996 --    59 C    0.964
    73   6 C    3.883 --    74 C    2.441     5 C    1.188    76 C    0.193
    74   6 C    3.927 --    73 C    2.441    75 C    1.333
    75   6 C    3.918 --    76 C    2.355    74 C    1.333    78 C    0.192
    76   6 C    3.919 --    75 C    2.355    77 C    1.334    73 C    0.193
    77   6 C    3.924 --    78 C    2.438    76 C    1.334
    78   6 C    3.883 --    77 C    2.438    95 C    1.191    75 C    0.192
    79   6 C    3.882 --    80 C    2.436   107 C    1.192    82 C    0.192
    80   6 C    3.923 --    79 C    2.436    81 C    1.336
    81   6 C    3.918 --    82 C    2.352    80 C    1.336    84 C    0.192
    82   6 C    3.918 --    81 C    2.352    83 C    1.336    79 C    0.192
    83   6 C    3.923 --    84 C    2.436    82 C    1.336
    84   6 C    3.882 --    83 C    2.436   130 C    1.192    81 C    0.192
    85   6 C    3.883 --    86 C    2.439   142 C    1.191    88 C    0.192
    86   6 C    3.924 --    85 C    2.439    87 C    1.334
    87   6 C    3.919 --    88 C    2.356    86 C    1.334    90 C    0.193
    88   6 C    3.918 --    87 C    2.356    89 C    1.333    85 C    0.192
    89   6 C    3.927 --    90 C    2.442    88 C    1.333
    90   6 C    3.883 --    89 C    2.442    41 C    1.188    87 C    0.193
    91  29 Cu   2.300 --   100 N    0.528   115 N    0.528   112 N    0.528
                           106 N    0.528
    92   6 C    3.947 --    93 C    1.649   114 C    1.168   116 H    0.972
    93   6 C    3.948 --    92 C    1.649    94 C    1.176   117 H    0.971
    94   6 C    3.908 --   115 N    1.292    95 C    1.245    93 C    1.176
    95   6 C    3.930 --    96 C    1.245    94 C    1.245    78 C    1.191
    96   6 C    3.908 --   100 N    1.292    95 C    1.245    97 C    1.176
    97   6 C    3.948 --    98 C    1.649    96 C    1.176   118 H    0.971
    98   6 C    3.947 --    97 C    1.649    99 C    1.168   119 H    0.972
    99   6 C    3.920 --   101 C    1.354   100 N    1.248    98 C    1.168
   100   7 N    3.372 --    96 C    1.292    99 C    1.248    91 Cu   0.528
   101   6 C    3.926 --    99 C    1.354   102 C    1.354   120 H    0.964
   102   6 C    3.920 --   101 C    1.354   106 N    1.248   103 C    1.168
   103   6 C    3.947 --   104 C    1.649   102 C    1.168   121 H    0.972
   104   6 C    3.948 --   103 C    1.649   105 C    1.176   122 H    0.971
   105   6 C    3.908 --   106 N    1.292   107 C    1.245   104 C    1.176
   106   7 N    3.372 --   105 C    1.292   102 C    1.248    91 Cu   0.528
   107   6 C    3.930 --   108 C    1.245   105 C    1.245    79 C    1.192
   108   6 C    3.908 --   112 N    1.292   107 C    1.245   109 C    1.176
   109   6 C    3.948 --   110 C    1.649   108 C    1.176   123 H    0.971
   110   6 C    3.947 --   109 C    1.649   111 C    1.168   124 H    0.972
   111   6 C    3.920 --   113 C    1.354   112 N    1.248   110 C    1.168
   112   7 N    3.372 --   108 C    1.292   111 C    1.248    91 Cu   0.528
   113   6 C    3.926 --   114 C    1.354   111 C    1.354   125 H    0.964
   114   6 C    3.920 --   113 C    1.354   115 N    1.248    92 C    1.168
   115   7 N    3.372 --    94 C    1.292   114 C    1.248    91 Cu   0.528
   116   1 H    0.998 --    92 C    0.972
   117   1 H    0.998 --    93 C    0.971
   118   1 H    0.998 --    97 C    0.971
   119   1 H    0.998 --    98 C    0.972
   120   1 H    0.996 --   101 C    0.964
   121   1 H    0.998 --   103 C    0.972
   122   1 H    0.998 --   104 C    0.971
   123   1 H    0.998 --   109 C    0.971
   124   1 H    0.998 --   110 C    0.972
   125   1 H    0.996 --   113 C    0.964
   126  29 Cu   2.300 --   141 N    0.528   150 N    0.528   135 N    0.528
                           147 N    0.528
   127   6 C    3.947 --   128 C    1.649   149 C    1.168   151 H    0.972
   128   6 C    3.948 --   127 C    1.649   129 C    1.176   152 H    0.971
   129   6 C    3.908 --   150 N    1.292   130 C    1.245   128 C    1.176
   130   6 C    3.930 --   131 C    1.245   129 C    1.245    84 C    1.192
   131   6 C    3.908 --   135 N    1.292   130 C    1.245   132 C    1.176
   132   6 C    3.948 --   133 C    1.649   131 C    1.176   153 H    0.971
   133   6 C    3.947 --   132 C    1.649   134 C    1.168   154 H    0.972
   134   6 C    3.920 --   136 C    1.354   135 N    1.248   133 C    1.168
   135   7 N    3.372 --   131 C    1.292   134 C    1.248   126 Cu   0.528
   136   6 C    3.926 --   137 C    1.354   134 C    1.354   155 H    0.964
   137   6 C    3.920 --   136 C    1.354   141 N    1.248   138 C    1.168
   138   6 C    3.947 --   139 C    1.649   137 C    1.168   156 H    0.972
   139   6 C    3.948 --   138 C    1.649   140 C    1.175   157 H    0.971
   140   6 C    3.909 --   141 N    1.291   142 C    1.246   139 C    1.175
   141   7 N    3.372 --   140 C    1.291   137 C    1.248   126 Cu   0.528
   142   6 C    3.930 --   140 C    1.246   143 C    1.246    85 C    1.191
   143   6 C    3.909 --   147 N    1.291   142 C    1.246   144 C    1.175
   144   6 C    3.948 --   145 C    1.649   143 C    1.175   158 H    0.971
   145   6 C    3.947 --   144 C    1.649   146 C    1.168   159 H    0.972
   146   6 C    3.920 --   148 C    1.354   147 N    1.248   145 C    1.168
   147   7 N    3.372 --   143 C    1.291   146 C    1.248   126 Cu   0.528
   148   6 C    3.926 --   149 C    1.354   146 C    1.354   160 H    0.964
   149   6 C    3.920 --   148 C    1.354   150 N    1.248   127 C    1.168
   150   7 N    3.372 --   129 C    1.292   149 C    1.248   126 Cu   0.528
   151   1 H    0.998 --   127 C    0.972
   152   1 H    0.998 --   128 C    0.971
   153   1 H    0.998 --   132 C    0.971
   154   1 H    0.998 --   133 C    0.972
   155   1 H    0.996 --   136 C    0.964
   156   1 H    0.998 --   138 C    0.972
   157   1 H    0.998 --   139 C    0.971
   158   1 H    0.998 --   144 C    0.971
   159   1 H    0.998 --   145 C    0.972
   160   1 H    0.996 --   148 C    0.964
 ---------------------------------------------------------------------------

Topologies differ in total number of bonds
Writing topology from bond orders to xtbtopo.mol

molecular dipole:
                 x           y           z       tot (Debye)
 q only:        0.001      -0.001      -0.001
   full:        0.001      -0.001      -0.002       0.007
molecular quadrupole (traceless):
                xx          xy          yy          xz          yz          zz
 q only:       92.675       0.325     -20.242      -0.051      -0.603     -72.433
  q+dip:      155.074       0.501     -13.987      -0.123      -1.625    -141.087
   full:      117.433       0.486     -21.968      -0.110      -0.943     -95.465


           -------------------------------------------------
          | TOTAL ENERGY             -293.438348154389 Eh   |
          | GRADIENT NORM               0.000630001779 Eh/α |
          | HOMO-LUMO GAP               0.001291144008 eV   |
           -------------------------------------------------

------------------------------------------------------------------------
 * finished run on 2021/11/21 at 01:41:37.865     
------------------------------------------------------------------------
 total:
 * wall-time:     0 d,  0 h,  0 min,  2.619 sec
 *  cpu-time:     0 d,  0 h,  0 min,  2.619 sec
 * ratio c/w:     1.000 speedup
 SCF:
 * wall-time:     0 d,  0 h,  0 min,  2.549 sec
 *  cpu-time:     0 d,  0 h,  0 min,  2.549 sec
 * ratio c/w:     1.000 speedup

