118
 energy: -198.503004924734 gnorm: 2.279686609870 xtb: 6.4.1 (bd6e46d)
C        18.11419400000000    3.50889100000000    0.78866800000000
C        19.00417200000000    2.56863200000000    0.59047300000000
C        18.34267100000000    1.30855700000000    0.28966600000000
C        18.70110900000000    0.00289500000000    0.00098400000000
C        17.87593100000000   -1.12817700000000   -0.08423200000000
C        18.33149600000000   -2.33690100000000    0.49707500000000
C        17.35880200000000   -3.26944800000000    0.29692000000000
C        16.32770800000000   -2.60174700000000   -0.40606800000000
N        16.66443300000000   -1.32088700000000   -0.62298200000000
C        15.16974700000000   -3.32786200000000   -0.73778500000000
C        13.85164600000000   -2.88516600000000   -0.62425000000000
C        12.53930000000000   -3.48730100000000   -0.72122900000000
C        11.61767200000000   -2.54065300000000   -0.51514400000000
C        12.31455800000000   -1.29482200000000   -0.27841300000000
N        13.63563100000000   -1.57457400000000   -0.35809900000000
C        11.91531600000000    0.00717500000000   -0.01041000000000
C        12.74792800000000    1.14385100000000    0.06549900000000
C        12.31378500000000    2.34584100000000   -0.54464200000000
C        13.30929800000000    3.26222900000000   -0.35268600000000
C        14.32344900000000    2.58898600000000    0.37124500000000
N        13.95825200000000    1.32116400000000    0.61006900000000
C        15.49309100000000    3.29594200000000    0.69274500000000
C        16.80834400000000    2.89241800000000    0.62272900000000
N        16.99796600000000    1.58131400000000    0.32632700000000
H        18.28145900000001    4.53743500000000    1.02725800000000
H        20.07443100000000    2.69196900000000    0.63949100000000
H        19.29201700000000   -2.52260400000000    1.01565200000000
H        17.39568400000000   -4.32605700000000    0.62224700000000
H        16.06114800000000   -0.55347700000000   -1.17050100000000
H        15.25813800000000   -4.36328900000000   -1.11613100000000
H        12.34062500000000   -4.54800100000000   -0.92997400000000
H        10.54826300000000   -2.73258700000000   -0.53437700000000
H        10.84037300000000    0.09644400000000    0.12733500000000
H        11.36013100000000    2.53739800000000   -1.07343900000000
H        13.29487700000000    4.31245800000000   -0.69912700000000
H        14.55157700000000    0.56372000000000    1.18206600000000
H        15.42458300000000    4.35334700000000    1.04946100000000
C        40.56147300000000   -3.49473200000000    0.82503800000000
C        39.67149600000000   -2.55658100000000    0.61708800000000
C        40.33299700000000   -1.29969900000000    0.30321000000000
C        39.97455900000001    0.00289500000000    0.00098400000000
C        40.79973700000000    1.13302100000000   -0.09597500000000
C        40.34417200000000    2.34771700000000    0.47274700000000
C        41.31686600000000    3.27813500000000    0.26291800000000
C        42.34796000000001    2.60316800000000   -0.43309700000000
N        42.01123500000000    1.32012500000000   -0.63669700000000
C        43.50592000000001    3.32580000000000   -0.77233700000000
C        44.82402100000000    2.88430700000000   -0.65421100000000
C        46.13636800000000    3.48540100000000   -0.75743900000000
C        47.05799500000000    2.54094500000000   -0.54153300000000
C        46.36111000000000    1.29764100000000   -0.29187600000000
N        45.04003600000000    1.57655000000000   -0.37446300000000
C        46.76035200000000   -0.00150300000000   -0.01036500000000
C        45.92773900000001   -1.13733000000000    0.07734500000000
C        46.36188300000000   -2.34559100000000   -0.52027900000000
C        45.36637000000001   -3.25993700000000   -0.31881600000000
C        44.35221900000000   -2.57921100000000    0.39808400000000
N        44.71741500000000   -1.30897700000000    0.62372800000000
C        43.18257700000000   -3.28279000000000    0.72690800000000
C        41.86732400000000   -2.88001400000000    0.65270600000000
N        41.67770100000001   -1.57206000000000    0.34270300000000
H        40.39420900000000   -4.52074200000000    1.07429700000000
H        38.60123700000000   -2.67940300000000    0.66738500000000
H        39.38365000000001    2.53879600000000    0.98936800000000
H        41.27998400000000    4.33806600000000    0.57725400000000
H        42.61452000000000    0.54707000000000   -1.17621600000000
H        43.41753000000000    4.35724100000000   -1.16141800000000
H        46.33504300000000    4.54387700000000   -0.97718800000000
H        48.12740500000000    2.73266900000000   -0.56275900000000
H        47.83529500000001   -0.08933700000000    0.12829900000000
H        47.31553700000000   -2.54263000000000   -1.04705800000000
H        45.38079100000000   -4.31370700000000   -0.65433100000000
H        44.12409100000000   -0.54563400000000    1.18782600000000
H        43.25108500000001   -4.33643300000000    1.09458700000000
C        21.10272200000000    0.00067300000000   -0.00023000000000
C        22.31069900000000    0.00812800000000    0.00146500000000
C        23.72946700000000    0.00882500000000    0.00660200000000
C        24.94498400000000    0.00067300000000   -0.00023000000000
C        33.73283100000000    0.00067300000000   -0.00023000000000
C        34.94080800000000    0.00812800000000    0.00146500000000
C        36.35957600000000    0.00882500000000    0.00660200000000
C        37.57509200000000    0.00067300000000   -0.00023000000000
C        26.54468600000000   -3.59537300000000   -0.00008100000000
C        25.67013600000000   -2.60046900000000   -0.01038300000000
C        26.34160000000000   -1.32168600000000    0.00280600000000
C        25.94456900000000   -0.00610000000000   -0.00197200000000
C        26.75576100000000    1.13822300000000   -0.15609800000000
C        26.27673500000000    2.19074000000000   -0.96816400000000
C        27.26382000000000    3.13349200000000   -0.95963300000000
C        28.31109200000000    2.63169700000000   -0.14683000000000
N        27.97223900000000    1.42533000000000    0.32591600000000
C        29.47146900000000    3.40968000000000    0.00752000000000
C        30.79245800000000    2.95180700000000   -0.02187300000000
C        32.10502800000000    3.57994000000000   -0.08300100000000
C        33.01914000000000    2.62487600000000   -0.08558400000000
C        32.34559400000000    1.33800300000000   -0.02639500000000
N        31.03353500000000    1.62660200000000    0.00839500000000
C        32.74787700000000   -0.00610000000000   -0.00197200000000
C        31.91572300000000   -1.11988900000000    0.18030900000000
C        32.35568100000000   -2.15154600000000    1.04362000000000
C        31.35749900000000   -3.07488700000000    1.04824100000000
C        30.33458300000000   -2.59494900000000    0.19481100000000
N        30.70176100000000   -1.41370200000000   -0.31569700000000
C        29.17767400000000   -3.37035700000000    0.03774300000000
C        27.85689900000000   -2.95087900000000    0.02105800000000
N        27.68050800000000   -1.61267500000000    0.02195800000000
H        26.37616600000000   -4.65754000000000   -0.00548400000000
H        24.58230800000000   -2.78650500000000   -0.02741000000000
H        25.31265700000000    2.26611100000000   -1.50248000000000
H        27.22567400000000    4.10460700000000   -1.49207500000000
H        28.57991700000000    0.78823000000000    1.01454600000000
H        29.41636900000000    4.49594200000000    0.15163600000000
H        32.32345500000000    4.64793300000000   -0.12133100000000
H        34.09545500000000    2.77092000000000   -0.12521100000000
H        33.30969100000000   -2.21595800000000    1.60116800000000
H        31.38291800000000   -4.02020400000000    1.62356100000000
H        30.11468400000000   -0.79424500000000   -1.03934700000000
H        29.23839200000000   -4.48209700000000   -0.07638600000000
118
 energy: -199.090372318025 gnorm: 0.433436038900 xtb: 6.4.1 (bd6e46d)
C        18.10846479808847    3.51229958521186    0.79004895260723
C        19.01355364495042    2.56372549464245    0.58851726328925
C        18.33950703729593    1.30932267006646    0.28685744732348
C        18.71330847990589    0.01143959594740    0.00249035789622
C        17.89093696242441   -1.12242300335319   -0.08160419994295
C        18.33697166765308   -2.33980839098177    0.49807631645235
C        17.36160410581605   -3.27211595053937    0.29444035633891
C        16.32294953962584   -2.60872175450384   -0.40865117298510
N        16.66082950102729   -1.31452556747152   -0.62525603488896
C        15.16107285908081   -3.33097825193202   -0.74137186232984
C        13.85047472315612   -2.87589966230491   -0.62689489776074
C        12.53967838697775   -3.49409864792289   -0.72379832097496
C        11.61365855718941   -2.54263283768774   -0.51466435998251
C        12.32248466306356   -1.29762221363660   -0.27476628680388
N        13.64281246233266   -1.56820011351239   -0.35640518072455
C        11.91266891061953   -0.00030926759332   -0.00909758141835
C        12.73948975246532    1.13974798376649    0.06418722693709
C        12.30981459408062    2.34798806489821   -0.54320531257610
C        13.30676996481655    3.26502758870781   -0.35066837875171
C        14.32811340329750    2.59729077686034    0.37276208407041
N        13.96433735087970    1.31525630088713    0.60989044725878
C        15.49879995853748    3.30389810843501    0.69805667789044
C        16.80846751731377    2.88130576972171    0.62387200494949
N        16.99736763342077    1.57442501622412    0.32535918292015
H        18.28045778946413    4.53949217045043    1.02784737487164
H        20.07689550861662    2.69041553589778    0.63909932395924
H        19.28753311300288   -2.51965632184449    1.01322147065095
H        17.39363571417379   -4.31986764187165    0.61987418384393
H        16.07013537424530   -0.56594175511010   -1.15954868452870
H        15.25960957021368   -4.36163008238220   -1.11000530858953
H        12.34199697603153   -4.54556335331594   -0.92958135790072
H        10.54889823950285   -2.72995818741161   -0.53372291266966
H        10.84037567360747    0.09980061642965    0.12329196664265
H        11.36530337252737    2.53429947324412   -1.07057283268816
H        13.29687707444660    4.30635148150950   -0.69677727461615
H        14.54243117368967    0.57576596737048    1.17041492758726
H        15.42144710208377    4.35139927965631    1.04387094967883
C        40.56720235785694   -3.49813017395485    0.82645655348863
C        39.66212471728791   -2.55169487339416    0.61509956376724
C        40.33617251348327   -1.30051468716915    0.30041702519836
C        39.96243093097187   -0.00565104826063    0.00281836189193
C        40.78471907695462    1.12727824390677   -0.09325738040315
C        40.33871012188794    2.35063707413599    0.47374205486902
C        41.31405474581321    3.28077924655130    0.26040810814421
C        42.35271396915628    2.61010561852144   -0.43576182076650
N        42.01482074030174    1.31374798127603   -0.63894252905835
C        43.51459186829547    3.32887952141363   -0.77595220179394
C        44.82519296421807    2.87500724515659   -0.65675969541920
C        46.13599089285525    3.49217000605767   -0.76007814282490
C        47.06200970327789    2.54292976982042   -0.54107393435825
C        46.35318925759127    1.30047212686306   -0.28826081683200
N        45.03284944290724    1.57019836038098   -0.37270279805231
C        46.76300246652268    0.00600495356006   -0.00913039133536
C        45.93617533003055   -1.13324731657966    0.07598785895674
C        46.36585269354897   -2.34771413500178   -0.51882106782092
C        45.36888760498120   -3.26271334840267   -0.31676984902904
C        44.34756071026412   -2.58750036757325    0.39968256080981
N        44.71133407415977   -1.30307595236564    0.62349185305935
C        43.17685594069981   -3.29068989376963    0.73231039348784
C        41.86720610640819   -2.86890267817581    0.65372980517719
N        41.67829089608686   -1.56517722895307    0.34164389269808
H        40.39521076507219   -4.52279645246115    1.07490652453716
H        38.59877670069508   -2.67785213878838    0.66696170445522
H        39.38813612616490    2.53582867422104    0.98696925318345
H        41.28202951046352    4.33185445034967    0.57494216087492
H        42.60553040373512    0.55964779326715   -1.16539568462141
H        43.41605662301613    4.35564651451208   -1.15527004885352
H        46.33367118945020    4.54144364286576   -0.97677022020411
H        48.12677065398535    2.73004758908950   -0.56207797363142
H        47.83529324746969   -0.09273401644247    0.12429338668148
H        47.31036506899650   -2.53950121567200   -1.04422341760728
H        45.37879016343777   -4.30757685606403   -0.65204438193960
H        44.13323757873952   -0.55780073321096    1.17629906342290
H        43.25421999981074   -4.33454316116305    1.08897942911969
C        21.08165072038909   -0.00163686202049    0.00038886799526
C        22.30054938303740    0.00703541148100    0.00215458539185
C        23.66024977261588    0.01072257631971    0.00694560348348
C        24.81710270673988    0.00902653580041   -0.00007309315813
C        33.86612379523002   -0.00244147669111    0.00117848587048
C        35.01726982685995    0.00558209562051    0.00061397555917
C        36.37287298611831    0.00988025694692    0.00675799144281
C        37.59417131028910    0.00315388043948   -0.00010035195045
C        26.55163586075373   -3.59797857610752   -0.00074170593682
C        25.66152447637049   -2.59986162580748   -0.00998042915746
C        26.37781765178424   -1.34205464888286    0.00524302174324
C        26.05811562118884   -0.01053669337573   -0.00239124362942
C        26.77631660019052    1.14225353259334   -0.16027520641538
C        26.27666485553016    2.19105391325754   -0.96662062193225
C        27.26350687807652    3.13966061098245   -0.95832587016642
C        28.31605402029933    2.64278319009365   -0.14731799337569
N        27.98459065767771    1.42490738472143    0.32877247478372
C        29.48245752253171    3.41418499590178    0.01024703122573
C        30.79269333399989    2.94992234809732   -0.01813940353004
C        32.10181965427616    3.58820656309284   -0.08178635090055
C        33.02474870311978    2.62107447666769   -0.08605833980527
C        32.31079945952187    1.35528677193088   -0.02947088314394
N        31.01790008023279    1.62266353737649    0.00758588152765
C        32.62318798034563    0.00030383171694   -0.00321567161224
C        31.89145692534848   -1.12521674908340    0.18478265667761
C        32.35665576658521   -2.15111782295976    1.04194553752182
C        31.35808253911163   -3.08176628631424    1.04779774396883
C        30.33003949207951   -2.60639718112653    0.19584882143444
N        30.68902027032086   -1.41327151857128   -0.31887407038979
C        29.16950078083100   -3.38081871351517    0.03418925457952
C        27.85931634638153   -2.94751244167069    0.01739757588235
N        27.68778528994825   -1.61180545952176    0.02281353049730
H        26.37692551454312   -4.65734171844711   -0.00550862285105
H        24.58421950402155   -2.78208654336295   -0.02725967007228
H        25.31828025198657    2.26266504369258   -1.49863193901409
H        27.22772733452824    4.09959384985446   -1.48873999696668
H        28.57156551257671    0.79807873235527    1.00146691058955
H        29.41391667765906    4.49477198379452    0.14668131434026
H        32.32123135919610    4.64729424865116   -0.12124131411356
H        34.09502575622533    2.76859849209071   -0.12535564421102
H        33.30408320795505   -2.21254676218123    1.59696191708046
H        31.38054496021117   -4.01590833427749    1.62007773124563
H        30.12276763793841   -0.80386807170007   -1.02571571587663
H        29.24190970315110   -4.47890178896068   -0.07152752893966
118
 energy: -199.257068555665 gnorm: 0.285563855698 xtb: 6.4.1 (bd6e46d)
C        18.10265732078068    3.50781422733031    0.79299420529523
C        19.02674793734084    2.55972383796215    0.58278023154161
C        18.34306815089644    1.31217604639420    0.27608852783376
C        18.75709602593709    0.02685641670328    0.00419449042834
C        17.93186503211772   -1.11410976247713   -0.08042901775208
C        18.35209794510618   -2.34454941799685    0.49241893809739
C        17.37106932867921   -3.27330800406583    0.28029140830245
C        16.32235512715241   -2.61677887087190   -0.41524372577506
N        16.67525610379837   -1.31079088836314   -0.61602737247387
C        15.14844438436259   -3.32941436590562   -0.75123326000890
C        13.84953653785946   -2.85368720879605   -0.63986266761799
C        12.54303766947337   -3.49808639196057   -0.73110349940494
C        11.61441115158281   -2.54628874039676   -0.51064097143107
C        12.33979278280452   -1.30482472497567   -0.25931469777662
N        13.66070831344062   -1.55131162388559   -0.35118814068516
C        11.90849013064403   -0.01492412013514   -0.00224507906844
C        12.72504354599682    1.13437038538811    0.06300447511160
C        12.30164933151339    2.35145159815449   -0.53076499574858
C        13.29964111326212    3.26909455058156   -0.33711646086245
C        14.33391939623993    2.61261544153572    0.37721034060166
N        13.96834682805291    1.31575274006937    0.59412738322701
C        15.50998491470296    3.31165295832790    0.71075356643273
C        16.81042201840136    2.85278768540949    0.63283285972766
N        16.99923226416924    1.55104453061708    0.32341239794499
H        18.27313059960738    4.54006963351822    1.02926877701014
H        20.08796622059581    2.68608522728750    0.63685216992716
H        19.28343707851165   -2.51361432443630    1.01088754842299
H        17.38667102794851   -4.30538111546716    0.61238964914362
H        16.09737574944637   -0.59590814736192   -1.12323879664509
H        15.26073548120516   -4.36223723276693   -1.08460908532870
H        12.34915853309405   -4.54194344852259   -0.93055598669640
H        10.55074410276764   -2.71968206507570   -0.53014096260962
H        10.83720570889873    0.10781075321869    0.10353671502908
H        11.37486838950896    2.52488434265445   -1.06383511838971
H        13.30303624909376    4.29341042179092   -0.69007470189512
H        14.52124022605858    0.60611638267358    1.13255300619788
H        15.41540303225300    4.35448836968243    1.02207602006442
C        40.57302775916964   -3.49365199096840    0.82938564890021
C        39.64897189212243   -2.54776815994285    0.60941177106891
C        40.33271561390541   -1.30356007599474    0.28982350093973
C        39.91877870104902   -0.02107188472671    0.00536061505646
C        40.74382591120946    1.11895403311257   -0.09181943629096
C        40.32361150301088    2.35533673112884    0.46810945931394
C        41.30458459471443    3.28183858475130    0.24624610636577
C        42.35328885840550    2.61808696790604   -0.44246099887575
N        42.00035053344809    1.31010913199965   -0.62970129842411
C        43.52720861899391    3.32720331436920   -0.78578687499397
C        44.82612696909207    2.85265111133255   -0.66948388171031
C        46.13263045977337    3.49607918985629   -0.76740704645028
C        47.06125781468253    2.54662690572934   -0.53707332161345
C        46.33588123926362    1.30783199792643   -0.27287300432136
N        45.01495254211911    1.55336563167139   -0.36729147423434
C        46.76717984403444    0.02069371140041   -0.00241234258624
C        45.95062282998702   -1.12788137726913    0.07476459025308
C        46.37401670878813   -2.35104285176975   -0.50632863134350
C        45.37601327758122   -3.26663781654564   -0.30316483410557
C        44.34175962087799   -2.60278500949731    0.40430495035161
N        44.70732920559927   -1.30374261188807    0.60775908699730
C        43.16568655301072   -3.29833802159764    0.74511826273731
C        41.86527640452626   -2.84035488309495    0.66239152229277
N        41.67648558445956   -1.54189595760902    0.33944661004797
H        40.40254234011839   -4.52339248711781    1.07634055335233
H        38.58773067696860   -2.67354626638054    0.66461752347974
H        39.39224340469462    2.52979199240993    0.98472941580684
H        41.28899130149644    4.31730332894587    0.56760501768937
H        42.57826360077438    0.58998191120270   -1.12939810613748
H        43.41492632651059    4.35651646360797   -1.12985389330342
H        46.32650928500549    4.53781159856215   -0.97769276914688
H        48.12492650780472    2.71980980990527   -0.55837357586322
H        47.83846313157122   -0.10094689550391    0.10464526320246
H        47.30079956372467   -2.53001493155810   -1.03756329018570
H        45.37263041601074   -4.29456687304674   -0.64545992752728
H        44.15442855949403   -0.58854289017787    1.13876408307279
H        43.26027700164428   -4.33787548675727    1.06724721682950
C        20.98811092329040   -0.01257066130836    0.00554371291641
C        22.20988594890267    0.00274758087527    0.00498331853499
C        23.55933951005559    0.01446371296094    0.00303881452864
C        24.77614537434837    0.01707922731527   -0.00422447976202
C        33.90155349596115   -0.00418200602608    0.01273019931217
C        35.11962096821976    0.00184908602170   -0.00194721273352
C        36.46688076601180    0.01409409747217    0.00685297160552
C        37.68867868930767    0.01486107882388    0.00300293957823
C        26.56331869723405   -3.59937661570334   -0.00494751538824
C        25.65768185429985   -2.60429841057207   -0.00552404601385
C        26.40606459379080   -1.36003680537195    0.01858471326486
C        26.06171273885927   -0.01977614266011   -0.00305386925088
C        26.78047819209105    1.14499701847367   -0.16553205334759
C        26.28009651635262    2.20137795672619   -0.95778558739706
C        27.26276631257672    3.15533585667922   -0.94661438889421
C        28.32857880926816    2.67005339429977   -0.14564500780430
N        28.00378188984476    1.43350680700582    0.31531160188355
C        29.49868173816924    3.43210549013438    0.01964534865268
C        30.78968293573346    2.94878463713536   -0.00209809393794
C        32.09651192174921    3.59681908597528   -0.07537630938914
C        33.02281041785929    2.62040698087897   -0.08998448799291
C        32.27797994682683    1.36940362002436   -0.04481732791696
N        30.97989215544725    1.61832197470958    0.00159975829009
C        32.61854299979021    0.01650925563998   -0.00468599931099
C        31.88589736659606   -1.12850030358614    0.18982574772226
C        32.35532591541062   -2.16072478470580    1.03329794752213
C        31.36111448295220   -3.09925005093998    1.03829308221349
C        30.32021936645762   -2.63656530801055    0.19483800660610
N        30.66884388085776   -1.42220712346982   -0.30521447238801
C        29.16044451268599   -3.40853007489179    0.02276664929695
C        27.86849356861283   -2.94547873792963    0.00103036904770
N        27.71042693023713   -1.61259354168802    0.02595067053045
H        26.38293501389791   -4.65717517192989   -0.00670562158276
H        24.58805317497030   -2.76817264194309   -0.02599038018124
H        25.33416815336246    2.25352441696752   -1.48824123890109
H        27.23525029734316    4.09408317542051   -1.48140894473405
H        28.55802367389302    0.82517332343487    0.96104864924672
H        29.40855199363167    4.50529452693670    0.12423289773974
H        32.31209192741784    4.64985641468928   -0.11950918844452
H        34.09115290400203    2.75978285943913   -0.12657825463867
H        33.28911933239034   -2.20287040620106    1.58581098598322
H        31.37245866031690   -4.01284276714239    1.61315728387416
H        30.13521327009733   -0.83085468175277   -0.98377022680457
H        29.25289626992967   -4.48837038241704   -0.04993262234977
118
 energy: -199.388807577272 gnorm: 0.183458970138 xtb: 6.4.1 (bd6e46d)
C        18.09523214015825    3.49801737925681    0.79729329675196
C        19.04012892215487    2.55696175511058    0.57544952366696
C        18.35611049005961    1.31152337735928    0.26315850017484
C        18.84143160505952    0.03695108870311    0.00692510355012
C        17.99159569101199   -1.10784130486255   -0.08096737605542
C        18.37301050935495   -2.35249782230359    0.48250615794404
C        17.38332300497370   -3.27282578863965    0.26551607586124
C        16.32849117954320   -2.62105320600144   -0.42055114721786
N        16.70118461909823   -1.30306446025217   -0.60048961487268
C        15.14115933148367   -3.32392155395354   -0.75941095635787
C        13.85319904093776   -2.82869105298242   -0.65104178690527
C        12.55061146230923   -3.49841785722069   -0.74013615933834
C        11.61916882403519   -2.54860257863045   -0.50410174865566
C        12.35877223885865   -1.30969273768474   -0.24321694210571
N        13.67746455555651   -1.53410170491897   -0.34559915785273
C        11.90418210595091   -0.02738774398258    0.00416103773081
C        12.70932217137813    1.13075931410527    0.06169324025789
C        12.29291194614090    2.35675851963872   -0.51576689505816
C        13.29051208160284    3.27334037901616   -0.32105622157150
C        14.33937033940544    2.62823169847754    0.38053754279903
N        13.97214813635733    1.31707036000530    0.57433002823485
C        15.52274084717145    3.31611261282685    0.72118276218452
C        16.81273950773867    2.81541601095985    0.64106373248007
N        17.01013722844140    1.52167385665912    0.31948949236363
H        18.26193571975725    4.53541979988837    1.03140831190260
H        20.09979305833205    2.68315032921919    0.63262566860460
H        19.28643203662550   -2.51151541188855    1.00956326401974
H        17.37983616947199   -4.29233866283648    0.60397448447260
H        16.13089797683472   -0.62262257696099   -1.08280135819989
H        15.26512242262746   -4.36104126313045   -1.05450545875876
H        12.36155379982370   -4.53690455847630   -0.93439634500795
H        10.55515201367806   -2.70454724648976   -0.52289802628739
H        10.83428027625564    0.11882987376304    0.07962593330815
H        11.38112362432512    2.51637311812360   -1.05621364745805
H        13.30839830915276    4.28341573496330   -0.68168834698278
H        14.50124411848094    0.63497220366064    1.09187940389372
H        15.41138266105766    4.35682822889192    0.99545741320878
C        40.58047341479800   -3.48384233950011    0.83361331077023
C        39.63561603002567   -2.54510156773646    0.60212760540000
C        40.31968645998773   -1.30310533797696    0.27685009585190
C        39.83421028333650   -0.03122318503294    0.00818454177579
C        40.68395281174043    1.11265528883069   -0.09236063091158
C        40.30266107416170    2.36316648220577    0.45810303997590
C        41.29232043785617    3.28118741254382    0.23147772159603
C        42.34712082560497    2.62227346281885   -0.44780364464092
N        41.97437882520513    1.30249856576090   -0.61401617578719
C        43.53447689119397    3.32160723934158   -0.79391336521518
C        44.82245282647941    2.82754010657969   -0.68040304299336
C        46.12504959112856    3.49631915250143   -0.77644722895454
C        47.05649536709659    2.54901133829074   -0.53056699051506
C        46.31690022681475    1.31286771644115   -0.25683527871221
N        44.99819504148321    1.53621011481297   -0.36152629629886
C        46.77148942217306    0.03322099509521    0.00385845589285
C        45.96634405597489   -1.12428546410464    0.07340537335819
C        46.38275115421288   -2.35619490336728   -0.49129128333893
C        45.38514682427926   -3.27072069680127   -0.28706754549242
C        44.33631125330666   -2.61837269090551    0.40778592449738
N        44.70353130301329   -1.30526986738821    0.58797608955790
C        43.15295310027683   -3.30271153342199    0.75559279480939
C        41.86297818620672   -2.80293107512533    0.67022913885946
N        41.66558270945112   -1.51259697871372    0.33526073485818
H        40.41375398951408   -4.51876064865975    1.07841639406391
H        38.57592469779630   -2.67067902052750    0.66027620173652
H        39.38923442167565    2.52769297992682    0.98344098781714
H        41.29582787605927    4.30416908196908    0.55931261073527
H        42.54470926934105    0.61710305088183   -1.08923009105817
H        43.41053107919339    4.35561656680308   -1.09975101111974
H        46.31410974897791    4.53273218904664   -0.98148714850362
H        48.12051409633657    2.70475217488494   -0.55098382512716
H        47.84138975808367   -0.11221354602775    0.08084545381050
H        47.29454083455248   -2.52142486206954   -1.03004419558856
H        45.36726859720486   -4.28448552472488   -0.63719128514592
H        44.17442723998491   -0.61781872915905    1.09838119989042
H        43.26432331689819   -4.34051496173816    1.04064933765434
C        20.86531150900817   -0.02364717152063    0.01234078165491
C        22.10427242226618   -0.00080296482843    0.00763816535336
C        23.46852279789211    0.02036881269899   -0.00279161513706
C        24.69464984704840    0.03224278106665   -0.01018345575421
C        33.98095512782367   -0.01400417566632    0.03082405180165
C        35.20847463273277   -0.00726879821995   -0.00197757111166
C        36.57260724146432    0.01737886097952    0.00662215510042
C        37.81195604696359    0.02762014135511    0.00887938846186
C        26.57812045310140   -3.59868140107220   -0.01264713830126
C        25.65656239818957   -2.60820524072058   -0.00013750935497
C        26.42731558751695   -1.37225967767043    0.03459316543843
C        26.03314745455049   -0.02957705407752   -0.00254209493300
C        26.77038155302534    1.14551070996657   -0.16936720916385
C        26.28147158840885    2.21248443954711   -0.94844909967268
C        27.25890382024514    3.17144089725445   -0.93302107197865