 Entering Gaussian System
 *********************************************
 Gaussian 98:
 frequency output generated by the xtb code
 *********************************************
                         Standard orientation:
 --------------------------------------------------------------------
  Center     Atomic     Atomic              Coordinates (Angstroms)
  Number     Number      Type              X           Y           Z
 --------------------------------------------------------------------
    1         30             0       28.942664    0.006069   -0.010478
    2          6             0       31.479121   -3.426216    0.009327
    3          6             0       32.431461   -2.462380    0.011314
    4          6             0       31.741275   -1.204160    0.006599
    5          6             0       32.378937    0.047356    0.006179
    6          6             0       31.711504    1.283093    0.002787
    7          6             0       32.371314    2.557517    0.007451
    8          6             0       31.396100    3.498219    0.002948
    9          6             0       30.144035    2.796206   -0.004991
   10          7             0       30.367776    1.451843   -0.004106
   11          6             0       28.902190    3.409083   -0.014331
   12          6             0       27.675919    2.765444   -0.024008
   13          6             0       26.401979    3.432064   -0.036278
   14          6             0       25.456078    2.464157   -0.043077
   15          6             0       26.151433    1.205274   -0.034544
   16          7             0       27.493075    1.418946   -0.023428
   17          6             0       25.534134   -0.034980   -0.036454
   18          6             0       26.180986   -1.260036   -0.027591
   19          6             0       25.516024   -2.535296   -0.028803
   20          6             0       26.484898   -3.480166   -0.018533
   21          6             0       27.742479   -2.783074   -0.011318
   22          7             0       27.527386   -1.441367   -0.016799
   23          6             0       28.983853   -3.397043   -0.001925
   24          6             0       30.210586   -2.754456    0.003011
   25          7             0       30.401989   -1.405100    0.001572
   26          1             0       31.608598   -4.491340    0.011420
   27          1             0       33.498394   -2.574696    0.015215
   28          1             0       33.435279    2.695270    0.013991
   29          1             0       31.499910    4.566146    0.004617
   30          1             0       28.890063    4.490220   -0.014959
   31          1             0       26.268717    4.496924   -0.039400
   32          1             0       24.388480    2.572912   -0.052849
   33          1             0       24.453223   -0.047988   -0.045346
   34          1             0       24.451323   -2.669738   -0.036544
   35          1             0       26.377295   -4.547936   -0.016134
   36          1             0       28.997759   -4.478151    0.000726
   37         30             0       82.754201    0.037220   -0.009870
   38          6             0       80.225691    3.419029    0.609788
   39          6             0       79.271115    2.473633    0.433926
   40          6             0       79.958457    1.233541    0.211292
   41          6             0       79.317916    0.002128   -0.003173
   42          6             0       79.982337   -1.216476   -0.216926
   43          6             0       79.319682   -2.470733   -0.434231
   44          6             0       80.292730   -3.397137   -0.610042
   45          6             0       81.546353   -2.706534   -0.500177
   46          7             0       81.325712   -1.383538   -0.258783
   47          6             0       82.786653   -3.308823   -0.629764
   48          6             0       84.014316   -2.675381   -0.531410
   49          6             0       85.286588   -3.329928   -0.673907
   50          6             0       86.234749   -2.379089   -0.505018
   51          6             0       85.542469   -1.142789   -0.258863
   52          7             0       84.200365   -1.352439   -0.283068
   53          6             0       86.162763    0.074045   -0.026929
   54          6             0       85.518816    1.276958    0.212898
   55          6             0       86.186756    2.527651    0.453698
   56          6             0       85.220064    3.457186    0.635569
   57          6             0       83.960838    2.775393    0.505452
   58          7             0       84.172809    1.457297    0.252219
   59          6             0       82.720895    3.382240    0.616440
   60          6             0       81.492694    2.754428    0.493243
   61          7             0       81.298242    1.427750    0.249355
   62          1             0       80.098672    4.467209    0.800652
   63          1             0       78.204427    2.587091    0.451675
   64          1             0       78.255425   -2.605821   -0.448105
   65          1             0       80.186486   -4.448291   -0.797298
   66          1             0       82.796229   -4.371891   -0.826729
   67          1             0       85.417295   -4.375799   -0.875736
   68          1             0       87.302018   -2.485720   -0.539954
   69          1             0       87.243706    0.085858   -0.033145
   70          1             0       87.251792    2.657561    0.476656
   71          1             0       85.330152    4.505271    0.838221
   72          1             0       82.709477    4.444749    0.816283
   73          6             0       33.777567    0.062627    0.007959
   74          6             0       34.995871    0.068251    0.006944
   75          6             0       36.337905    0.072419    0.004025
   76          6             0       37.556254    0.071697   -0.000823
   77          6             0       47.230907    0.045819   -0.019722
   78          6             0       48.449605    0.042822   -0.019974
   79          6             0       49.791404    0.040922   -0.019918
   80          6             0       51.010121    0.040271   -0.019901
   81          6             0       60.686110    0.043998   -0.019524
   82          6             0       61.904795    0.043368   -0.020758
   83          6             0       63.246596    0.040356   -0.021801
   84          6             0       64.465259    0.037352   -0.022264
   85          6             0       74.140172   -0.009724   -0.010675
   86          6             0       75.358500   -0.012923   -0.009935
   87          6             0       76.700746   -0.013180   -0.006315
   88          6             0       77.919016   -0.009381   -0.004487
   89         30             0       42.393423    0.058562   -0.014611
   90          6             0       39.890391   -3.372806    0.390608
   91          6             0       38.928113   -2.424518    0.283650
   92          6             0       39.605356   -1.168436    0.135391
   93          6             0       38.954361    0.068490   -0.005296
   94          6             0       39.611528    1.301423   -0.150957
   95          6             0       38.940670    2.561034   -0.297691
   96          6             0       39.907742    3.503524   -0.412483
   97          6             0       41.165041    2.816684   -0.334960
   98          7             0       40.953599    1.479618   -0.176174
   99          6             0       42.401966    3.433922   -0.411296
  100          6             0       43.635530    2.809603   -0.340539
  101          6             0       44.896233    3.489615   -0.422930
  102          6             0       45.858623    2.541826   -0.312774
  103          6             0       45.181598    1.285717   -0.163681
  104          7             0       43.840495    1.471162   -0.183320
  105          6             0       45.832967    0.049229   -0.019146
  106          6             0       45.175415   -1.183887    0.125868
  107          6             0       45.846056   -2.443808    0.271705
  108          6             0       44.878840   -3.386631    0.382207
  109          6             0       43.621607   -2.699719    0.303830
  110          7             0       43.833381   -1.362179    0.148150
  111          6             0       42.384846   -3.317357    0.377497
  112          6             0       41.151118   -2.692987    0.307819
  113          7             0       40.946465   -1.354396    0.152865
  114          1             0       39.771901   -4.431992    0.514124
  115          1             0       37.862367   -2.546119    0.301623
  116          1             0       37.875522    2.688612   -0.309997
  117          1             0       39.794604    4.563093   -0.537884
  118          1             0       42.404739    4.507747   -0.538141
  119          1             0       45.014487    4.548684   -0.547919
  120          1             0       46.924385    2.663854   -0.328890
  121          1             0       46.911182   -2.571539    0.285500
  122          1             0       44.991675   -4.446505    0.505251
  123          1             0       42.382081   -4.391445    0.502103
  124         30             0       55.848074    0.042164   -0.019735
  125          6             0       53.355544   -3.394638    0.403228
  126          6             0       52.390151   -2.450052    0.291346
  127          6             0       53.063192   -1.192917    0.133723
  128          6             0       52.408049    0.040482   -0.019685
  129          6             0       53.062117    1.274508   -0.172776
  130          6             0       52.387868    2.531041   -0.329945
  131          6             0       53.352341    3.476597   -0.441482
  132          6             0       54.611489    2.794692   -0.352168
  133          7             0       54.403630    1.457279   -0.190597
  134          6             0       55.846498    3.416805   -0.418191
  135          6             0       57.082131    2.797611   -0.337778
  136          6             0       58.340615    3.482796   -0.410037
  137          6             0       59.306043    2.538182   -0.298652
  138          6             0       58.633011    1.278870   -0.158957
  139          7             0       57.291296    1.459512   -0.183666
  140          6             0       59.288164    0.043673   -0.020672
  141          6             0       58.634048   -1.192005    0.118255
  142          6             0       59.308250   -2.450518    0.258455
  143          6             0       58.343784   -3.396019    0.370493
  144          6             0       57.084652   -2.712065    0.298533
  145          7             0       57.292534   -1.373864    0.143752
  146          6             0       55.849658   -3.332428    0.379578
  147          6             0       54.614033   -2.711540    0.313587
  148          7             0       54.404889   -1.374381    0.151593
  149          1             0       53.240583   -4.453355    0.533979
  150          1             0       51.324801   -2.574907    0.311455
  151          1             0       51.322406    2.654880   -0.349949
  152          1             0       53.236333    4.535239   -0.571821
  153          1             0       55.845949    4.490652   -0.544943
  154          1             0       58.455538    4.542815   -0.529786
  155          1             0       60.371394    2.664290   -0.308366
  156          1             0       60.373709   -2.575643    0.267705
  157          1             0       58.459779   -4.455890    0.490491
  158          1             0       55.850218   -4.406231    0.506699
  159         30             0       69.302729    0.013769   -0.017617
  160          6             0       66.791432   -3.411608    0.385082
  161          6             0       65.831416   -2.461342    0.275616
  162          6             0       66.511504   -1.206981    0.126553
  163          6             0       65.863221    0.030855   -0.020086
  164          6             0       66.523923    1.262135   -0.166455
  165          6             0       65.856487    2.523209   -0.317530
  166          6             0       66.826122    3.463780   -0.426050
  167          6             0       68.081614    2.774441   -0.340929
  168          7             0       67.866423    1.437526   -0.184520
  169          6             0       69.319957    3.389872   -0.406349
  170          6             0       70.552108    2.763512   -0.327029
  171          6             0       71.814553    3.441577   -0.397904
  172          6             0       72.774494    2.491520   -0.285874
  173          6             0       72.094103    1.235903   -0.147628
  174          7             0       70.753406    1.424236   -0.173824
  175          6             0       72.741830   -0.003287   -0.012969
  176          6             0       72.081571   -1.235914    0.119799
  177          6             0       72.749278   -2.497987    0.260060
  178          6             0       71.779850   -3.438802    0.368270
  179          6             0       70.524249   -2.748408    0.294028
  180          7             0       70.739014   -1.411104    0.142132
  181          6             0       69.285791   -3.362642    0.369648
  182          6             0       68.053814   -2.734837    0.302095
  183          7             0       67.852159   -1.395786    0.146078
  184          1             0       66.670550   -4.470364    0.510061
  185          1             0       64.765373   -2.580650    0.292354
  186          1             0       64.791675    2.653140   -0.335569
  187          1             0       66.715994    4.523658   -0.551476
  188          1             0       69.325480    4.463947   -0.530988
  189          1             0       71.935702    4.500897   -0.517657
  190          1             0       73.840548    2.611516   -0.295459
  191          1             0       73.814126   -2.628196    0.272894
  192          1             0       71.890317   -4.499387    0.487596
  193          1             0       69.280315   -4.436805    0.493489
 --------------------------------------------------------------------
     1 basis functions        1 primitive gaussians
     1 alpha electrons        1 beta electrons

 Harmonic frequencies (cm**-1), IR intensities (km*mol⁻¹),
 Raman scattering activities (A**4/amu), Raman depolarization ratios,
 reduced masses (AMU), force constants (mDyne/A) and normal coordinates:
                      1                      2                      3
                        a                      a                      a 
 Frequencies --    -0.4877                 1.2540                 2.7892
 Red. masses --    20.3222                19.7389                19.7203
 Frc consts  --     0.0000                 0.0000                 0.0000
 IR Inten    --     5.4970                 0.0306                 0.2729
 Raman Activ --     0.0000                 0.0000                 0.0000
 Depolar     --     0.0000                 0.0000                 0.0000
 Atom AN      X      Y      Z        X      Y      Z        X      Y      Z
   1  30    -0.00  -0.03   0.19    -0.00   0.21   0.02    -0.00   0.01   0.16
   2   6     0.00  -0.01   0.06    -0.04   0.06   0.01     0.00   0.00   0.03
   3   6     0.00  -0.01   0.06    -0.03   0.05   0.01     0.00   0.00   0.01
   4   6     0.00  -0.01   0.06    -0.01   0.06   0.01     0.00   0.00   0.02
   5   6     0.00  -0.01   0.05     0.00   0.05   0.01     0.00   0.00   0.01
   6   6    -0.00  -0.01   0.06     0.01   0.06   0.01     0.00   0.00   0.02
   7   6    -0.00  -0.01   0.05     0.03   0.05   0.01     0.00   0.00   0.00
   8   6    -0.00  -0.01   0.06     0.04   0.06   0.01    -0.00   0.00   0.02
   9   6    -0.00  -0.01   0.07     0.03   0.08   0.01    -0.00   0.00   0.04
  10   7    -0.00  -0.01   0.08     0.02   0.08   0.01    -0.00   0.00   0.04
  11   6    -0.00  -0.01   0.08     0.04   0.09   0.01    -0.00   0.00   0.06
  12   6    -0.00  -0.01   0.09     0.03   0.10   0.01    -0.00   0.00   0.08
  13   6    -0.00  -0.01   0.10     0.04   0.12   0.01    -0.00   0.00   0.10
  14   6    -0.00  -0.02   0.11     0.03   0.13   0.01    -0.00   0.00   0.12
  15   6    -0.00  -0.01   0.11     0.01   0.12   0.01    -0.00   0.00   0.11
  16   7    -0.00  -0.01   0.10     0.02   0.11   0.01    -0.00   0.00   0.10
  17   6    -0.00  -0.02   0.11    -0.00   0.13   0.01    -0.00   0.00   0.13
  18   6     0.00  -0.01   0.11    -0.01   0.12   0.01    -0.00   0.00   0.12
  19   6     0.00  -0.02   0.11    -0.03   0.13   0.01    -0.00   0.00   0.13
  20   6     0.00  -0.01   0.10    -0.04   0.12   0.01    -0.00   0.00   0.12
  21   6     0.00  -0.01   0.09    -0.03   0.10   0.01     0.00   0.00   0.09
  22   7     0.00  -0.01   0.10    -0.02   0.11   0.01    -0.00   0.00   0.10
  23   6     0.00  -0.01   0.08    -0.04   0.09   0.01     0.00   0.00   0.07
  24   6     0.00  -0.01   0.07    -0.03   0.08   0.01     0.00   0.00   0.05
  25   7     0.00  -0.01   0.08    -0.02   0.08   0.01     0.00   0.00   0.05
  26   1     0.00  -0.00   0.02    -0.01   0.02   0.00     0.00   0.00   0.01
  27   1     0.00  -0.00   0.01    -0.01   0.01   0.00     0.00   0.00  -0.00
  28   1    -0.00  -0.00   0.01     0.01   0.01   0.00     0.00   0.00  -0.00
  29   1    -0.00  -0.00   0.02     0.01   0.02   0.00    -0.00   0.00   0.00
  30   1    -0.00  -0.00   0.02     0.01   0.03   0.00    -0.00   0.00   0.02
  31   1    -0.00  -0.00   0.03     0.01   0.03   0.00    -0.00   0.00   0.03
  32   1    -0.00  -0.01   0.03     0.01   0.04   0.00    -0.00   0.00   0.04
  33   1    -0.00  -0.00   0.03    -0.00   0.04   0.00    -0.00   0.00   0.04
  34   1     0.00  -0.00   0.04    -0.01   0.04   0.00    -0.00   0.00   0.04
  35   1     0.00  -0.00   0.03    -0.01   0.03   0.00     0.00   0.00   0.03
  36   1     0.00  -0.00   0.02    -0.01   0.03   0.00     0.00   0.00   0.02
  37  30    -0.00  -0.02   0.23    -0.00   0.21   0.03     0.00   0.00  -0.10
  38   6    -0.00  -0.01   0.07    -0.04   0.06   0.01     0.01  -0.00   0.00
  39   6    -0.00  -0.01   0.05    -0.03   0.05   0.01     0.01  -0.00   0.02
  40   6    -0.00  -0.01   0.06    -0.01   0.06   0.01     0.00   0.00   0.00
  41   6    -0.00  -0.01   0.05     0.00   0.05   0.01     0.00   0.00   0.01
  42   6     0.00  -0.01   0.06     0.01   0.06   0.01    -0.00   0.00  -0.00
  43   6     0.00  -0.01   0.05     0.03   0.05   0.01    -0.00   0.00   0.01
  44   6     0.00  -0.01   0.06     0.04   0.06   0.01    -0.01   0.00  -0.01
  45   6     0.00  -0.01   0.08     0.03   0.08   0.01    -0.01   0.00  -0.03
  46   7     0.00  -0.01   0.09     0.02   0.08   0.01    -0.00   0.00  -0.02
  47   6     0.00  -0.01   0.10     0.04   0.09   0.01    -0.01   0.00  -0.05
  48   6     0.00  -0.01   0.11     0.03   0.10   0.02    -0.01   0.00  -0.07
  49   6     0.00  -0.02   0.13     0.04   0.12   0.02    -0.01   0.01  -0.09
  50   6     0.00  -0.02   0.14     0.03   0.13   0.02    -0.01   0.01  -0.10
  51   6     0.00  -0.02   0.14     0.01   0.12   0.02    -0.00   0.01  -0.09
  52   7     0.00  -0.02   0.13     0.02   0.11   0.02    -0.00   0.00  -0.07
  53   6     0.00  -0.02   0.14    -0.00   0.13   0.02    -0.00   0.01  -0.09
  54   6    -0.00  -0.02   0.14    -0.01   0.12   0.02     0.00   0.00  -0.08
  55   6    -0.00  -0.02   0.15    -0.03   0.13   0.02     0.01   0.00  -0.09
  56   6    -0.00  -0.02   0.13    -0.04   0.12   0.02     0.01   0.00  -0.07
  57   6    -0.00  -0.01   0.12    -0.03   0.10   0.02     0.01   0.00  -0.05
  58   7    -0.00  -0.02   0.13    -0.02   0.11   0.02     0.00   0.00  -0.07
  59   6    -0.00  -0.01   0.10    -0.04   0.09   0.01     0.01   0.00  -0.03
  60   6    -0.00  -0.01   0.08    -0.03   0.08   0.01     0.01   0.00  -0.02
  61   7    -0.00  -0.01   0.09    -0.02   0.08   0.01     0.00   0.00  -0.02
  62   1    -0.00  -0.00   0.02    -0.01   0.02   0.00     0.00  -0.00   0.00
  63   1    -0.00  -0.00   0.01    -0.01   0.01   0.00     0.00  -0.00   0.01
  64   1     0.00  -0.00   0.01     0.01   0.01   0.00    -0.00   0.00   0.01
  65   1     0.00  -0.00   0.02     0.01   0.02   0.00    -0.00   0.00  -0.00
  66   1     0.00  -0.00   0.03     0.01   0.03   0.00    -0.00   0.00  -0.01
  67   1     0.00  -0.00   0.04     0.01   0.03   0.01    -0.00   0.00  -0.03
  68   1     0.00  -0.01   0.05     0.01   0.04   0.01    -0.00   0.00  -0.03
  69   1     0.00  -0.01   0.05    -0.00   0.04   0.01    -0.00   0.00  -0.03
  70   1    -0.00  -0.01   0.05    -0.01   0.04   0.01     0.00   0.00  -0.03
  71   1    -0.00  -0.00   0.04    -0.01   0.03   0.01     0.00   0.00  -0.02
  72   1    -0.00  -0.00   0.03    -0.01   0.03   0.00     0.00   0.00  -0.01
  73   6     0.00  -0.00   0.04     0.00   0.04   0.01     0.00   0.00  -0.02
  74   6     0.00  -0.00   0.03     0.00   0.02   0.00     0.00   0.00  -0.03
  75   6     0.00  -0.00   0.02     0.00   0.01   0.00     0.00   0.00  -0.05
  76   6     0.00  -0.00   0.01     0.00   0.00   0.00     0.00   0.00  -0.07
  77   6     0.00   0.01  -0.06     0.00  -0.07  -0.00     0.00  -0.00  -0.10
  78   6     0.00   0.01  -0.06     0.00  -0.08  -0.00     0.00  -0.00  -0.09
  79   6     0.00   0.01  -0.07     0.00  -0.08  -0.01     0.00  -0.00  -0.08
  80   6     0.00   0.01  -0.08     0.00  -0.09  -0.01     0.00  -0.00  -0.07
  81   6    -0.00   0.01  -0.09     0.00  -0.09  -0.01     0.00  -0.00   0.04
  82   6    -0.00   0.01  -0.09     0.00  -0.08  -0.01     0.00  -0.00   0.06
  83   6    -0.00   0.01  -0.09     0.00  -0.08  -0.01     0.00  -0.00   0.07
  84   6    -0.00   0.01  -0.08     0.00  -0.07  -0.01     0.00  -0.00   0.08
  85   6    -0.00   0.00  -0.01     0.00   0.00  -0.00     0.00  -0.00   0.07
  86   6    -0.00  -0.00   0.00     0.00   0.01  -0.00     0.00  -0.00   0.06
  87   6    -0.00  -0.00   0.02     0.00   0.02   0.00     0.00  -0.00   0.05
  88   6    -0.00  -0.00   0.03     0.00   0.04   0.00     0.00  -0.00   0.03
  89  30     0.00   0.01  -0.06     0.00  -0.09  -0.00    -0.00  -0.00  -0.25
  90   6     0.01   0.00  -0.01    -0.03  -0.02  -0.00     0.00  -0.00  -0.10
  91   6     0.00   0.00   0.00    -0.02  -0.01   0.00     0.00  -0.00  -0.09
  92   6     0.00   0.00  -0.00    -0.01  -0.02   0.00     0.00  -0.00  -0.09
  93   6     0.00   0.00   0.00     0.00  -0.01   0.00     0.00  -0.00  -0.08
  94   6    -0.00   0.00  -0.01     0.01  -0.02   0.00     0.00  -0.00  -0.09
  95   6    -0.00   0.00  -0.00     0.02  -0.01   0.00    -0.00  -0.00  -0.09
  96   6    -0.01   0.00  -0.01     0.03  -0.02  -0.00    -0.00  -0.00  -0.10
  97   6    -0.01   0.00  -0.02     0.02  -0.03  -0.00    -0.00  -0.00  -0.11
  98   7    -0.00   0.00  -0.02     0.01  -0.03  -0.00    -0.00  -0.00  -0.11
  99   6    -0.01   0.00  -0.03     0.03  -0.04  -0.00    -0.00  -0.00  -0.11
 100   6    -0.01   0.01  -0.03     0.02  -0.05  -0.00    -0.00  -0.00  -0.12
 101   6    -0.01   0.01  -0.04     0.03  -0.06  -0.00    -0.00  -0.00  -0.12
 102   6    -0.00   0.01  -0.05     0.02  -0.06  -0.00    -0.00  -0.00  -0.11
 103   6    -0.00   0.01  -0.04     0.01  -0.06  -0.00    -0.00  -0.00  -0.11
 104   7    -0.00   0.01  -0.04     0.01  -0.05  -0.00    -0.00  -0.00  -0.12
 105   6     0.00   0.01  -0.05     0.00  -0.06  -0.00     0.00  -0.00  -0.11
 106   6     0.00   0.01  -0.04    -0.01  -0.06  -0.00     0.00  -0.00  -0.11
 107   6     0.00   0.01  -0.05    -0.02  -0.06  -0.00     0.00  -0.00  -0.11
 108   6     0.01   0.01  -0.04    -0.03  -0.06  -0.00     0.00  -0.00  -0.11
 109   6     0.01   0.01  -0.03    -0.02  -0.05  -0.00     0.00  -0.00  -0.11
 110   7     0.00   0.01  -0.04    -0.01  -0.05  -0.00     0.00  -0.00  -0.12
 111   6     0.01   0.00  -0.03    -0.03  -0.04  -0.00     0.00  -0.00  -0.11
 112   6     0.01   0.00  -0.02    -0.02  -0.03  -0.00     0.00  -0.00  -0.10
 113   7     0.00   0.00  -0.02    -0.01  -0.03  -0.00     0.00  -0.00  -0.11
 114   1     0.00   0.00  -0.00    -0.01  -0.00   0.00     0.00  -0.00  -0.03
 115   1     0.00  -0.00   0.00    -0.01  -0.00   0.00     0.00  -0.00  -0.02
 116   1    -0.00  -0.00   0.00     0.01  -0.00   0.00    -0.00  -0.00  -0.02
 117   1    -0.00   0.00  -0.00     0.01  -0.00  -0.00    -0.00  -0.00  -0.03
 118   1    -0.00   0.00  -0.01     0.01  -0.01  -0.00    -0.00  -0.00  -0.03
 119   1    -0.00   0.00  -0.01     0.01  -0.02  -0.00    -0.00  -0.00  -0.04
 120   1    -0.00   0.00  -0.02     0.01  -0.02  -0.00    -0.00  -0.00  -0.03
 121   1     0.00   0.00  -0.02    -0.01  -0.02  -0.00     0.00  -0.00  -0.03
 122   1     0.00   0.00  -0.01    -0.01  -0.02  -0.00     0.00  -0.00  -0.03
 123   1     0.00   0.00  -0.01    -0.01  -0.01  -0.00     0.00  -0.00  -0.03
 124  30     0.00   0.03  -0.21     0.00  -0.21  -0.02     0.00  -0.01  -0.04
 125   6     0.00   0.01  -0.09     0.00  -0.09  -0.01    -0.01  -0.00  -0.05
 126   6     0.00   0.01  -0.08     0.00  -0.09  -0.01    -0.00  -0.00  -0.06
 127   6     0.00   0.01  -0.08     0.00  -0.09  -0.01    -0.00  -0.00  -0.05
 128   6     0.00   0.01  -0.08     0.00  -0.09  -0.01     0.00  -0.00  -0.06
 129   6    -0.00   0.01  -0.08    -0.00  -0.09  -0.01     0.00  -0.00  -0.05
 130   6    -0.00   0.01  -0.08    -0.00  -0.09  -0.01     0.00  -0.00  -0.05
 131   6    -0.00   0.01  -0.09    -0.00  -0.09  -0.01     0.01  -0.00  -0.04
 132   6    -0.00   0.01  -0.09    -0.00  -0.09  -0.01     0.01  -0.00  -0.03
 133   7    -0.00   0.01  -0.09    -0.00  -0.10  -0.01     0.00  -0.00  -0.03
 134   6    -0.00   0.01  -0.09    -0.00  -0.09  -0.01     0.01  -0.00  -0.01
 135   6    -0.00   0.01  -0.09    -0.00  -0.09  -0.01     0.01  -0.00   0.00
 136   6    -0.00   0.01  -0.09    -0.00  -0.09  -0.01     0.01  -0.00   0.02
 137   6    -0.00   0.01  -0.09    -0.00  -0.09  -0.01     0.00  -0.00   0.03
 138   6    -0.00   0.01  -0.09    -0.00  -0.09  -0.01     0.00  -0.00   0.02
 139   7    -0.00   0.01  -0.10    -0.00  -0.10  -0.01     0.00  -0.00   0.00
 140   6    -0.00   0.01  -0.09     0.00  -0.09  -0.01     0.00  -0.00   0.03
 141   6     0.00   0.01  -0.09     0.00  -0.09  -0.01    -0.00  -0.00   0.02
 142   6     0.00   0.01  -0.10     0.00  -0.09  -0.01    -0.00  -0.00   0.02
 143   6     0.00   0.01  -0.10     0.00  -0.09  -0.01    -0.01  -0.00   0.01
 144   6     0.00   0.01  -0.09     0.00  -0.09  -0.01    -0.01  -0.00  -0.00
 145   7     0.00   0.01  -0.10     0.00  -0.10  -0.01    -0.00  -0.00   0.00
 146   6     0.00   0.01  -0.09     0.00  -0.09  -0.01    -0.01  -0.00  -0.02
 147   6     0.00   0.01  -0.09     0.00  -0.09  -0.01    -0.01  -0.00  -0.03
 148   7     0.00   0.01  -0.10     0.00  -0.10  -0.01    -0.00  -0.00  -0.04
 149   1     0.00   0.00  -0.03     0.00  -0.03  -0.00    -0.00  -0.00  -0.01
 150   1     0.00   0.00  -0.02     0.00  -0.03  -0.00    -0.00  -0.00  -0.02
 151   1    -0.00   0.00  -0.02    -0.00  -0.03  -0.00     0.00  -0.00  -0.02
 152   1    -0.00   0.00  -0.02    -0.00  -0.03  -0.00     0.00  -0.00  -0.01
 153   1    -0.00   0.00  -0.03    -0.00  -0.03  -0.00     0.00  -0.00  -0.00
 154   1    -0.00   0.00  -0.03    -0.00  -0.03  -0.00     0.00  -0.00   0.01
 155   1    -0.00   0.00  -0.03    -0.00  -0.03  -0.00     0.00  -0.00   0.01
 156   1     0.00   0.00  -0.03     0.00  -0.03  -0.00    -0.00  -0.00   0.01
 157   1     0.00   0.00  -0.03     0.00  -0.03  -0.00    -0.00  -0.00   0.00
 158   1     0.00   0.00  -0.03     0.00  -0.03  -0.00    -0.00  -0.00  -0.01
 159  30    -0.00   0.01  -0.12     0.00  -0.09  -0.02    -0.00  -0.00   0.23
 160   6    -0.01   0.01  -0.07     0.03  -0.06  -0.01     0.00  -0.00   0.09
 161   6    -0.00   0.01  -0.08     0.02  -0.06  -0.01     0.00  -0.00   0.09
 162   6    -0.00   0.01  -0.07     0.01  -0.06  -0.01     0.00  -0.00   0.09
 163   6    -0.00   0.01  -0.07     0.00  -0.06  -0.01     0.00  -0.00   0.09
 164   6     0.00   0.01  -0.07    -0.01  -0.06  -0.01    -0.00  -0.00   0.09
 165   6     0.00   0.01  -0.08    -0.02  -0.06  -0.01    -0.00  -0.00   0.10
 166   6     0.01   0.01  -0.07    -0.03  -0.06  -0.01    -0.00   0.00   0.10
 167   6     0.01   0.01  -0.06    -0.02  -0.05  -0.01    -0.00   0.00   0.10
 168   7     0.00   0.01  -0.07    -0.01  -0.05  -0.01    -0.00   0.00   0.11
 169   6     0.01   0.00  -0.05    -0.02  -0.04  -0.01    -0.00   0.00   0.11
 170   6     0.00   0.00  -0.05    -0.02  -0.03  -0.01    -0.00   0.00   0.10
 171   6     0.01   0.00  -0.04    -0.03  -0.02  -0.01    -0.00   0.00   0.10
 172   6     0.00   0.00  -0.03    -0.02  -0.01  -0.01    -0.00   0.00   0.09
 173   6     0.00   0.00  -0.03    -0.01  -0.02  -0.01    -0.00   0.00   0.09
 174   7     0.00   0.00  -0.05    -0.01  -0.03  -0.01    -0.00   0.00   0.11
 175   6    -0.00   0.00  -0.02     0.00  -0.01  -0.01     0.00   0.00   0.09
 176   6    -0.00   0.00  -0.03     0.01  -0.02  -0.01     0.00   0.00   0.09
 177   6    -0.00   0.00  -0.03     0.02  -0.01  -0.01     0.00   0.00   0.09
 178   6    -0.01   0.00  -0.04     0.03  -0.02  -0.01     0.00   0.00   0.09
 179   6    -0.00   0.00  -0.05     0.02  -0.03  -0.01     0.00   0.00   0.09
 180   7    -0.00   0.00  -0.05     0.01  -0.03  -0.01     0.00   0.00   0.10
 181   6    -0.01   0.00  -0.06     0.03  -0.04  -0.01     0.00   0.00   0.10
 182   6    -0.01   0.01  -0.06     0.02  -0.05  -0.01     0.00  -0.00   0.10
 183   7    -0.00   0.01  -0.07     0.01  -0.05  -0.01     0.00  -0.00   0.10
 184   1    -0.00   0.00  -0.02     0.01  -0.02  -0.00     0.00  -0.00   0.03
 185   1    -0.00   0.00  -0.02     0.01  -0.02  -0.00     0.00  -0.00   0.03
 186   1     0.00   0.00  -0.02    -0.01  -0.02  -0.00    -0.00  -0.00   0.03
 187   1     0.00   0.00  -0.02    -0.01  -0.02  -0.00    -0.00   0.00   0.03
 188   1     0.00   0.00  -0.02    -0.01  -0.01  -0.00    -0.00   0.00   0.03
 189   1     0.00   0.00  -0.01    -0.01  -0.00  -0.00    -0.00   0.00   0.03
 190   1     0.00   0.00  -0.00    -0.01  -0.00  -0.00    -0.00   0.00   0.03
 191   1    -0.00   0.00  -0.01     0.01  -0.00  -0.00     0.00   0.00   0.02
 192   1    -0.00   0.00  -0.01     0.01  -0.01  -0.00     0.00   0.00   0.03
 193   1    -0.00   0.00  -0.02     0.01  -0.01  -0.00     0.00   0.00   0.03
                      4                      5                      6
                        a                      a                      a 
 Frequencies --     3.5987                 3.7494                 4.5518
 Red. masses --    11.2638                17.8775                11.2441
 Frc consts  --     0.0000                 0.0000                 0.0000
 IR Inten    --     0.0949                 0.0045                 0.0484
 Raman Activ --     0.0000                 0.0000                 0.0000
 Depolar     --     0.0000                 0.0000                 0.0000
 Atom AN      X      Y      Z        X      Y      Z        X      Y      Z
   1  30    -0.00  -0.00   0.01    -0.00   0.11  -0.00     0.00   0.00  -0.00
   2   6     0.00  -0.00  -0.12    -0.06   0.00  -0.01    -0.00   0.00   0.14
   3   6     0.00  -0.00  -0.09    -0.05  -0.02  -0.00    -0.00   0.00   0.10
   4   6     0.00  -0.00  -0.04    -0.02  -0.00  -0.00    -0.00   0.00   0.05
   5   6    -0.00   0.00   0.00    -0.00  -0.02   0.00    -0.00   0.00  -0.00
   6   6    -0.00  -0.00   0.04     0.02  -0.00   0.00     0.00   0.00  -0.05
   7   6    -0.00   0.00   0.09     0.05  -0.02   0.01     0.00   0.00  -0.10
   8   6    -0.00  -0.00   0.12     0.06   0.00   0.01     0.00   0.00  -0.14
   9   6    -0.00  -0.00   0.10     0.05   0.03   0.01     0.00   0.00  -0.12
  10   7    -0.00  -0.00   0.05     0.03   0.02   0.00     0.00   0.00  -0.06
  11   6    -0.00  -0.00   0.12     0.06   0.05   0.01     0.00   0.00  -0.14
  12   6    -0.00  -0.00   0.10     0.05   0.07   0.00     0.00   0.00  -0.12
  13   6    -0.00  -0.00   0.12     0.06   0.10   0.00     0.00  -0.00  -0.15
  14   6    -0.00  -0.00   0.09     0.04   0.11   0.00     0.00  -0.00  -0.11
  15   6    -0.00  -0.00   0.05     0.02   0.10   0.00     0.00   0.00  -0.05
  16   7    -0.00  -0.00   0.06     0.03   0.08   0.00     0.00   0.00  -0.07
  17   6    -0.00  -0.00   0.01    -0.00   0.11  -0.00    -0.00   0.00  -0.00
  18   6     0.00  -0.00  -0.04    -0.02   0.10  -0.00    -0.00   0.00   0.05
  19   6     0.00  -0.00  -0.08    -0.05   0.11  -0.01    -0.00   0.00   0.10
  20   6     0.00  -0.00  -0.11    -0.07   0.09  -0.01    -0.00   0.00   0.14
  21   6     0.00  -0.00  -0.09    -0.05   0.07  -0.01    -0.00   0.00   0.12
  22   7     0.00  -0.00  -0.05    -0.03   0.08  -0.00    -0.00   0.00   0.06
  23   6     0.00  -0.00  -0.11    -0.06   0.05  -0.01    -0.00   0.00   0.14
  24   6     0.00  -0.00  -0.09    -0.05   0.03  -0.01    -0.00   0.00   0.11
  25   7     0.00  -0.00  -0.05    -0.03   0.02  -0.00    -0.00   0.00   0.06
  26   1     0.00  -0.00  -0.04    -0.02  -0.00  -0.00    -0.00   0.00   0.05
  27   1     0.00   0.00  -0.03    -0.01  -0.01  -0.00    -0.00   0.00   0.03
  28   1    -0.00   0.00   0.03     0.01  -0.01   0.00     0.00   0.00  -0.03
  29   1    -0.00  -0.00   0.05     0.02   0.00   0.00     0.00   0.00  -0.05
  30   1    -0.00  -0.00   0.05     0.02   0.01   0.00     0.00   0.00  -0.05
  31   1    -0.00  -0.00   0.05     0.02   0.03   0.00     0.00  -0.00  -0.06
  32   1    -0.00  -0.00   0.03     0.01   0.04   0.00     0.00  -0.00  -0.03
  33   1    -0.00  -0.00   0.00    -0.00   0.04  -0.00    -0.00   0.00  -0.00
  34   1     0.00  -0.00  -0.02    -0.01   0.04  -0.00    -0.00   0.00   0.03
  35   1     0.00  -0.00  -0.04    -0.02   0.03  -0.00    -0.00   0.00   0.05
  36   1     0.00  -0.00  -0.04    -0.02   0.01  -0.00    -0.00   0.00   0.05
  37  30    -0.00   0.00  -0.00     0.00  -0.11  -0.00    -0.00  -0.00   0.00
  38   6    -0.00   0.03  -0.17     0.06  -0.00  -0.00     0.00   0.02  -0.12
  39   6    -0.00   0.02  -0.13     0.05   0.02  -0.00     0.00   0.02  -0.09
  40   6    -0.00   0.01  -0.06     0.02   0.00  -0.00     0.00   0.01  -0.04
  41   6    -0.00  -0.00  -0.00     0.00   0.02   0.00    -0.00   0.00  -0.00
  42   6     0.00  -0.01   0.06    -0.02   0.00   0.00    -0.00  -0.01   0.04
  43   6     0.00  -0.02   0.12    -0.05   0.02   0.00    -0.00  -0.01   0.09
  44   6     0.00  -0.03   0.17    -0.06  -0.00   0.00    -0.00  -0.02   0.12
  45   6     0.00  -0.02   0.14    -0.05  -0.03   0.00    -0.00  -0.02   0.10
  46   7     0.00  -0.01   0.08    -0.03  -0.02   0.00    -0.00  -0.01   0.05
  47   6     0.00  -0.03   0.17    -0.06  -0.05   0.00    -0.00  -0.02   0.12
  48   6     0.00  -0.02   0.14    -0.05  -0.07   0.00    -0.00  -0.02   0.10
  49   6     0.00  -0.03   0.17    -0.06  -0.10   0.00    -0.00  -0.03   0.13
  50   6     0.00  -0.02   0.12    -0.04  -0.11   0.00    -0.00  -0.02   0.09
  51   6     0.00  -0.01   0.06    -0.02  -0.10   0.00     0.00  -0.01   0.05
  52   7     0.00  -0.01   0.08    -0.03  -0.08   0.00    -0.00  -0.01   0.06
  53   6     0.00   0.00  -0.00     0.00  -0.11  -0.00     0.00  -0.00   0.00
  54   6    -0.00   0.02  -0.06     0.02  -0.10  -0.00     0.00   0.01  -0.04
  55   6    -0.00   0.03  -0.13     0.05  -0.11  -0.00     0.00   0.02  -0.09
  56   6    -0.00   0.04  -0.18     0.06  -0.09  -0.00     0.00   0.02  -0.12
  57   6    -0.00   0.03  -0.14     0.05  -0.07  -0.00     0.00   0.02  -0.10
  58   7    -0.00   0.02  -0.08     0.03  -0.08  -0.00     0.00   0.01  -0.05
  59   6    -0.00   0.03  -0.17     0.06  -0.05  -0.00     0.00   0.02  -0.12
  60   6    -0.00   0.03  -0.14     0.05  -0.02  -0.00     0.00   0.02  -0.10
  61   7    -0.00   0.02  -0.08     0.03  -0.02  -0.00     0.00   0.01  -0.06
  62   1    -0.00   0.01  -0.07     0.02   0.00  -0.00     0.00   0.01  -0.05
  63   1    -0.00   0.01  -0.04     0.01   0.01  -0.00     0.00   0.00  -0.03
  64   1     0.00  -0.01   0.04    -0.01   0.01   0.00    -0.00  -0.00   0.03
  65   1     0.00  -0.01   0.07    -0.02  -0.00   0.00    -0.00  -0.01   0.05
  66   1     0.00  -0.01   0.06    -0.02  -0.01   0.00    -0.00  -0.01   0.05
  67   1     0.00  -0.01   0.07    -0.02  -0.03   0.00    -0.00  -0.01   0.05
  68   1     0.00  -0.01   0.04    -0.01  -0.04   0.00    -0.00  -0.01   0.03
  69   1     0.00   0.00  -0.00     0.00  -0.04  -0.00     0.00  -0.00   0.00
  70   1    -0.00   0.01  -0.04     0.01  -0.04  -0.00     0.00   0.00  -0.03
  71   1    -0.00   0.01  -0.07     0.02  -0.03  -0.00     0.00   0.01  -0.05
  72   1    -0.00   0.01  -0.07     0.02  -0.01  -0.00     0.00   0.01  -0.05
  73   6    -0.00   0.00  -0.00    -0.00  -0.04   0.00    -0.00  -0.00  -0.00
  74   6    -0.00   0.00  -0.00     0.00  -0.06   0.00    -0.00  -0.00  -0.00
  75   6    -0.00   0.00  -0.00     0.00  -0.07   0.00    -0.00  -0.00  -0.00
  76   6    -0.00   0.00  -0.00     0.00  -0.08   0.00    -0.00  -0.00  -0.00
  77   6     0.00   0.00  -0.00     0.00  -0.09   0.00    -0.00  -0.00   0.00
  78   6     0.00   0.00  -0.00     0.00  -0.09   0.00    -0.00  -0.00   0.00
  79   6     0.00   0.00  -0.00     0.00  -0.08   0.00    -0.00  -0.00   0.00
  80   6     0.00   0.00  -0.00     0.00  -0.06   0.00    -0.00  -0.00   0.00
  81   6     0.00  -0.00   0.00     0.00   0.06  -0.00     0.00   0.00   0.00
  82   6     0.00  -0.00   0.00     0.00   0.08  -0.00     0.00   0.00   0.00
  83   6     0.00  -0.00   0.00     0.00   0.09  -0.00     0.00   0.00   0.00
  84   6     0.00  -0.00   0.00     0.00   0.09  -0.00     0.00   0.00  -0.00
  85   6    -0.00  -0.00   0.00     0.00   0.08   0.00     0.00   0.00  -0.00
  86   6    -0.00  -0.00   0.00     0.00   0.07   0.00     0.00   0.00  -0.00
  87   6    -0.00  -0.00   0.00     0.00   0.06   0.00     0.00   0.00  -0.00
  88   6    -0.00  -0.00   0.00     0.00   0.04   0.00     0.00   0.00  -0.00
  89  30    -0.00   0.01  -0.01     0.00  -0.21   0.00    -0.00  -0.00   0.00
  90   6     0.00  -0.01  -0.14    -0.00  -0.09  -0.00    -0.00  -0.00   0.01
  91   6     0.00  -0.01  -0.10    -0.00  -0.09  -0.00    -0.00  -0.00   0.00
  92   6    -0.00  -0.00  -0.05    -0.00  -0.09  -0.00    -0.00  -0.00   0.00
  93   6    -0.00   0.00  -0.00     0.00  -0.09   0.00    -0.00  -0.00  -0.00
  94   6    -0.00   0.01   0.05     0.00  -0.09   0.00     0.00  -0.00  -0.00
  95   6    -0.00   0.01   0.10     0.00  -0.08   0.00     0.00  -0.00  -0.01
  96   6    -0.00   0.02   0.13     0.00  -0.09   0.00     0.00  -0.00  -0.01
  97   6    -0.00   0.02   0.11     0.00  -0.09   0.00     0.00  -0.00  -0.00
  98   7    -0.00   0.01   0.06     0.00  -0.09   0.00     0.00  -0.00  -0.00
  99   6    -0.00   0.02   0.13     0.00  -0.09   0.00     0.00  -0.00  -0.00
 100   6    -0.00   0.02   0.11     0.00  -0.09   0.00     0.00  -0.00   0.00
 101   6    -0.00   0.02   0.13     0.00  -0.09   0.00     0.00  -0.00   0.00
 102   6    -0.00   0.02   0.09     0.00  -0.09   0.00     0.00  -0.00   0.00
 103   6     0.00   0.01   0.04     0.00  -0.09   0.00     0.00  -0.00   0.00
 104   7    -0.00   0.01   0.06     0.00  -0.10   0.00     0.00  -0.00   0.00
 105   6     0.00   0.00  -0.00     0.00  -0.09   0.00    -0.00  -0.00   0.00
 106   6     0.00  -0.00  -0.05    -0.00  -0.09  -0.00    -0.00  -0.00   0.00
 107   6     0.00  -0.01  -0.10    -0.00  -0.09  -0.00    -0.00  -0.00  -0.00
 108   6     0.00  -0.01  -0.14    -0.00  -0.09  -0.00    -0.00  -0.00   0.00
 109   6     0.00  -0.01  -0.11    -0.00  -0.09  -0.00    -0.00  -0.00   0.00
 110   7     0.00  -0.00  -0.06    -0.00  -0.10  -0.00    -0.00  -0.00   0.00
 111   6     0.00  -0.01  -0.14    -0.00  -0.09  -0.00    -0.00  -0.00   0.00
 112   6     0.00  -0.01  -0.11    -0.00  -0.09  -0.00    -0.00  -0.00   0.00
 113   7     0.00  -0.00  -0.06    -0.00  -0.09  -0.00    -0.00  -0.00   0.00
 114   1     0.00  -0.01  -0.05    -0.00  -0.03  -0.00    -0.00  -0.00   0.00
 115   1     0.00  -0.00  -0.03    -0.00  -0.02  -0.00    -0.00  -0.00   0.00
 116   1    -0.00   0.00   0.03     0.00  -0.02   0.00     0.00  -0.00  -0.00
 117   1    -0.00   0.01   0.05     0.00  -0.02   0.00     0.00  -0.00  -0.00
 118   1    -0.00   0.01   0.05     0.00  -0.03   0.00     0.00  -0.00  -0.00
 119   1    -0.00   0.01   0.05     0.00  -0.03   0.00     0.00  -0.00   0.00
 120   1    -0.00   0.00   0.03     0.00  -0.03   0.00     0.00  -0.00   0.00
 121   1     0.00  -0.00  -0.03    -0.00  -0.03  -0.00    -0.00  -0.00  -0.00
 122   1     0.00  -0.00  -0.05    -0.00  -0.03  -0.00    -0.00  -0.00   0.00
 123   1     0.00  -0.00  -0.05    -0.00  -0.03  -0.00    -0.00  -0.00   0.00
 124  30     0.00   0.00  -0.00     0.00  -0.00  -0.01    -0.00   0.00   0.01
 125   6    -0.00  -0.00  -0.04     0.05  -0.03  -0.00     0.00  -0.02  -0.17
 126   6    -0.00  -0.00  -0.03     0.03  -0.05   0.00     0.00  -0.02  -0.12
 127   6    -0.00   0.00  -0.02     0.02  -0.04  -0.00     0.00  -0.01  -0.06
 128   6     0.00   0.00  -0.00     0.00  -0.05   0.00    -0.00  -0.00   0.00
 129   6     0.00   0.00   0.01    -0.02  -0.04  -0.00    -0.00   0.01   0.07
 130   6     0.00   0.00   0.02    -0.03  -0.05   0.00    -0.00   0.02   0.13
 131   6     0.00   0.01   0.03    -0.05  -0.03  -0.00    -0.00   0.02   0.18
 132   6     0.00   0.00   0.02    -0.04  -0.02  -0.00    -0.00   0.02   0.14
 133   7     0.00   0.00   0.01    -0.02  -0.02  -0.00    -0.00   0.01   0.08
 134   6     0.00   0.00   0.03    -0.05  -0.00  -0.00    -0.00   0.02   0.18
 135   6     0.00   0.00   0.02    -0.04   0.02  -0.00    -0.00   0.02   0.14
 136   6     0.00   0.00   0.03    -0.05   0.03  -0.00    -0.00   0.02   0.18
 137   6     0.00   0.00   0.02    -0.03   0.05  -0.00    -0.00   0.02   0.13
 138   6     0.00  -0.00   0.01    -0.02   0.04  -0.00    -0.00   0.01   0.07
 139   7     0.00   0.00   0.01    -0.02   0.02  -0.00    -0.00   0.01   0.08
 140   6     0.00  -0.00  -0.00     0.00   0.05  -0.00     0.00   0.00   0.00
 141   6    -0.00  -0.00  -0.01     0.02   0.04  -0.00     0.00  -0.01  -0.06
 142   6    -0.00  -0.00  -0.02     0.03   0.05  -0.00     0.00  -0.01  -0.13
 143   6    -0.00  -0.00  -0.03     0.05   0.03  -0.00     0.00  -0.02  -0.18
 144   6    -0.00  -0.00  -0.02     0.04   0.02  -0.00     0.00  -0.02  -0.14
 145   7    -0.00  -0.00  -0.01     0.02   0.02  -0.00     0.00  -0.01  -0.08
 146   6    -0.00  -0.00  -0.03     0.05  -0.00  -0.00     0.00  -0.02  -0.17
 147   6    -0.00  -0.00  -0.03     0.04  -0.02  -0.00     0.00  -0.02  -0.14
 148   7    -0.00  -0.00  -0.02     0.02  -0.02  -0.00     0.00  -0.01  -0.08
 149   1    -0.00  -0.00  -0.01     0.02  -0.01  -0.00     0.00  -0.01  -0.07
 150   1    -0.00  -0.00  -0.01     0.01  -0.02   0.00     0.00  -0.01  -0.04
 151   1     0.00   0.00   0.01    -0.01  -0.02   0.00    -0.00   0.00   0.04
 152   1     0.00   0.00   0.01    -0.02  -0.01  -0.00    -0.00   0.01   0.07
 153   1     0.00   0.00   0.01    -0.02  -0.00  -0.00    -0.00   0.01   0.07
 154   1     0.00   0.00   0.01    -0.02   0.01  -0.00    -0.00   0.01   0.07
 155   1     0.00   0.00   0.01    -0.01   0.02  -0.00    -0.00   0.00   0.04
 156   1    -0.00  -0.00  -0.01     0.01   0.02  -0.00     0.00  -0.00  -0.04
 157   1    -0.00  -0.00  -0.01     0.02   0.01  -0.00     0.00  -0.01  -0.07
 158   1    -0.00  -0.00  -0.01     0.02  -0.00  -0.00     0.00  -0.01  -0.07
 159  30     0.00  -0.01   0.01     0.00   0.21   0.00     0.00   0.00  -0.00
 160   6    -0.00   0.01   0.11    -0.00   0.09   0.01     0.00  -0.01  -0.10
 161   6    -0.00   0.01   0.08    -0.00   0.09   0.00     0.00  -0.01  -0.07
 162   6     0.00   0.00   0.04    -0.00   0.09   0.00     0.00  -0.00  -0.04
 163   6     0.00  -0.00   0.00     0.00   0.09  -0.00     0.00   0.00  -0.00
 164   6     0.00  -0.01  -0.03     0.00   0.09  -0.00     0.00   0.01   0.03
 165   6     0.00  -0.01  -0.07     0.00   0.09  -0.00     0.00   0.01   0.07
 166   6     0.00  -0.02  -0.10     0.00   0.09  -0.01     0.00   0.01   0.09
 167   6     0.00  -0.01  -0.08     0.00   0.09  -0.00     0.00   0.01   0.07
 168   7     0.00  -0.01  -0.04     0.00   0.10  -0.00     0.00   0.01   0.04
 169   6     0.00  -0.02  -0.10     0.00   0.09  -0.00     0.00   0.01   0.09
 170   6     0.00  -0.01  -0.08     0.00   0.09  -0.00     0.00   0.01   0.07
 171   6     0.00  -0.02  -0.11     0.00   0.09  -0.00     0.00   0.01   0.09
 172   6     0.00  -0.01  -0.08     0.00   0.09  -0.00     0.00   0.01   0.06
 173   6     0.00  -0.01  -0.04     0.00   0.09   0.00     0.00   0.00   0.03
 174   7     0.00  -0.01  -0.05     0.00   0.09  -0.00     0.00   0.01   0.04
 175   6     0.00  -0.00   0.00     0.00   0.09   0.00     0.00   0.00  -0.00
 176   6    -0.00   0.00   0.04    -0.00   0.09   0.00     0.00  -0.00  -0.03
 177   6    -0.00   0.01   0.08    -0.00   0.09   0.01     0.00  -0.01  -0.07
 178   6    -0.00   0.01   0.12    -0.00   0.09   0.01     0.00  -0.01  -0.09
 179   6    -0.00   0.01   0.09    -0.00   0.09   0.01     0.00  -0.01  -0.08
 180   7    -0.00   0.00   0.05    -0.00   0.10   0.01     0.00  -0.00  -0.04
 181   6    -0.00   0.01   0.11    -0.00   0.09   0.01     0.00  -0.01  -0.09
 182   6    -0.00   0.01   0.09    -0.00   0.09   0.01     0.00  -0.01  -0.08
 183   7    -0.00   0.00   0.05    -0.00   0.10   0.00     0.00  -0.00  -0.04
 184   1    -0.00   0.00   0.04    -0.00   0.03   0.00     0.00  -0.00  -0.04
 185   1    -0.00   0.00   0.02    -0.00   0.03   0.00     0.00  -0.00  -0.02
 186   1     0.00  -0.00  -0.02     0.00   0.03  -0.00     0.00   0.00   0.02
 187   1     0.00  -0.01  -0.04     0.00   0.03  -0.00     0.00   0.00   0.04
 188   1     0.00  -0.01  -0.04     0.00   0.03  -0.00     0.00   0.00   0.03
 189   1     0.00  -0.01  -0.04     0.00   0.02  -0.00     0.00   0.00   0.03
 190   1     0.00  -0.00  -0.02     0.00   0.02  -0.00     0.00   0.00   0.02
 191   1    -0.00   0.00   0.03    -0.00   0.02   0.00     0.00  -0.00  -0.02
 192   1    -0.00   0.00   0.04    -0.00   0.03   0.00     0.00  -0.00  -0.03
 193   1    -0.00   0.00   0.04    -0.00   0.03   0.00     0.00  -0.00  -0.04
                      7                      8                      9
                        a                      a                      a 
 Frequencies --     5.3956                 5.6332                 6.3765
 Red. masses --    19.3724                11.2404                11.2420
 Frc consts  --     0.0000                 0.0000                 0.0000
 IR Inten    --     0.5101                 0.0434                 0.0046
 Raman Activ --     0.0000                 0.0000                 0.0000
 Depolar     --     0.0000                 0.0000                 0.0000
 Atom AN      X      Y      Z        X      Y      Z        X      Y      Z
   1  30     0.00  -0.00  -0.06    -0.00  -0.00   0.00    -0.00   0.00   0.00
   2   6     0.01   0.00   0.03     0.00  -0.00  -0.14    -0.00  -0.00  -0.08
   3   6     0.01   0.01   0.04     0.00  -0.00  -0.10    -0.00  -0.00  -0.06
   4   6     0.00   0.00   0.03     0.00  -0.00  -0.05    -0.00  -0.00  -0.03
   5   6    -0.00   0.01   0.04     0.00  -0.00   0.00    -0.00  -0.00  -0.00
   6   6    -0.00   0.00   0.03     0.00  -0.00   0.05     0.00  -0.00   0.03
   7   6    -0.01   0.01   0.04    -0.00  -0.00   0.10     0.00  -0.00   0.06
   8   6    -0.01   0.00   0.02    -0.00  -0.00   0.14     0.00  -0.00   0.08
   9   6    -0.01   0.00  -0.00    -0.00  -0.00   0.11     0.00  -0.00   0.06
  10   7    -0.00   0.00   0.00    -0.00  -0.00   0.06     0.00  -0.00   0.03
  11   6    -0.01  -0.00  -0.03    -0.00  -0.00   0.14     0.00   0.00   0.08
  12   6    -0.01  -0.00  -0.05    -0.00   0.00   0.12     0.00   0.00   0.07
  13   6    -0.01  -0.01  -0.07    -0.00   0.00   0.14     0.00   0.00   0.08
  14   6    -0.00  -0.01  -0.09    -0.00   0.00   0.10     0.00   0.00   0.06
  15   6    -0.00  -0.01  -0.08     0.00   0.00   0.05     0.00   0.00   0.03
  16   7    -0.00  -0.01  -0.06    -0.00   0.00   0.06     0.00   0.00   0.04
  17   6     0.00  -0.01  -0.09     0.00   0.00  -0.00    -0.00   0.00   0.00
  18   6     0.00  -0.01  -0.08     0.00   0.00  -0.05    -0.00   0.00  -0.03
  19   6     0.01  -0.01  -0.09     0.00   0.00  -0.11    -0.00   0.00  -0.06
  20   6     0.01  -0.01  -0.07     0.00  -0.00  -0.15    -0.00   0.00  -0.08
  21   6     0.01  -0.00  -0.04     0.00  -0.00  -0.12    -0.00   0.00  -0.07
  22   7     0.00  -0.01  -0.05     0.00  -0.00  -0.06    -0.00   0.00  -0.04
  23   6     0.01  -0.00  -0.02     0.00  -0.00  -0.14    -0.00   0.00  -0.08
  24   6     0.01   0.00   0.00     0.00  -0.00  -0.11    -0.00  -0.00  -0.06
  25   7     0.00   0.00   0.00     0.00  -0.00  -0.06    -0.00  -0.00  -0.04
  26   1     0.00   0.00   0.01     0.00  -0.00  -0.05    -0.00  -0.00  -0.03
  27   1     0.00   0.00   0.02     0.00  -0.00  -0.03    -0.00  -0.00  -0.02
  28   1    -0.00   0.00   0.02    -0.00  -0.00   0.03     0.00  -0.00   0.02
  29   1    -0.00   0.00   0.01    -0.00  -0.00   0.05     0.00  -0.00   0.03
  30   1    -0.00  -0.00  -0.01    -0.00  -0.00   0.05     0.00   0.00   0.03
  31   1    -0.00  -0.00  -0.02    -0.00   0.00   0.05     0.00   0.00   0.03
  32   1    -0.00  -0.00  -0.03    -0.00   0.00   0.03     0.00   0.00   0.02
  33   1     0.00  -0.00  -0.03     0.00   0.00  -0.00    -0.00   0.00   0.00
  34   1     0.00  -0.00  -0.03     0.00   0.00  -0.03    -0.00   0.00  -0.02
  35   1     0.00  -0.00  -0.02     0.00  -0.00  -0.05    -0.00   0.00  -0.03
  36   1     0.00  -0.00  -0.01     0.00  -0.00  -0.05    -0.00  -0.00  -0.03
  37  30    -0.00   0.00  -0.05    -0.00  -0.00  -0.00     0.00   0.00   0.00
  38   6     0.01   0.00   0.03    -0.00   0.02  -0.11    -0.00  -0.01   0.04
  39   6     0.01   0.00   0.04    -0.00   0.01  -0.08    -0.00  -0.01   0.03
  40   6     0.01   0.00   0.03    -0.00   0.01  -0.04    -0.00  -0.00   0.01
  41   6    -0.00   0.00   0.04    -0.00  -0.00  -0.00     0.00  -0.00  -0.00
  42   6    -0.01   0.00   0.03    -0.00  -0.01   0.04     0.00   0.00  -0.02
  43   6    -0.01   0.00   0.04     0.00  -0.01   0.08     0.00   0.00  -0.03
  44   6    -0.01   0.00   0.02     0.00  -0.02   0.11     0.00   0.01  -0.04
  45   6    -0.01   0.00   0.00     0.00  -0.02   0.09     0.00   0.01  -0.03
  46   7    -0.01   0.00   0.01    -0.00  -0.01   0.05     0.00   0.00  -0.02
  47   6    -0.01   0.00  -0.02     0.00  -0.02   0.11     0.00   0.01  -0.04
  48   6    -0.01  -0.00  -0.04     0.00  -0.02   0.09     0.00   0.01  -0.03
  49   6    -0.02  -0.00  -0.07     0.00  -0.02   0.11     0.00   0.01  -0.04
  50   6    -0.01  -0.00  -0.09     0.00  -0.02   0.08     0.00   0.01  -0.03
  51   6    -0.01  -0.00  -0.07     0.00  -0.01   0.04     0.00   0.01  -0.02
  52   7    -0.01  -0.00  -0.05    -0.00  -0.01   0.05     0.00   0.01  -0.02
  53   6    -0.00  -0.00  -0.09     0.00  -0.00  -0.00    -0.00   0.00   0.00
  54   6     0.01  -0.00  -0.07    -0.00   0.01  -0.04    -0.00  -0.00   0.02
  55   6     0.01  -0.00  -0.09    -0.00   0.02  -0.08    -0.00  -0.00   0.03
  56   6     0.01  -0.00  -0.07    -0.00   0.02  -0.11    -0.00  -0.01   0.05
  57   6     0.01  -0.00  -0.04    -0.00   0.02  -0.09    -0.00  -0.01   0.04
  58   7     0.01  -0.00  -0.05    -0.00   0.01  -0.05    -0.00  -0.00   0.02
  59   6     0.01   0.00  -0.02    -0.00   0.02  -0.11    -0.00  -0.01   0.04
  60   6     0.01   0.00   0.00    -0.00   0.02  -0.09    -0.00  -0.01   0.03
  61   7     0.01   0.00   0.01    -0.00   0.01  -0.05    -0.00  -0.00   0.02
  62   1     0.01   0.00   0.01    -0.00   0.01  -0.04    -0.00  -0.00   0.02
  63   1     0.00   0.00   0.02    -0.00   0.00  -0.02    -0.00  -0.00   0.01
  64   1    -0.00   0.00   0.02     0.00  -0.00   0.02     0.00   0.00  -0.01
  65   1    -0.01   0.00   0.01     0.00  -0.01   0.04     0.00   0.00  -0.02
  66   1    -0.01   0.00  -0.01     0.00  -0.01   0.04     0.00   0.00  -0.02
  67   1    -0.01  -0.00  -0.02     0.00  -0.01   0.04     0.00   0.00  -0.02
  68   1    -0.00  -0.00  -0.03     0.00  -0.01   0.03     0.00   0.00  -0.01
  69   1    -0.00  -0.00  -0.03     0.00  -0.00  -0.00    -0.00   0.00   0.00
  70   1     0.00  -0.00  -0.03    -0.00   0.00  -0.03    -0.00  -0.00   0.01
  71   1     0.01  -0.00  -0.02    -0.00   0.01  -0.04    -0.00  -0.00   0.02
  72   1     0.01   0.00  -0.01    -0.00   0.01  -0.04    -0.00  -0.00   0.02
  73   6    -0.00   0.01   0.06     0.00  -0.00   0.00     0.00  -0.00  -0.00
  74   6    -0.00   0.01   0.07     0.00  -0.00   0.00     0.00  -0.00  -0.00
  75   6    -0.00   0.01   0.09     0.00  -0.00   0.00     0.00  -0.00  -0.00
  76   6    -0.00   0.01   0.10     0.00  -0.00   0.00     0.00  -0.00  -0.00
  77   6    -0.00   0.00   0.00    -0.00   0.00  -0.00    -0.00   0.00  -0.00
  78   6    -0.00  -0.00  -0.02    -0.00   0.00  -0.00    -0.00   0.00   0.00
  79   6    -0.00  -0.01  -0.05    -0.00   0.00  -0.00    -0.00   0.00   0.00
  80   6    -0.00  -0.01  -0.07    -0.00   0.00  -0.00    -0.00   0.00   0.00
  81   6    -0.00  -0.01  -0.08    -0.00   0.00   0.00     0.00   0.00   0.00
  82   6    -0.00  -0.01  -0.05    -0.00   0.00   0.00     0.00   0.00   0.00
  83   6    -0.00  -0.01  -0.03    -0.00   0.00   0.00     0.00   0.00   0.00
  84   6    -0.00  -0.00  -0.00    -0.00   0.00   0.00     0.00   0.00   0.00
  85   6    -0.00   0.01   0.09     0.00  -0.00   0.00    -0.00  -0.00  -0.00
  86   6    -0.00   0.01   0.09     0.00  -0.00   0.00    -0.00  -0.00  -0.00
  87   6    -0.00   0.01   0.07    -0.00  -0.00   0.00    -0.00  -0.00  -0.00
  88   6    -0.00   0.01   0.06     0.00  -0.00   0.00    -0.00  -0.00  -0.00
  89  30     0.00   0.02   0.18     0.00  -0.00   0.00     0.00  -0.00  -0.00
  90   6    -0.00   0.01   0.11     0.00   0.02   0.14     0.00   0.02   0.15
  91   6    -0.00   0.01   0.11     0.00   0.01   0.10     0.00   0.01   0.11
  92   6     0.00   0.01   0.10     0.00   0.00   0.05     0.00   0.00   0.05
  93   6    -0.00   0.01   0.10     0.00  -0.00   0.00     0.00  -0.00  -0.00
  94   6    -0.00   0.01   0.10    -0.00  -0.01  -0.05    -0.00  -0.01  -0.06
  95   6     0.00   0.01   0.11    -0.00  -0.01  -0.09    -0.00  -0.02  -0.11
  96   6     0.00   0.01   0.10    -0.00  -0.02  -0.13    -0.00  -0.02  -0.16
  97   6     0.00   0.01   0.09    -0.00  -0.01  -0.11    -0.00  -0.02  -0.13
  98   7     0.00   0.01   0.10    -0.00  -0.01  -0.06    -0.00  -0.01  -0.07
  99   6     0.00   0.01   0.08    -0.00  -0.02  -0.13    -0.00  -0.02  -0.15
 100   6     0.00   0.01   0.07    -0.00  -0.01  -0.11    -0.00  -0.02  -0.13
 101   6     0.00   0.01   0.05    -0.00  -0.02  -0.14    -0.00  -0.02  -0.16
 102   6     0.00   0.01   0.03    -0.00  -0.01  -0.10    -0.00  -0.01  -0.11
 103   6     0.00   0.01   0.04    -0.00  -0.01  -0.05    -0.00  -0.01  -0.06
 104   7    -0.00   0.01   0.07    -0.00  -0.01  -0.06    -0.00  -0.01  -0.07
 105   6    -0.00   0.00   0.03     0.00   0.00  -0.00    -0.00   0.00  -0.00
 106   6    -0.00   0.01   0.04     0.00   0.01   0.05     0.00   0.01   0.05
 107   6    -0.00   0.01   0.04     0.00   0.01   0.10     0.00   0.01   0.11
 108   6    -0.00   0.01   0.06     0.00   0.02   0.14     0.00   0.02   0.15
 109   6    -0.00   0.01   0.07     0.00   0.01   0.11     0.00   0.01   0.12
 110   7    -0.00   0.01   0.07     0.00   0.01   0.06     0.00   0.01   0.07
 111   6    -0.00   0.01   0.09     0.00   0.02   0.13     0.00   0.02   0.15
 112   6    -0.00   0.01   0.10     0.00   0.01   0.11     0.00   0.01   0.12
 113   7    -0.00   0.01   0.10     0.00   0.01   0.06     0.00   0.01   0.07
 114   1    -0.00   0.00   0.03     0.00   0.01   0.05     0.00   0.01   0.06
 115   1    -0.00   0.00   0.03     0.00   0.00   0.03     0.00   0.00   0.03
 116   1     0.00   0.00   0.03    -0.00  -0.00  -0.03    -0.00  -0.00  -0.03
 117   1     0.00   0.00   0.03    -0.00  -0.01  -0.05    -0.00  -0.01  -0.06
 118   1     0.00   0.00   0.03    -0.00  -0.01  -0.05    -0.00  -0.01  -0.06
 119   1     0.00   0.00   0.02    -0.00  -0.01  -0.05    -0.00  -0.01  -0.06
 120   1     0.00   0.00   0.01    -0.00  -0.00  -0.03    -0.00  -0.00  -0.03
 121   1    -0.00   0.00   0.01     0.00   0.00   0.03     0.00   0.00   0.03
 122   1    -0.00   0.00   0.02     0.00   0.01   0.05     0.00   0.01   0.06
 123   1    -0.00   0.00   0.03     0.00   0.01   0.05     0.00   0.01   0.06
 124  30    -0.00  -0.03  -0.27     0.00   0.00  -0.00    -0.00   0.00   0.01
 125   6    -0.00  -0.02  -0.12    -0.00   0.01   0.05    -0.00  -0.02  -0.16
 126   6    -0.00  -0.01  -0.11    -0.00   0.01   0.03    -0.00  -0.01  -0.11
 127   6    -0.00  -0.01  -0.10    -0.00   0.00   0.02    -0.00  -0.00  -0.05
 128   6    -0.00  -0.01  -0.09     0.00   0.00  -0.00    -0.00   0.00   0.00
 129   6     0.00  -0.01  -0.10     0.00  -0.00  -0.02    -0.00   0.01   0.06
 130   6     0.00  -0.01  -0.10     0.00  -0.00  -0.04     0.00   0.02   0.12
 131   6     0.00  -0.01  -0.11     0.00  -0.01  -0.05     0.00   0.02   0.16
 132   6     0.00  -0.02  -0.12     0.00  -0.00  -0.04     0.00   0.02   0.13
 133   7     0.00  -0.02  -0.12     0.00  -0.00  -0.02     0.00   0.01   0.07
 134   6     0.00  -0.02  -0.12     0.00  -0.00  -0.05     0.00   0.02   0.16
 135   6     0.00  -0.02  -0.12     0.00  -0.00  -0.04     0.00   0.02   0.13
 136   6     0.00  -0.02  -0.11     0.00  -0.00  -0.04     0.00   0.02   0.17
 137   6     0.00  -0.01  -0.10     0.00  -0.00  -0.03     0.00   0.01   0.12
 138   6    -0.00  -0.01  -0.10     0.00  -0.00  -0.02     0.00   0.01   0.06
 139   7     0.00  -0.02  -0.12     0.00  -0.00  -0.02     0.00   0.01   0.07
 140   6    -0.00  -0.01  -0.10    -0.00   0.00  -0.00     0.00   0.00   0.00
 141   6    -0.00  -0.02  -0.11    -0.00   0.00   0.01     0.00  -0.00  -0.06
 142   6    -0.00  -0.02  -0.11    -0.00   0.00   0.03    -0.00  -0.01  -0.12
 143   6    -0.00  -0.02  -0.13    -0.00   0.01   0.04    -0.00  -0.02  -0.16
 144   6    -0.00  -0.02  -0.13    -0.00   0.00   0.03    -0.00  -0.01  -0.13
 145   7    -0.00  -0.02  -0.13    -0.00   0.00   0.02    -0.00  -0.01  -0.07
 146   6    -0.00  -0.02  -0.13    -0.00   0.01   0.04    -0.00  -0.02  -0.16
 147   6    -0.00  -0.02  -0.13    -0.00   0.01   0.04    -0.00  -0.01  -0.13
 148   7    -0.00  -0.02  -0.12    -0.00   0.00   0.02    -0.00  -0.01  -0.07
 149   1    -0.00  -0.00  -0.04    -0.00   0.00   0.02    -0.00  -0.01  -0.06
 150   1    -0.00  -0.00  -0.03    -0.00   0.00   0.01    -0.00  -0.00  -0.03
 151   1     0.00  -0.00  -0.03     0.00  -0.00  -0.01     0.00   0.01   0.04
 152   1     0.00  -0.00  -0.03     0.00  -0.00  -0.02     0.00   0.01   0.06
 153   1     0.00  -0.00  -0.04     0.00  -0.00  -0.02     0.00   0.01   0.06
 154   1     0.00  -0.00  -0.03     0.00  -0.00  -0.02     0.00   0.01   0.06
 155   1     0.00  -0.00  -0.03     0.00  -0.00  -0.01     0.00   0.00   0.04
 156   1    -0.00  -0.00  -0.03    -0.00   0.00   0.01    -0.00  -0.00  -0.04
 157   1    -0.00  -0.01  -0.04    -0.00   0.00   0.02    -0.00  -0.01  -0.06
 158   1    -0.00  -0.01  -0.04    -0.00   0.00   0.02    -0.00  -0.01  -0.06
 159  30    -0.00   0.01   0.17     0.00  -0.00   0.00    -0.00  -0.00  -0.00
 160   6     0.00   0.00   0.05     0.00  -0.02  -0.15    -0.00   0.01   0.13
 161   6     0.00   0.00   0.03     0.00  -0.01  -0.11    -0.00   0.01   0.09
 162   6     0.00   0.00   0.04    -0.00  -0.01  -0.05    -0.00   0.00   0.05
 163   6    -0.00  -0.00   0.02    -0.00   0.00   0.00     0.00  -0.00  -0.00
 164   6    -0.00   0.00   0.03    -0.00   0.01   0.06     0.00  -0.01  -0.05
 165   6    -0.00   0.00   0.03     0.00   0.01   0.11     0.00  -0.01  -0.09
 166   6    -0.00   0.00   0.05     0.00   0.02   0.15     0.00  -0.02  -0.13
 167   6    -0.00   0.00   0.06     0.00   0.01   0.12     0.00  -0.01  -0.11
 168   7    -0.00   0.00   0.06     0.00   0.01   0.07     0.00  -0.01  -0.06
 169   6    -0.00   0.01   0.08     0.00   0.02   0.15     0.00  -0.02  -0.13
 170   6    -0.00   0.01   0.09     0.00   0.01   0.12     0.00  -0.01  -0.11
 171   6    -0.00   0.01   0.10     0.00   0.02   0.15     0.00  -0.02  -0.14
 172   6    -0.00   0.01   0.10     0.00   0.01   0.11     0.00  -0.01  -0.10
 173   6    -0.00   0.01   0.09     0.00   0.01   0.06     0.00  -0.01  -0.05
 174   7    -0.00   0.01   0.09     0.00   0.01   0.07     0.00  -0.01  -0.06
 175   6    -0.00   0.01   0.10     0.00  -0.00   0.00    -0.00  -0.00  -0.00
 176   6    -0.00   0.01   0.10     0.00  -0.01  -0.05    -0.00   0.00   0.05
 177   6     0.00   0.01   0.11     0.00  -0.01  -0.11    -0.00   0.01   0.09
 178   6     0.00   0.01   0.11     0.00  -0.02  -0.15    -0.00   0.01   0.13
 179   6     0.00   0.01   0.09     0.00  -0.01  -0.12    -0.00   0.01   0.10
 180   7     0.00   0.01   0.10     0.00  -0.01  -0.07    -0.00   0.00   0.06
 181   6     0.00   0.01   0.08     0.00  -0.02  -0.15    -0.00   0.01   0.13
 182   6     0.00   0.00   0.07     0.00  -0.01  -0.12    -0.00   0.01   0.10
 183   7    -0.00   0.00   0.06     0.00  -0.01  -0.07    -0.00   0.01   0.06
 184   1     0.00   0.00   0.02    -0.00  -0.01  -0.06    -0.00   0.01   0.05
 185   1     0.00  -0.00   0.00     0.00  -0.00  -0.03    -0.00   0.00   0.03
 186   1    -0.00  -0.00   0.00     0.00   0.00   0.03     0.00  -0.00  -0.03
 187   1    -0.00   0.00   0.01     0.00   0.01   0.06     0.00  -0.01  -0.05
 188   1    -0.00   0.00   0.02     0.00   0.01   0.06     0.00  -0.01  -0.05
 189   1    -0.00   0.00   0.03     0.00   0.01   0.06     0.00  -0.01  -0.05
 190   1    -0.00   0.00   0.03     0.00   0.00   0.03     0.00  -0.00  -0.03
 191   1     0.00   0.00   0.03     0.00  -0.00  -0.03    -0.00   0.00   0.03
 192   1     0.00   0.00   0.03     0.00  -0.01  -0.06    -0.00   0.00   0.05
 193   1     0.00   0.00   0.03    -0.00  -0.01  -0.06    -0.00   0.01   0.05
                     10                     11                     12
                        a                      a                      a 
 Frequencies --     7.0266                10.1888                11.2903
 Red. masses --    14.8769                11.6391                11.7289
 Frc consts  --     0.0000                 0.0000                 0.0000
 IR Inten    --     0.6350                 0.0030                 0.0112
 Raman Activ --     0.0000                 0.0000                 0.0000
 Depolar     --     0.0000                 0.0000                 0.0000
 Atom AN      X      Y      Z        X      Y      Z        X      Y      Z
   1  30     0.00  -0.03   0.01     0.00   0.01   0.00    -0.00  -0.00  -0.01
   2   6     0.08   0.05  -0.01     0.07   0.06  -0.01    -0.01  -0.01  -0.10
   3   6     0.06   0.07  -0.01     0.05   0.08  -0.01    -0.01  -0.01  -0.13
   4   6     0.03   0.06  -0.01     0.03   0.06  -0.01    -0.00  -0.01  -0.10
   5   6    -0.00   0.07  -0.01     0.00   0.08  -0.01    -0.00  -0.01  -0.11
   6   6    -0.03   0.05  -0.01    -0.02   0.06  -0.01     0.00  -0.01  -0.10
   7   6    -0.06   0.07  -0.01    -0.05   0.08  -0.01     0.01  -0.01  -0.13
   8   6    -0.08   0.05  -0.00    -0.07   0.06  -0.01     0.01  -0.01  -0.10
   9   6    -0.07   0.02   0.00    -0.06   0.03  -0.01     0.01  -0.01  -0.06
  10   7    -0.04   0.02  -0.00    -0.03   0.04  -0.01     0.00  -0.01  -0.06
  11   6    -0.08  -0.01   0.01    -0.07   0.00  -0.00     0.01  -0.00  -0.02
  12   6    -0.07  -0.04   0.01    -0.06  -0.02   0.01     0.01   0.00   0.04
  13   6    -0.08  -0.08   0.02    -0.07  -0.05   0.01     0.01   0.01   0.09
  14   6    -0.06  -0.10   0.02    -0.05  -0.07   0.02     0.01   0.01   0.13
  15   6    -0.03  -0.08   0.01    -0.02  -0.05   0.01     0.00   0.01   0.11
  16   7    -0.04  -0.05   0.01    -0.03  -0.03   0.01     0.00   0.00   0.05
  17   6     0.00  -0.10   0.02     0.00  -0.07   0.02    -0.00   0.01   0.14
  18   6     0.03  -0.08   0.01     0.03  -0.05   0.01    -0.01   0.01   0.11
  19   6     0.06  -0.10   0.01     0.06  -0.07   0.02    -0.01   0.01   0.13
  20   6     0.09  -0.07   0.01     0.07  -0.05   0.01    -0.01   0.01   0.09
  21   6     0.07  -0.04   0.00     0.06  -0.02   0.00    -0.01   0.00   0.04
  22   7     0.04  -0.05   0.01     0.03  -0.03   0.01    -0.01   0.00   0.05
  23   6     0.08  -0.01  -0.00     0.07   0.01  -0.00    -0.01  -0.00  -0.02
  24   6     0.07   0.02  -0.01     0.06   0.03  -0.01    -0.01  -0.01  -0.06
  25   7     0.04   0.02  -0.01     0.03   0.04  -0.01    -0.01  -0.01  -0.07
  26   1     0.03   0.01  -0.00     0.03   0.02  -0.00    -0.00  -0.00  -0.03
  27   1     0.02   0.03  -0.00     0.02   0.03  -0.01    -0.00  -0.00  -0.05
  28   1    -0.02   0.03  -0.00    -0.02   0.03  -0.01     0.00  -0.00  -0.05
  29   1    -0.03   0.01  -0.00    -0.03   0.02  -0.00     0.00  -0.00  -0.03
  30   1    -0.03  -0.00   0.00    -0.03   0.00  -0.00     0.00  -0.00  -0.01
  31   1    -0.03  -0.02   0.00    -0.03  -0.01   0.00     0.00   0.00   0.03
  32   1    -0.02  -0.04   0.01    -0.02  -0.03   0.01     0.00   0.00   0.05
  33   1     0.00  -0.04   0.01     0.00  -0.03   0.01    -0.00   0.00   0.05
  34   1     0.02  -0.04   0.00     0.02  -0.03   0.01    -0.00   0.00   0.05
  35   1     0.03  -0.02   0.00     0.03  -0.01   0.00    -0.00   0.00   0.03
  36   1     0.03  -0.00  -0.00     0.03   0.00  -0.00    -0.00  -0.00  -0.01
  37  30     0.00  -0.03   0.01    -0.01  -0.01  -0.00     0.00   0.01   0.02
  38   6     0.08   0.05  -0.01    -0.07  -0.06   0.01     0.02   0.00   0.10
  39   6     0.06   0.07  -0.01    -0.05  -0.08   0.01     0.02   0.00   0.13
  40   6     0.03   0.05  -0.01    -0.03  -0.07   0.01     0.01   0.01   0.10
  41   6     0.00   0.07  -0.01    -0.00  -0.08   0.01     0.00   0.01   0.11
  42   6    -0.03   0.05  -0.01     0.02  -0.07   0.01    -0.01   0.00   0.10
  43   6    -0.06   0.07  -0.01     0.05  -0.08   0.01    -0.02   0.00   0.13
  44   6    -0.08   0.05  -0.01     0.07  -0.06   0.01    -0.02   0.00   0.10
  45   6    -0.06   0.02  -0.00     0.06  -0.03   0.01    -0.02   0.00   0.06
  46   7    -0.04   0.02  -0.00     0.03  -0.04   0.01    -0.01   0.00   0.06
  47   6    -0.08  -0.01   0.00     0.07  -0.00   0.00    -0.02   0.00   0.02
  48   6    -0.06  -0.04   0.01     0.05   0.02  -0.01    -0.02   0.00  -0.03
  49   6    -0.08  -0.08   0.01     0.07   0.05  -0.01    -0.02   0.00  -0.08
  50   6    -0.06  -0.10   0.02     0.05   0.07  -0.02    -0.02   0.00  -0.13
  51   6    -0.03  -0.08   0.01     0.02   0.06  -0.02    -0.01   0.00  -0.10
  52   7    -0.03  -0.05   0.01     0.03   0.03  -0.01    -0.01   0.00  -0.05
  53   6     0.00  -0.10   0.02    -0.00   0.07  -0.02    -0.00   0.00  -0.13
  54   6     0.03  -0.08   0.02    -0.03   0.06  -0.02     0.01   0.00  -0.10
  55   6     0.06  -0.10   0.02    -0.05   0.07  -0.02     0.02   0.00  -0.13
  56   6     0.08  -0.07   0.01    -0.07   0.05  -0.01     0.02   0.00  -0.09
  57   6     0.07  -0.04   0.01    -0.06   0.02  -0.01     0.02   0.00  -0.03
  58   7     0.04  -0.05   0.01    -0.03   0.03  -0.01     0.01   0.00  -0.05
  59   6     0.08  -0.01   0.00    -0.07  -0.01   0.00     0.02   0.00   0.02
  60   6     0.07   0.02  -0.00    -0.06  -0.03   0.01     0.02   0.00   0.06
  61   7     0.04   0.02  -0.00    -0.03  -0.04   0.01     0.01   0.00   0.06
  62   1     0.03   0.01  -0.00    -0.03  -0.02   0.00     0.01   0.00   0.03
  63   1     0.02   0.03  -0.00    -0.02  -0.03   0.01     0.01   0.00   0.05
  64   1    -0.02   0.03  -0.00     0.02  -0.03   0.01    -0.00   0.00   0.05
  65   1    -0.03   0.01  -0.00     0.03  -0.02   0.00    -0.01   0.00   0.03
  66   1    -0.03  -0.00   0.00     0.03  -0.00   0.00    -0.01  -0.00   0.01
  67   1    -0.03  -0.02   0.00     0.03   0.02  -0.00    -0.01   0.00  -0.02
  68   1    -0.02  -0.04   0.01     0.01   0.03  -0.01    -0.01   0.00  -0.05
  69   1     0.00  -0.04   0.01    -0.00   0.03  -0.01    -0.00   0.00  -0.05
  70   1     0.02  -0.04   0.01    -0.02   0.03  -0.01     0.01   0.00  -0.05
  71   1     0.03  -0.02   0.00    -0.03   0.01  -0.00     0.01   0.00  -0.03
  72   1     0.03  -0.00   0.00    -0.03  -0.00   0.00     0.01  -0.00   0.01
  73   6    -0.00   0.10  -0.01     0.00   0.10  -0.02    -0.00  -0.02  -0.13
  74   6    -0.00   0.12  -0.01     0.00   0.11  -0.02    -0.00  -0.02  -0.13
  75   6    -0.00   0.12  -0.02     0.00   0.11  -0.02    -0.00  -0.02  -0.13
  76   6    -0.00   0.12  -0.01     0.00   0.09  -0.01    -0.00  -0.01  -0.11
  77   6    -0.00  -0.03   0.00     0.00  -0.12   0.02     0.00   0.02   0.11
  78   6    -0.00  -0.05   0.01     0.00  -0.13   0.02     0.00   0.02   0.12
  79   6    -0.00  -0.07   0.01     0.00  -0.13   0.02     0.00   0.02   0.12
  80   6    -0.00  -0.08   0.01     0.00  -0.11   0.01     0.00   0.02   0.10
  81   6    -0.00  -0.08   0.01     0.00   0.11  -0.01     0.00  -0.01  -0.10
  82   6    -0.00  -0.06   0.01     0.00   0.13  -0.02     0.00  -0.02  -0.12
  83   6    -0.00  -0.05   0.00     0.00   0.13  -0.02     0.00  -0.02  -0.12
  84   6    -0.00  -0.03   0.00     0.00   0.12  -0.01     0.00  -0.02  -0.11
  85   6    -0.00   0.12  -0.01    -0.00  -0.09   0.01     0.00   0.01   0.11
  86   6    -0.00   0.12  -0.01    -0.00  -0.11   0.01     0.00   0.01   0.13
  87   6    -0.00   0.12  -0.01    -0.00  -0.11   0.01     0.00   0.01   0.13
  88   6     0.00   0.10  -0.01    -0.00  -0.10   0.01     0.00   0.01   0.13
  89  30    -0.00   0.11  -0.02     0.00  -0.03   0.00     0.00   0.01   0.04
  90   6    -0.06   0.09  -0.01    -0.08   0.04  -0.01     0.00  -0.01  -0.05
  91   6    -0.04   0.10  -0.01    -0.06   0.06  -0.01     0.00  -0.01  -0.08
  92   6    -0.02   0.09  -0.01    -0.03   0.05  -0.01     0.00  -0.01  -0.06
  93   6    -0.00   0.10  -0.01     0.00   0.06  -0.01    -0.00  -0.01  -0.08
  94   6     0.02   0.09  -0.01     0.03   0.05  -0.01    -0.00  -0.01  -0.06
  95   6     0.04   0.10  -0.02     0.06   0.06  -0.01    -0.00  -0.01  -0.08
  96   6     0.06   0.08  -0.02     0.08   0.04  -0.01    -0.00  -0.01  -0.05
  97   6     0.04   0.06  -0.01     0.06   0.01  -0.00    -0.00  -0.00  -0.02
  98   7     0.02   0.07  -0.01     0.04   0.02  -0.00    -0.00  -0.00  -0.03
  99   6     0.05   0.04  -0.01     0.08  -0.02   0.00    -0.00   0.00   0.02
 100   6     0.04   0.03  -0.01     0.06  -0.04   0.00    -0.00   0.01   0.05
 101   6     0.06   0.00  -0.01     0.08  -0.07   0.01    -0.00   0.01   0.08
 102   6     0.04  -0.01  -0.00     0.06  -0.09   0.01    -0.00   0.02   0.10
 103   6     0.02   0.00  -0.00     0.03  -0.08   0.01    -0.00   0.01   0.08
 104   7     0.02   0.02  -0.01     0.03  -0.05   0.01    -0.00   0.01   0.06
 105   6    -0.00  -0.01   0.00     0.00  -0.09   0.01     0.00   0.01   0.10
 106   6    -0.02   0.00   0.00    -0.03  -0.08   0.01     0.00   0.01   0.08
 107   6    -0.04  -0.01   0.00    -0.06  -0.09   0.01     0.00   0.02   0.10
 108   6    -0.06   0.01   0.00    -0.08  -0.07   0.01     0.00   0.01   0.08
 109   6    -0.05   0.03  -0.00    -0.06  -0.04   0.00     0.00   0.01   0.05
 110   7    -0.03   0.02  -0.00    -0.03  -0.05   0.01     0.00   0.01   0.06
 111   6    -0.06   0.05  -0.00    -0.08  -0.01   0.00     0.00   0.00   0.02
 112   6    -0.05   0.07  -0.01    -0.06   0.01  -0.00     0.00  -0.00  -0.02
 113   7    -0.03   0.07  -0.01    -0.03   0.02  -0.00     0.00  -0.00  -0.03
 114   1    -0.02   0.03  -0.00    -0.03   0.01  -0.00     0.00  -0.00  -0.02
 115   1    -0.01   0.03  -0.00    -0.02   0.03  -0.00     0.00  -0.00  -0.03
 116   1     0.01   0.03  -0.01     0.02   0.02  -0.00    -0.00  -0.00  -0.03
 117   1     0.02   0.03  -0.00     0.03   0.01  -0.00    -0.00  -0.00  -0.01
 118   1     0.02   0.01  -0.00     0.03  -0.00   0.00    -0.00   0.00   0.01
 119   1     0.02   0.00  -0.00     0.03  -0.02   0.00    -0.00   0.00   0.03
 120   1     0.01  -0.01   0.00     0.02  -0.03   0.00    -0.00   0.01   0.04
 121   1    -0.01  -0.01   0.00    -0.02  -0.03   0.00     0.00   0.01   0.04
 122   1    -0.02   0.00   0.00    -0.03  -0.02   0.00     0.00   0.00   0.03
 123   1    -0.02   0.01  -0.00    -0.03  -0.00   0.00     0.00   0.00   0.01
 124  30    -0.00  -0.19   0.02     0.00   0.00  -0.00     0.00   0.00   0.00
 125   6    -0.00  -0.08   0.01     0.08  -0.06   0.01    -0.00   0.01   0.06
 126   6    -0.00  -0.08   0.01     0.06  -0.08   0.01    -0.00   0.01   0.08
 127   6    -0.00  -0.08   0.01     0.03  -0.07   0.01    -0.00   0.01   0.07
 128   6    -0.00  -0.08   0.01     0.00  -0.08   0.01     0.00   0.01   0.08
 129   6    -0.00  -0.08   0.01    -0.03  -0.07   0.01     0.00   0.01   0.07
 130   6    -0.00  -0.08   0.01    -0.06  -0.08   0.01     0.00   0.01   0.09
 131   6    -0.00  -0.08   0.01    -0.08  -0.06   0.01     0.00   0.01   0.06
 132   6    -0.00  -0.08   0.01    -0.07  -0.03   0.00     0.00   0.01   0.03
 133   7    -0.00  -0.08   0.01    -0.04  -0.04   0.00     0.00   0.01   0.04
 134   6    -0.00  -0.08   0.01    -0.08   0.00  -0.00     0.00   0.00   0.00
 135   6    -0.00  -0.08   0.01    -0.07   0.03  -0.01     0.00  -0.00  -0.03
 136   6    -0.00  -0.08   0.01    -0.08   0.06  -0.01     0.00  -0.01  -0.06
 137   6    -0.00  -0.08   0.01    -0.06   0.08  -0.01     0.00  -0.01  -0.08
 138   6    -0.00  -0.08   0.01    -0.03   0.07  -0.01     0.00  -0.01  -0.07
 139   7    -0.00  -0.08   0.01    -0.04   0.04  -0.01     0.00  -0.00  -0.04
 140   6    -0.00  -0.08   0.01     0.00   0.08  -0.01     0.00  -0.01  -0.08
 141   6    -0.00  -0.08   0.01     0.03   0.07  -0.01    -0.00  -0.01  -0.07
 142   6    -0.00  -0.08   0.01     0.06   0.08  -0.01    -0.00  -0.01  -0.09
 143   6    -0.00  -0.08   0.01     0.08   0.06  -0.01    -0.00  -0.01  -0.06
 144   6    -0.00  -0.08   0.01     0.07   0.03  -0.01    -0.00  -0.00  -0.03
 145   7    -0.00  -0.08   0.01     0.04   0.04  -0.01    -0.00  -0.00  -0.04
 146   6    -0.00  -0.08   0.01     0.08   0.00  -0.00    -0.00   0.00  -0.00
 147   6    -0.00  -0.08   0.01     0.07  -0.03   0.00    -0.00   0.01   0.03
 148   7    -0.00  -0.09   0.01     0.04  -0.04   0.00    -0.00   0.01   0.04
 149   1    -0.00  -0.02   0.00     0.03  -0.02   0.00    -0.00   0.00   0.02
 150   1    -0.00  -0.02   0.00     0.02  -0.03   0.00    -0.00   0.00   0.03
 151   1    -0.00  -0.02   0.00    -0.02  -0.03   0.00     0.00   0.00   0.03
 152   1    -0.00  -0.02   0.00    -0.03  -0.02   0.00     0.00   0.00   0.02
 153   1    -0.00  -0.02   0.00    -0.03   0.00  -0.00     0.00   0.00   0.00
 154   1    -0.00  -0.02   0.00    -0.03   0.02  -0.00     0.00  -0.00  -0.02
 155   1    -0.00  -0.02   0.00    -0.02   0.03  -0.00     0.00  -0.00  -0.03
 156   1    -0.00  -0.02   0.00     0.02   0.03  -0.00    -0.00  -0.00  -0.03
 157   1     0.00  -0.02   0.00     0.03   0.02  -0.00    -0.00  -0.00  -0.02
 158   1    -0.00  -0.02   0.00     0.03   0.00  -0.00    -0.00   0.00  -0.00
 159  30    -0.00   0.11  -0.02    -0.00   0.03   0.00     0.00  -0.01  -0.04
 160   6     0.05   0.01  -0.00    -0.08   0.07  -0.01     0.00  -0.01  -0.09
 161   6     0.04  -0.01  -0.00    -0.06   0.09  -0.01     0.00  -0.02  -0.11
 162   6     0.02   0.00  -0.00    -0.03   0.08  -0.01     0.00  -0.01  -0.09
 163   6    -0.00  -0.01  -0.00    -0.00   0.09  -0.01     0.00  -0.01  -0.10
 164   6    -0.02   0.00  -0.00     0.03   0.08  -0.01     0.00  -0.01  -0.09
 165   6    -0.04  -0.01  -0.00     0.06   0.09  -0.01     0.00  -0.02  -0.10
 166   6    -0.06   0.01  -0.01     0.08   0.07  -0.00     0.00  -0.01  -0.08
 167   6    -0.04   0.03  -0.01     0.06   0.04  -0.00     0.00  -0.01  -0.05
 168   7    -0.03   0.02  -0.01     0.03   0.05  -0.00     0.00  -0.01  -0.06
 169   6    -0.05   0.05  -0.01     0.08   0.01   0.00    -0.00  -0.01  -0.02
 170   6    -0.04   0.06  -0.01     0.06  -0.01   0.01    -0.00  -0.00   0.02
 171   6    -0.05   0.08  -0.01     0.08  -0.04   0.01    -0.00   0.00   0.05
 172   6    -0.04   0.10  -0.01     0.06  -0.06   0.01    -0.00   0.01   0.08
 173   6    -0.02   0.09  -0.01     0.03  -0.05   0.01    -0.00   0.00   0.06
 174   7    -0.02   0.07  -0.01     0.03  -0.02   0.01    -0.00  -0.00   0.02
 175   6    -0.00   0.10  -0.01    -0.00  -0.06   0.01     0.00   0.01   0.08
 176   6     0.02   0.09  -0.01    -0.03  -0.05   0.01     0.00   0.00   0.06
 177   6     0.04   0.10  -0.01    -0.06  -0.06   0.01     0.00   0.01   0.08
 178   6     0.05   0.08  -0.01    -0.08  -0.04   0.01     0.00   0.00   0.05
 179   6     0.04   0.06  -0.01    -0.06  -0.01   0.00     0.00  -0.00   0.01
 180   7     0.02   0.07  -0.01    -0.04  -0.02   0.00     0.00  -0.00   0.02
 181   6     0.05   0.05  -0.01    -0.08   0.01   0.00     0.00  -0.01  -0.02
 182   6     0.04   0.03  -0.00    -0.06   0.04  -0.00     0.00  -0.01  -0.05
 183   7     0.02   0.02  -0.01    -0.04   0.05  -0.00     0.00  -0.01  -0.06
 184   1     0.02   0.00  -0.00    -0.03   0.02  -0.00     0.00  -0.00  -0.03
 185   1     0.01  -0.01   0.00    -0.02   0.03  -0.00     0.00  -0.01  -0.04
 186   1    -0.01  -0.01  -0.00     0.02   0.03  -0.00     0.00  -0.01  -0.04
 187   1    -0.02   0.00  -0.00     0.03   0.02  -0.00    -0.00  -0.00  -0.03
 188   1    -0.02   0.01  -0.00     0.03   0.00   0.00    -0.00  -0.00  -0.01
 189   1    -0.02   0.03  -0.00     0.03  -0.01   0.00    -0.00   0.00   0.02
 190   1    -0.01   0.03  -0.00     0.02  -0.03   0.00    -0.00   0.00   0.03
 191   1     0.01   0.03  -0.00    -0.02  -0.03   0.00     0.00   0.00   0.03
 192   1     0.02   0.03  -0.00    -0.03  -0.01   0.00     0.00   0.00   0.01
 193   1     0.02   0.01  -0.00    -0.03   0.00   0.00     0.00  -0.00  -0.01
                     13                     14                     15
                        a                      a                      a 
 Frequencies --    13.2059                18.5252                23.6745
 Red. masses --    13.5293                12.9284                14.6416
 Frc consts  --     0.0000                 0.0000                 0.0000
 IR Inten    --     0.8249                 0.3571                 2.9674
 Raman Activ --     0.0000                 0.0000                 0.0000
 Depolar     --     0.0000                 0.0000                 0.0000
 Atom AN      X      Y      Z        X      Y      Z        X      Y      Z
   1  30    -0.00  -0.00  -0.04    -0.00  -0.00  -0.05     0.00   0.03  -0.05
   2   6    -0.01  -0.01  -0.13    -0.00  -0.01  -0.11     0.04   0.04  -0.08
   3   6    -0.01  -0.01  -0.15    -0.00  -0.01  -0.11     0.03   0.05  -0.07
   4   6    -0.00  -0.01  -0.12    -0.00  -0.01  -0.09     0.01   0.05  -0.05
   5   6    -0.00  -0.01  -0.13    -0.00  -0.01  -0.08    -0.00   0.05  -0.04
   6   6     0.00  -0.01  -0.12     0.00  -0.01  -0.08    -0.01   0.05  -0.05
   7   6     0.01  -0.01  -0.15     0.00  -0.01  -0.11    -0.03   0.05  -0.07
   8   6     0.01  -0.01  -0.13     0.01  -0.00  -0.11    -0.04   0.04  -0.08
   9   6     0.01  -0.01  -0.08     0.00  -0.00  -0.08    -0.03   0.03  -0.06
  10   7     0.00  -0.01  -0.08     0.00  -0.00  -0.07    -0.02   0.03  -0.05
  11   6     0.01  -0.00  -0.03     0.00  -0.00  -0.05    -0.04   0.01  -0.05
  12   6     0.01   0.00   0.03     0.00   0.00   0.00    -0.03  -0.00  -0.01
  13   6     0.01   0.01   0.09     0.00   0.00   0.05    -0.04  -0.01   0.03
  14   6     0.00   0.01   0.14     0.00   0.00   0.10    -0.03  -0.03   0.07
  15   6     0.00   0.01   0.11     0.00   0.00   0.08    -0.01  -0.02   0.06
  16   7     0.00   0.00   0.05     0.00   0.00   0.03    -0.02  -0.00   0.01
  17   6    -0.00   0.01   0.15    -0.00   0.00   0.11    -0.00  -0.02   0.08
  18   6    -0.01   0.01   0.12    -0.00   0.00   0.08     0.01  -0.02   0.06
  19   6    -0.01   0.01   0.14    -0.00   0.00   0.10     0.03  -0.02   0.07
  20   6    -0.01   0.01   0.09    -0.01   0.00   0.05     0.04  -0.01   0.03
  21   6    -0.01   0.00   0.03    -0.00   0.00   0.00     0.03   0.00  -0.01
  22   7    -0.01   0.00   0.05    -0.00   0.00   0.03     0.02  -0.00   0.01
  23   6    -0.01  -0.00  -0.03    -0.01  -0.00  -0.05     0.04   0.01  -0.05
  24   6    -0.01  -0.01  -0.08    -0.00  -0.00  -0.08     0.03   0.03  -0.06
[...]
 140   6    -0.00   0.00  -0.00     0.00   0.00  -0.00    -0.00  -0.00   0.00
 141   6    -0.00  -0.00   0.00     0.00   0.00  -0.00    -0.00  -0.00   0.00
 142   6    -0.00   0.00  -0.00     0.01  -0.00   0.00    -0.05   0.00  -0.00
 143   6    -0.00   0.00  -0.00     0.00  -0.01   0.00    -0.00   0.03  -0.00
 144   6     0.00   0.00  -0.00    -0.00  -0.00   0.00     0.00   0.00  -0.00
 145   7     0.00  -0.00   0.00    -0.00   0.00  -0.00     0.00  -0.00   0.00
 146   6     0.00   0.00  -0.00     0.00   0.00  -0.00     0.00   0.00  -0.00
 147   6    -0.00   0.00  -0.00    -0.00   0.00  -0.00    -0.00   0.00  -0.00
 148   7    -0.00  -0.00   0.00    -0.00  -0.00   0.00    -0.00  -0.00   0.00
 149   1    -0.01  -0.09   0.01    -0.01  -0.07   0.01    -0.02  -0.14   0.02
 150   1    -0.13  -0.02   0.00    -0.11  -0.01   0.00    -0.21  -0.02   0.00
 151   1    -0.07   0.01  -0.00    -0.07   0.01  -0.00    -0.27   0.03  -0.01
 152   1    -0.01   0.05  -0.01    -0.01   0.05  -0.01    -0.02   0.19  -0.02
 153   1     0.00   0.00  -0.00     0.00   0.00  -0.00     0.00   0.00  -0.00
 154   1    -0.01  -0.05   0.01    -0.01  -0.07   0.01     0.01   0.12  -0.01
 155   1    -0.07  -0.01   0.00    -0.10  -0.01   0.00     0.18   0.02  -0.00
 156   1     0.01  -0.00   0.00    -0.04   0.00  -0.00     0.15  -0.02   0.00
 157   1     0.00  -0.00   0.00    -0.00   0.03  -0.00     0.01  -0.10   0.01
 158   1     0.00  -0.00   0.00     0.00  -0.00   0.00     0.00  -0.00   0.00
 159  30    -0.00  -0.00  -0.00    -0.00  -0.00  -0.00     0.00  -0.00  -0.00
 160   6     0.00   0.03  -0.00     0.00   0.07  -0.01    -0.00  -0.08   0.01
 161   6     0.04   0.00  -0.00     0.09   0.01  -0.00    -0.11  -0.01   0.00
 162   6     0.00  -0.00   0.00     0.00  -0.00   0.00    -0.00   0.00  -0.00
 163   6     0.00   0.00  -0.00     0.00   0.00  -0.00    -0.00  -0.00   0.00
 164   6     0.00   0.00  -0.00     0.00   0.00  -0.00    -0.00  -0.00   0.00
 165   6     0.01  -0.00   0.00     0.05  -0.00   0.00    -0.09   0.01  -0.00
 166   6     0.00  -0.01   0.00     0.00  -0.04   0.00    -0.00   0.07  -0.01
 167   6    -0.00  -0.00   0.00    -0.00  -0.00   0.00     0.00   0.00  -0.00
 168   7    -0.00   0.00  -0.00    -0.00   0.00  -0.00     0.00  -0.00   0.00
 169   6     0.00   0.00  -0.00     0.00  -0.00   0.00     0.00   0.00  -0.00
 170   6    -0.00   0.00  -0.00    -0.00   0.00  -0.00    -0.00   0.00  -0.00
 171   6     0.00   0.04  -0.00     0.00   0.06  -0.01     0.00   0.07  -0.01
 172   6     0.05   0.00  -0.00     0.09   0.01  -0.00     0.10   0.01  -0.00
 173   6     0.00  -0.00   0.00     0.00  -0.00   0.00     0.00  -0.00   0.00
 174   7    -0.00  -0.00   0.00    -0.00  -0.00   0.00    -0.00  -0.00   0.00
 175   6     0.00   0.00  -0.00     0.00   0.00  -0.00     0.00   0.00  -0.00
 176   6     0.00   0.00  -0.00     0.00   0.00  -0.00     0.00   0.00  -0.00
 177   6     0.02  -0.00   0.00     0.05  -0.00   0.00     0.07  -0.01   0.00
 178   6     0.00  -0.01   0.00     0.00  -0.03   0.00     0.00  -0.05   0.01
 179   6    -0.00  -0.00   0.00    -0.00  -0.00   0.00    -0.00  -0.00   0.00
 180   7    -0.00   0.00  -0.00    -0.00   0.00  -0.00    -0.00   0.00  -0.00
 181   6     0.00  -0.00   0.00     0.00   0.00  -0.00    -0.00  -0.00   0.00
 182   6    -0.00   0.00  -0.00    -0.00   0.00  -0.00     0.00  -0.00   0.00
 183   7    -0.00  -0.00   0.00    -0.00  -0.00   0.00     0.00   0.00  -0.00
 184   1    -0.01  -0.09   0.01    -0.02  -0.21   0.02     0.03   0.26  -0.03
 185   1    -0.13  -0.01   0.00    -0.30  -0.03   0.00     0.37   0.04  -0.01
 186   1    -0.03   0.00  -0.00    -0.17   0.02  -0.00     0.30  -0.04   0.01
 187   1    -0.00   0.02  -0.00    -0.01   0.12  -0.01     0.02  -0.21   0.02
 188   1     0.00  -0.00   0.00     0.00   0.00  -0.00    -0.00  -0.01   0.00
 189   1    -0.01  -0.12   0.01    -0.02  -0.20   0.02    -0.03  -0.23   0.03
 190   1    -0.17  -0.02   0.00    -0.29  -0.03   0.00    -0.33  -0.04   0.00
 191   1    -0.07   0.01  -0.00    -0.15   0.02  -0.00    -0.24   0.03  -0.00
 192   1    -0.00   0.04  -0.00    -0.01   0.10  -0.01    -0.02   0.16  -0.02
 193   1     0.00   0.00  -0.00     0.00  -0.00   0.00    -0.00   0.01  -0.00
                    571                    572                    573
                        a                      a                      a 
 Frequencies --  3166.2967              3166.4615              3166.6108
 Red. masses --     1.9661                 1.9665                 1.9668
 Frc consts  --     0.0000                 0.0000                 0.0000
 IR Inten    --    34.2922                14.8125                 5.0289
 Raman Activ --     0.0000                 0.0000                 0.0000
 Depolar     --     0.0000                 0.0000                 0.0000
 Atom AN      X      Y      Z        X      Y      Z        X      Y      Z
   1  30     0.00  -0.00  -0.00     0.00   0.00   0.00    -0.00  -0.00  -0.00
   2   6    -0.00   0.02  -0.00     0.00  -0.01   0.00    -0.00   0.01  -0.00
   3   6    -0.03   0.00  -0.00     0.01  -0.00   0.00    -0.01   0.00  -0.00
   4   6    -0.00  -0.00   0.00     0.00   0.00  -0.00    -0.00  -0.00  -0.00
   5   6    -0.00   0.00  -0.00    -0.00  -0.00   0.00     0.00   0.00  -0.00
   6   6    -0.00   0.00  -0.00    -0.00  -0.00   0.00     0.00   0.00   0.00
   7   6    -0.02  -0.00  -0.00     0.00   0.00   0.00    -0.00  -0.00  -0.00
   8   6    -0.00  -0.01  -0.00     0.00   0.00   0.00    -0.00  -0.00  -0.00
   9   6     0.00  -0.00   0.00    -0.00   0.00   0.00     0.00  -0.00  -0.00
  10   7     0.00   0.00   0.00     0.00  -0.00   0.00    -0.00   0.00  -0.00
  11   6    -0.00  -0.00  -0.00     0.00   0.00   0.00    -0.00  -0.00  -0.00
  12   6    -0.00  -0.00   0.00     0.00   0.00   0.00     0.00   0.00  -0.00
  13   6     0.00  -0.00   0.00    -0.00   0.00  -0.00     0.00  -0.00   0.00
  14   6     0.00  -0.00   0.00    -0.00   0.00  -0.00     0.00  -0.00   0.00
  15   6     0.00   0.00   0.00    -0.00  -0.00  -0.00     0.00   0.00   0.00
  16   7    -0.00   0.00   0.00     0.00  -0.00   0.00    -0.00  -0.00   0.00
  17   6     0.00   0.00   0.00    -0.00  -0.00  -0.00     0.00   0.00   0.00
  18   6     0.00  -0.00   0.00    -0.00   0.00  -0.00     0.00  -0.00   0.00
  19   6     0.00   0.00   0.00    -0.00  -0.00  -0.00     0.00   0.00   0.00
  20   6     0.00   0.00  -0.00    -0.00  -0.00   0.00     0.00   0.00  -0.00
  21   6    -0.00   0.00  -0.00     0.00  -0.00   0.00    -0.00  -0.00  -0.00
  22   7    -0.00  -0.00   0.00     0.00   0.00   0.00    -0.00  -0.00   0.00
  23   6    -0.00   0.00  -0.00     0.00  -0.00   0.00    -0.00   0.00  -0.00
  24   6     0.00   0.00   0.00    -0.00  -0.00  -0.00     0.00   0.00   0.00
  25   7     0.00  -0.00   0.00    -0.00   0.00  -0.00     0.00  -0.00   0.00
  26   1     0.01  -0.07   0.00    -0.00   0.02  -0.00     0.00  -0.02   0.00
  27   1     0.10  -0.01   0.00    -0.03   0.00  -0.00     0.03  -0.00   0.00
  28   1     0.06   0.01   0.00    -0.00  -0.00  -0.00     0.00   0.00   0.00
  29   1     0.00   0.04   0.00    -0.00  -0.00  -0.00     0.00   0.00   0.00
  30   1    -0.00   0.00  -0.00    -0.00  -0.00  -0.00     0.00   0.00  -0.00
  31   1    -0.00   0.00  -0.00     0.00  -0.00   0.00    -0.00   0.00  -0.00
  32   1    -0.00   0.00  -0.00     0.00  -0.00   0.00    -0.00   0.00  -0.00
  33   1    -0.00  -0.00  -0.00     0.00   0.00   0.00    -0.00  -0.00  -0.00
  34   1    -0.00  -0.00  -0.00     0.01   0.00   0.00    -0.01  -0.00  -0.00
  35   1    -0.00  -0.01   0.00     0.00   0.01  -0.00    -0.00  -0.01   0.00
  36   1    -0.00  -0.00   0.00     0.00   0.00  -0.00     0.00  -0.00   0.00
  37  30     0.00   0.00  -0.00     0.00   0.00  -0.00     0.00   0.00  -0.00
  38   6    -0.00   0.01   0.00     0.00  -0.00  -0.00    -0.00   0.00   0.00
  39   6    -0.01   0.00   0.00     0.00  -0.00  -0.00    -0.00   0.00   0.00
  40   6    -0.00  -0.00  -0.00     0.00   0.00   0.00    -0.00  -0.00  -0.00
  41   6     0.00  -0.00  -0.00    -0.00  -0.00  -0.00    -0.00  -0.00  -0.00
  42   6    -0.00   0.00   0.00    -0.00   0.00   0.00    -0.00   0.00   0.00
  43   6    -0.02  -0.00  -0.00    -0.00  -0.00  -0.00    -0.00  -0.00  -0.00
  44   6    -0.00  -0.01  -0.00    -0.00  -0.00  -0.00    -0.00  -0.00  -0.00
  45   6     0.00  -0.00  -0.00     0.00  -0.00  -0.00     0.00  -0.00  -0.00
  46   7     0.00   0.00   0.00     0.00  -0.00  -0.00     0.00   0.00  -0.00
  47   6    -0.00  -0.00  -0.00     0.00   0.00   0.00     0.00  -0.00  -0.00
  48   6    -0.00  -0.00  -0.00     0.00   0.00   0.00    -0.00  -0.00  -0.00
  49   6     0.00  -0.00  -0.00    -0.00   0.00   0.00    -0.00   0.00   0.00
  50   6     0.00  -0.00  -0.00    -0.00   0.00   0.00    -0.00   0.00   0.00
  51   6     0.00   0.00   0.00    -0.00  -0.00  -0.00    -0.00  -0.00  -0.00
  52   7    -0.00   0.00   0.00     0.00  -0.00  -0.00     0.00   0.00   0.00
  53   6     0.00  -0.00  -0.00    -0.00  -0.00  -0.00     0.00  -0.00  -0.00
  54   6     0.00  -0.00  -0.00    -0.00   0.00   0.00    -0.00   0.00   0.00
  55   6     0.00   0.00   0.00    -0.00  -0.00  -0.00    -0.00  -0.00  -0.00
  56   6     0.00   0.00   0.00    -0.00  -0.00  -0.00    -0.00  -0.00  -0.00
  57   6    -0.00   0.00   0.00     0.00  -0.00  -0.00    -0.00   0.00   0.00
  58   7    -0.00  -0.00  -0.00     0.00   0.00   0.00     0.00  -0.00  -0.00
  59   6    -0.00   0.00   0.00     0.00  -0.00  -0.00     0.00   0.00   0.00
  60   6     0.00   0.00   0.00    -0.00  -0.00  -0.00    -0.00   0.00   0.00
  61   7     0.00  -0.00  -0.00     0.00   0.00   0.00     0.00   0.00   0.00
  62   1     0.00  -0.03  -0.01    -0.00   0.01   0.00     0.00  -0.00  -0.00
  63   1     0.05  -0.00  -0.00    -0.01   0.00   0.00     0.01  -0.00  -0.00
  64   1     0.05   0.01   0.00     0.01   0.00   0.00     0.01   0.00   0.00
  65   1     0.00   0.03   0.01     0.00   0.01   0.00     0.00   0.01   0.00
  66   1    -0.00   0.00   0.00    -0.00  -0.00  -0.00    -0.00   0.00   0.00
  67   1    -0.00   0.01   0.00     0.00  -0.01  -0.00     0.00  -0.00  -0.00
  68   1    -0.01   0.00   0.00     0.01  -0.00  -0.00     0.00  -0.00  -0.00
  69   1    -0.00  -0.00   0.00     0.00   0.00  -0.00    -0.00  -0.00   0.00
  70   1    -0.01  -0.00  -0.00     0.01   0.00   0.00     0.00   0.00   0.00
  71   1    -0.00  -0.01  -0.00     0.00   0.01   0.00     0.00   0.00   0.00
  72   1    -0.00  -0.00  -0.00    -0.00   0.00   0.00    -0.00  -0.00  -0.00
  73   6     0.00   0.00  -0.00    -0.00  -0.00  -0.00     0.00   0.00  -0.00
  74   6    -0.00  -0.00   0.00     0.00   0.00  -0.00    -0.00  -0.00   0.00
  75   6     0.00  -0.00   0.00    -0.00   0.00  -0.00     0.00  -0.00   0.00
  76   6     0.00   0.00  -0.00    -0.00  -0.00   0.00     0.00   0.00  -0.00
  77   6     0.00  -0.00   0.00     0.00  -0.00   0.00     0.00   0.00  -0.00
  78   6    -0.00   0.00  -0.00    -0.00   0.00  -0.00    -0.00  -0.00   0.00
  79   6     0.00   0.00  -0.00     0.00   0.00  -0.00     0.00   0.00  -0.00
  80   6     0.00  -0.00   0.00     0.00  -0.00   0.00     0.00  -0.00   0.00
  81   6     0.00  -0.00   0.00     0.00  -0.00   0.00    -0.00   0.00  -0.00
  82   6     0.00   0.00  -0.00    -0.00   0.00  -0.00    -0.00  -0.00   0.00
  83   6    -0.00   0.00  -0.00     0.00   0.00  -0.00     0.00  -0.00   0.00
  84   6     0.00  -0.00   0.00     0.00  -0.00   0.00    -0.00   0.00  -0.00
  85   6    -0.00  -0.00   0.00    -0.00  -0.00   0.00    -0.00  -0.00   0.00
  86   6    -0.00   0.00  -0.00    -0.00   0.00  -0.00    -0.00   0.00  -0.00
  87   6     0.00   0.00  -0.00     0.00   0.00   0.00     0.00   0.00   0.00
  88   6    -0.00  -0.00  -0.00    -0.00  -0.00  -0.00    -0.00  -0.00  -0.00
  89  30    -0.00  -0.00  -0.00     0.00   0.00   0.00    -0.00  -0.00  -0.00
  90   6     0.00   0.05  -0.01    -0.00  -0.07   0.01     0.00   0.09  -0.01
  91   6     0.08   0.01  -0.00    -0.10  -0.01   0.00     0.12   0.01  -0.00
  92   6     0.00  -0.00   0.00    -0.00   0.00  -0.00     0.00  -0.00   0.00
  93   6     0.00   0.00  -0.00    -0.00  -0.00   0.00     0.00   0.00  -0.00
  94   6     0.00   0.00  -0.00    -0.00  -0.00   0.00     0.00   0.00  -0.00
  95   6     0.05  -0.00   0.00    -0.07   0.01  -0.00     0.09  -0.01   0.00
  96   6     0.00  -0.04   0.00    -0.00   0.05  -0.01     0.00  -0.07   0.01
  97   6    -0.00  -0.00   0.00     0.00   0.00  -0.00    -0.00  -0.00   0.00
  98   7    -0.00   0.00  -0.00     0.00  -0.00   0.00    -0.00   0.00  -0.00
  99   6     0.00  -0.00   0.00    -0.00   0.00  -0.00     0.00  -0.00   0.00
 100   6     0.00  -0.00   0.00    -0.00   0.00   0.00     0.00  -0.00   0.00
 101   6    -0.00  -0.02   0.00     0.00   0.01  -0.00    -0.00  -0.02   0.00
 102   6    -0.03  -0.00   0.00     0.01   0.00  -0.00    -0.03  -0.00   0.00
 103   6    -0.00   0.00  -0.00     0.00  -0.00   0.00    -0.00   0.00  -0.00
 104   7     0.00   0.00  -0.00    -0.00  -0.00   0.00     0.00   0.00  -0.00
 105   6    -0.00   0.00  -0.00     0.00  -0.00   0.00     0.00   0.00  -0.00
 106   6    -0.00  -0.00   0.00     0.00   0.00  -0.00    -0.00  -0.00   0.00
 107   6    -0.04   0.00  -0.00     0.02  -0.00   0.00    -0.03   0.00  -0.00
 108   6    -0.00   0.03  -0.00     0.00  -0.01   0.00    -0.00   0.02  -0.00
 109   6     0.00   0.00  -0.00    -0.00  -0.00   0.00     0.00   0.00  -0.00
 110   7     0.00  -0.00   0.00    -0.00   0.00  -0.00     0.00  -0.00   0.00
 111   6     0.00   0.00  -0.00    -0.00  -0.00   0.00     0.00   0.00  -0.00
 112   6    -0.00   0.00  -0.00     0.00  -0.00   0.00    -0.00   0.00  -0.00
 113   7    -0.00  -0.00   0.00     0.00   0.00  -0.00    -0.00  -0.00   0.00
 114   1    -0.02  -0.17   0.02     0.02   0.23  -0.03    -0.03  -0.27   0.03
 115   1    -0.25  -0.03   0.00     0.33   0.04  -0.01    -0.39  -0.04   0.01
 116   1    -0.18   0.02  -0.00     0.24  -0.03   0.00    -0.31   0.04  -0.00
 117   1    -0.01   0.12  -0.01     0.02  -0.17   0.02    -0.02   0.21  -0.03
 118   1     0.00   0.00  -0.00    -0.00  -0.00   0.00     0.00   0.01  -0.00
 119   1     0.01   0.08  -0.01    -0.00  -0.02   0.00     0.01   0.06  -0.01
 120   1     0.11   0.01  -0.00    -0.03  -0.00   0.00     0.09   0.01  -0.00
 121   1     0.12  -0.01   0.00    -0.06   0.01  -0.00     0.10  -0.01   0.00
 122   1     0.01  -0.08   0.01    -0.00   0.05  -0.01     0.01  -0.07   0.01
 123   1     0.00  -0.00   0.00    -0.00   0.00  -0.00     0.00  -0.01   0.00
 124  30    -0.00   0.00   0.00    -0.00   0.00   0.00     0.00  -0.00  -0.00
 125   6     0.00   0.02  -0.00     0.00   0.07  -0.01     0.00   0.05  -0.01
 126   6     0.03   0.00  -0.00     0.10   0.01  -0.00     0.07   0.01  -0.00
 127   6     0.00  -0.00   0.00     0.00  -0.00   0.00     0.00  -0.00   0.00
 128   6    -0.00  -0.00   0.00     0.00  -0.00   0.00    -0.00  -0.00   0.00
 129   6     0.00   0.00  -0.00     0.00   0.00  -0.00     0.00   0.00  -0.00
 130   6     0.05  -0.00   0.00     0.12  -0.01   0.00     0.07  -0.01   0.00
 131   6     0.00  -0.03   0.00     0.00  -0.09   0.01     0.00  -0.05   0.01
 132   6    -0.00  -0.00   0.00    -0.00  -0.00   0.00    -0.00  -0.00   0.00
 133   7    -0.00   0.00  -0.00    -0.00   0.00  -0.00    -0.00   0.00  -0.00
 134   6     0.00   0.00  -0.00     0.00  -0.00   0.00    -0.00  -0.00   0.00
 135   6    -0.00   0.00  -0.00    -0.00   0.00  -0.00     0.00  -0.00   0.00
 136   6     0.00   0.07  -0.01     0.00   0.01  -0.00    -0.00  -0.06   0.01
 137   6     0.10   0.01  -0.00     0.02   0.00  -0.00    -0.09  -0.01   0.00
 138   6     0.00  -0.00   0.00     0.00  -0.00   0.00    -0.00   0.00  -0.00
 139   7    -0.00  -0.00   0.00    -0.00  -0.00  -0.00     0.00   0.00  -0.00
 140   6     0.00  -0.00   0.00     0.00  -0.00   0.00    -0.00   0.00  -0.00
 141   6     0.00   0.00  -0.00     0.00   0.00  -0.00    -0.00  -0.00   0.00
 142   6     0.14  -0.01   0.00     0.03  -0.00   0.00    -0.10   0.01  -0.00
 143   6     0.01  -0.10   0.01     0.00  -0.02   0.00    -0.00   0.07  -0.01
 144   6    -0.00  -0.00   0.00    -0.00  -0.00   0.00     0.00   0.00  -0.00
 145   7    -0.00   0.00  -0.00    -0.00   0.00  -0.00     0.00  -0.00   0.00
 146   6     0.00  -0.00   0.00     0.00   0.00  -0.00    -0.00   0.00  -0.00
 147   6    -0.00   0.00  -0.00    -0.00   0.00  -0.00    -0.00   0.00  -0.00
 148   7    -0.00  -0.00   0.00    -0.00  -0.00   0.00    -0.00  -0.00   0.00
 149   1    -0.01  -0.07   0.01    -0.02  -0.23   0.03    -0.02  -0.15   0.02
 150   1    -0.10  -0.01   0.00    -0.33  -0.04   0.01    -0.22  -0.03   0.00
 151   1    -0.16   0.02  -0.00    -0.39   0.05  -0.01    -0.23   0.03  -0.00
 152   1    -0.01   0.11  -0.01    -0.03   0.27  -0.03    -0.02   0.16  -0.02
 153   1     0.00  -0.00   0.00     0.00   0.00  -0.00    -0.00   0.01  -0.00
 154   1    -0.02  -0.22   0.03    -0.00  -0.04   0.00     0.02   0.20  -0.02
 155   1    -0.32  -0.04   0.00    -0.05  -0.01   0.00     0.29   0.03  -0.00
 156   1    -0.44   0.05  -0.00    -0.08   0.01  -0.00     0.32  -0.04   0.00
 157   1    -0.03   0.30  -0.03    -0.01   0.06  -0.01     0.02  -0.22   0.02
 158   1     0.00   0.00  -0.00     0.00  -0.00   0.00    -0.00  -0.01   0.00
 159  30     0.00   0.00   0.00     0.00   0.00   0.00     0.00   0.00   0.00
 160   6    -0.00  -0.06   0.01     0.00   0.03  -0.00     0.00   0.01  -0.00
 161   6    -0.09  -0.01   0.00     0.04   0.00  -0.00     0.02   0.00  -0.00
 162   6    -0.00   0.00  -0.00     0.00  -0.00   0.00     0.00  -0.00   0.00
 163   6    -0.00  -0.00   0.00    -0.00  -0.00   0.00    -0.00   0.00  -0.00
 164   6    -0.00  -0.00   0.00     0.00   0.00  -0.00     0.00   0.00  -0.00
 165   6    -0.05   0.00  -0.00     0.04  -0.00   0.00     0.01  -0.00   0.00
 166   6    -0.00   0.04  -0.00     0.00  -0.03   0.00     0.00  -0.01   0.00
 167   6     0.00   0.00  -0.00    -0.00  -0.00   0.00    -0.00  -0.00   0.00
 168   7     0.00  -0.00   0.00    -0.00   0.00  -0.00    -0.00   0.00  -0.00
 169   6    -0.00   0.00  -0.00    -0.00  -0.00   0.00    -0.00  -0.00   0.00
 170   6     0.00  -0.00   0.00     0.00  -0.00   0.00     0.00  -0.00   0.00
 171   6    -0.00  -0.03   0.00    -0.00  -0.06   0.01    -0.00  -0.04   0.00
 172   6    -0.04  -0.00   0.00    -0.09  -0.01   0.00    -0.05  -0.00   0.00
 173   6    -0.00   0.00  -0.00    -0.00   0.00  -0.00    -0.00   0.00  -0.00
 174   7     0.00   0.00  -0.00     0.00   0.00  -0.00     0.00   0.00  -0.00
 175   6    -0.00  -0.00   0.00    -0.00  -0.00   0.00    -0.00  -0.00   0.00
 176   6    -0.00  -0.00   0.00    -0.00  -0.00   0.00    -0.00  -0.00   0.00
 177   6    -0.02   0.00  -0.00    -0.06   0.01  -0.00    -0.04   0.00  -0.00
 178   6    -0.00   0.01  -0.00    -0.00   0.05  -0.01    -0.00   0.03  -0.00
 179   6     0.00   0.00  -0.00     0.00   0.00  -0.00     0.00   0.00  -0.00
 180   7     0.00  -0.00   0.00     0.00  -0.00   0.00     0.00  -0.00   0.00
 181   6    -0.00  -0.00   0.00    -0.00   0.00  -0.00     0.00   0.00  -0.00
 182   6     0.00  -0.00   0.00    -0.00   0.00  -0.00    -0.00   0.00  -0.00
 183   7     0.00   0.00  -0.00    -0.00  -0.00   0.00    -0.00  -0.00   0.00
 184   1     0.02   0.20  -0.02    -0.01  -0.08   0.01    -0.00  -0.04   0.00
 185   1     0.30   0.03  -0.00    -0.12  -0.01   0.00    -0.06  -0.01   0.00
 186   1     0.18  -0.02   0.00    -0.12   0.01  -0.00    -0.05   0.01  -0.00
 187   1     0.01  -0.12   0.01    -0.01   0.09  -0.01    -0.00   0.03  -0.00
 188   1    -0.00  -0.00   0.00    -0.00   0.00  -0.00    -0.00   0.00  -0.00
 189   1     0.01   0.08  -0.01     0.02   0.20  -0.02     0.01   0.12  -0.01
 190   1     0.12   0.01  -0.00     0.30   0.03  -0.00     0.17   0.02  -0.00
 191   1     0.05  -0.01   0.00     0.21  -0.03   0.00     0.13  -0.02   0.00
 192   1     0.00  -0.03   0.00     0.01  -0.14   0.02     0.01  -0.09   0.01
 193   1    -0.00   0.00  -0.00    -0.00  -0.00   0.00    -0.00  -0.00   0.00
