      -----------------------------------------------------------      
     |                   =====================                   |     
     |                           x T B                           |     
     |                   =====================                   |     
     |                         S. Grimme                         |     
     |          Mulliken Center for Theoretical Chemistry        |     
     |                    University of Bonn                     |     
      -----------------------------------------------------------      

   * xtb version 6.4.1 (bd6e46d) compiled by 'conda@4901f00b25ba' on 2021-06-10

   xtb is free software: you can redistribute it and/or modify it under
   the terms of the GNU Lesser General Public License as published by
   the Free Software Foundation, either version 3 of the License, or
   (at your option) any later version.
   
   xtb is distributed in the hope that it will be useful,
   but WITHOUT ANY WARRANTY; without even the implied warranty of
   MERCHANTABILITY or FITNESS FOR A PARTICULAR PURPOSE.  See the
   GNU Lesser General Public License for more details.
   
   Cite this work as:
   * C. Bannwarth, E. Caldeweyher, S. Ehlert, A. Hansen, P. Pracht,
     J. Seibert, S. Spicher, S. Grimme, WIREs Comput. Mol. Sci., 2020, 11,
     e01493. DOI: 10.1002/wcms.1493
   
   for GFN2-xTB:
   * C. Bannwarth, S. Ehlert and S. Grimme., J. Chem. Theory Comput., 2019,
     15, 1652-1671. DOI: 10.1021/acs.jctc.8b01176
   for GFN1-xTB:
   * S. Grimme, C. Bannwarth, P. Shushkov, J. Chem. Theory Comput., 2017,
     13, 1989-2009. DOI: 10.1021/acs.jctc.7b00118
   for GFN0-xTB:
   * P. Pracht, E. Caldeweyher, S. Ehlert, S. Grimme, ChemRxiv, 2019, preprint.
     DOI: 10.26434/chemrxiv.8326202.v1
   for GFN-FF:
   * S. Spicher and S. Grimme, Angew. Chem. Int. Ed., 2020, 59, 15665-15673.
     DOI: 10.1002/anie.202004239
   
   for DFT-D4:
   * E. Caldeweyher, C. Bannwarth and S. Grimme, J. Chem. Phys., 2017,
     147, 034112. DOI: 10.1063/1.4993215
   * E. Caldeweyher, S. Ehlert, A. Hansen, H. Neugebauer, S. Spicher,
     C. Bannwarth and S. Grimme, J. Chem. Phys., 2019, 150, 154122.
     DOI: 10.1063/1.5090222
   * E. Caldeweyher, J.-M. Mewes, S. Ehlert and S. Grimme, Phys. Chem. Chem. Phys.
     2020, 22, 8499-8512. DOI: 10.1039/D0CP00502A
   
   for sTDA-xTB:
   * S. Grimme and C. Bannwarth, J. Chem. Phys., 2016, 145, 054103.
     DOI: 10.1063/1.4959605
   
   in the mass-spec context:
   * V. Asgeirsson, C. Bauer and S. Grimme, Chem. Sci., 2017, 8, 4879.
     DOI: 10.1039/c7sc00601b
   * J. Koopman and S. Grimme, ACS Omega 2019, 4, 12, 15120-15133.
     DOI: 10.1021/acsomega.9b02011
   
   for metadynamics refer to:
   * S. Grimme, J. Chem. Theory Comput., 2019, 155, 2847-2862
     DOI: 10.1021/acs.jctc.9b00143
   
   for SPH calculations refer to:
   * S. Spicher and S. Grimme, J. Chem. Theory Comput., 2021, 17, 1701-1714
     DOI: 10.1021/acs.jctc.0c01306
   
   with help from (in alphabetical order)
   P. Atkinson, C. Bannwarth, F. Bohle, G. Brandenburg, E. Caldeweyher
   M. Checinski, S. Dohm, S. Ehlert, S. Ehrlich, I. Gerasimov, J. Koopman
   C. Lavigne, S. Lehtola, F. März, M. Müller, F. Musil, H. Neugebauer
   J. Pisarek, C. Plett, P. Pracht, J. Seibert, P. Shushkov, S. Spicher
   M. Stahn, M. Steiner, T. Strunk, J. Stückrath, T. Rose, and J. Unsleber
   
 * started run on 2021/11/18 at 19:36:00.597     

           -------------------------------------------------
          |                Calculation Setup                |
           -------------------------------------------------

          program call               : /home/jeff/miniconda3/bin/xtb input_structure_1.xyz --gfn 2 --ohess normal --parallel 1 --etemp 300 --chrg 0 --uhf 0 -I det_control.in
          hostname                   : jelfscompute1
          coordinate file            : input_structure_1.xyz
          omp threads                :                     1
          number of atoms            :                   193
          number of electrons        :                   626
          charge                     :                     0
          spin                       :                   0.0
          first test random number   :      0.53733971374601

   ID    Z sym.   atoms
    1   30 Zn     1, 37, 89, 124, 159
    2    6 C      2-9, 11-15, 17-21, 23, 24, 38-45, 47-51, 53-57, 59, 60,
                  73-88, 90-97, 99-103, 105-109, 111, 112, 125-132, 134-138,
                  140-144, 146, 147, 160-167, 169-173, 175-179, 181, 182
    3    7 N      10, 16, 22, 25, 46, 52, 58, 61, 98, 104, 110, 113, 133,
                  139, 145, 148, 168, 174, 180, 183
    4    1 H      26-36, 62-72, 114-123, 149-158, 184-193

molecular fragmentation (1/2 indicates fragments):
111111111111111111111111111111111111222222222222222222222222222222222222
222222222222222222222222222222222222222222222222222222222222222222222222
2222222222222222222222222222222222222222222222222
# atoms in fragment 1/2:    36   157
 fragment masses (1/2) :      372.71     1679.97
CMA distance (Bohr)    :  65.355
constraining FC (au)   :  0.0500

           -------------------------------------------------
          |                 G F N 2 - x T B                 |
           -------------------------------------------------

        Reference                      10.1021/acs.jctc.8b01176
      * Hamiltonian:
        H0-scaling (s, p, d)           1.850000    2.230000    2.230000
        zeta-weighting                 0.500000
      * Dispersion:
        s8                             2.700000
        a1                             0.520000
        a2                             5.000000
        s9                             5.000000
      * Repulsion:
        kExp                           1.500000    1.000000
        rExp                           1.000000
      * Coulomb:
        alpha                          2.000000
        third order                    shell-resolved
        anisotropic                    true
        a3                             3.000000
        a5                             4.000000
        cn-shift                       1.200000
        cn-exp                         4.000000
        max-rad                        5.000000


          ...................................................
          :                      SETUP                      :
          :.................................................:
          :  # basis functions                 616          :
          :  # atomic orbitals                 616          :
          :  # shells                          334          :
          :  # electrons                       626          :
          :  max. iterations                   250          :
          :  Hamiltonian                  GFN2-xTB          :
          :  restarted?                      false          :
          :  GBSA solvation                  false          :
          :  PC potential                    false          :
          :  electronic temp.          300.0000000     K    :
          :  accuracy                    1.0000000          :
          :  -> integral cutoff          0.2500000E+02      :
          :  -> integral neglect         0.1000000E-07      :
          :  -> SCF convergence          0.1000000E-05 Eh   :
          :  -> wf. convergence          0.1000000E-03 e    :
          :  Broyden damping             0.4000000          :
          ...................................................

 iter      E             dE          RMSdq      gap      omega  full diag
   1   -339.7975788 -0.339798E+03  0.703E+00    0.05       0.0  T
   2   -329.0718668  0.107257E+02  0.491E+00    0.05       1.0  T
   3   -255.5881958  0.734837E+02  0.841E+00    0.01       1.0  T
   4   -178.6738649  0.769143E+02  0.168E+01    0.04       1.0  T
   5   -317.5866887 -0.138913E+03  0.523E+00    0.18       1.0  T
   6   -323.7174091 -0.613072E+01  0.418E+00    0.02       1.0  T
   7   -336.0957532 -0.123783E+02  0.310E+00    0.03       1.0  T
   8   -339.3914218 -0.329567E+01  0.250E+00    0.19       1.0  T
   9   -340.0557978 -0.664376E+00  0.191E+00    0.15       1.0  T
  10   -339.3799711  0.675827E+00  0.197E+00    0.25       1.0  T
  11   -340.3502732 -0.970302E+00  0.155E+00    0.23       1.0  T
  12   -340.9413694 -0.591096E+00  0.113E+00    0.01       1.0  T
  13   -341.0855915 -0.144222E+00  0.901E-01    0.04       1.0  T
  14   -341.0897600 -0.416851E-02  0.747E-01    0.02       1.0  T
  15   -341.2243042 -0.134544E+00  0.472E-01    0.10       1.0  T
  16   -341.0539906  0.170314E+00  0.639E-01    0.03       1.0  T
  17   -341.2369523 -0.182962E+00  0.401E-01    0.09       1.0  T
  18   -341.2447828 -0.783047E-02  0.299E-01    0.08       1.0  T
  19   -341.2504348 -0.565200E-02  0.263E-01    0.15       1.0  T
  20   -341.2581497 -0.771495E-02  0.217E-01    0.11       1.0  T
  21   -341.2625909 -0.444117E-02  0.160E-01    0.14       1.0  T
  22   -341.2704031 -0.781218E-02  0.995E-02    0.09       1.0  T
  23   -341.2706177 -0.214619E-03  0.914E-02    0.10       1.0  T
  24   -341.2672655  0.335223E-02  0.108E-01    0.06       1.0  T
  25   -341.2722423 -0.497683E-02  0.585E-02    0.08       1.0  T
  26   -341.2704072  0.183508E-02  0.658E-02    0.07       1.0  T
  27   -341.2727954 -0.238816E-02  0.356E-02    0.08       1.0  T
  28   -341.2722686  0.526750E-03  0.405E-02    0.07       1.0  T
  29   -341.2729635 -0.694844E-03  0.296E-02    0.08       1.0  T
  30   -341.2731495 -0.185985E-03  0.248E-02    0.09       1.0  T
  31   -341.2731695 -0.199954E-04  0.215E-02    0.09       1.0  T
  32   -341.2731800 -0.105915E-04  0.189E-02    0.09       1.0  T
  33   -341.2731897 -0.963117E-05  0.154E-02    0.09       1.0  T
  34   -341.2731939 -0.423639E-05  0.132E-02    0.09       1.0  T
  35   -341.2732052 -0.112922E-04  0.111E-02    0.09       1.0  T
  36   -341.2732109 -0.570781E-05  0.991E-03    0.09       1.0  T
  37   -341.2732148 -0.388208E-05  0.872E-03    0.09       1.0  T
  38   -341.2732181 -0.329299E-05  0.697E-03    0.09       1.0  T
  39   -341.2732228 -0.471252E-05  0.494E-03    0.09       1.5  T
  40   -341.2732266 -0.375901E-05  0.223E-03    0.09       3.2  T
  41   -341.2732278 -0.124750E-05  0.917E-04    0.09       7.8  T
  42   -341.2732278  0.572148E-07  0.716E-04    0.09      10.1  T
  43   -341.2732279 -0.137076E-06  0.550E-04    0.09      13.1  T

   *** convergence criteria satisfied after 43 iterations ***

         #    Occupation            Energy/Eh            Energy/eV
      -------------------------------------------------------------
         1        2.0000           -0.6830524             -18.5868
       ...           ...                  ...                  ...
       307        2.0000           -0.3613906              -9.8339
       308        2.0000           -0.3613214              -9.8321
       309        2.0000           -0.3523925              -9.5891
       310        2.0000           -0.3523520              -9.5880
       311        2.0000           -0.3516893              -9.5700
       312        1.9977           -0.3433821              -9.3439
       313        1.5844           -0.3382073              -9.2031 (HOMO)
       314        0.2162           -0.3349310              -9.1139 (LUMO)
       315        0.2017           -0.3348575              -9.1119
       316                         -0.3193592              -8.6902
       317                         -0.3171470              -8.6300
       318                         -0.3170536              -8.6275
       ...                                ...                  ...
       616                          1.6196181              44.0721
      -------------------------------------------------------------
                  HL-Gap            0.0032763 Eh            0.0892 eV
             Fermi-level           -0.3369360 Eh           -9.1685 eV

 SCC (total)                   0 d,  0 h,  0 min,  4.463 sec
 SCC setup                      ...        0 min,  0.007 sec (  0.147%)
 Dispersion                     ...        0 min,  0.022 sec (  0.495%)
 classical contributions        ...        0 min,  0.001 sec (  0.034%)
 integral evaluation            ...        0 min,  0.120 sec (  2.685%)
 iterations                     ...        0 min,  4.011 sec ( 89.867%)
 molecular gradient             ...        0 min,  0.291 sec (  6.521%)
 printout                       ...        0 min,  0.011 sec (  0.251%)

         :::::::::::::::::::::::::::::::::::::::::::::::::::::
         ::                     SUMMARY                     ::
         :::::::::::::::::::::::::::::::::::::::::::::::::::::
         :: total energy            -334.845263841685 Eh    ::
         :: gradient norm              0.829537348861 Eh/a0 ::
         :: HOMO-LUMO gap              0.089152984477 eV    ::
         ::.................................................::
         :: SCC energy              -341.273227888027 Eh    ::
         :: -> isotropic ES            0.340860037877 Eh    ::
         :: -> anisotropic ES          0.039736602278 Eh    ::
         :: -> anisotropic XC          0.221289698295 Eh    ::
         :: -> dispersion             -0.299498651266 Eh    ::
         :: repulsion energy           6.427921467146 Eh    ::
         :: add. restraining           0.000000000000 Eh    ::
         :: total charge              -0.000000000012 e     ::
         :::::::::::::::::::::::::::::::::::::::::::::::::::::

      ----------------------------------------------------------- 
     |                   =====================                   |
     |                        A N C O P T                        |
     |                   =====================                   |
     |               Approximate Normal Coordinate               |
     |                Rational Function Optimizer                |
      ----------------------------------------------------------- 

          ...................................................
          :                      SETUP                      :
          :.................................................:
          :   optimization level            normal          :
          :   max. optcycles                   579          :
          :   ANC micro-cycles                  20          :
          :   degrees of freedom               573          :
          :.................................................:
          :   RF solver                   davidson          :
          :   write xtbopt.log                true          :
          :   linear?                        false          :
          :   energy convergence         0.5000000E-05 Eh   :
          :   grad. convergence          0.1000000E-02 Eh/α :
          :   maximium RF displ.         1.0000000          :
          :   Hlow (freq-cutoff)         0.1000000E-01      :
          :   Hmax (freq-cutoff)         5.0000000          :
          :   S6 in model hess.         20.0000000          :
          ...................................................

generating ANC from model Hessian ...
Using Lindh-Hessian (1995)
 Shifting diagonal of input Hessian by    1.0124415709642346E-002
 Lowest  eigenvalues of input Hessian
    0.010000    0.010039    0.010094    0.010097    0.010097    0.010099
    0.010106    0.010109    0.010110    0.010112    0.010117    0.010117
    0.010118    0.010122    0.000000    0.000000    0.000000    0.000000
 Highest eigenvalues
    2.576439    2.576440    2.785519    2.844620    2.909723    2.909725


........................................................................
.............................. CYCLE    1 ..............................
........................................................................
   1   -341.2732280 -0.341273E+03  0.171E-04    0.09       0.0  T
   2   -341.2732277  0.223835E-06  0.609E-04    0.09      11.8  T
   3   -341.2732278 -0.656316E-07  0.450E-04    0.09      16.0  T
     SCC iter.                  ...        0 min,  0.286 sec
     gradient                   ...        0 min,  0.290 sec
 * total energy  :  -334.8452638 Eh     change        0.9099568E-07 Eh
   gradient norm :     0.8295526 Eh/α   predicted     0.0000000E+00 (-100.00%)
   displ. norm   :     0.5580601 α      lambda       -0.3788837E+00
   maximum displ.:     0.1657185 α      in ANC's #198, #197, #196, ...

........................................................................
.............................. CYCLE    2 ..............................
........................................................................
   1   -341.2479617 -0.341248E+03  0.371E-01    0.07       0.0  T
   2   -341.1703253  0.776364E-01  0.474E-01    0.04       1.0  T
   3   -340.7946410  0.375684E+00  0.749E-01    0.05       1.0  T
   4   -341.1733942 -0.378753E+00  0.485E-01    0.29       1.0  T
   5   -341.2369385 -0.635443E-01  0.269E-01    0.06       1.0  T
   6   -341.1602087  0.767298E-01  0.483E-01    0.02       1.0  T
   7   -341.2464322 -0.862235E-01  0.201E-01    0.16       1.0  T
   8   -341.2332845  0.131477E-01  0.214E-01    0.03       1.0  T
   9   -341.2604677 -0.271832E-01  0.121E-01    0.13       1.0  T
  10   -341.2656733 -0.520565E-02  0.776E-02    0.10       1.0  T
  11   -341.2651988  0.474559E-03  0.800E-02    0.10       1.0  T
  12   -341.2671491 -0.195035E-02  0.471E-02    0.09       1.0  T
  13   -341.2680429 -0.893824E-03  0.322E-02    0.09       1.0  T
  14   -341.2685323 -0.489362E-03  0.161E-02    0.08       1.0  T
  15   -341.2684701  0.622309E-04  0.174E-02    0.08       1.0  T
  16   -341.2686164 -0.146322E-03  0.962E-03    0.08       1.0  T
  17   -341.2686003  0.161281E-04  0.924E-03    0.08       1.0  T
  18   -341.2686629 -0.626117E-04  0.347E-03    0.08       2.1  T
  19   -341.2686678 -0.497227E-05  0.183E-03    0.08       3.9  T
  20   -341.2686702 -0.231835E-05  0.673E-04    0.08      10.7  T
  21   -341.2686702 -0.130448E-07  0.504E-04    0.08      14.3  T
  22   -341.2686703 -0.107487E-06  0.354E-04    0.08      20.3  T
     SCC iter.                  ...        0 min,  2.049 sec
     gradient                   ...        0 min,  0.290 sec
 * total energy  :  -335.1443108 Eh     change       -0.2990471E+00 Eh
   gradient norm :     0.4621083 Eh/α   predicted    -0.2484832E+00 ( -16.91%)
   displ. norm   :     0.6382724 α      lambda       -0.2382618E+00
   maximum displ.:     0.2236836 α      in ANC's #198, #197, #196, ...

........................................................................
.............................. CYCLE    3 ..............................
........................................................................
   1   -341.3073533 -0.341307E+03  0.387E-01    0.05       0.0  T
   2   -341.2315309  0.758223E-01  0.522E-01    0.12       1.0  T
   3   -341.1561090  0.754219E-01  0.639E-01    0.01       1.0  T
   4   -340.9974928  0.158616E+00  0.711E-01    0.10       1.0  T
   5   -341.2607451 -0.263252E+00  0.355E-01    0.16       1.0  T
   6   -340.9619872  0.298758E+00  0.699E-01    0.13       1.0  T
   7   -341.2487309 -0.286744E+00  0.373E-01    0.08       1.0  T
   8   -341.2921934 -0.434625E-01  0.296E-01    0.12       1.0  T
   9   -341.2895827  0.261066E-02  0.196E-01    0.02       1.0  T
  10   -341.3187139 -0.291312E-01  0.923E-02    0.06       1.0  T
  11   -341.3235799 -0.486601E-02  0.500E-02    0.08       1.0  T
  12   -341.3234475  0.132393E-03  0.473E-02    0.07       1.0  T
  13   -341.3245647 -0.111719E-02  0.309E-02    0.07       1.0  T
  14   -341.3245934 -0.287199E-04  0.219E-02    0.07       1.0  T
  15   -341.3249938 -0.400422E-03  0.424E-03    0.07       1.7  T
  16   -341.3250028 -0.893153E-05  0.197E-03    0.07       3.6  T
  17   -341.3250024  0.388591E-06  0.163E-03    0.06       4.4  T
  18   -341.3250029 -0.550652E-06  0.107E-03    0.07       6.7  T
  19   -341.3250035 -0.544439E-06  0.585E-04    0.07      12.3  T
  20   -341.3250036 -0.154582E-06  0.306E-04    0.07      23.6  T
     SCC iter.                  ...        0 min,  1.868 sec
     gradient                   ...        0 min,  0.290 sec
 * total energy  :  -335.3182800 Eh     change       -0.1739692E+00 Eh
   gradient norm :     0.1869100 Eh/α   predicted    -0.1676639E+00 (  -3.62%)
   displ. norm   :     0.7112425 α      lambda       -0.1088952E+00
   maximum displ.:     0.2751241 α      in ANC's #198, #197, #196, ...

........................................................................
.............................. CYCLE    4 ..............................
........................................................................
   1   -341.4062413 -0.341406E+03  0.308E-01    0.09       0.0  T
   2   -340.8251689  0.581072E+00  0.105E+00    0.05       1.0  T
   3   -340.7572068  0.679621E-01  0.900E-01    0.11       1.0  T
   4   -341.3547001 -0.597493E+00  0.420E-01    0.15       1.0  T
   5   -341.3825132 -0.278132E-01  0.295E-01    0.08       1.0  T
   6   -341.3323134  0.501998E-01  0.429E-01    0.22       1.0  T
   7   -341.3873976 -0.550842E-01  0.259E-01    0.13       1.0  T
   8   -341.4037833 -0.163857E-01  0.156E-01    0.05       1.0  T
   9   -341.4079798 -0.419645E-02  0.127E-01    0.09       1.0  T
  10   -341.4156313 -0.765148E-02  0.656E-02    0.08       1.0  T
  11   -341.4158182 -0.186983E-03  0.635E-02    0.08       1.0  T
  12   -341.4161282 -0.309957E-03  0.591E-02    0.07       1.0  T
  13   -341.4154501  0.678065E-03  0.517E-02    0.07       1.0  T
  14   -341.4172036 -0.175349E-02  0.154E-02    0.07       1.0  T
  15   -341.4169274  0.276249E-03  0.231E-02    0.06       1.0  T
  16   -341.4173399 -0.412500E-03  0.639E-03    0.06       1.1  T
  17   -341.4172830  0.568255E-04  0.921E-03    0.06       1.0  T
  18   -341.4173466 -0.635301E-04  0.333E-03    0.06       2.2  T
  19   -341.4173517 -0.511731E-05  0.198E-03    0.06       3.6  T
  20   -341.4173520 -0.351791E-06  0.183E-03    0.06       3.9  T
  21   -341.4173542 -0.215391E-05  0.924E-04    0.06       7.8  T
  22   -341.4173547 -0.525882E-06  0.357E-04    0.06      20.1  T
  23   -341.4173548 -0.677401E-07  0.114E-04    0.06      62.9  T
     SCC iter.                  ...        0 min,  2.146 sec
     gradient                   ...        0 min,  0.291 sec
 * total energy  :  -335.4048240 Eh     change       -0.8654400E-01 Eh
   gradient norm :     0.1020346 Eh/α   predicted    -0.8199083E-01 (  -5.26%)
   displ. norm   :     0.7697321 α      lambda       -0.7029240E-01
   maximum displ.:     0.2701147 α      in ANC's #198, #197, #196, ...

........................................................................
.............................. CYCLE    5 ..............................
........................................................................
   1   -341.4857879 -0.341486E+03  0.298E-01    0.11       0.0  T
   2   -340.7602740  0.725514E+00  0.114E+00    0.07       1.0  T
   3   -341.3717367 -0.611463E+00  0.515E-01    0.21       1.0  T
   4   -341.4345209 -0.627842E-01  0.449E-01    0.13       1.0  T
   5   -341.4624493 -0.279285E-01  0.313E-01    0.08       1.0  T
   6   -341.4631936 -0.744314E-03  0.274E-01    0.05       1.0  T
   7   -341.4775786 -0.143850E-01  0.168E-01    0.09       1.0  T
   8   -341.4874639 -0.988530E-02  0.118E-01    0.09       1.0  T
   9   -341.4950828 -0.761885E-02  0.663E-02    0.08       1.0  T
  10   -341.4955040 -0.421252E-03  0.638E-02    0.08       1.0  T
  11   -341.4955368 -0.328163E-04  0.624E-02    0.08       1.0  T
  12   -341.4968118 -0.127496E-02  0.351E-02    0.07       1.0  T
  13   -341.4970989 -0.287079E-03  0.208E-02    0.06       1.0  T
  14   -341.4972212 -0.122367E-03  0.167E-02    0.06       1.0  T
  15   -341.4973918 -0.170574E-03  0.735E-03    0.07       1.0  T
  16   -341.4973956 -0.376332E-05  0.573E-03    0.07       1.3  T
  17   -341.4974138 -0.182167E-04  0.198E-03    0.07       3.6  T
  18   -341.4974146 -0.816406E-06  0.128E-03    0.07       5.6  T
  19   -341.4974147 -0.103651E-06  0.109E-03    0.07       6.6  T
  20   -341.4974154 -0.644493E-06  0.433E-04    0.07      16.6  T
  21   -341.4974155 -0.146485E-06  0.167E-04    0.07      43.1  T
     SCC iter.                  ...        0 min,  1.960 sec
     gradient                   ...        0 min,  0.290 sec
 * total energy  :  -335.4637251 Eh     change       -0.5890105E-01 Eh
   gradient norm :     0.0798393 Eh/α   predicted    -0.5597071E-01 (  -4.98%)
   displ. norm   :     0.8022263 α      lambda       -0.5138606E-01
   maximum displ.:     0.2372361 α      in ANC's #198, #106, #101, ...

........................................................................
.............................. CYCLE    6 ..............................
........................................................................
   1   -341.5580456 -0.341558E+03  0.288E-01    0.12       0.0  T
   2   -340.7099543  0.848091E+00  0.118E+00    0.12       1.0  T
   3   -341.5132111 -0.803257E+00  0.329E-01    0.26       1.0  T
   4   -341.4500516  0.631594E-01  0.612E-01    0.18       1.0  T
   5   -341.5482785 -0.982269E-01  0.197E-01    0.15       1.0  T
   6   -341.5483060 -0.274822E-04  0.179E-01    0.14       1.0  T
   7   -341.5519011 -0.359506E-02  0.148E-01    0.10       1.0  T
   8   -341.5585464 -0.664528E-02  0.119E-01    0.13       1.0  T
   9   -341.5599939 -0.144751E-02  0.104E-01    0.12       1.0  T
  10   -341.5602505 -0.256642E-03  0.102E-01    0.12       1.0  T
  11   -341.5608126 -0.562073E-03  0.964E-02    0.12       1.0  T
  12   -341.5646581 -0.384555E-02  0.491E-02    0.09       1.0  T
  13   -341.5661768 -0.151862E-02  0.149E-02    0.08       1.0  T
  14   -341.5662898 -0.113063E-03  0.875E-03    0.08       1.0  T
  15   -341.5661582  0.131577E-03  0.152E-02    0.08       1.0  T
  16   -341.5662958 -0.137521E-03  0.420E-03    0.08       1.7  T
  17   -341.5663045 -0.873387E-05  0.119E-03    0.08       6.0  T
  18   -341.5663036  0.923479E-06  0.160E-03    0.08       4.5  T
  19   -341.5663046 -0.105555E-05  0.818E-04    0.08       8.8  T
  20   -341.5663049 -0.253626E-06  0.359E-04    0.08      20.1  T
  21   -341.5663049 -0.480744E-07  0.179E-04    0.08      40.3  T
     SCC iter.                  ...        0 min,  1.960 sec
     gradient                   ...        0 min,  0.290 sec
 * total energy  :  -335.5076445 Eh     change       -0.4391946E-01 Eh
   gradient norm :     0.0619253 Eh/α   predicted    -0.4222823E-01 (  -3.85%)
   displ. norm   :     0.8216804 α      lambda       -0.3855900E-01
   maximum displ.:     0.2510411 α      in ANC's #106, #101, #103, ...

........................................................................
.............................. CYCLE    7 ..............................
........................................................................
   1   -341.6147951 -0.341615E+03  0.279E-01    0.13       0.0  T
   2   -340.7510666  0.863728E+00  0.115E+00    0.09       1.0  T
   3   -341.5883898 -0.837323E+00  0.299E-01    0.26       1.0  T
   4   -341.3751837  0.213206E+00  0.824E-01    0.23       1.0  T
   5   -341.5946817 -0.219498E+00  0.273E-01    0.16       1.0  T
   6   -341.5917379  0.294377E-02  0.256E-01    0.26       1.0  T
   7   -341.5973797 -0.564176E-02  0.225E-01    0.22       1.0  T
   8   -341.6065281 -0.914842E-02  0.165E-01    0.15       1.0  T
   9   -341.6101083 -0.358020E-02  0.135E-01    0.17       1.0  T
  10   -341.6111631 -0.105478E-02  0.126E-01    0.16       1.0  T
  11   -341.6112744 -0.111322E-03  0.126E-01    0.16       1.0  T
  12   -341.6148712 -0.359680E-02  0.970E-02    0.14       1.0  T
  13   -341.6188381 -0.396687E-02  0.541E-02    0.12       1.0  T
  14   -341.6184917  0.346379E-03  0.570E-02    0.11       1.0  T
  15   -341.6200306 -0.153890E-02  0.282E-02    0.10       1.0  T
  16   -341.6202797 -0.249094E-03  0.224E-02    0.10       1.0  T
  17   -341.6204745 -0.194762E-03  0.114E-02    0.09       1.0  T
  18   -341.6205349 -0.604733E-04  0.621E-03    0.09       1.2  T
  19   -341.6205708 -0.358695E-04  0.120E-03    0.09       6.0  T
  20   -341.6205704  0.429806E-06  0.124E-03    0.09       5.8  T
  21   -341.6205707 -0.341115E-06  0.101E-03    0.09       7.1  T
  22   -341.6205713 -0.543855E-06  0.559E-04    0.09      12.9  T
  23   -341.6205714 -0.105123E-06  0.416E-04    0.09      17.3  T
     SCC iter.                  ...        0 min,  2.115 sec
     gradient                   ...        0 min,  0.291 sec
 * total energy  :  -335.5410782 Eh     change       -0.3343366E-01 Eh
   gradient norm :     0.0461276 Eh/α   predicted    -0.3229625E-01 (  -3.40%)
   displ. norm   :     0.8440902 α      lambda       -0.2983807E-01
   maximum displ.:     0.2614387 α      in ANC's #30, #33, #106, ...

........................................................................
.............................. CYCLE    8 ..............................
........................................................................
   1   -341.6480705 -0.341648E+03  0.273E-01    0.15       0.0  T
   2   -340.8239689  0.824102E+00  0.109E+00    0.05       1.0  T
   3   -341.6041368 -0.780168E+00  0.406E-01    0.25       1.0  T
   4   -341.5395979  0.645389E-01  0.569E-01    0.23       1.0  T
   5   -341.6215961 -0.819982E-01  0.305E-01    0.19       1.0  T
   6   -341.6267227 -0.512662E-02  0.288E-01    0.21       1.0  T
   7   -341.6355677 -0.884503E-02  0.209E-01    0.21       1.0  T
   8   -341.6449848 -0.941712E-02  0.138E-01    0.15       1.0  T
   9   -341.6452897 -0.304896E-03  0.132E-01    0.17       1.0  T
  10   -341.6467438 -0.145405E-02  0.115E-01    0.16       1.0  T
  11   -341.6470907 -0.346879E-03  0.112E-01    0.16       1.0  T
  12   -341.6483693 -0.127867E-02  0.997E-02    0.15       1.0  T
  13   -341.6517559 -0.338660E-02  0.627E-02    0.14       1.0  T
  14   -341.6522802 -0.524259E-03  0.523E-02    0.12       1.0  T
  15   -341.6533870 -0.110679E-02  0.265E-02    0.11       1.0  T
  16   -341.6535551 -0.168094E-03  0.247E-02    0.11       1.0  T
  17   -341.6538368 -0.281694E-03  0.100E-02    0.11       1.0  T
  18   -341.6538790 -0.422262E-04  0.355E-03    0.11       2.0  T
  19   -341.6538607  0.182770E-04  0.572E-03    0.10       1.3  T
  20   -341.6538675 -0.674543E-05  0.490E-03    0.10       1.5  T
  21   -341.6538871 -0.196174E-04  0.613E-04    0.10      11.7  T
  22   -341.6538872 -0.145421E-06  0.362E-04    0.10      19.9  T
  23   -341.6538873 -0.912913E-07  0.102E-04    0.10      70.6  T
     SCC iter.                  ...        0 min,  2.113 sec
     gradient                   ...        0 min,  0.290 sec
 * total energy  :  -335.5675312 Eh     change       -0.2645297E-01 Eh
   gradient norm :     0.0369519 Eh/α   predicted    -0.2554868E-01 (  -3.42%)
   displ. norm   :     0.8789024 α      lambda       -0.2476017E-01
   maximum displ.:     0.3097226 α      in ANC's #30, #33, #27, ...

........................................................................
.............................. CYCLE    9 ..............................
........................................................................
   1   -341.6637339 -0.341664E+03  0.267E-01    0.18       0.0  T
   2   -340.8955574  0.768177E+00  0.103E+00    0.02       1.0  T
   3   -341.6191809 -0.723624E+00  0.418E-01    0.28       1.0  T
   4   -341.6122573  0.692358E-02  0.417E-01    0.23       1.0  T
   5   -341.6326893 -0.204319E-01  0.336E-01    0.24       1.0  T
   6   -341.6549286 -0.222394E-01  0.214E-01    0.23       1.0  T
   7   -341.6599734 -0.504473E-02  0.154E-01    0.20       1.0  T
   8   -341.6637957 -0.382238E-02  0.116E-01    0.20       1.0  T
   9   -341.6654771 -0.168135E-02  0.953E-02    0.18       1.0  T
  10   -341.6654026  0.744440E-04  0.944E-02    0.19       1.0  T
  11   -341.6660715 -0.668898E-03  0.875E-02    0.17       1.0  T
  12   -341.6672672 -0.119564E-02  0.723E-02    0.17       1.0  T
  13   -341.6691616 -0.189448E-02  0.435E-02    0.15       1.0  T
  14   -341.6700970 -0.935303E-03  0.143E-02    0.13       1.0  T
  15   -341.6698778  0.219166E-03  0.221E-02    0.13       1.0  T
  16   -341.6699992 -0.121424E-03  0.146E-02    0.12       1.0  T
  17   -341.6699467  0.525202E-04  0.171E-02    0.12       1.0  T
  18   -341.6701806 -0.233921E-03  0.208E-03    0.12       3.5  T
  19   -341.6701787  0.186639E-05  0.200E-03    0.12       3.6  T
  20   -341.6701820 -0.320622E-05  0.712E-04    0.12      10.1  T
  21   -341.6701823 -0.307728E-06  0.260E-04    0.12      27.6  T
  22   -341.6701823 -0.259330E-07  0.161E-04    0.12      44.7  T
     SCC iter.                  ...        0 min,  2.048 sec
     gradient                   ...        0 min,  0.291 sec
 * total energy  :  -335.5903722 Eh     change       -0.2284108E-01 Eh
   gradient norm :     0.0330113 Eh/α   predicted    -0.2194335E-01 (  -3.93%)
   displ. norm   :     0.9258740 α      lambda       -0.2307493E-01
   maximum displ.:     0.3546696 α      in ANC's #27, #30, #33, ...

........................................................................
.............................. CYCLE   10 ..............................
........................................................................
   1   -341.6711724 -0.341671E+03  0.266E-01    0.23       0.0  T
   2   -341.2296733  0.441499E+00  0.787E-01    0.06       1.0  T
   3   -341.6420205 -0.412347E+00  0.343E-01    0.26       1.0  T
   4   -341.6352788  0.674169E-02  0.364E-01    0.26       1.0  T
   5   -341.6451951 -0.991624E-02  0.324E-01    0.42       1.0  T
   6   -341.6644428 -0.192477E-01  0.186E-01    0.35       1.0  T
   7   -341.6690262 -0.458346E-02  0.147E-01    0.24       1.0  T
   8   -341.6718030 -0.277674E-02  0.112E-01    0.27       1.0  T
   9   -341.6737641 -0.196115E-02  0.840E-02    0.25       1.0  T
  10   -341.6739689 -0.204729E-03  0.800E-02    0.25       1.0  T
  11   -341.6750515 -0.108263E-02  0.649E-02    0.23       1.0  T
  12   -341.6767745 -0.172298E-02  0.304E-02    0.18       1.0  T
  13   -341.6772356 -0.461102E-03  0.110E-02    0.16       1.0  T
  14   -341.6772289  0.662434E-05  0.872E-03    0.14       1.0  T
  15   -341.6771819  0.470100E-04  0.127E-02    0.16       1.0  T
  16   -341.6769755  0.206399E-03  0.200E-02    0.13       1.0  T
  17   -341.6772787 -0.303166E-03  0.355E-03    0.15       2.0  T
  18   -341.6772857 -0.696278E-05  0.105E-03    0.15       6.9  T
  19   -341.6772853  0.383609E-06  0.117E-03    0.15       6.1  T
  20   -341.6772861 -0.799049E-06  0.403E-04    0.15      17.9  T
  21   -341.6772860  0.997741E-07  0.534E-04    0.15      13.5  T
     SCC iter.                  ...        0 min,  1.954 sec
     gradient                   ...        0 min,  0.291 sec
 * total energy  :  -335.6129095 Eh     change       -0.2253722E-01 Eh
   gradient norm :     0.0324549 Eh/α   predicted    -0.2142788E-01 (  -4.92%)
   displ. norm   :     0.9742611 α      lambda       -0.2456117E-01
   maximum displ.:     0.4045864 α      in ANC's #27, #30, #15, ...

........................................................................
.............................. CYCLE   11 ..............................
........................................................................
   1   -341.6752036 -0.341675E+03  0.285E-01    0.31       0.0  T
   2   -341.5632857  0.111918E+00  0.452E-01    0.03       1.0  T
   3   -341.6577185 -0.944327E-01  0.260E-01    0.35       1.0  T
   4   -341.6659692 -0.825072E-02  0.220E-01    0.44       1.0  T
   5   -341.6637043  0.226486E-02  0.224E-01    0.39       1.0  T
   6   -341.6761036 -0.123993E-01  0.935E-02    0.33       1.0  T
   7   -341.6774980 -0.139445E-02  0.909E-02    0.36       1.0  T
   8   -341.6786156 -0.111757E-02  0.642E-02    0.38       1.0  T
   9   -341.6794303 -0.814700E-03  0.468E-02    0.35       1.0  T
  10   -341.6796629 -0.232592E-03  0.350E-02    0.32       1.0  T
  11   -341.6801469 -0.484018E-03  0.169E-02    0.24       1.0  T
  12   -341.6802274 -0.804888E-04  0.102E-02    0.18       1.0  T
  13   -341.6802693 -0.418703E-04  0.709E-03    0.22       1.0  T
  14   -341.6802991 -0.298183E-04  0.143E-03    0.20       5.0  T
  15   -341.6802998 -0.726044E-06  0.720E-04    0.20      10.0  T
  16   -341.6803000 -0.152425E-06  0.378E-04    0.20      19.0  T
     SCC iter.                  ...        0 min,  1.471 sec
     gradient                   ...        0 min,  0.290 sec
 * total energy  :  -335.6382103 Eh     change       -0.2530080E-01 Eh
   gradient norm :     0.0362263 Eh/α   predicted    -0.2393713E-01 (  -5.39%)
   displ. norm   :     0.9624811 α      lambda       -0.2657817E-01
   maximum displ.:     0.4229301 α      in ANC's #27, #15, #30, ...

........................................................................
.............................. CYCLE   12 ..............................
........................................................................
   1   -341.6652273 -0.341665E+03  0.279E-01    0.42       0.0  T
   2   -341.6516876  0.135397E-01  0.270E-01    0.25       1.0  T
   3   -341.6456513  0.603632E-02  0.303E-01    0.40       1.0  T
   4   -341.6553268 -0.967549E-02  0.206E-01    0.46       1.0  T
   5   -341.6675989 -0.122721E-01  0.454E-02    0.35       1.0  T
   6   -341.6678711 -0.272224E-03  0.260E-02    0.32       1.0  T
   7   -341.6680741 -0.203032E-03  0.682E-03    0.34       1.1  T
   8   -341.6680787 -0.460975E-05  0.447E-03    0.34       1.6  T
   9   -341.6680771  0.168211E-05  0.361E-03    0.34       2.0  T
  10   -341.6680801 -0.303828E-05  0.160E-03    0.33       4.5  T
  11   -341.6680807 -0.621530E-06  0.682E-04    0.34      10.6  T
  12   -341.6680808 -0.649208E-07  0.341E-04    0.34      21.1  T
     SCC iter.                  ...        0 min,  1.124 sec
     gradient                   ...        0 min,  0.291 sec
 * total energy  :  -335.6665030 Eh     change       -0.2829274E-01 Eh
   gradient norm :     0.0487588 Eh/α   predicted    -0.2559970E-01 (  -9.52%)
   displ. norm   :     0.9275752 α      lambda       -0.3068349E-01
   maximum displ.:     0.4307857 α      in ANC's #27, #15, #30, ...

........................................................................
.............................. CYCLE   13 ..............................
........................................................................
   1   -341.6569226 -0.341657E+03  0.273E-01    0.63       0.0  T
   2   -341.6514629  0.545975E-02  0.213E-01    0.55       1.0  T
   3   -341.6414438  0.100191E-01  0.272E-01    0.66       1.0  T
   4   -341.6546124 -0.131686E-01  0.122E-01    0.68       1.0  T
   5   -341.6585708 -0.395843E-02  0.351E-02    0.63       1.0  T
   6   -341.6588231 -0.252258E-03  0.809E-03    0.63       1.0  T
   7   -341.6588339 -0.108219E-04  0.496E-03    0.63       1.5  T
   8   -341.6588361 -0.214257E-05  0.283E-03    0.63       2.5  T
   9   -341.6588370 -0.922447E-06  0.170E-03    0.63       4.2  T
  10   -341.6588378 -0.832875E-06  0.498E-04    0.63      14.4  T
  11   -341.6588378 -0.215883E-07  0.340E-04    0.63      21.2  T
     SCC iter.                  ...        0 min,  1.017 sec
     gradient                   ...        0 min,  0.292 sec
 * total energy  :  -335.6996370 Eh     change       -0.3313399E-01 Eh
   gradient norm :     0.0622004 Eh/α   predicted    -0.2854180E-01 ( -13.86%)
   displ. norm   :     0.8946613 α      lambda       -0.3607799E-01
   maximum displ.:     0.4329842 α      in ANC's #27, #15, #30, ...

........................................................................
.............................. CYCLE   14 ..............................
........................................................................
   1   -341.6507662 -0.341651E+03  0.255E-01    0.98       0.0  T
   2   -341.6483156  0.245060E-02  0.184E-01    0.95       1.0  T
   3   -341.6413926  0.692305E-02  0.221E-01    1.03       1.0  T
   4   -341.6511427 -0.975009E-02  0.621E-02    1.03       1.0  T
   5   -341.6518852 -0.742583E-03  0.334E-02    1.01       1.0  T
   6   -341.6521587 -0.273460E-03  0.604E-03    1.01       1.2  T
   7   -341.6521640 -0.529887E-05  0.384E-03    1.01       1.9  T
   8   -341.6521663 -0.224453E-05  0.222E-03    1.01       3.2  T
   9   -341.6521672 -0.922356E-06  0.102E-03    1.01       7.0  T
  10   -341.6521674 -0.193638E-06  0.421E-04    1.01      17.1  T
  11   -341.6521674 -0.162701E-07  0.272E-04    1.01      26.4  T
     SCC iter.                  ...        0 min,  1.030 sec
     gradient                   ...        0 min,  0.291 sec
 * total energy  :  -335.7379263 Eh     change       -0.3828934E-01 Eh
   gradient norm :     0.0733289 Eh/α   predicted    -0.3247782E-01 ( -15.18%)
   displ. norm   :     0.8712046 α      lambda       -0.4106688E-01
   maximum displ.:     0.4382100 α      in ANC's #27, #15, #30, ...

........................................................................
.............................. CYCLE   15 ..............................
........................................................................
   1   -341.6486902 -0.341649E+03  0.232E-01    1.10       0.0  T
   2   -341.6473560  0.133423E-02  0.166E-01    1.10       1.0  T
   3   -341.6429000  0.445602E-02  0.178E-01    1.10       1.0  T
   4   -341.6495302 -0.663028E-02  0.304E-02    1.10       1.0  T
   5   -341.6496668 -0.136529E-03  0.171E-02    1.10       1.0  T
   6   -341.6497328 -0.659984E-04  0.510E-03    1.10       1.4  T
   7   -341.6497355 -0.269957E-05  0.338E-03    1.10       2.1  T
   8   -341.6497369 -0.141205E-05  0.175E-03    1.10       4.1  T
   9   -341.6497376 -0.716668E-06  0.741E-04    1.10       9.7  T
  10   -341.6497377 -0.989855E-07  0.335E-04    1.10      21.5  T
     SCC iter.                  ...        0 min,  0.938 sec
     gradient                   ...        0 min,  0.291 sec
 * total energy  :  -335.7789376 Eh     change       -0.4101129E-01 Eh
   gradient norm :     0.0738217 Eh/α   predicted    -0.3611839E-01 ( -11.93%)
   displ. norm   :     0.9561717 α      lambda       -0.5638860E-01
   maximum displ.:     0.4531104 α      in ANC's #27, #15, #62, ...

........................................................................
.............................. CYCLE   16 ..............................
........................................................................
   1   -341.6836389 -0.341684E+03  0.296E-01    1.05       0.0  T
   2   -341.6806944  0.294450E-02  0.234E-01    1.05       1.0  T
   3   -341.6784832  0.221119E-02  0.190E-01    1.05       1.0  T
   4   -341.6853680 -0.688477E-02  0.500E-02    1.05       1.0  T
   5   -341.6858658 -0.497847E-03  0.193E-02    1.05       1.0  T
   6   -341.6859675 -0.101731E-03  0.868E-03    1.05       1.0  T
   7   -341.6859824 -0.148517E-04  0.420E-03    1.05       1.7  T
   8   -341.6859840 -0.161852E-05  0.244E-03    1.05       3.0  T
   9   -341.6859850 -0.997008E-06  0.105E-03    1.05       6.8  T
  10   -341.6859853 -0.241033E-06  0.481E-04    1.05      15.0  T
  11   -341.6859853 -0.269459E-07  0.265E-04    1.05      27.1  T
     SCC iter.                  ...        0 min,  1.030 sec
     gradient                   ...        0 min,  0.291 sec
 * total energy  :  -335.8180592 Eh     change       -0.3912153E-01 Eh
   gradient norm :     0.1205483 Eh/α   predicted    -0.5397147E-01 (  37.96%)
   displ. norm   :     0.7039209 α      lambda       -0.3974410E-01
   maximum displ.:     0.3409489 α      in ANC's #27, #15, #30, ...

........................................................................
.............................. CYCLE   17 ..............................
........................................................................
   1   -341.6723816 -0.341672E+03  0.155E-01    1.05       0.0  T
   2   -341.6719737  0.407830E-03  0.114E-01    1.05       1.0  T
   3   -341.6698186  0.215509E-02  0.109E-01    1.05       1.0  T
   4   -341.6725951 -0.277645E-02  0.256E-02    1.05       1.0  T
   5   -341.6727580 -0.162924E-03  0.682E-03    1.05       1.1  T
   6   -341.6727677 -0.964223E-05  0.354E-03    1.05       2.0  T
   7   -341.6727693 -0.160741E-05  0.231E-03    1.05       3.1  T
   8   -341.6727699 -0.643528E-06  0.835E-04    1.05       8.6  T
   9   -341.6727700 -0.812797E-07  0.444E-04    1.05      16.2  T
     SCC iter.                  ...        0 min,  0.844 sec
     gradient                   ...        0 min,  0.290 sec
 * total energy  :  -335.8539061 Eh     change       -0.3584695E-01 Eh
   gradient norm :     0.0867142 Eh/α   predicted    -0.2971875E-01 ( -17.10%)
   displ. norm   :     0.8037348 α      lambda       -0.4641009E-01
   maximum displ.:     0.4031717 α      in ANC's #27, #15, #16, ...

........................................................................
.............................. CYCLE   18 ..............................
........................................................................
   1   -341.7410531 -0.341741E+03  0.193E-01    1.02       0.0  T
   2   -341.7401007  0.952369E-03  0.150E-01    1.02       1.0  T
   3   -341.7385827  0.151803E-02  0.119E-01    1.02       1.0  T
   4   -341.7414421 -0.285939E-02  0.373E-02    1.02       1.0  T
   5   -341.7418190 -0.376981E-03  0.925E-03    1.02       1.0  T
   6   -341.7418366 -0.175563E-04  0.404E-03    1.02       1.8  T
   7   -341.7418381 -0.150887E-05  0.235E-03    1.02       3.1  T
   8   -341.7418384 -0.295665E-06  0.133E-03    1.02       5.4  T
   9   -341.7418389 -0.550833E-06  0.403E-04    1.02      17.9  T
  10   -341.7418390 -0.293395E-07  0.200E-04    1.02      36.1  T
     SCC iter.                  ...        0 min,  0.935 sec
     gradient                   ...        0 min,  0.291 sec
 * total energy  :  -335.8862276 Eh     change       -0.3232151E-01 Eh
   gradient norm :     0.0645483 Eh/α   predicted    -0.3819532E-01 (  18.17%)
   displ. norm   :     0.8521359 α      lambda       -0.3056688E-01
   maximum displ.:     0.4829246 α      in ANC's #27, #15, #30, ...

........................................................................
.............................. CYCLE   19 ..............................
........................................................................
   1   -341.7638989 -0.341764E+03  0.155E-01    1.03       0.0  T
   2   -341.7637476  0.151321E-03  0.102E-01    1.03       1.0  T
   3   -341.7600991  0.364852E-02  0.102E-01    1.03       1.0  T
   4   -341.7639906 -0.389149E-02  0.169E-02    1.03       1.0  T
   5   -341.7640587 -0.681515E-04  0.434E-03    1.03       1.7  T
   6   -341.7640614 -0.263679E-05  0.247E-03    1.03       2.9  T
   7   -341.7640615 -0.166981E-06  0.170E-03    1.03       4.2  T
   8   -341.7640623 -0.752649E-06  0.539E-04    1.03      13.3  T
   9   -341.7640624 -0.616101E-07  0.270E-04    1.03      26.7  T
     SCC iter.                  ...        0 min,  0.834 sec
     gradient                   ...        0 min,  0.291 sec
 * total energy  :  -335.9127433 Eh     change       -0.2651573E-01 Eh
   gradient norm :     0.0595823 Eh/α   predicted    -0.2638130E-01 (  -0.51%)
   displ. norm   :     0.8900239 α      lambda       -0.3183337E-01
   maximum displ.:     0.4603899 α      in ANC's #15, #27, #16, ...

........................................................................
.............................. CYCLE   20 ..............................
........................................................................
   1   -341.8137502 -0.341814E+03  0.177E-01    1.02       0.0  T
   2   -341.8136080  0.142264E-03  0.115E-01    1.02       1.0  T
   3   -341.8106305  0.297744E-02  0.105E-01    1.02       1.0  T
   4   -341.8138698 -0.323930E-02  0.218E-02    1.02       1.0  T
   5   -341.8140109 -0.141118E-03  0.592E-03    1.02       1.2  T
   6   -341.8140184 -0.748337E-05  0.294E-03    1.02       2.5  T
   7   -341.8140192 -0.819423E-06  0.168E-03    1.02       4.3  T
   8   -341.8140195 -0.242296E-06  0.733E-04    1.02       9.8  T
   9   -341.8140196 -0.121705E-06  0.271E-04    1.02      26.5  T
     SCC iter.                  ...        0 min,  0.868 sec
     gradient                   ...        0 min,  0.290 sec
 * total energy  :  -335.9367733 Eh     change       -0.2403001E-01 Eh
   gradient norm :     0.0687081 Eh/α   predicted    -0.2852497E-01 (  18.71%)
   displ. norm   :     0.8602030 α      lambda       -0.2909909E-01
   maximum displ.:     0.4809791 α      in ANC's #15, #27, #16, ...
 * RMSD in coord.:     0.9226070 α      energy gain  -0.1091510E+01 Eh

generating ANC from model Hessian ...
Using Lindh-Hessian (1995)
 Shifting diagonal of input Hessian by    1.0021393296532620E-002
 Lowest  eigenvalues of input Hessian
    0.010000    0.010009    0.010013    0.010016    0.010016    0.010018
    0.010018    0.010018    0.010020    0.010020    0.010020    0.000000
    0.000000    0.000000    0.000000    0.000000    0.000000    0.010025
 Highest eigenvalues
    2.341501    2.346128    2.556129    2.557697    2.853278    2.859173


........................................................................
.............................. CYCLE   21 ..............................
........................................................................
   1   -341.8638539 -0.341864E+03  0.138E-01    0.98       0.0  T
   2   -341.8635925  0.261442E-03  0.986E-02    0.98       1.0  T
   3   -341.8622701  0.132232E-02  0.892E-02    0.98       1.0  T
   4   -341.8640200 -0.174985E-02  0.216E-02    0.98       1.0  T
   5   -341.8641554 -0.135425E-03  0.599E-03    0.98       1.2  T
   6   -341.8641661 -0.106768E-04  0.242E-03    0.98       3.0  T
   7   -341.8641665 -0.411412E-06  0.157E-03    0.98       4.6  T
   8   -341.8641668 -0.356260E-06  0.848E-04    0.98       8.5  T
   9   -341.8641671 -0.204507E-06  0.225E-04    0.98      32.0  T
     SCC iter.                  ...        0 min,  0.844 sec
     gradient                   ...        0 min,  0.290 sec
 * total energy  :  -335.9590855 Eh     change       -0.2231212E-01 Eh
   gradient norm :     0.0622815 Eh/α   predicted     0.0000000E+00 (-100.00%)
   displ. norm   :     0.7381474 α      lambda       -0.2100952E-01
   maximum displ.:     0.4988271 α      in ANC's #41, #32, #27, ...

........................................................................
.............................. CYCLE   22 ..............................
........................................................................
   1   -341.9034323 -0.341903E+03  0.935E-02    0.97       0.0  T
   2   -341.9033663  0.659893E-04  0.606E-02    0.97       1.0  T
   3   -341.9020556  0.131062E-02  0.639E-02    0.97       1.0  T
   4   -341.9034628 -0.140714E-02  0.945E-03    0.97       1.0  T
   5   -341.9034878 -0.250134E-04  0.304E-03    0.97       2.4  T
   6   -341.9034899 -0.205666E-05  0.130E-03    0.97       5.6  T
   7   -341.9034900 -0.135487E-06  0.704E-04    0.97      10.2  T
   8   -341.9034901 -0.772017E-07  0.272E-04    0.97      26.5  T
     SCC iter.                  ...        0 min,  0.742 sec
     gradient                   ...        0 min,  0.291 sec
 * total energy  :  -335.9786596 Eh     change       -0.1957417E-01 Eh
   gradient norm :     0.0349038 Eh/α   predicted    -0.1623642E-01 ( -17.05%)
   displ. norm   :     0.9215420 α      lambda       -0.2272571E-01
   maximum displ.:     0.6066072 α      in ANC's #41, #32, #27, ...

........................................................................
.............................. CYCLE   23 ..............................
........................................................................
   1   -341.9440212 -0.341944E+03  0.117E-01    0.96       0.0  T
   2   -341.9439324  0.888655E-04  0.748E-02    0.96       1.0  T
   3   -341.9418895  0.204284E-02  0.787E-02    0.96       1.0  T
   4   -341.9440643 -0.217478E-02  0.100E-02    0.96       1.0  T
   5   -341.9440928 -0.285112E-04  0.335E-03    0.96       2.2  T
   6   -341.9440953 -0.252421E-05  0.152E-03    0.96       4.7  T
   7   -341.9440955 -0.183273E-06  0.790E-04    0.96       9.1  T
   8   -341.9440956 -0.101962E-06  0.290E-04    0.96      24.8  T
     SCC iter.                  ...        0 min,  0.743 sec
     gradient                   ...        0 min,  0.290 sec
 * total energy  :  -335.9997034 Eh     change       -0.2104374E-01 Eh
   gradient norm :     0.0253826 Eh/α   predicted    -0.2101265E-01 (  -0.15%)
   displ. norm   :     0.9452253 α      lambda       -0.2076372E-01
   maximum displ.:     0.6036755 α      in ANC's #41, #32, #27, ...

........................................................................
.............................. CYCLE   24 ..............................
........................................................................
   1   -341.9767788 -0.341977E+03  0.141E-01    0.96       0.0  T
   2   -341.9767275  0.513090E-04  0.864E-02    0.96       1.0  T
   3   -341.9746746  0.205292E-02  0.740E-02    0.96       1.0  T
   4   -341.9768107 -0.213615E-02  0.786E-03    0.96       1.0  T
   5   -341.9768271 -0.164368E-04  0.313E-03    0.96       2.3  T
   6   -341.9768291 -0.190743E-05  0.164E-03    0.96       4.4  T
   7   -341.9768293 -0.277439E-06  0.756E-04    0.96       9.5  T
   8   -341.9768294 -0.847140E-07  0.266E-04    0.96      27.1  T
     SCC iter.                  ...        0 min,  0.751 sec
     gradient                   ...        0 min,  0.290 sec
 * total energy  :  -336.0184835 Eh     change       -0.1878010E-01 Eh
   gradient norm :     0.0314570 Eh/α   predicted    -0.1965757E-01 (   4.67%)
   displ. norm   :     0.9346499 α      lambda       -0.1953876E-01
   maximum displ.:     0.5818739 α      in ANC's #41, #32, #27, ...

........................................................................
.............................. CYCLE   25 ..............................
........................................................................
   1   -342.0087680 -0.342009E+03  0.136E-01    0.95       0.0  T
   2   -342.0087485  0.194243E-04  0.815E-02    0.95       1.0  T
   3   -342.0076129  0.113562E-02  0.491E-02    0.95       1.0  T
   4   -342.0087874 -0.117452E-02  0.637E-03    0.95       1.1  T
   5   -342.0087980 -0.105589E-04  0.255E-03    0.95       2.8  T
   6   -342.0087987 -0.760206E-06  0.153E-03    0.95       4.7  T
   7   -342.0087990 -0.262721E-06  0.679E-04    0.95      10.6  T
   8   -342.0087991 -0.857114E-07  0.242E-04    0.95      29.7  T
     SCC iter.                  ...        0 min,  0.751 sec
     gradient                   ...        0 min,  0.290 sec
 * total energy  :  -336.0365689 Eh     change       -0.1808540E-01 Eh
   gradient norm :     0.0321787 Eh/α   predicted    -0.1830364E-01 (   1.21%)
   displ. norm   :     0.9384062 α      lambda       -0.1770484E-01
   maximum displ.:     0.5664724 α      in ANC's #41, #32, #27, ...

........................................................................
.............................. CYCLE   26 ..............................
........................................................................
   1   -342.0384065 -0.342038E+03  0.128E-01    0.95       0.0  T
   2   -342.0383848  0.217565E-04  0.769E-02    0.95       1.0  T
   3   -342.0372704  0.111439E-02  0.541E-02    0.95       1.0  T
   4   -342.0384304 -0.116009E-02  0.622E-03    0.95       1.2  T
   5   -342.0384401 -0.964754E-05  0.215E-03    0.95       3.4  T
   6   -342.0384406 -0.506087E-06  0.127E-03    0.95       5.7  T
   7   -342.0384407 -0.139635E-06  0.660E-04    0.95      10.9  T
   8   -342.0384408 -0.754720E-07  0.164E-04    0.95      43.9  T
     SCC iter.                  ...        0 min,  0.751 sec
     gradient                   ...        0 min,  0.290 sec
 * total energy  :  -336.0534633 Eh     change       -0.1689440E-01 Eh
   gradient norm :     0.0252179 Eh/α   predicted    -0.1664792E-01 (  -1.46%)
   displ. norm   :     0.9482943 α      lambda       -0.1658050E-01
   maximum displ.:     0.5402610 α      in ANC's #41, #32, #27, ...

........................................................................
.............................. CYCLE   27 ..............................
........................................................................
   1   -342.0678719 -0.342068E+03  0.133E-01    0.95       0.0  T
   2   -342.0678472  0.247633E-04  0.802E-02    0.95       1.0  T
   3   -342.0666559  0.119122E-02  0.593E-02    0.95       1.0  T
   4   -342.0678990 -0.124308E-02  0.660E-03    0.95       1.1  T
   5   -342.0679101 -0.110325E-04  0.220E-03    0.95       3.3  T
   6   -342.0679107 -0.626985E-06  0.127E-03    0.95       5.7  T
   7   -342.0679108 -0.133490E-06  0.698E-04    0.95      10.3  T
   8   -342.0679109 -0.833864E-07  0.184E-04    0.95      39.1  T
     SCC iter.                  ...        0 min,  0.741 sec
     gradient                   ...        0 min,  0.290 sec
 * total energy  :  -336.0691507 Eh     change       -0.1568741E-01 Eh
   gradient norm :     0.0174938 Eh/α   predicted    -0.1574536E-01 (   0.37%)
   displ. norm   :     0.9519044 α      lambda       -0.1510224E-01
   maximum displ.:     0.5029984 α      in ANC's #41, #32, #27, ...

........................................................................
.............................. CYCLE   28 ..............................
........................................................................
   1   -342.0950645 -0.342095E+03  0.135E-01    0.95       0.0  T
   2   -342.0950489  0.156620E-04  0.806E-02    0.95       1.0  T
   3   -342.0941218  0.927098E-03  0.494E-02    0.95       1.0  T
   4   -342.0950860 -0.964283E-03  0.584E-03    0.95       1.2  T
   5   -342.0950948 -0.873482E-05  0.207E-03    0.95       3.5  T
   6   -342.0950952 -0.455503E-06  0.125E-03    0.95       5.7  T
   7   -342.0950954 -0.161124E-06  0.618E-04    0.95      11.7  T
   8   -342.0950955 -0.637755E-07  0.164E-04    0.95      43.8  T
     SCC iter.                  ...        0 min,  0.750 sec
     gradient                   ...        0 min,  0.296 sec
 * total energy  :  -336.0834394 Eh     change       -0.1428871E-01 Eh
   gradient norm :     0.0165619 Eh/α   predicted    -0.1439336E-01 (   0.73%)
   displ. norm   :     0.9535081 α      lambda       -0.1386723E-01
   maximum displ.:     0.4668554 α      in ANC's #41, #32, #27, ...

........................................................................
.............................. CYCLE   29 ..............................
........................................................................
   1   -342.1203986 -0.342120E+03  0.136E-01    0.95       0.0  T
   2   -342.1203890  0.962286E-05  0.808E-02    0.95       1.0  T
   3   -342.1196694  0.719575E-03  0.410E-02    0.95       1.0  T
   4   -342.1204143 -0.744906E-03  0.567E-03    0.95       1.3  T
   5   -342.1204232 -0.887917E-05  0.206E-03    0.95       3.5  T
   6   -342.1204236 -0.426470E-06  0.133E-03    0.95       5.4  T
   7   -342.1204239 -0.245981E-06  0.580E-04    0.95      12.4  T
   8   -342.1204239 -0.580485E-07  0.176E-04    0.95      40.9  T
     SCC iter.                  ...        0 min,  0.790 sec
     gradient                   ...        0 min,  0.290 sec
 * total energy  :  -336.0965335 Eh     change       -0.1309415E-01 Eh
   gradient norm :     0.0157702 Eh/α   predicted    -0.1323750E-01 (   1.09%)
   displ. norm   :     0.9556746 α      lambda       -0.1286776E-01
   maximum displ.:     0.4229445 α      in ANC's #41, #32, #27, ...

........................................................................
.............................. CYCLE   30 ..............................
........................................................................
   1   -342.1466729 -0.342147E+03  0.142E-01    0.95       0.0  T
   2   -342.1466668  0.608601E-05  0.842E-02    0.95       1.0  T
   3   -342.1460769  0.589917E-03  0.371E-02    0.95       1.0  T
   4   -342.1466867 -0.609855E-03  0.538E-03    0.95       1.3  T
   5   -342.1466948 -0.809570E-05  0.204E-03    0.95       3.5  T
   6   -342.1466952 -0.334874E-06  0.138E-03    0.95       5.2  T
   7   -342.1466954 -0.275294E-06  0.563E-04    0.95      12.8  T
   8   -342.1466955 -0.567106E-07  0.168E-04    0.95      42.9  T
     SCC iter.                  ...        0 min,  0.742 sec
     gradient                   ...        0 min,  0.291 sec
 * total energy  :  -336.1084226 Eh     change       -0.1188907E-01 Eh
   gradient norm :     0.0147204 Eh/α   predicted    -0.1231003E-01 (   3.54%)
   displ. norm   :     0.9483152 α      lambda       -0.1195136E-01
   maximum displ.:     0.4264741 α      in ANC's #32, #27, #41, ...

........................................................................
.............................. CYCLE   31 ..............................
........................................................................
   1   -342.1734022 -0.342173E+03  0.136E-01    0.95       0.0  T
   2   -342.1733984  0.378021E-05  0.807E-02    0.95       1.0  T
   3   -342.1729225  0.475921E-03  0.337E-02    0.95       1.0  T
   4   -342.1734144 -0.491924E-03  0.499E-03    0.95       1.4  T
   5   -342.1734216 -0.716079E-05  0.192E-03    0.95       3.7  T
   6   -342.1734219 -0.300419E-06  0.129E-03    0.95       5.6  T
   7   -342.1734221 -0.232487E-06  0.532E-04    0.95      13.5  T
   8   -342.1734221 -0.533124E-07  0.159E-04    0.95      45.2  T
     SCC iter.                  ...        0 min,  0.742 sec
     gradient                   ...        0 min,  0.291 sec
 * total energy  :  -336.1194173 Eh     change       -0.1099473E-01 Eh
   gradient norm :     0.0126092 Eh/α   predicted    -0.1134963E-01 (   3.23%)
   displ. norm   :     0.9427522 α      lambda       -0.1055398E-01
   maximum displ.:     0.4319236 α      in ANC's #32, #27, #21, ...

........................................................................
.............................. CYCLE   32 ..............................
........................................................................
   1   -342.1953075 -0.342195E+03  0.122E-01    0.95       0.0  T
   2   -342.1953040  0.353416E-05  0.724E-02    0.95       1.0  T
   3   -342.1949041  0.399916E-03  0.317E-02    0.95       1.0  T
   4   -342.1953191 -0.415014E-03  0.417E-03    0.95       1.7  T
   5   -342.1953240 -0.488826E-05  0.172E-03    0.95       4.2  T
   6   -342.1953242 -0.284420E-06  0.111E-03    0.95       6.5  T
   7   -342.1953244 -0.176880E-06  0.440E-04    0.95      16.4  T
   8   -342.1953245 -0.368668E-07  0.144E-04    0.95      50.1  T
     SCC iter.                  ...        0 min,  0.751 sec
     gradient                   ...        0 min,  0.291 sec
 * total energy  :  -336.1294058 Eh     change       -0.9988494E-02 Eh
   gradient norm :     0.0111346 Eh/α   predicted    -0.9967084E-02 (  -0.21%)
   displ. norm   :     0.9464884 α      lambda       -0.9648559E-02
   maximum displ.:     0.4370259 α      in ANC's #32, #27, #21, ...

........................................................................
.............................. CYCLE   33 ..............................
........................................................................
   1   -342.2191704 -0.342219E+03  0.119E-01    0.95       0.0  T
   2   -342.2191696  0.799774E-06  0.704E-02    0.95       1.0  T
   3   -342.2188906  0.278976E-03  0.273E-02    0.95       1.0  T
   4   -342.2191802 -0.289551E-03  0.377E-03    0.95       1.9  T
   5   -342.2191844 -0.418801E-05  0.152E-03    0.95       4.7  T
   6   -342.2191845 -0.155279E-06  0.107E-03    0.95       6.7  T
   7   -342.2191847 -0.188883E-06  0.358E-04    0.95      20.1  T
   8   -342.2191848 -0.253781E-07  0.130E-04    0.95      55.2  T
     SCC iter.                  ...        0 min,  0.750 sec
     gradient                   ...        0 min,  0.291 sec
 * total energy  :  -336.1385107 Eh     change       -0.9104822E-02 Eh
   gradient norm :     0.0102825 Eh/α   predicted    -0.9146062E-02 (   0.45%)
   displ. norm   :     0.9527087 α      lambda       -0.9092645E-02
   maximum displ.:     0.4413745 α      in ANC's #32, #27, #21, ...

........................................................................
.............................. CYCLE   34 ..............................
........................................................................
   1   -342.2416768 -0.342242E+03  0.128E-01    0.95       0.0  T
   2   -342.2416779 -0.114630E-05  0.759E-02    0.95       1.0  T
   3   -342.2414652  0.212683E-03  0.245E-02    0.95       1.0  T
   4   -342.2416859 -0.220637E-03  0.368E-03    0.95       2.0  T
   5   -342.2416897 -0.384406E-05  0.155E-03    0.95       4.6  T
   6   -342.2416898 -0.790844E-07  0.118E-03    0.95       6.1  T
   7   -342.2416901 -0.268006E-06  0.342E-04    0.95      21.1  T
   8   -342.2416901 -0.220282E-07  0.135E-04    0.95      53.3  T
     SCC iter.                  ...        0 min,  0.740 sec
     gradient                   ...        0 min,  0.291 sec
 * total energy  :  -336.1467880 Eh     change       -0.8277340E-02 Eh
   gradient norm :     0.0104515 Eh/α   predicted    -0.8672808E-02 (   4.78%)
   displ. norm   :     0.9366207 α      lambda       -0.8344260E-02
   maximum displ.:     0.4309374 α      in ANC's #32, #21, #27, ...

........................................................................
.............................. CYCLE   35 ..............................
........................................................................
   1   -342.2606967 -0.342261E+03  0.116E-01    0.95       0.0  T
   2   -342.2606986 -0.189002E-05  0.685E-02    0.95       1.0  T
   3   -342.2605510  0.147574E-03  0.208E-02    0.95       1.0  T
   4   -342.2607045 -0.153521E-03  0.320E-03    0.95       2.3  T
   5   -342.2607074 -0.285959E-05  0.134E-03    0.95       5.4  T
   6   -342.2607074 -0.270418E-07  0.103E-03    0.95       7.0  T
   7   -342.2607076 -0.225257E-06  0.334E-04    0.95      21.6  T
   8   -342.2607077 -0.222755E-07  0.122E-04    0.95      59.0  T
     SCC iter.                  ...        0 min,  0.751 sec
     gradient                   ...        0 min,  0.292 sec
 * total energy  :  -336.1545470 Eh     change       -0.7758972E-02 Eh
   gradient norm :     0.0089476 Eh/α   predicted    -0.7832165E-02 (   0.94%)
   displ. norm   :     0.9429110 α      lambda       -0.7466399E-02
   maximum displ.:     0.4458692 α      in ANC's #21, #32, #27, ...

........................................................................
.............................. CYCLE   36 ..............................
........................................................................
   1   -342.2807474 -0.342281E+03  0.105E-01    0.94       0.0  T
   2   -342.2807499 -0.244502E-05  0.615E-02    0.94       1.0  T
   3   -342.2806456  0.104313E-03  0.183E-02    0.94       1.0  T
   4   -342.2807546 -0.109027E-03  0.293E-03    0.94       2.5  T
   5   -342.2807569 -0.234015E-05  0.109E-03    0.94       6.6  T
   6   -342.2807569  0.253310E-07  0.871E-04    0.94       8.3  T
   7   -342.2807571 -0.172193E-06  0.237E-04    0.94      30.4  T
     SCC iter.                  ...        0 min,  0.649 sec
     gradient                   ...        0 min,  0.291 sec
 * total energy  :  -336.1616315 Eh     change       -0.7084484E-02 Eh
   gradient norm :     0.0081973 Eh/α   predicted    -0.7052317E-02 (  -0.45%)
   displ. norm   :     0.9474253 α      lambda       -0.6924419E-02
   maximum displ.:     0.4593459 α      in ANC's #21, #27, #32, ...

........................................................................
.............................. CYCLE   37 ..............................
........................................................................
   1   -342.3005893 -0.342301E+03  0.103E-01    0.94       0.0  T
   2   -342.3005920 -0.271804E-05  0.607E-02    0.94       1.0  T
   3   -342.3005031  0.889460E-04  0.172E-02    0.94       1.0  T
   4   -342.3005963 -0.931694E-04  0.287E-03    0.94       2.5  T
   5   -342.3005984 -0.209599E-05  0.105E-03    0.94       6.9  T
   6   -342.3005983  0.223848E-07  0.850E-04    0.94       8.5  T
   7   -342.3005985 -0.142792E-06  0.222E-04    0.94      32.4  T
     SCC iter.                  ...        0 min,  0.650 sec
     gradient                   ...        0 min,  0.292 sec
 * total energy  :  -336.1681873 Eh     change       -0.6555813E-02 Eh
   gradient norm :     0.0076374 Eh/α   predicted    -0.6569942E-02 (   0.22%)
   displ. norm   :     0.9492579 α      lambda       -0.6433401E-02
   maximum displ.:     0.4704611 α      in ANC's #21, #27, #32, ...

........................................................................
.............................. CYCLE   38 ..............................
........................................................................
   1   -342.3184766 -0.342318E+03  0.106E-01    0.94       0.0  T
   2   -342.3184794 -0.284354E-05  0.623E-02    0.94       1.0  T
   3   -342.3184112  0.682140E-04  0.155E-02    0.94       1.0  T
   4   -342.3184833 -0.720661E-04  0.254E-03    0.94       2.8  T
   5   -342.3184847 -0.141839E-05  0.104E-03    0.94       6.9  T
   6   -342.3184846  0.699907E-07  0.872E-04    0.94       8.3  T
   7   -342.3184848 -0.164498E-06  0.204E-04    0.94      35.3  T
     SCC iter.                  ...        0 min,  0.649 sec
     gradient                   ...        0 min,  0.292 sec
 * total energy  :  -336.1741964 Eh     change       -0.6009143E-02 Eh
   gradient norm :     0.0072808 Eh/α   predicted    -0.6115240E-02 (   1.77%)
   displ. norm   :     0.9488917 α      lambda       -0.6044878E-02
   maximum displ.:     0.4742182 α      in ANC's #21, #27, #32, ...

........................................................................
.............................. CYCLE   39 ..............................
........................................................................
   1   -342.3354517 -0.342335E+03  0.111E-01    0.93       0.0  T
   2   -342.3354548 -0.307092E-05  0.653E-02    0.93       1.0  T
   3   -342.3353989  0.558482E-04  0.143E-02    0.93       1.0  T
   4   -342.3354580 -0.590842E-04  0.258E-03    0.93       2.8  T
   5   -342.3354594 -0.136207E-05  0.116E-03    0.93       6.2  T
   6   -342.3354593  0.719293E-07  0.971E-04    0.93       7.4  T
   7   -342.3354595 -0.211040E-06  0.204E-04    0.93      35.3  T
     SCC iter.                  ...        0 min,  0.650 sec
     gradient                   ...        0 min,  0.292 sec
 * total energy  :  -336.1796992 Eh     change       -0.5502763E-02 Eh
   gradient norm :     0.0077027 Eh/α   predicted    -0.5743830E-02 (   4.38%)
   displ. norm   :     0.9356292 α      lambda       -0.5459785E-02
   maximum displ.:     0.4809407 α      in ANC's #21, #27, #32, ...

........................................................................
.............................. CYCLE   40 ..............................
........................................................................
   1   -342.3506824 -0.342351E+03  0.101E-01    0.93       0.0  T
   2   -342.3506850 -0.266371E-05  0.592E-02    0.93       1.0  T
   3   -342.3506299  0.551303E-04  0.141E-02    0.93       1.0  T
   4   -342.3506882 -0.582927E-04  0.243E-03    0.93       3.0  T
   5   -342.3506894 -0.123226E-05  0.106E-03    0.93       6.8  T
   6   -342.3506894  0.294809E-07  0.866E-04    0.93       8.3  T
   7   -342.3506896 -0.156693E-06  0.208E-04    0.93      34.6  T
     SCC iter.                  ...        0 min,  0.658 sec
     gradient                   ...        0 min,  0.292 sec
 * total energy  :  -336.1847635 Eh     change       -0.5064365E-02 Eh
   gradient norm :     0.0068417 Eh/α   predicted    -0.5119645E-02 (   1.09%)
   displ. norm   :     0.9401452 α      lambda       -0.4879500E-02
   maximum displ.:     0.4925023 α      in ANC's #21, #27, #32, ...

........................................................................
.............................. CYCLE   41 ..............................
........................................................................
   1   -342.3653908 -0.342365E+03  0.949E-02    0.92       0.0  T
   2   -342.3653932 -0.231913E-05  0.557E-02    0.92       1.0  T
   3   -342.3653329  0.602197E-04  0.146E-02    0.92       1.0  T
   4   -342.3653966 -0.636522E-04  0.232E-03    0.92       3.1  T
   5   -342.3653977 -0.112616E-05  0.978E-04    0.92       7.4  T
   6   -342.3653977  0.439189E-08  0.786E-04    0.92       9.2  T
   7   -342.3653978 -0.120823E-06  0.203E-04    0.92      35.4  T
     SCC iter.                  ...        0 min,  0.658 sec
     gradient                   ...        0 min,  0.292 sec
 * total energy  :  -336.1893282 Eh     change       -0.4564664E-02 Eh
   gradient norm :     0.0066656 Eh/α   predicted    -0.4596174E-02 (   0.69%)
   displ. norm   :     0.9401138 α      lambda       -0.4453202E-02
   maximum displ.:     0.5025293 α      in ANC's #21, #27, #32, ...

........................................................................
.............................. CYCLE   42 ..............................
........................................................................
   1   -342.3821084 -0.342382E+03  0.940E-02    0.92       0.0  T
   2   -342.3821109 -0.250271E-05  0.551E-02    0.92       1.0  T
   3   -342.3820599  0.510011E-04  0.137E-02    0.92       1.0  T
   4   -342.3821141 -0.541516E-04  0.219E-03    0.92       3.3  T
   5   -342.3821150 -0.976480E-06  0.858E-04    0.92       8.4  T
   6   -342.3821150  0.680021E-07  0.753E-04    0.92       9.6  T
     SCC iter.                  ...        0 min,  0.565 sec
     gradient                   ...        0 min,  0.293 sec
 * total energy  :  -336.1934221 Eh     change       -0.4093872E-02 Eh
   gradient norm :     0.0075855 Eh/α   predicted    -0.4194502E-02 (   2.46%)
   displ. norm   :     0.9321242 α      lambda       -0.4002655E-02
   maximum displ.:     0.5027164 α      in ANC's #21, #27, #32, ...
 * RMSD in coord.:     1.3902207 α      energy gain  -0.2566487E+00 Eh

generating ANC from model Hessian ...
Using Lindh-Hessian (1995)
 Shifting diagonal of input Hessian by    1.0040440604855439E-002
 Lowest  eigenvalues of input Hessian
    0.010000    0.010001    0.010006    0.010010    0.010020    0.010022
    0.010025    0.010031    0.010032    0.010035    0.010037    0.010038
    0.000000    0.000000    0.000000    0.000000    0.000000    0.000000
 Highest eigenvalues
    2.369734    2.370717    2.861208    2.861249    2.889478    2.891000


........................................................................
.............................. CYCLE   43 ..............................
........................................................................
   1   -342.3926104 -0.342393E+03  0.933E-02    0.92       0.0  T
   2   -342.3926122 -0.180107E-05  0.548E-02    0.92       1.0  T
   3   -342.3925508  0.614449E-04  0.142E-02    0.92       1.0  T
   4   -342.3926152 -0.644206E-04  0.242E-03    0.92       3.0  T
   5   -342.3926164 -0.123864E-05  0.112E-03    0.92       6.4  T
   6   -342.3926165 -0.934771E-07  0.731E-04    0.92       9.8  T
   7   -342.3926166 -0.892672E-07  0.195E-04    0.92      36.9  T
     SCC iter.                  ...        0 min,  0.659 sec
     gradient                   ...        0 min,  0.293 sec
 * total energy  :  -336.1970787 Eh     change       -0.3656629E-02 Eh
   gradient norm :     0.0064278 Eh/α   predicted     0.0000000E+00 (-100.00%)
   displ. norm   :     0.3057207 α      lambda       -0.1184872E-02
   maximum displ.:     0.1810075 α      in ANC's #25, #20, #27, ...

........................................................................
.............................. CYCLE   44 ..............................
........................................................................
   1   -342.4010502 -0.342401E+03  0.299E-02    0.92       0.0  T
   2   -342.4010505 -0.242457E-06  0.176E-02    0.92       1.0  T
   3   -342.4010463  0.422700E-05  0.411E-03    0.92       1.8  T
   4   -342.4010507 -0.447163E-05  0.722E-04    0.92      10.0  T
   5   -342.4010508 -0.104100E-06  0.274E-04    0.92      26.2  T
   6   -342.4010508  0.173804E-08  0.210E-04    0.92      34.3  T
     SCC iter.                  ...        0 min,  0.565 sec
     gradient                   ...        0 min,  0.293 sec
 * total energy  :  -336.1982143 Eh     change       -0.1135587E-02 Eh
   gradient norm :     0.0041038 Eh/α   predicted    -0.6486028E-03 ( -42.88%)
   displ. norm   :     0.6798182 α      lambda       -0.2435890E-02
   maximum displ.:     0.3930996 α      in ANC's #25, #20, #27, ...

........................................................................
.............................. CYCLE   45 ..............................
........................................................................
   1   -342.4138163 -0.342414E+03  0.682E-02    0.91       0.0  T
   2   -342.4138173 -0.975693E-06  0.401E-02    0.91       1.0  T
   3   -342.4137950  0.222924E-04  0.925E-03    0.91       1.0  T
   4   -342.4138188 -0.237843E-04  0.132E-03    0.91       5.5  T
   5   -342.4138190 -0.252182E-06  0.693E-04    0.91      10.4  T
   6   -342.4138190  0.189393E-07  0.553E-04    0.91      13.0  T
     SCC iter.                  ...        0 min,  0.565 sec
     gradient                   ...        0 min,  0.293 sec
 * total energy  :  -336.2004572 Eh     change       -0.2242934E-02 Eh
   gradient norm :     0.0058491 Eh/α   predicted    -0.1780822E-02 ( -20.60%)
   displ. norm   :     0.8389014 α      lambda       -0.2929937E-02
   maximum displ.:     0.4783485 α      in ANC's #25, #20, #27, ...

........................................................................
.............................. CYCLE   46 ..............................
........................................................................
   1   -342.4227199 -0.342423E+03  0.968E-02    0.91       0.0  T
   2   -342.4227213 -0.139856E-05  0.572E-02    0.91       1.0  T
   3   -342.4226724  0.489584E-04  0.139E-02    0.91       1.0  T
   4   -342.4227246 -0.522457E-04  0.183E-03    0.91       3.9  T
   5   -342.4227248 -0.168759E-06  0.126E-03    0.91       5.7  T
   6   -342.4227248 -0.931681E-08  0.882E-04    0.91       8.2  T
   7   -342.4227250 -0.204395E-06  0.183E-04    0.91      39.4  T
     SCC iter.                  ...        0 min,  0.658 sec
     gradient                   ...        0 min,  0.294 sec
 * total energy  :  -336.2027481 Eh     change       -0.2290919E-02 Eh
   gradient norm :     0.0096817 Eh/α   predicted    -0.2495948E-02 (   8.95%)
   displ. norm   :     0.7975170 α      lambda       -0.2681126E-02
   maximum displ.:     0.4572489 α      in ANC's #25, #20, #27, ...

........................................................................
.............................. CYCLE   47 ..............................
........................................................................
   1   -342.4289691 -0.342429E+03  0.855E-02    0.91       0.0  T
   2   -342.4289706 -0.144905E-05  0.504E-02    0.91       1.0  T
   3   -342.4289396  0.310356E-04  0.109E-02    0.91       1.0  T
   4   -342.4289728 -0.332400E-04  0.155E-03    0.91       4.6  T
   5   -342.4289730 -0.236401E-06  0.985E-04    0.91       7.3  T
   6   -342.4289730 -0.109251E-07  0.719E-04    0.91      10.0  T
     SCC iter.                  ...        0 min,  0.566 sec
     gradient                   ...        0 min,  0.294 sec
 * total energy  :  -336.2050766 Eh     change       -0.2328485E-02 Eh
   gradient norm :     0.0062116 Eh/α   predicted    -0.2193206E-02 (  -5.81%)
   displ. norm   :     0.8577256 α      lambda       -0.2381992E-02
   maximum displ.:     0.4899408 α      in ANC's #25, #20, #27, ...

........................................................................
.............................. CYCLE   48 ..............................
........................................................................
[...]
 465:139.49 466: 71.34 467: 12.99 468:  0.01 469:  3.98 470:  0.00 471:  0.01 472:  1.11
 473:  0.04 474:  0.04 475:  0.00 476:  4.07 477:  0.00 478: 40.56 479:  0.03 480:  0.00
 481:  0.02 482:  0.02 483:  0.53 484:  0.77 485:  0.00 486:  0.06 487:  0.02 488: 35.25
 489: 29.72 490:  8.72 491:  4.87 492:  3.06 493: 13.60 494:****** 495: 22.97 496: 63.85
 497: 35.50 498: 24.87 499: 11.85 500: 31.03 501: 10.43 502: 11.44 503:  0.00 504:  1.98
 505:  0.00 506:  4.05 507:  3.68 508:  3.92 509:  1.86 510:****** 511:  0.15 512:384.96
 513:  0.08 514:  6.35 515:  0.00 516:  0.00 517:  0.00 518:  0.32 519:  0.26 520:  0.04
 521: 34.21 522:  2.92 523: 24.77 524:  0.04 525:  0.66 526:  0.38 527:  0.16 528:212.84
 529:  0.06 530:****** 531:****** 532:****** 533:  0.09 534:  8.98 535: 20.12 536:488.56
 537:746.31 538:311.65 539:415.90 540:  2.26 541:  0.81 542:  4.95 543:  6.75 544:  8.18
 545: 17.57 546:  5.65 547:  4.99 548:  6.70 549:  7.42 550:  1.40 551:  0.64 552:  2.89
 553: 24.25 554: 12.05 555:  2.49 556: 39.34 557: 59.63 558: 15.97 559:  0.27 560: 95.73
 561:134.76 562:481.33 563:219.90 564: 12.32 565: 17.98 566:  0.74 567: 15.99 568: 10.11
 569: 73.13 570:  0.82 571: 44.58 572:308.86 573:137.09 574: 72.95 575: 24.16 576:  2.84
 577: 34.29 578: 14.81 579:  5.03
 Raman intensities (amu)
   1:  0.00   2:  0.00   3:  0.00   4:  0.00   5:  0.00   6:  0.00   7:  0.00   8:  0.00
   9:  0.00  10:  0.00  11:  0.00  12:  0.00  13:  0.00  14:  0.00  15:  0.00  16:  0.00
  17:  0.00  18:  0.00  19:  0.00  20:  0.00  21:  0.00  22:  0.00  23:  0.00  24:  0.00
  25:  0.00  26:  0.00  27:  0.00  28:  0.00  29:  0.00  30:  0.00  31:  0.00  32:  0.00
  33:  0.00  34:  0.00  35:  0.00  36:  0.00  37:  0.00  38:  0.00  39:  0.00  40:  0.00
  41:  0.00  42:  0.00  43:  0.00  44:  0.00  45:  0.00  46:  0.00  47:  0.00  48:  0.00
  49:  0.00  50:  0.00  51:  0.00  52:  0.00  53:  0.00  54:  0.00  55:  0.00  56:  0.00
  57:  0.00  58:  0.00  59:  0.00  60:  0.00  61:  0.00  62:  0.00  63:  0.00  64:  0.00
  65:  0.00  66:  0.00  67:  0.00  68:  0.00  69:  0.00  70:  0.00  71:  0.00  72:  0.00
  73:  0.00  74:  0.00  75:  0.00  76:  0.00  77:  0.00  78:  0.00  79:  0.00  80:  0.00
  81:  0.00  82:  0.00  83:  0.00  84:  0.00  85:  0.00  86:  0.00  87:  0.00  88:  0.00
  89:  0.00  90:  0.00  91:  0.00  92:  0.00  93:  0.00  94:  0.00  95:  0.00  96:  0.00
  97:  0.00  98:  0.00  99:  0.00 100:  0.00 101:  0.00 102:  0.00 103:  0.00 104:  0.00
 105:  0.00 106:  0.00 107:  0.00 108:  0.00 109:  0.00 110:  0.00 111:  0.00 112:  0.00
 113:  0.00 114:  0.00 115:  0.00 116:  0.00 117:  0.00 118:  0.00 119:  0.00 120:  0.00
 121:  0.00 122:  0.00 123:  0.00 124:  0.00 125:  0.00 126:  0.00 127:  0.00 128:  0.00
 129:  0.00 130:  0.00 131:  0.00 132:  0.00 133:  0.00 134:  0.00 135:  0.00 136:  0.00
 137:  0.00 138:  0.00 139:  0.00 140:  0.00 141:  0.00 142:  0.00 143:  0.00 144:  0.00
 145:  0.00 146:  0.00 147:  0.00 148:  0.00 149:  0.00 150:  0.00 151:  0.00 152:  0.00
 153:  0.00 154:  0.00 155:  0.00 156:  0.00 157:  0.00 158:  0.00 159:  0.00 160:  0.00
 161:  0.00 162:  0.00 163:  0.00 164:  0.00 165:  0.00 166:  0.00 167:  0.00 168:  0.00
 169:  0.00 170:  0.00 171:  0.00 172:  0.00 173:  0.00 174:  0.00 175:  0.00 176:  0.00
 177:  0.00 178:  0.00 179:  0.00 180:  0.00 181:  0.00 182:  0.00 183:  0.00 184:  0.00
 185:  0.00 186:  0.00 187:  0.00 188:  0.00 189:  0.00 190:  0.00 191:  0.00 192:  0.00
 193:  0.00 194:  0.00 195:  0.00 196:  0.00 197:  0.00 198:  0.00 199:  0.00 200:  0.00
 201:  0.00 202:  0.00 203:  0.00 204:  0.00 205:  0.00 206:  0.00 207:  0.00 208:  0.00
 209:  0.00 210:  0.00 211:  0.00 212:  0.00 213:  0.00 214:  0.00 215:  0.00 216:  0.00
 217:  0.00 218:  0.00 219:  0.00 220:  0.00 221:  0.00 222:  0.00 223:  0.00 224:  0.00
 225:  0.00 226:  0.00 227:  0.00 228:  0.00 229:  0.00 230:  0.00 231:  0.00 232:  0.00
 233:  0.00 234:  0.00 235:  0.00 236:  0.00 237:  0.00 238:  0.00 239:  0.00 240:  0.00
 241:  0.00 242:  0.00 243:  0.00 244:  0.00 245:  0.00 246:  0.00 247:  0.00 248:  0.00
 249:  0.00 250:  0.00 251:  0.00 252:  0.00 253:  0.00 254:  0.00 255:  0.00 256:  0.00
 257:  0.00 258:  0.00 259:  0.00 260:  0.00 261:  0.00 262:  0.00 263:  0.00 264:  0.00
 265:  0.00 266:  0.00 267:  0.00 268:  0.00 269:  0.00 270:  0.00 271:  0.00 272:  0.00
 273:  0.00 274:  0.00 275:  0.00 276:  0.00 277:  0.00 278:  0.00 279:  0.00 280:  0.00
 281:  0.00 282:  0.00 283:  0.00 284:  0.00 285:  0.00 286:  0.00 287:  0.00 288:  0.00
 289:  0.00 290:  0.00 291:  0.00 292:  0.00 293:  0.00 294:  0.00 295:  0.00 296:  0.00
 297:  0.00 298:  0.00 299:  0.00 300:  0.00 301:  0.00 302:  0.00 303:  0.00 304:  0.00
Refinement of some symmetry elements was terminated before convergence was reached.
Some symmetry elements may remain unidentified.
Molecule has no symmetry elements
It seems to be the C1 point group
 305:  0.00 306:  0.00 307:  0.00 308:  0.00 309:  0.00 310:  0.00 311:  0.00 312:  0.00
 313:  0.00 314:  0.00 315:  0.00 316:  0.00 317:  0.00 318:  0.00 319:  0.00 320:  0.00
 321:  0.00 322:  0.00 323:  0.00 324:  0.00 325:  0.00 326:  0.00 327:  0.00 328:  0.00
 329:  0.00 330:  0.00 331:  0.00 332:  0.00 333:  0.00 334:  0.00 335:  0.00 336:  0.00
 337:  0.00 338:  0.00 339:  0.00 340:  0.00 341:  0.00 342:  0.00 343:  0.00 344:  0.00
 345:  0.00 346:  0.00 347:  0.00 348:  0.00 349:  0.00 350:  0.00 351:  0.00 352:  0.00
 353:  0.00 354:  0.00 355:  0.00 356:  0.00 357:  0.00 358:  0.00 359:  0.00 360:  0.00
 361:  0.00 362:  0.00 363:  0.00 364:  0.00 365:  0.00 366:  0.00 367:  0.00 368:  0.00
 369:  0.00 370:  0.00 371:  0.00 372:  0.00 373:  0.00 374:  0.00 375:  0.00 376:  0.00
 377:  0.00 378:  0.00 379:  0.00 380:  0.00 381:  0.00 382:  0.00 383:  0.00 384:  0.00
 385:  0.00 386:  0.00 387:  0.00 388:  0.00 389:  0.00 390:  0.00 391:  0.00 392:  0.00
 393:  0.00 394:  0.00 395:  0.00 396:  0.00 397:  0.00 398:  0.00 399:  0.00 400:  0.00
 401:  0.00 402:  0.00 403:  0.00 404:  0.00 405:  0.00 406:  0.00 407:  0.00 408:  0.00
 409:  0.00 410:  0.00 411:  0.00 412:  0.00 413:  0.00 414:  0.00 415:  0.00 416:  0.00
 417:  0.00 418:  0.00 419:  0.00 420:  0.00 421:  0.00 422:  0.00 423:  0.00 424:  0.00
 425:  0.00 426:  0.00 427:  0.00 428:  0.00 429:  0.00 430:  0.00 431:  0.00 432:  0.00
 433:  0.00 434:  0.00 435:  0.00 436:  0.00 437:  0.00 438:  0.00 439:  0.00 440:  0.00
 441:  0.00 442:  0.00 443:  0.00 444:  0.00 445:  0.00 446:  0.00 447:  0.00 448:  0.00
 449:  0.00 450:  0.00 451:  0.00 452:  0.00 453:  0.00 454:  0.00 455:  0.00 456:  0.00
 457:  0.00 458:  0.00 459:  0.00 460:  0.00 461:  0.00 462:  0.00 463:  0.00 464:  0.00
 465:  0.00 466:  0.00 467:  0.00 468:  0.00 469:  0.00 470:  0.00 471:  0.00 472:  0.00
 473:  0.00 474:  0.00 475:  0.00 476:  0.00 477:  0.00 478:  0.00 479:  0.00 480:  0.00
 481:  0.00 482:  0.00 483:  0.00 484:  0.00 485:  0.00 486:  0.00 487:  0.00 488:  0.00
 489:  0.00 490:  0.00 491:  0.00 492:  0.00 493:  0.00 494:  0.00 495:  0.00 496:  0.00
 497:  0.00 498:  0.00 499:  0.00 500:  0.00 501:  0.00 502:  0.00 503:  0.00 504:  0.00
 505:  0.00 506:  0.00 507:  0.00 508:  0.00 509:  0.00 510:  0.00 511:  0.00 512:  0.00
 513:  0.00 514:  0.00 515:  0.00 516:  0.00 517:  0.00 518:  0.00 519:  0.00 520:  0.00
 521:  0.00 522:  0.00 523:  0.00 524:  0.00 525:  0.00 526:  0.00 527:  0.00 528:  0.00
 529:  0.00 530:  0.00 531:  0.00 532:  0.00 533:  0.00 534:  0.00 535:  0.00 536:  0.00
 537:  0.00 538:  0.00 539:  0.00 540:  0.00 541:  0.00 542:  0.00 543:  0.00 544:  0.00
 545:  0.00 546:  0.00 547:  0.00 548:  0.00 549:  0.00 550:  0.00 551:  0.00 552:  0.00
 553:  0.00 554:  0.00 555:  0.00 556:  0.00 557:  0.00 558:  0.00 559:  0.00 560:  0.00
 561:  0.00 562:  0.00 563:  0.00 564:  0.00 565:  0.00 566:  0.00 567:  0.00 568:  0.00
 569:  0.00 570:  0.00 571:  0.00 572:  0.00 573:  0.00 574:  0.00 575:  0.00 576:  0.00
 577:  0.00 578:  0.00 579:  0.00
 output can be read by thermo (or use thermo option).
 writing <g98.out> molden fake output.
 recommended (thermochemical) frequency scaling factor: 1.0
           -------------------------------------------------
          |             Thermodynamic Functions             |
           -------------------------------------------------

c1  symmetry found (for desy threshold:  0.10E+00) used in thermo

          ...................................................
          :                      SETUP                      :
          :.................................................:
          :  # frequencies                         572      :
          :  # imaginary freq.                       0      :
          :  linear?                             false      :
          :  only rotor calc.                    false      :
          :  symmetry                               c1      :
          :  rotational number                       1      :
          :  scaling factor                  1.0000000      :
          :  rotor cutoff                   50.0000000 cm⁻¹ :
          :  imag. cutoff                  -20.0000000 cm⁻¹ :
          :.................................................:

    mode    ω/cm⁻¹     T·S(HO)/kcal·mol⁻¹    T·S(FR)/kcal·mol⁻¹   T·S(vib)
   ------------------------------------------------------------------------
       1      1.25    -3.61858 (  0.00%)    -2.14840 (100.00%)    -2.14840
       2      2.79    -3.14494 (  0.00%)    -1.91158 (100.00%)    -1.91159
       3      3.60    -2.99397 (  0.00%)    -1.83610 (100.00%)    -1.83613
       4      3.75    -2.96967 (  0.00%)    -1.82394 (100.00%)    -1.82398
       5      4.55    -2.85477 (  0.01%)    -1.76649 ( 99.99%)    -1.76657
       6      5.40    -2.75402 (  0.01%)    -1.71612 ( 99.99%)    -1.71626
       7      5.63    -2.72849 (  0.02%)    -1.70335 ( 99.98%)    -1.70351
       8      6.38    -2.65505 (  0.03%)    -1.66663 ( 99.97%)    -1.66689
       9      7.03    -2.59754 (  0.04%)    -1.63787 ( 99.96%)    -1.63825
      10     10.19    -2.37741 (  0.17%)    -1.52779 ( 99.83%)    -1.52925
      11     11.29    -2.31661 (  0.26%)    -1.49738 ( 99.74%)    -1.49951
      12     13.21    -2.22377 (  0.48%)    -1.45095 ( 99.52%)    -1.45470
      13     18.53    -2.02334 (  1.85%)    -1.35069 ( 98.15%)    -1.36313
      14     23.67    -1.87814 (  4.79%)    -1.27803 ( 95.21%)    -1.30675
      15     24.97    -1.84661 (  5.86%)    -1.26224 ( 94.14%)    -1.29646
      16     29.40    -1.75005 ( 10.67%)    -1.21389 ( 89.33%)    -1.27112
      17     30.10    -1.73612 ( 11.61%)    -1.20692 ( 88.39%)    -1.26833
      18     31.65    -1.70636 ( 13.84%)    -1.19201 ( 86.16%)    -1.26317
      19     37.12    -1.61218 ( 23.29%)    -1.14481 ( 76.71%)    -1.25368
      20     39.97    -1.56847 ( 28.99%)    -1.12289 ( 71.01%)    -1.25207
      21     40.34    -1.56296 ( 29.77%)    -1.12013 ( 70.23%)    -1.25194
      22     40.70    -1.55774 ( 30.51%)    -1.11751 ( 69.49%)    -1.25183
      23     41.44    -1.54713 ( 32.06%)    -1.11219 ( 67.94%)    -1.25161
      24     41.54    -1.54575 ( 32.26%)    -1.11150 ( 67.74%)    -1.25158
      25     42.07    -1.53818 ( 33.39%)    -1.10770 ( 66.61%)    -1.25143
      26     44.03    -1.51136 ( 37.54%)    -1.09424 ( 62.46%)    -1.25085
      27     49.81    -1.43856 ( 49.62%)    -1.05768 ( 50.38%)    -1.24666
      28     57.28    -1.35626 ( 63.26%)    -1.01631 ( 36.74%)    -1.23136
      29     59.99    -1.32904 ( 67.44%)    -1.00261 ( 32.56%)    -1.22277
      30     64.73    -1.28432 ( 73.74%)    -0.98008 ( 26.26%)    -1.20443
      31     68.39    -1.25199 ( 77.78%)    -0.96377 ( 22.22%)    -1.18794
      32     72.95    -1.21408 ( 81.92%)    -0.94463 ( 18.08%)    -1.16538
      33     73.02    -1.21354 ( 81.98%)    -0.94436 ( 18.02%)    -1.16503
      34     73.32    -1.21111 ( 82.22%)    -0.94313 ( 17.78%)    -1.16346
      35     74.75    -1.19979 ( 83.32%)    -0.93741 ( 16.68%)    -1.15603
      36     81.36    -1.15021 ( 87.52%)    -0.91233 ( 12.48%)    -1.12051
      37     88.69    -1.09979 ( 90.83%)    -0.88676 (  9.17%)    -1.08025
      38     89.20    -1.09646 ( 91.01%)    -0.88507 (  8.99%)    -1.07747
      39    100.20    -1.02876 ( 94.16%)    -0.85063 (  5.84%)    -1.01836
      40    110.89    -0.96998 ( 96.03%)    -0.82060 (  3.97%)    -0.96405
      41    113.94    -0.95426 ( 96.42%)    -0.81254 (  3.58%)    -0.94919
      42    121.01    -0.91954 ( 97.17%)    -0.79471 (  2.83%)    -0.91600
      43    124.67    -0.90240 ( 97.48%)    -0.78589 (  2.52%)    -0.89947
      44    124.83    -0.90167 ( 97.49%)    -0.78551 (  2.51%)    -0.89876
      45    124.94    -0.90115 ( 97.50%)    -0.78524 (  2.50%)    -0.89825
      46    127.56    -0.88921 ( 97.69%)    -0.77909 (  2.31%)    -0.88667
      47    127.68    -0.88867 ( 97.70%)    -0.77881 (  2.30%)    -0.88615
      48    127.70    -0.88859 ( 97.70%)    -0.77877 (  2.30%)    -0.88607
      49    140.39    -0.83440 ( 98.42%)    -0.75072 (  1.58%)    -0.83308
      50    144.18    -0.81923 ( 98.57%)    -0.74283 (  1.43%)    -0.81814
      51    146.67    -0.80946 ( 98.67%)    -0.73774 (  1.33%)    -0.80850
      52    147.62    -0.80580 ( 98.70%)    -0.73583 (  1.30%)    -0.80489
      53    151.40    -0.79146 ( 98.82%)    -0.72834 (  1.18%)    -0.79072
      54    151.63    -0.79059 ( 98.83%)    -0.72789 (  1.17%)    -0.78985
      55    154.39    -0.78037 ( 98.91%)    -0.72254 (  1.09%)    -0.77974
      56    154.89    -0.77854 ( 98.93%)    -0.72159 (  1.07%)    -0.77793
      57    165.49    -0.74123 ( 99.17%)    -0.70198 (  0.83%)    -0.74090
      58    166.41    -0.73811 ( 99.19%)    -0.70034 (  0.81%)    -0.73780
      59    167.37    -0.73488 ( 99.21%)    -0.69863 (  0.79%)    -0.73459
      60    168.27    -0.73187 ( 99.23%)    -0.69704 (  0.77%)    -0.73160
      61    168.99    -0.72949 ( 99.24%)    -0.69579 (  0.76%)    -0.72923
      62    171.77    -0.72033 ( 99.29%)    -0.69094 (  0.71%)    -0.72012
      63    181.33    -0.69012 ( 99.43%)    -0.67490 (  0.57%)    -0.69003
      64    181.36    -0.69004 ( 99.43%)    -0.67486 (  0.57%)    -0.68995
      65    181.49    -0.68963 ( 99.43%)    -0.67464 (  0.57%)    -0.68954
      66    181.67    -0.68907 ( 99.43%)    -0.67435 (  0.57%)    -0.68899
      67    181.93    -0.68830 ( 99.43%)    -0.67393 (  0.57%)    -0.68821
      68    182.96    -0.68515 ( 99.45%)    -0.67226 (  0.55%)    -0.68508
      69    191.28    -0.66051 ( 99.54%)    -0.65907 (  0.46%)    -0.66050
      70    194.28    -0.65194 ( 99.56%)    -0.65447 (  0.44%)    -0.65195
      71    195.01    -0.64985 ( 99.57%)    -0.65335 (  0.43%)    -0.64987
      72    196.05    -0.64693 ( 99.58%)    -0.65177 (  0.42%)    -0.64695
      73    196.10    -0.64679 ( 99.58%)    -0.65170 (  0.42%)    -0.64681
      74    196.13    -0.64670 ( 99.58%)    -0.65165 (  0.42%)    -0.64672
      75    196.40    -0.64595 ( 99.58%)    -0.65125 (  0.42%)    -0.64597
      76    197.96    -0.64161 ( 99.59%)    -0.64891 (  0.41%)    -0.64164
      77    198.01    -0.64147 ( 99.60%)    -0.64883 (  0.40%)    -0.64150
      78    198.11    -0.64121 ( 99.60%)    -0.64869 (  0.40%)    -0.64124
      79    198.43    -0.64030 ( 99.60%)    -0.64820 (  0.40%)    -0.64034
      80    198.63    -0.63977 ( 99.60%)    -0.64791 (  0.40%)    -0.63980
      81    199.21    -0.63816 ( 99.60%)    -0.64705 (  0.40%)    -0.63819
      82    199.93    -0.63617 ( 99.61%)    -0.64597 (  0.39%)    -0.63620
      83    202.70    -0.62864 ( 99.63%)    -0.64190 (  0.37%)    -0.62869
      84    202.84    -0.62825 ( 99.63%)    -0.64169 (  0.37%)    -0.62830
      85    203.35    -0.62688 ( 99.64%)    -0.64095 (  0.36%)    -0.62694
      86    203.83    -0.62560 ( 99.64%)    -0.64026 (  0.36%)    -0.62565
      87    204.08    -0.62493 ( 99.64%)    -0.63990 (  0.36%)    -0.62499
      88    204.25    -0.62447 ( 99.64%)    -0.63965 (  0.36%)    -0.62453
      89    205.64    -0.62075 ( 99.65%)    -0.63763 (  0.35%)    -0.62081
      90    210.56    -0.60786 ( 99.68%)    -0.63063 (  0.32%)    -0.60794
      91    213.86    -0.59943 ( 99.70%)    -0.62603 (  0.30%)    -0.59951
      92    217.97    -0.58910 ( 99.72%)    -0.62038 (  0.28%)    -0.58919
      93    225.77    -0.57017 ( 99.76%)    -0.60997 (  0.24%)    -0.57026
      94    228.55    -0.56359 ( 99.77%)    -0.60634 (  0.23%)    -0.56368
      95    249.81    -0.51636 ( 99.84%)    -0.57999 (  0.16%)    -0.51646
      96    255.61    -0.50433 ( 99.85%)    -0.57319 (  0.15%)    -0.50443
      97    262.26    -0.49095 ( 99.87%)    -0.56558 (  0.13%)    -0.49105
      98    262.44    -0.49059 ( 99.87%)    -0.56538 (  0.13%)    -0.49069
      99    262.71    -0.49006 ( 99.87%)    -0.56507 (  0.13%)    -0.49016
     100    263.04    -0.48941 ( 99.87%)    -0.56470 (  0.13%)    -0.48951
     101    263.11    -0.48928 ( 99.87%)    -0.56463 (  0.13%)    -0.48938
     102    265.46    -0.48466 ( 99.87%)    -0.56199 (  0.13%)    -0.48476
     103    271.00    -0.47401 ( 99.88%)    -0.55587 (  0.12%)    -0.47410
     104    277.72    -0.46143 ( 99.90%)    -0.54861 (  0.10%)    -0.46152
     105    290.44    -0.43870 ( 99.91%)    -0.53535 (  0.09%)    -0.43878
   ------------------------------------------------------------------------

   temp. (K)  partition function   enthalpy   heat capacity  entropy
                                   cal/mol     cal/K/mol   cal/K/mol   J/K/mol
 298.15  VIB  0.333E+61            70264.632    446.645    448.852
         ROT  0.540E+10              888.752      2.981     47.515
         INT  0.180E+71            71153.385    449.625    496.367
         TR   0.900E+29             1481.254      4.968     48.703
         TOT                       72634.6386   454.5936   545.0702  2280.5738

       T/K    H(0)-H(T)+PV         H(T)/Eh          T*S/Eh         G(T)/Eh
   ------------------------------------------------------------------------
    298.15    0.115751E+00    0.143409E+01    0.258980E+00    0.117511E+01
   ------------------------------------------------------------------------

         :::::::::::::::::::::::::::::::::::::::::::::::::::::
         ::                  THERMODYNAMIC                  ::
         :::::::::::::::::::::::::::::::::::::::::::::::::::::
         :: total free energy        -335.037726439129 Eh   ::
         ::.................................................::
         :: total energy             -336.212834452810 Eh   ::
         :: zero point energy           1.318337802105 Eh   ::
         :: G(RRHO) w/o ZPVE           -0.143229788424 Eh   ::
         :: G(RRHO) contrib.            1.175108013681 Eh   ::
         :::::::::::::::::::::::::::::::::::::::::::::::::::::

optimized geometry written to: xtbopt.xyz


           -------------------------------------------------
          | TOTAL ENERGY             -336.212834452810 Eh   |
          | TOTAL ENTHALPY           -334.778745986205 Eh   |
          | TOTAL FREE ENERGY        -335.037726439129 Eh   |
          | GRADIENT NORM               0.000482299956 Eh/α |
          | HOMO-LUMO GAP               0.890562693326 eV   |
           -------------------------------------------------

------------------------------------------------------------------------
 * finished run on 2021/11/18 at 19:53:35.652     
------------------------------------------------------------------------
 total:
 * wall-time:     0 d,  0 h, 17 min, 35.055 sec
 *  cpu-time:     0 d,  0 h, 17 min, 35.059 sec
 * ratio c/w:     1.000 speedup
 SCF:
 * wall-time:     0 d,  0 h,  0 min,  4.466 sec
 *  cpu-time:     0 d,  0 h,  0 min,  4.466 sec
 * ratio c/w:     1.000 speedup
 ANC optimizer:
 * wall-time:     0 d,  0 h,  1 min, 19.468 sec
 *  cpu-time:     0 d,  0 h,  1 min, 19.460 sec
 * ratio c/w:     1.000 speedup
 analytical hessian:
 * wall-time:     0 d,  0 h, 16 min,  9.575 sec
 *  cpu-time:     0 d,  0 h, 16 min,  9.587 sec
 * ratio c/w:     1.000 speedup

