193
 energy: -334.845263750689 gnorm: 0.829552553223 xtb: 6.4.1 (bd6e46d)
Zn       27.54362900000000    0.04105400000000   -0.01229300000000
C        29.87262000000000   -3.10573900000000    1.31039600000000
C        30.78872700000001   -2.16153200000000    1.26011400000000
C        30.37754800000000   -1.10762800000000    0.33882200000000
C        30.99641800000000    0.01671800000000   -0.00758800000000
C        30.29237600000000    1.23666600000000   -0.37169300000000
C        30.62048700000000    2.19672100000000   -1.21916700000000
C        29.58570700000000    3.21300700000000   -1.23606400000000
C        28.64943900000000    2.83654500000000   -0.38917300000000
N        29.05142900000000    1.60353400000000    0.17464400000000
C        27.38836500000000    3.48154400000000   -0.01002100000000
C        26.29314700000000    2.84676200000000    0.34073900000000
C        25.21952200000000    3.16471700000000    1.30976700000000
C        24.38195900000000    2.16796400000000    1.23260100000000
C        24.82025600000000    1.16428000000000    0.25214900000000
N        25.92519400000000    1.60313300000000   -0.23214300000000
C        24.20942200000000   -0.08899100000000   -0.16139900000000
C        24.87358200000000   -1.19349700000000   -0.41582400000000
C        24.49973300000000   -2.25643900000000   -1.37335100000000
C        25.44848100000000   -3.15019400000000   -1.28433200000000
C        26.43420400000000   -2.71274400000000   -0.30145400000000
N        26.08115900000000   -1.56693900000000    0.19534300000000
C        27.66509200000000   -3.36881500000000    0.14426700000000
C        28.78813400000000   -2.72295400000000    0.41138800000000
N        29.11673400000000   -1.47551200000000   -0.18701500000000
H        29.93288200000000   -4.01552000000000    1.92794300000000
H        31.70505500000000   -2.20148100000000    1.83816200000000
H        31.54785200000000    2.21351700000000   -1.82031000000000
H        29.60260600000000    4.11769500000000   -1.84868600000000
H        27.34064200000000    4.57634700000000   -0.01379800000000
H        25.16670000000000    4.04344200000000    1.93476000000000
H        23.47032900000000    2.13229400000000    1.84992500000000
H        23.11117100000000   -0.08608000000000   -0.26067000000000
H        23.63087800000000   -2.30890400000000   -2.02230100000000
H        25.44563500000000   -4.06650300000000   -1.88309100000000
H        27.62961000000000   -4.46461600000000    0.25619200000000
Zn       84.12936100000000   -0.00632200000000   -0.01672600000000
C        81.80037000000000    2.84047000000000    1.86677900000000
C        80.88426300000000    1.92198000000000    1.64220500000000
C        81.29544199999999    1.05728300000000    0.54139100000000
C        80.67657199999999    0.01671800000000   -0.00758800000000
C        81.38061400000001   -1.11450700000000   -0.59169100000000
C        81.05250300000000   -1.90067800000000   -1.60255700000000
C        82.08728300000000   -2.89618800000000   -1.80769800000000
C        83.02355100000000   -2.68337100000000   -0.90566800000000
N        82.62156100000000   -1.57636000000000   -0.12289600000000
C        84.28462500000001   -3.38751200000000   -0.65275400000000
C        85.37984299999999   -2.82882000000000   -0.19032100000000
C        86.45346800000000   -3.32102500000000    0.70290100000000
C        87.29103100000002   -2.32725800000000    0.81198600000000
C        86.85273400000001   -1.15910900000000    0.03475100000000
N        85.74779500000000   -1.50050100000000   -0.52254800000000
C        87.46356800000000    0.14912600000000   -0.13911900000000
C        86.79940800000001    1.28165900000000   -0.18422500000000
C        87.17325700000001    2.50378500000000   -0.92794000000000
C        86.22450900000000    3.36551200000000   -0.67466100000000
C        85.23878499999999    2.75331800000000    0.21000200000000
N        85.59183100000000    1.53523900000000    0.48561200000000
C        84.00789800000000    3.31531200000000    0.76969700000000
C        82.88485600000000    2.63110700000000    0.91236400000000
N        82.55625600000000    1.51633200000000    0.09293000000000
H        81.74010800000001    3.61989400000000    2.64238300000000
H        79.96793500000000    1.85400000000000    2.21763100000000
H        80.12513800000001   -1.80566200000000   -2.19638200000000
H        82.07038400000000   -3.67152200000000   -2.57751800000000
H        84.33234800000000   -4.46261000000000   -0.85956800000000
H        86.50629000000001   -4.30044200000000    1.15402800000000
H        88.20266100000001   -2.40673000000000    1.42521200000000
H        88.56181900000000    0.16468200000000   -0.23720600000000
H        88.04211200000000    2.67572900000000   -1.55589200000000
H        86.22735500000000    4.37699300000000   -1.09303900000000
H        84.04338000000000    4.37132900000000    1.08296600000000
C        33.89112200000001    0.01468300000000   -0.00870000000000
C        35.09909900000000    0.02213700000000   -0.00700500000000
C        36.51786700000000    0.02283400000000   -0.00186800000000
C        37.73338300000001    0.01468300000000   -0.00870000000000
C        47.24127300000000    0.01468300000000   -0.00870000000000
C        48.44924900000000    0.02213700000000   -0.00700500000000
C        49.86801700000001    0.02283400000000   -0.00186800000000
C        51.08353400000000    0.01468300000000   -0.00870000000000
C        60.59142300000000    0.01468300000000   -0.00870000000000
C        61.79940000000001    0.02213700000000   -0.00700500000000
C        63.21816800000000    0.02283400000000   -0.00186800000000
C        64.43368400000000    0.01468300000000   -0.00870000000000
C        73.94157300000001    0.01468300000000   -0.00870000000000
C        75.14955000000000    0.02213700000000   -0.00700500000000
C        76.56831800000002    0.02283400000000   -0.00186800000000
C        77.78383500000000    0.01468300000000   -0.00870000000000
Zn       42.52196400000000    0.03481800000000    0.00343900000000
C        40.24215400000000   -3.22662900000000   -0.90622700000000
C        39.28594400000001   -2.32727900000000   -1.00825300000000
C        39.67831900000000   -1.16497400000000   -0.20573700000000
C        39.04320200000000   -0.01370100000000    0.00652900000000
C        39.72865900000001    1.26089800000000    0.23275800000000
C        39.39336900000000    2.33949800000000    0.93699800000000
C        40.41791000000000    3.35881500000000    0.84641700000000
C        41.36850700000000    2.86189000000000    0.07305200000000
N        40.99151300000000    1.54528500000000   -0.34309100000000
C        42.61564700000001    3.47359200000000   -0.34381300000000
C        43.71719900000000    2.80633500000000   -0.67558500000000
C        44.71074500000000    3.05831900000000   -1.70975500000000
C        45.60462800000001    2.09746000000000   -1.60827100000000
C        45.22493000000000    1.18557600000000   -0.50429400000000
N        44.13001500000000    1.63489500000000    0.00307300000000
C        45.88213700000000   -0.01370100000000    0.00652900000000
C        45.25872600000000   -1.08288300000000    0.46804500000000
C        45.63743800000000   -2.01499900000000    1.54352100000000
C        44.69677000000000   -2.92914500000000    1.62938700000000
C        43.68846800000000   -2.63336600000000    0.63196000000000
N        44.02624300000001   -1.57998800000000   -0.01733500000000
C        42.43607500000000   -3.34037300000000    0.30076700000000
C        41.32219800000000   -2.74367600000000   -0.04657500000000
N        40.94008600000000   -1.46091900000000    0.37110800000000
H        40.24249800000000   -4.21770300000000   -1.39746100000000
H        38.37741000000000   -2.44897300000000   -1.58940100000000
H        38.46851700000000    2.45785000000000    1.51392400000000
H        40.44520500000000    4.34797900000000    1.30306700000000
H        42.70158700000000    4.57097000000000   -0.40583600000000
H        44.74341700000000    3.86453500000000   -2.43657900000000
H        46.49769000000000    1.98449200000000   -2.24204500000000
H        46.55218900000001   -1.94059200000000    2.15369100000000
H        44.71581600000000   -3.74275300000000    2.33765400000000
H        42.47456000000000   -4.44033200000000    0.35980300000000
Zn       55.87211500000000    0.03481800000000    0.00343900000000
C        53.59230400000000   -3.22662900000000   -0.90622700000000
C        52.63609500000000   -2.32727900000000   -1.00825300000000
C        53.02846900000000   -1.16497400000000   -0.20573700000000
C        52.39335300000000   -0.01370100000000    0.00652900000000
C        53.07881000000000    1.26089800000000    0.23275800000000
C        52.74351900000001    2.33949800000000    0.93699800000000
C        53.76806100000000    3.35881500000000    0.84641700000000
C        54.71865800000000    2.86189000000000    0.07305200000000
N        54.34166400000000    1.54528500000000   -0.34309100000000
C        55.96579700000000    3.47359200000000   -0.34381300000000
C        57.06734900000000    2.80633500000000   -0.67558500000000
C        58.06089600000000    3.05831900000000   -1.70975500000000
C        58.95477900000000    2.09746000000000   -1.60827100000000
C        58.57508100000000    1.18557600000000   -0.50429400000000
N        57.48016500000000    1.63489500000000    0.00307300000000
C        59.23228800000000   -0.01370100000000    0.00652900000000
C        58.60887600000000   -1.08288300000000    0.46804500000000
C        58.98758900000000   -2.01499900000000    1.54352100000000
C        58.04692000000001   -2.92914500000000    1.62938700000000
C        57.03861900000000   -2.63336600000000    0.63196000000000
N        57.37639400000000   -1.57998800000000   -0.01733500000000
C        55.78622600000000   -3.34037300000000    0.30076700000000
C        54.67234900000000   -2.74367600000000   -0.04657500000000
N        54.29023700000000   -1.46091900000000    0.37110800000000
H        53.59264900000001   -4.21770300000000   -1.39746100000000
H        51.72756000000000   -2.44897300000000   -1.58940100000000
H        51.81866700000000    2.45785000000000    1.51392400000000
H        53.79535500000000    4.34797900000000    1.30306700000000
H        56.05173700000000    4.57097000000000   -0.40583600000000
H        58.09356800000000    3.86453500000000   -2.43657900000000
H        59.84784000000000    1.98449200000000   -2.24204500000000
H        59.90233900000000   -1.94059200000000    2.15369100000000
H        58.06596700000000   -3.74275300000000    2.33765400000000
H        55.82471000000000   -4.44033200000000    0.35980300000000
Zn       69.22226499999999    0.03481800000000    0.00343900000000
C        66.94245500000000   -3.22662900000000   -0.90622700000000
C        65.98624500000000   -2.32727900000000   -1.00825300000000
C        66.37861900000000   -1.16497400000000   -0.20573700000000
C        65.74350300000000   -0.01370100000000    0.00652900000000
C        66.42896000000000    1.26089800000000    0.23275800000000
C        66.09367000000000    2.33949800000000    0.93699800000000
C        67.11821100000000    3.35881500000000    0.84641700000000
C        68.06880800000000    2.86189000000000    0.07305200000000
N        67.69181399999999    1.54528500000000   -0.34309100000000
C        69.31594800000001    3.47359200000000   -0.34381300000000
C        70.41750000000000    2.80633500000000   -0.67558500000000
C        71.41104600000000    3.05831900000000   -1.70975500000000
C        72.30492900000002    2.09746000000000   -1.60827100000000
C        71.92523100000000    1.18557600000000   -0.50429400000000
N        70.83031600000000    1.63489500000000    0.00307300000000
C        72.58243800000000   -0.01370100000000    0.00652900000000
C        71.95902700000002   -1.08288300000000    0.46804500000000
C        72.33773900000001   -2.01499900000000    1.54352100000000
C        71.39707100000001   -2.92914500000000    1.62938700000000
C        70.38876900000000   -2.63336600000000    0.63196000000000
N        70.72654400000000   -1.57998800000000   -0.01733500000000
C        69.13637600000001   -3.34037300000000    0.30076700000000
C        68.02249900000000   -2.74367600000000   -0.04657500000000
N        67.64038700000000   -1.46091900000000    0.37110800000000
H        66.94279899999999   -4.21770300000000   -1.39746100000000
H        65.07771099999999   -2.44897300000000   -1.58940100000000
H        65.16881800000000    2.45785000000000    1.51392400000000
H        67.14550600000000    4.34797900000000    1.30306700000000
H        69.40188800000001    4.57097000000000   -0.40583600000000
H        71.44371800000000    3.86453500000000   -2.43657900000000
H        73.19799100000000    1.98449200000000   -2.24204500000000
H        73.25248900000000   -1.94059200000000    2.15369100000000
H        71.41611700000000   -3.74275300000000    2.33765400000000
H        69.17486100000001   -4.44033200000000    0.35980300000000
193
 energy: -335.144310816366 gnorm: 0.462108340441 xtb: 6.4.1 (bd6e46d)
Zn       27.55589607321897    0.04083730657277   -0.01096763480331
C        29.87295906303589   -3.11479915163105    1.30134592110008
C        30.80400066762525   -2.16089092220926    1.25596013818721
C        30.37288617838343   -1.10982809779317    0.34660234470148
C        30.97497306519814    0.03651381918016   -0.01027191211915
C        30.27910962827641    1.23316064226506   -0.36413810441117
C        30.63251729154371    2.22396514230483   -1.23643528991308
C        29.61514500598010    3.21552902792087   -1.24914709739844
C        28.64337106138720    2.81399097014664   -0.38280879627960
N        29.02946400060483    1.58599720138354    0.17723853322438
C        27.40757144664693    3.47950265501937   -0.01077772771786
C        26.28265934139631    2.83082142673528    0.34185026416902
C        25.22075171191420    3.17239824314885    1.29221417489857
C        24.35553371172172    2.16026745063875    1.23496155705547
C        24.81303830569705    1.16491329876583    0.26901659615218
N        25.95731855781079    1.58321812755913   -0.21387618144281
C        24.19785503698920   -0.06648614120376   -0.15421560418345
C        24.87706740124183   -1.19742612705103   -0.42162522288689
C        24.49162375170899   -2.25584742158985   -1.35920821691453
C        25.45570779315656   -3.17262739087992   -1.28002746571025
C        26.44410218863544   -2.72357606250180   -0.31025953713770
N        26.09019182553180   -1.54419241079844    0.16900144979404
C        27.64632690974811   -3.37467281016273    0.13624948492833
C        28.79467020270958   -2.70857569701462    0.41376709996304
N        29.11193465502629   -1.47417130920096   -0.15908340116412
H        29.92425021336987   -4.01018182449678    1.91933091413936
H        31.71018114948802   -2.19181262986955    1.83516122997956
H        31.54549646750246    2.22222838375614   -1.82182103075952
H        29.60965665447190    4.11450045922297   -1.84955207756268
H        27.35692248041116    4.57130510742451   -0.00719632292681
H        25.17412029225903    4.04170856184751    1.92795524085839
H        23.46543698783549    2.12284506494258    1.84859138622065
H        23.11294197528650   -0.07737263815803   -0.26566979624948
H        23.63292763166127   -2.29914772556735   -2.01425025487314
H        25.45688944097986   -4.07097243060074   -1.87913999240567
H        27.62427556835946   -4.45978219775521    0.25663157695033
Zn       84.11709955434179   -0.00634188207746   -0.01539516506029
C        81.80004159402351    2.85105112411328    1.85956562294180
C        80.86902254632309    1.92210804690812    1.63799963610997
C        81.30016560043975    1.05797746987957    0.54946857305439
C        80.69806278914328   -0.00230495341369   -0.01372737871190
C        81.39393139587028   -1.11244965424218   -0.58361920580755
C        81.04048799080107   -1.92423311746804   -1.62455184945260
C        82.05785688740384   -2.89624422876480   -1.82101131895761
C        83.02963087626223   -2.66241319530858   -0.89523422478140
N        82.64354219006093   -1.55962229661728   -0.11710972511952
C        84.26541439926848   -3.38538285553951   -0.65312173157189
C        85.39033108537807   -2.81335896339773   -0.18626244548153
C        86.45222916551887   -3.32531042815852    0.68422757663602
C        87.31745940567777   -2.32012361904609    0.81572648439648
C        86.85996140722193   -1.16285933993410    0.05121043940275
N        85.71566510737823   -1.48433226963366   -0.50090550949263
C        87.47513659713020    0.12567504992111   -0.13623060932994
C        86.79592154729599    1.28659755755676   -0.18919885370003
C        87.18136240377700    2.50057373529806   -0.91415300980694
C        86.21727760995695    3.38675703966480   -0.66626695521690
C        85.22888560731521    2.76559855517332    0.20335544299691
N        85.58280049634834    1.51777471936934    0.45551083185793
C        84.02666501157753    3.32257159223509    0.76290579369648
C        82.87832216594990    2.61655400986544    0.91201794454395
N        82.56108305235617    1.50985257188367    0.12013245604132
H        81.74873829108961    3.61625039507942    2.63293032523365
H        79.96281860526325    1.84506379216804    2.21288395939463
H        80.12750479414835   -1.81392137758598   -2.19947633595748
H        82.06333961923522   -3.66822616345662   -2.57778247983559
H        84.31607669699041   -4.45889064294646   -0.85216281621676
H        86.49886982511943   -4.29747659721998    1.14766053991585
H        88.20755543842074   -2.39719663219698    1.42565211091356
H        88.56004937341420    0.15705312969678   -0.24373059140028
H        88.04006186538911    2.66464744864709   -1.54978915325850
H        86.21609938577242    4.38065324901795   -1.08832468385003
H        84.04871811526482    4.36650420407699    1.08251245499081
C        33.87972342925087    0.01510224858406   -0.00666522375478
C        35.10192819147898    0.02238543542518   -0.00736720052570
C        36.48766523727689    0.02378545715760   -0.00224698645703
C        37.70691117626443    0.02359597524506   -0.01165299302241
C        47.25756870311355    0.02229404854151   -0.00607393665947
C        48.47433794193928    0.02295550539553   -0.00525533427339
C        49.84164935261074    0.02359859359342   -0.00251773843735
C        51.05968988109753    0.02333994103469   -0.01275479197446
C        60.60767735707044    0.02234077781729   -0.00584211069939
C        61.82460735905823    0.02299000028736   -0.00511341156095
C        63.19172176494973    0.02359753285855   -0.00253649577429
C        64.40987524787658    0.02328492963634   -0.01290796306844
C        73.96149601640917    0.02296068358808   -0.00509774348581
C        75.17921711315942    0.02281464137695   -0.00579020202567
C        76.56762870488430    0.02204229129637   -0.00214826538419
C        77.79033996745528    0.01399944448778   -0.00783004884115
Zn       42.51200998211289    0.03785042426413    0.00220234145364
C        40.24392599670580   -3.24502672042348   -0.89901966668946
C        39.27958194603844   -2.32632393369366   -0.99841378422167
C        39.70542109679871   -1.18037132437620   -0.20986040339013
C        39.06049787778092    0.00567381225791    0.00505175529356
C        39.75931589249822    1.26537360726831    0.23061193541780
C        39.38477841858402    2.36518105692584    0.94823198058928
C        40.39397808987648    3.36071557968513    0.85319285624874
C        41.37916259344544    2.84218078107876    0.06888812808163
N        41.01519056609937    1.53395328198600   -0.33154704869563
C        42.60107251968044    3.47252628096318   -0.34497723212869
C        43.72594317136306    2.79416916838559   -0.67673111363210
C        44.71730013567480    3.06602165779893   -1.69615917708540
C        45.62571789078952    2.08534169453915   -1.60624658898541
C        45.22650119772904    1.18562918783509   -0.52120741203961
N        44.09757322710299    1.61717625760443   -0.01482771810714
C        45.88587922901750    0.00388589465289   -0.00317250949737
C        45.24211655662282   -1.09654941094372    0.47675837227130
C        45.64892892975321   -2.01317843413173    1.53281198202786
C        44.69241065357343   -2.94677324029998    1.62707722362624
C        43.67760434717222   -2.64192097957722    0.64198223199015
N        44.01252676045996   -1.54595292500238   -0.00449490259750
C        42.45716560818580   -3.34689859325790    0.31101375822843
C        41.30982195888525   -2.73178107661420   -0.05442978732605
N        40.95291804696802   -1.45188603490898    0.34009839783638
H        40.24776231425954   -4.21453619356749   -1.39324240752366
H        38.37822609119709   -2.43824700475172   -1.58407123375924
H        38.46801394037954    2.46201839962508    1.51449356378818
H        40.43411500469951    4.34218186667522    1.30501224353088
H        42.68388084589807    4.56421070364489   -0.41153105241174
H        44.73593418152848    3.86276347613365   -2.42785594397609
H        46.49858163998395    1.97743490173610   -2.23843858177669
H        46.54641790563873   -1.93496044527798    2.14467721484044
H        44.70794512044792   -3.74928763615975    2.33782510465902
H        42.48106377260198   -4.43708817200020    0.35746838984666
Zn       55.86183684628196    0.03769345125026    0.00226302900834
C        53.59333916151529   -3.24546791814338   -0.89870037831861
C        52.62991843166121   -2.32698749964354   -0.99832079142389
C        53.05589524699387   -1.18050230364783   -0.20828783214564
C        52.41151627431776    0.00527023440042    0.00493477138393
C        53.10984814212814    1.26599175139984    0.23001479727703
C        52.73525987283049    2.36518963783497    0.94833850368406
C        53.74409171696125    3.36106809490509    0.85295506437039
C        54.72950690325688    2.84251279680931    0.06884064079696
N        54.36497640443591    1.53392740943688   -0.33165845022899
C        55.95103903738543    3.47245829845167   -0.34465086075734
C        57.07619810295652    2.79409312992674   -0.67671576158679
C        58.06731858698304    3.06596180834749   -1.69623404116898
C        58.97584358481582    2.08526013971090   -1.60632506049892
C        58.57645985075120    1.18565915215295   -0.52141941877117
N        57.44778906621089    1.61721027978307   -0.01485610254247
C        59.23607549248045    0.00369571475137   -0.00299106435746
C        58.59263942805793   -1.09649613164403    0.47678040604592
C        58.99949847315635   -2.01326873228157    1.53260934252670
C        58.04238484559222   -2.94625532128110    1.62752133088143
C        57.02805522908251   -2.64126099116737    0.64229580802617
N        57.36244138437215   -1.54649871064801   -0.00453189507818
C        55.80653760377324   -3.34692771319983    0.31022185828221
C        54.66062810666270   -2.73217836723261   -0.05418421348439
N        54.30316867261775   -1.45132024450943    0.34013030628155
H        53.59778474707080   -4.21463499415631   -1.39335679080942
H        51.72851843814438   -2.43834245886382   -1.58420749546871
H        51.81821530835715    2.46204448540758    1.51445722963504
H        53.78426485152625    4.34230733440092    1.30503436917747
H        56.03403806784254    4.56417385939553   -0.41135007136605
H        58.08607617115824    3.86276311328777   -2.42784193375634
H        59.84873885370386    1.97743426075683   -2.23840645316196
H        59.89671029479361   -1.93498570017487    2.14464516338391
H        58.05808487565914   -3.74918848227634    2.33782404802836
H        55.83122262884546   -4.43708445264112    0.35666242113100
Zn       69.21183272983497    0.03766169957507    0.00225834189710
C        66.94316397372262   -3.24567181140102   -0.89844588793719
C        65.98021193820473   -2.32716978977453   -0.99836434115654
C        66.40613966984674   -1.18035574633058   -0.20807061412755
C        65.76160602091302    0.00518812993553    0.00485825948272
C        66.46007313598258    1.26609269363986    0.23000602452266
C        66.08555830504035    2.36515283283010    0.94842200708368
C        67.09423860455915    3.36117100891101    0.85284308920995
C        68.07972276597116    2.84265788036318    0.06879383413651
N        67.71493647125870    1.53393422776423   -0.33165891815707
C        69.30114855329911    3.47245319915591   -0.34440708126792
C        70.42662639788941    2.79406223872603   -0.67652652620572
C        71.41738041531859    3.06587033805672   -1.69622181133619
C        72.32598861541769    2.08508344500958   -1.60652496626250
C        71.92641160078081    1.18467919245339   -0.52262810288254
N        70.79824480694363    1.61699768660994   -0.01493740982301
C        72.58705602870191    0.00312998726087   -0.00267334368476
C        71.94344979765991   -1.09568609047345    0.47723286003498
C        72.35012004871464   -2.01341538561590    1.53237095112285
C        71.39239430635233   -2.94556953663471    1.62791974821892
C        70.37861237842634   -2.64058070905846    0.64233398721751
N        70.71219010399443   -1.54668211664020   -0.00419513015065
C        69.15619020380049   -3.34709406351378    0.30964278651493
C        68.01100190169574   -2.73248475606918   -0.05390478930054
N        67.65324778199047   -1.45097731074939    0.34015183733316
H        66.94789174562543   -4.21468062620774   -1.39339820722780
H        65.07872709407316   -2.43836728366737   -1.58426575336325
H        65.16837135449840    2.46205944151211    1.51444643692299
H        67.13441938111792    4.34236213575740    1.30503985964020
H        69.38416615699781    4.56419000484769   -0.41133369027968
H        71.43620871871262    3.86275240879908   -2.42780730303487
H        73.19894412564442    1.97742575973272   -2.23840302531963
H        73.24703214109687   -1.93507923478061    2.14461169784142
H        71.40821653919448   -3.74903440222629    2.33780577512282
H        69.18141329714713   -4.43718516699152    0.35603606569729
193
 energy: -335.318280019303 gnorm: 0.186910031110 xtb: 6.4.1 (bd6e46d)
Zn       27.56333812992975    0.04088863953088   -0.00880037037375
C        29.87203600542237   -3.12062933799949    1.28933629358636
C        30.81751811220727   -2.15985136044591    1.25029941280968
C        30.36457225802149   -1.11178240018533    0.35811127503289
C        30.93970218609403    0.06146997594436   -0.01411089800111
C        30.26380101742178    1.22749161495151   -0.35944802816406
C        30.63979699390362    2.25324337471729   -1.24704801529380
C        29.64794887602917    3.21385414079353   -1.25208936945761
C        28.63769426365026    2.78848565481761   -0.37344053557100
N        29.00574292457911    1.56798108704050    0.16518829826407
C        27.43025158519181    3.47018321287276   -0.01155847201132
C        26.27950670415812    2.80637032991659    0.34837826818678
C        25.22649557229576    3.17360114093328    1.26836547281891
C        24.33198784090853    2.15623796732767    1.22846851496237
C        24.80662148971572    1.16418684749772    0.28850991382529
N        25.99599056090604    1.55929519502214   -0.18390726910174
C        24.19198256558926   -0.04433791539425   -0.14542758675180
C        24.88570023765135   -1.19582431369076   -0.43441430637047
C        24.48872420273092   -2.25333774815405   -1.34068587609674
C        25.45921238574545   -3.19193816473694   -1.26840759291677
C        26.45443045145456   -2.73196918292835   -0.32028680699275
N        26.10253729005635   -1.51174627401319    0.13104933961958
C        27.62840414403976   -3.37453397641970    0.12711372176387
C        28.79792202202967   -2.68874397769827    0.41875766331533
N        29.10377173705680   -1.47196230800278   -0.12424799886980
H        29.91432660769378   -4.00491646875481    1.90646614768484
H        31.71780874494639   -2.18047508604951    1.82919261483433
H        31.54328465058049    2.23004649965947   -1.82136161358804
H        29.61410813670785    4.10952885290286   -1.84606255282157
H        27.37503016004787    4.55923172686557   -0.00575421009400
H        25.18201355525365    4.03642008512661    1.91470806579335
H        23.45911585924331    2.11262610464298    1.84353180156616
H        23.11651191648821   -0.07109931633964   -0.26534879301190
H        23.63694920522698   -2.28889578587628   -2.00118799541599
H        25.46877040191042   -4.07687969869532   -1.87110850367049
H        27.62324870922004   -4.45215423088243    0.25213071487630
Zn       84.10966261238796   -0.00679036476013   -0.01328729928496
C        81.80097534270591    2.85900856758811    1.84883642465047
C        80.85549749326114    1.92214879432222    1.63222277587709
C        81.30841144571656    1.05777404203018    0.56110271192765
C        80.73306289630095   -0.02614193856513   -0.02207844339757
C        81.40920841162799   -1.10776326784412   -0.57795262636092
C        81.03320105605880   -1.95104516143650   -1.64039659474779
C        82.02506791745476   -2.89405812483912   -1.82359221742786
C        83.03531525704402   -2.63909608760202   -0.88130289903547
N        82.66726117963665   -1.53963282368889   -0.12564040070427
C        84.24273131034310   -3.37608404867839   -0.65215388944818
C        85.39348379284978   -2.79054342877225   -0.17531018807275
C        86.44648281680900   -3.32206528550612    0.66056998847568
C        87.34100125282357   -2.31495485749557    0.81009184775167
C        86.86637463873735   -1.16576323267923    0.07049518766696
N        85.67699483638502   -1.46638761456112   -0.46702004789967
C        87.48100542828394    0.10228196727280   -0.13171604788591
C        86.78728543152951    1.28739460443668   -0.20207808861455
C        87.18425948591199    2.49467114675705   -0.89643636127466
C        86.21377741553387    3.40357804637223   -0.65128216546145
C        85.21855639398984    2.77570775493669    0.19504611448640
N        85.57045504337853    1.49292889926205    0.41218237658562