      -----------------------------------------------------------      
     |                   =====================                   |     
     |                           x T B                           |     
     |                   =====================                   |     
     |                         S. Grimme                         |     
     |          Mulliken Center for Theoretical Chemistry        |     
     |                    University of Bonn                     |     
      -----------------------------------------------------------      

   * xtb version 6.4.1 (bd6e46d) compiled by 'conda@4901f00b25ba' on 2021-06-10

   xtb is free software: you can redistribute it and/or modify it under
   the terms of the GNU Lesser General Public License as published by
   the Free Software Foundation, either version 3 of the License, or
   (at your option) any later version.
   
   xtb is distributed in the hope that it will be useful,
   but WITHOUT ANY WARRANTY; without even the implied warranty of
   MERCHANTABILITY or FITNESS FOR A PARTICULAR PURPOSE.  See the
   GNU Lesser General Public License for more details.
   
   Cite this work as:
   * C. Bannwarth, E. Caldeweyher, S. Ehlert, A. Hansen, P. Pracht,
     J. Seibert, S. Spicher, S. Grimme, WIREs Comput. Mol. Sci., 2020, 11,
     e01493. DOI: 10.1002/wcms.1493
   
   for GFN2-xTB:
   * C. Bannwarth, S. Ehlert and S. Grimme., J. Chem. Theory Comput., 2019,
     15, 1652-1671. DOI: 10.1021/acs.jctc.8b01176
   for GFN1-xTB:
   * S. Grimme, C. Bannwarth, P. Shushkov, J. Chem. Theory Comput., 2017,
     13, 1989-2009. DOI: 10.1021/acs.jctc.7b00118
   for GFN0-xTB:
   * P. Pracht, E. Caldeweyher, S. Ehlert, S. Grimme, ChemRxiv, 2019, preprint.
     DOI: 10.26434/chemrxiv.8326202.v1
   for GFN-FF:
   * S. Spicher and S. Grimme, Angew. Chem. Int. Ed., 2020, 59, 15665-15673.
     DOI: 10.1002/anie.202004239
   
   for DFT-D4:
   * E. Caldeweyher, C. Bannwarth and S. Grimme, J. Chem. Phys., 2017,
     147, 034112. DOI: 10.1063/1.4993215
   * E. Caldeweyher, S. Ehlert, A. Hansen, H. Neugebauer, S. Spicher,
     C. Bannwarth and S. Grimme, J. Chem. Phys., 2019, 150, 154122.
     DOI: 10.1063/1.5090222
   * E. Caldeweyher, J.-M. Mewes, S. Ehlert and S. Grimme, Phys. Chem. Chem. Phys.
     2020, 22, 8499-8512. DOI: 10.1039/D0CP00502A
   
   for sTDA-xTB:
   * S. Grimme and C. Bannwarth, J. Chem. Phys., 2016, 145, 054103.
     DOI: 10.1063/1.4959605
   
   in the mass-spec context:
   * V. Asgeirsson, C. Bauer and S. Grimme, Chem. Sci., 2017, 8, 4879.
     DOI: 10.1039/c7sc00601b
   * J. Koopman and S. Grimme, ACS Omega 2019, 4, 12, 15120-15133.
     DOI: 10.1021/acsomega.9b02011
   
   for metadynamics refer to:
   * S. Grimme, J. Chem. Theory Comput., 2019, 155, 2847-2862
     DOI: 10.1021/acs.jctc.9b00143
   
   for SPH calculations refer to:
   * S. Spicher and S. Grimme, J. Chem. Theory Comput., 2021, 17, 1701-1714
     DOI: 10.1021/acs.jctc.0c01306
   
   with help from (in alphabetical order)
   P. Atkinson, C. Bannwarth, F. Bohle, G. Brandenburg, E. Caldeweyher
   M. Checinski, S. Dohm, S. Ehlert, S. Ehrlich, I. Gerasimov, J. Koopman
   C. Lavigne, S. Lehtola, F. März, M. Müller, F. Musil, H. Neugebauer
   J. Pisarek, C. Plett, P. Pracht, J. Seibert, P. Shushkov, S. Spicher
   M. Stahn, M. Steiner, T. Strunk, J. Stückrath, T. Rose, and J. Unsleber
   
 * started run on 2021/11/21 at 19:10:17.882     

           -------------------------------------------------
          |                Calculation Setup                |
           -------------------------------------------------

          program call               : /home/jeff/miniconda3/bin/xtb /home/jeff/chem/final-year-proejct/free_base/_2_5_outenergy/input_structure.xyz --gfn 2 --parallel 1 --etemp 300 --chrg 0 --uhf 0 -I det_control.in
          coordinate file            : /home/jeff/chem/final-year-proejct/free_base/_2_5_outenergy/input_structure.xyz
          omp threads                :                     1
          number of atoms            :                   190
          number of electrons        :                   594
          charge                     :                     0
          spin                       :                   0.0
          first test random number   :      0.05057113127105

   ID    Z sym.   atoms
    1    6 C      1-8, 10-14, 16-20, 22, 23, 38-45, 47-51, 53-57, 59, 60,
                  75-90, 92-96, 98-102, 104, 105, 119-126, 128-132, 134-138,
                  140, 141, 155-162, 164-168, 170-174, 176, 177
    2    7 N      9, 15, 21, 24, 46, 52, 58, 61, 91, 97, 103, 106, 127, 133,
                  139, 142, 163, 169, 175, 178
    3    1 H      25-37, 62-74, 107-118, 143-154, 179-190

           -------------------------------------------------
          |                 G F N 2 - x T B                 |
           -------------------------------------------------

        Reference                      10.1021/acs.jctc.8b01176
      * Hamiltonian:
        H0-scaling (s, p, d)           1.850000    2.230000    2.230000
        zeta-weighting                 0.500000
      * Dispersion:
        s8                             2.700000
        a1                             0.520000
        a2                             5.000000
        s9                             5.000000
      * Repulsion:
        kExp                           1.500000    1.000000
        rExp                           1.000000
      * Coulomb:
        alpha                          2.000000
        third order                    shell-resolved
        anisotropic                    true
        a3                             3.000000
        a5                             4.000000
        cn-shift                       1.200000
        cn-exp                         4.000000
        max-rad                        5.000000


          ...................................................
          :                      SETUP                      :
          :.................................................:
          :  # basis functions                 574          :
          :  # atomic orbitals                 574          :
          :  # shells                          318          :
          :  # electrons                       594          :
          :  max. iterations                   250          :
          :  Hamiltonian                  GFN2-xTB          :
          :  restarted?                      false          :
          :  GBSA solvation                  false          :
          :  PC potential                    false          :
          :  electronic temp.          300.0000000     K    :
          :  accuracy                    1.0000000          :
          :  -> integral cutoff          0.2500000E+02      :
          :  -> integral neglect         0.1000000E-07      :
          :  -> SCF convergence          0.1000000E-05 Eh   :
          :  -> wf. convergence          0.1000000E-03 e    :
          :  Broyden damping             0.4000000          :
          ...................................................

 iter      E             dE          RMSdq      gap      omega  full diag
   1   -326.3996856 -0.326400E+03  0.489E+00    0.53       0.0  T
   2   -326.8973400 -0.497654E+00  0.322E+00    0.82       1.0  T
   3   -326.8350096  0.623304E-01  0.148E+00    0.65       1.0  T
   4   -326.8777853 -0.427757E-01  0.658E-01    0.80       1.0  T
   5   -326.9883813 -0.110596E+00  0.221E-01    0.78       1.0  T
   6   -327.0015316 -0.131503E-01  0.793E-02    0.78       1.0  T
   7   -327.0020472 -0.515630E-03  0.523E-02    0.78       1.0  T
   8   -327.0027389 -0.691655E-03  0.208E-02    0.78       1.0  T
   9   -327.0028141 -0.752178E-04  0.107E-02    0.78       1.0  T
  10   -327.0028212 -0.712492E-05  0.659E-03    0.78       1.1  T
  11   -327.0028343 -0.130993E-04  0.147E-03    0.78       4.9  T
  12   -327.0028348 -0.421059E-06  0.560E-04    0.78      13.0  T
  13   -327.0028348 -0.290843E-07  0.318E-04    0.78      22.8  T

   *** convergence criteria satisfied after 13 iterations ***

         #    Occupation            Energy/Eh            Energy/eV
      -------------------------------------------------------------
         1        2.0000           -0.6843108             -18.6210
       ...           ...                  ...                  ...
       291        2.0000           -0.3685784             -10.0295
       292        2.0000           -0.3683891             -10.0244
       293        2.0000           -0.3675283             -10.0010
       294        2.0000           -0.3630622              -9.8794
       295        2.0000           -0.3568723              -9.7110
       296        2.0000           -0.3500537              -9.5254
       297        2.0000           -0.3441311              -9.3643 (HOMO)
       298        0.0000           -0.3154061              -8.5826 (LUMO)
       299                         -0.3086967              -8.4001
       300                         -0.3013459              -8.2000
       301                         -0.2981193              -8.1122
       302                         -0.2980984              -8.1117
       ...                                ...                  ...
       574                          1.4107433              38.3883
      -------------------------------------------------------------
                  HL-Gap            0.0287249 Eh            0.7816 eV
             Fermi-level           -0.3297681 Eh           -8.9734 eV

 SCC (total)                   0 d,  0 h,  0 min,  1.551 sec
 SCC setup                      ...        0 min,  0.006 sec (  0.390%)
 Dispersion                     ...        0 min,  0.014 sec (  0.897%)
 classical contributions        ...        0 min,  0.003 sec (  0.165%)
 integral evaluation            ...        0 min,  0.101 sec (  6.544%)
 iterations                     ...        0 min,  1.086 sec ( 70.010%)
 molecular gradient             ...        0 min,  0.331 sec ( 21.320%)
 printout                       ...        0 min,  0.010 sec (  0.673%)

         :::::::::::::::::::::::::::::::::::::::::::::::::::::
         ::                     SUMMARY                     ::
         :::::::::::::::::::::::::::::::::::::::::::::::::::::
         :: total energy            -321.120365203489 Eh    ::
         :: gradient norm              0.000525714874 Eh/a0 ::
         :: HOMO-LUMO gap              0.781645397378 eV    ::
         ::.................................................::
         :: SCC energy              -327.002834791873 Eh    ::
         :: -> isotropic ES            0.170189194935 Eh    ::
         :: -> anisotropic ES         -0.014411664479 Eh    ::
         :: -> anisotropic XC          0.207505141480 Eh    ::
         :: -> dispersion             -0.280424809012 Eh    ::
         :: repulsion energy           5.887303553921 Eh    ::
         :: add. restraining           0.000000000000 Eh    ::
         :: total charge               0.000000000601 e     ::
         :::::::::::::::::::::::::::::::::::::::::::::::::::::

           -------------------------------------------------
          |                Property Printout                |
           -------------------------------------------------

    * Orbital Energies and Occupations

         #    Occupation            Energy/Eh            Energy/eV
      -------------------------------------------------------------
         1        2.0000           -0.6843108             -18.6210
       ...           ...                  ...                  ...
       285        2.0000           -0.3717761             -10.1165
       286        2.0000           -0.3707896             -10.0897
       287        2.0000           -0.3707701             -10.0892
       288        2.0000           -0.3696709             -10.0593
       289        2.0000           -0.3693887             -10.0516
       290        2.0000           -0.3693654             -10.0509
       291        2.0000           -0.3685784             -10.0295
       292        2.0000           -0.3683891             -10.0244
       293        2.0000           -0.3675283             -10.0010
       294        2.0000           -0.3630622              -9.8794
       295        2.0000           -0.3568723              -9.7110
       296        2.0000           -0.3500537              -9.5254
       297        2.0000           -0.3441311              -9.3643 (HOMO)
       298        0.0000           -0.3154061              -8.5826 (LUMO)
       299                         -0.3086967              -8.4001
       300                         -0.3013459              -8.2000
       301                         -0.2981193              -8.1122
       302                         -0.2980984              -8.1117
       303                         -0.2979256              -8.1070
       304                         -0.2974087              -8.0929
       305                         -0.2970898              -8.0842
       306                         -0.2933945              -7.9837
       307                         -0.2877433              -7.8299
       308                         -0.2679121              -7.2903
       ...                                ...                  ...
       574                          1.4107433              38.3883
      -------------------------------------------------------------
                  HL-Gap            0.0287249 Eh            0.7816 eV
             Fermi-level           -0.3297681 Eh           -8.9734 eV

     #   Z          covCN         q      C6AA      α(0)
     1   6 C        3.016    -0.055    29.343     8.886
     2   6 C        3.010    -0.053    29.310     8.881
     3   6 C        3.194     0.086    25.597     8.250
     4   6 C        2.952     0.013    27.726     8.636
     5   6 C        3.095     0.064    26.459     8.430
     6   6 C        3.027    -0.050    29.200     8.864
     7   6 C        3.033    -0.052    29.253     8.871
     8   6 C        3.073     0.064    26.485     8.438
     9   7 N        2.786    -0.081    22.812     7.094
    10   6 C        2.899    -0.055    29.371     8.886
    11   6 C        3.171     0.087    25.717     8.284
    12   6 C        3.012    -0.054    29.316     8.882
    13   6 C        3.010    -0.054    29.319     8.882
    14   6 C        3.174     0.086    25.707     8.281
    15   7 N        1.870    -0.321    29.177     8.007
    16   6 C        2.899    -0.057    29.414     8.892
    17   6 C        3.074     0.065    26.469     8.435
    18   6 C        3.026    -0.051    29.241     8.870
    19   6 C        3.031    -0.051    29.233     8.868
    20   6 C        3.069     0.066    26.465     8.435
    21   7 N        2.787    -0.081    22.814     7.094
    22   6 C        2.899    -0.055    29.370     8.886
    23   6 C        3.174     0.085    25.729     8.284
    24   7 N        1.870    -0.324    29.261     8.018
    25   1 H        0.926     0.019     2.756     2.596
    26   1 H        0.926     0.019     2.742     2.589
    27   1 H        0.926     0.043     2.406     2.426
    28   1 H        0.926     0.042     2.428     2.437
    29   1 H        0.860     0.214     1.037     1.595
    30   1 H        0.925     0.047     2.359     2.402
    31   1 H        0.926     0.019     2.743     2.590
    32   1 H        0.926     0.019     2.742     2.590
    33   1 H        0.926     0.046     2.370     2.408
    34   1 H        0.926     0.042     2.425     2.435
    35   1 H        0.926     0.042     2.426     2.436
    36   1 H        0.860     0.214     1.036     1.594
    37   1 H        0.925     0.047     2.359     2.402
    38   6 C        3.016    -0.055    29.343     8.886
    39   6 C        3.010    -0.053    29.309     8.881
    40   6 C        3.194     0.086    25.597     8.250
    41   6 C        2.952     0.013    27.726     8.636
    42   6 C        3.095     0.064    26.460     8.430
    43   6 C        3.027    -0.050    29.200     8.864
    44   6 C        3.033    -0.052    29.253     8.871
    45   6 C        3.073     0.064    26.485     8.438
    46   7 N        2.786    -0.081    22.812     7.094
    47   6 C        2.899    -0.055    29.371     8.886
    48   6 C        3.171     0.087    25.717     8.284
    49   6 C        3.012    -0.054    29.316     8.882
    50   6 C        3.010    -0.054    29.319     8.882
    51   6 C        3.174     0.086    25.707     8.281
    52   7 N        1.870    -0.321    29.177     8.007
    53   6 C        2.899    -0.057    29.414     8.892
    54   6 C        3.074     0.065    26.470     8.436
    55   6 C        3.026    -0.051    29.241     8.870
    56   6 C        3.031    -0.051    29.232     8.868
    57   6 C        3.069     0.066    26.465     8.435
    58   7 N        2.787    -0.081    22.815     7.094
    59   6 C        2.899    -0.055    29.370     8.886
    60   6 C        3.174     0.085    25.729     8.284
    61   7 N        1.870    -0.324    29.261     8.018
    62   1 H        0.926     0.019     2.756     2.596
    63   1 H        0.926     0.019     2.742     2.589
    64   1 H        0.926     0.043     2.406     2.426
    65   1 H        0.926     0.042     2.428     2.437
    66   1 H        0.860     0.214     1.037     1.595
    67   1 H        0.925     0.047     2.359     2.402
    68   1 H        0.926     0.019     2.743     2.590
    69   1 H        0.926     0.019     2.743     2.590
    70   1 H        0.926     0.046     2.370     2.408
    71   1 H        0.926     0.042     2.425     2.435
    72   1 H        0.926     0.042     2.426     2.436
    73   1 H        0.860     0.214     1.036     1.594
    74   1 H        0.925     0.047     2.360     2.402
    75   6 C        1.993    -0.030    31.836     9.112
    76   6 C        1.992    -0.031    31.864     9.116
    77   6 C        1.992    -0.030    31.844     9.113
    78   6 C        1.992    -0.030    31.848     9.114
    79   6 C        1.992    -0.030    31.849     9.114
    80   6 C        1.992    -0.030    31.843     9.113
    81   6 C        1.992    -0.031    31.865     9.116
    82   6 C        1.993    -0.030    31.837     9.112
    83   6 C        3.017    -0.055    29.337     8.885
    84   6 C        3.009    -0.053    29.306     8.880
    85   6 C        3.194     0.086    25.599     8.249
    86   6 C        2.952     0.013    27.717     8.635
    87   6 C        3.098     0.063    26.465     8.431
    88   6 C        3.026    -0.050    29.208     8.865
    89   6 C        3.036    -0.052    29.252     8.871
    90   6 C        3.073     0.064    26.492     8.439
    91   7 N        2.786    -0.081    22.818     7.095
    92   6 C        2.899    -0.053    29.319     8.878
    93   6 C        3.173     0.085    25.743     8.287
    94   6 C        3.017    -0.055    29.339     8.885
    95   6 C        3.010    -0.053    29.308     8.880
    96   6 C        3.194     0.086    25.600     8.250
    97   7 N        1.871    -0.323    29.240     8.015
    98   6 C        2.952     0.013    27.726     8.636
    99   6 C        3.097     0.064    26.464     8.431
   100   6 C        3.026    -0.050    29.206     8.865
   101   6 C        3.036    -0.052    29.253     8.871
   102   6 C        3.072     0.064    26.495     8.440
   103   7 N        2.786    -0.081    22.818     7.095
   104   6 C        2.899    -0.053    29.316     8.878
   105   6 C        3.173     0.085    25.741     8.287
   106   7 N        1.870    -0.323    29.237     8.015
   107   1 H        0.926     0.019     2.753     2.595
   108   1 H        0.926     0.019     2.743     2.590
   109   1 H        0.926     0.043     2.408     2.427
   110   1 H        0.926     0.041     2.431     2.438
   111   1 H        0.860     0.215     1.035     1.593
   112   1 H        0.925     0.048     2.349     2.397
   113   1 H        0.926     0.019     2.753     2.595
   114   1 H        0.926     0.019     2.747     2.592
   115   1 H        0.926     0.043     2.415     2.430
   116   1 H        0.926     0.041     2.431     2.438
   117   1 H        0.860     0.214     1.035     1.594
   118   1 H        0.925     0.048     2.349     2.397
   119   6 C        3.017    -0.055    29.339     8.885
   120   6 C        3.010    -0.053    29.305     8.880
   121   6 C        3.194     0.086    25.601     8.250
   122   6 C        2.952     0.013    27.721     8.636
   123   6 C        3.097     0.063    26.465     8.431
   124   6 C        3.026    -0.050    29.208     8.865
   125   6 C        3.036    -0.052    29.254     8.871
   126   6 C        3.073     0.064    26.494     8.440
   127   7 N        2.786    -0.081    22.818     7.095
   128   6 C        2.899    -0.053    29.313     8.877
   129   6 C        3.173     0.085    25.743     8.287
   130   6 C        3.017    -0.055    29.338     8.885
   131   6 C        3.010    -0.053    29.307     8.880
   132   6 C        3.194     0.086    25.598     8.250
   133   7 N        1.871    -0.323    29.234     8.015
   134   6 C        2.952     0.013    27.721     8.636
   135   6 C        3.098     0.063    26.463     8.430
   136   6 C        3.026    -0.050    29.209     8.865
   137   6 C        3.036    -0.052    29.253     8.871
   138   6 C        3.073     0.064    26.493     8.439
   139   7 N        2.786    -0.081    22.819     7.095
   140   6 C        2.899    -0.053    29.314     8.877
   141   6 C        3.173     0.085    25.744     8.287
   142   7 N        1.871    -0.323    29.235     8.015
   143   1 H        0.926     0.019     2.753     2.595
   144   1 H        0.926     0.019     2.748     2.592
   145   1 H        0.926     0.043     2.413     2.429
   146   1 H        0.926     0.041     2.431     2.438
   147   1 H        0.860     0.215     1.035     1.594
   148   1 H        0.925     0.048     2.348     2.396
   149   1 H        0.926     0.019     2.752     2.594
   150   1 H        0.926     0.019     2.746     2.591
   151   1 H        0.926     0.043     2.411     2.428
   152   1 H        0.926     0.041     2.431     2.438
   153   1 H        0.860     0.215     1.035     1.593
   154   1 H        0.925     0.048     2.348     2.396
   155   6 C        3.017    -0.055    29.338     8.885
   156   6 C        3.010    -0.053    29.309     8.881
   157   6 C        3.194     0.086    25.596     8.249
   158   6 C        2.952     0.013    27.726     8.636
   159   6 C        3.098     0.064    26.462     8.430
   160   6 C        3.026    -0.050    29.207     8.865
   161   6 C        3.036    -0.052    29.252     8.871
   162   6 C        3.073     0.064    26.494     8.439
   163   7 N        2.786    -0.081    22.817     7.094
   164   6 C        2.899    -0.053    29.319     8.878
   165   6 C        3.173     0.085    25.740     8.287
   166   6 C        3.017    -0.055    29.337     8.885
   167   6 C        3.009    -0.053    29.308     8.880
   168   6 C        3.194     0.086    25.597     8.249
   169   7 N        1.870    -0.323    29.240     8.015
   170   6 C        2.952     0.013    27.717     8.635
   171   6 C        3.098     0.063    26.465     8.431
   172   6 C        3.026    -0.050    29.206     8.865
   173   6 C        3.036    -0.052    29.252     8.871
   174   6 C        3.073     0.064    26.492     8.439
   175   7 N        2.786    -0.081    22.816     7.094
   176   6 C        2.899    -0.053    29.320     8.878
   177   6 C        3.173     0.085    25.742     8.287
   178   7 N        1.870    -0.324    29.243     8.016
   179   1 H        0.926     0.019     2.753     2.595
   180   1 H        0.926     0.019     2.744     2.591
   181   1 H        0.926     0.043     2.413     2.429
   182   1 H        0.926     0.041     2.430     2.438
   183   1 H        0.860     0.214     1.036     1.594
   184   1 H        0.925     0.048     2.349     2.397
   185   1 H        0.926     0.019     2.753     2.594
   186   1 H        0.926     0.020     2.741     2.589
   187   1 H        0.926     0.043     2.409     2.427
   188   1 H        0.926     0.041     2.431     2.438
   189   1 H        0.860     0.214     1.035     1.594
   190   1 H        0.925     0.048     2.350     2.397

 Mol. C6AA /au·bohr⁶  :     588558.336278
 Mol. C8AA /au·bohr⁸  :   15056985.399838
 Mol. α(0) /au        :       1234.057431


Wiberg/Mayer (AO) data.
largest (>0.10) Wiberg bond orders for each atom

 ---------------------------------------------------------------------------
     #   Z sym  total        # sym  WBO       # sym  WBO       # sym  WBO
 ---------------------------------------------------------------------------
     1   6 C    3.960 --     2 C    1.717    23 C    1.115    25 H    0.973
     2   6 C    3.961 --     1 C    1.717     3 C    1.121    26 H    0.970
     3   6 C    3.922 --    24 N    1.360     4 C    1.250     2 C    1.121
     4   6 C    3.940 --     5 C    1.254     3 C    1.250    75 C    1.176
     5   6 C    3.907 --     4 C    1.254     6 C    1.236     9 N    1.225
     6   6 C    3.956 --     7 C    1.594     5 C    1.236    27 H    0.970
     7   6 C    3.949 --     6 C    1.594     8 C    1.223    28 H    0.973
     8   6 C    3.918 --    10 C    1.344     7 C    1.223     9 N    1.203
     9   7 N    3.590 --     5 C    1.225     8 C    1.203    29 H    0.900
    10   6 C    3.921 --    11 C    1.357     8 C    1.344    30 H    0.964
    11   6 C    3.939 --    10 C    1.357    15 N    1.324    12 C    1.107
    12   6 C    3.963 --    13 C    1.731    11 C    1.107    31 H    0.973
    13   6 C    3.962 --    12 C    1.731    14 C    1.109    32 H    0.973
    14   6 C    3.938 --    16 C    1.354    15 N    1.325    13 C    1.109
    15   7 N    3.001 --    14 C    1.325    11 C    1.324
    16   6 C    3.923 --    14 C    1.354    17 C    1.347    33 H    0.965
    17   6 C    3.921 --    16 C    1.347    18 C    1.216    21 N    1.210
    18   6 C    3.949 --    19 C    1.608    17 C    1.216    34 H    0.973
    19   6 C    3.953 --    18 C    1.608    20 C    1.215    35 H    0.973
    20   6 C    3.916 --    22 C    1.343    19 C    1.215    21 N    1.211
    21   7 N    3.586 --    20 C    1.211    17 C    1.210    36 H    0.900
    22   6 C    3.937 --    23 C    1.365    20 C    1.343    37 H    0.964
    23   6 C    3.925 --    22 C    1.365    24 N    1.301     1 C    1.115
    24   7 N    3.009 --     3 C    1.360    23 C    1.301
    25   1 H    0.999 --     1 C    0.973
    26   1 H    0.999 --     2 C    0.970
    27   1 H    0.998 --     6 C    0.970
    28   1 H    0.998 --     7 C    0.973
    29   1 H    0.954 --     9 N    0.900
    30   1 H    0.997 --    10 C    0.964
    31   1 H    0.999 --    12 C    0.973
    32   1 H    0.999 --    13 C    0.973
    33   1 H    0.997 --    16 C    0.965
    34   1 H    0.998 --    18 C    0.973
    35   1 H    0.998 --    19 C    0.973
    36   1 H    0.954 --    21 N    0.900
    37   1 H    0.997 --    22 C    0.964
    38   6 C    3.960 --    39 C    1.717    60 C    1.115    62 H    0.973
    39   6 C    3.961 --    38 C    1.717    40 C    1.121    63 H    0.970
    40   6 C    3.922 --    61 N    1.360    41 C    1.250    39 C    1.121
    41   6 C    3.940 --    42 C    1.254    40 C    1.250    82 C    1.176
    42   6 C    3.908 --    41 C    1.254    43 C    1.236    46 N    1.225
    43   6 C    3.956 --    44 C    1.593    42 C    1.236    64 H    0.970
    44   6 C    3.949 --    43 C    1.593    45 C    1.223    65 H    0.973
    45   6 C    3.918 --    47 C    1.344    44 C    1.223    46 N    1.203
    46   7 N    3.590 --    42 C    1.225    45 C    1.203    66 H    0.900
    47   6 C    3.921 --    48 C    1.357    45 C    1.344    67 H    0.964
    48   6 C    3.939 --    47 C    1.357    52 N    1.324    49 C    1.107
    49   6 C    3.963 --    50 C    1.731    48 C    1.107    68 H    0.973
    50   6 C    3.962 --    49 C    1.731    51 C    1.109    69 H    0.973
    51   6 C    3.938 --    53 C    1.354    52 N    1.326    50 C    1.109
    52   7 N    3.002 --    51 C    1.326    48 C    1.324
    53   6 C    3.923 --    51 C    1.354    54 C    1.347    70 H    0.965
    54   6 C    3.921 --    53 C    1.347    55 C    1.215    58 N    1.210
    55   6 C    3.949 --    56 C    1.608    54 C    1.215    71 H    0.973
    56   6 C    3.953 --    55 C    1.608    57 C    1.215    72 H    0.973
    57   6 C    3.916 --    59 C    1.343    56 C    1.215    58 N    1.211
    58   7 N    3.586 --    57 C    1.211    54 C    1.210    73 H    0.900
    59   6 C    3.937 --    60 C    1.365    57 C    1.343    74 H    0.964
    60   6 C    3.925 --    59 C    1.365    61 N    1.301    38 C    1.115
    61   7 N    3.009 --    40 C    1.360    60 C    1.301
    62   1 H    0.999 --    38 C    0.973
    63   1 H    0.999 --    39 C    0.970
    64   1 H    0.998 --    43 C    0.970
    65   1 H    0.998 --    44 C    0.973
    66   1 H    0.954 --    46 N    0.900
    67   1 H    0.997 --    47 C    0.964
    68   1 H    0.999 --    49 C    0.973
    69   1 H    0.999 --    50 C    0.973
    70   1 H    0.997 --    53 C    0.965
    71   1 H    0.998 --    55 C    0.973
    72   1 H    0.998 --    56 C    0.973
    73   1 H    0.954 --    58 N    0.900
    74   1 H    0.997 --    59 C    0.964
    75   6 C    3.920 --    76 C    2.567     4 C    1.176
    76   6 C    3.924 --    75 C    2.567    86 C    1.179
    77   6 C    3.921 --    78 C    2.558    98 C    1.186
    78   6 C    3.921 --    77 C    2.558   122 C    1.187
    79   6 C    3.921 --    80 C    2.559   134 C    1.184
    80   6 C    3.920 --    79 C    2.559   158 C    1.184
    81   6 C    3.924 --    82 C    2.567   170 C    1.179
    82   6 C    3.920 --    81 C    2.567    41 C    1.176
    83   6 C    3.961 --    84 C    1.716   105 C    1.115   107 H    0.973
    84   6 C    3.961 --    83 C    1.716    85 C    1.123   108 H    0.970
    85   6 C    3.923 --   106 N    1.360    86 C    1.248    84 C    1.123
    86   6 C    3.925 --    87 C    1.250    85 C    1.248    76 C    1.179
    87   6 C    3.909 --    86 C    1.250    88 C    1.240    91 N    1.225
    88   6 C    3.952 --    89 C    1.589    87 C    1.240   109 H    0.970
    89   6 C    3.949 --    88 C    1.589    90 C    1.227   110 H    0.973
    90   6 C    3.914 --    92 C    1.336    89 C    1.227    91 N    1.204
    91   7 N    3.586 --    87 C    1.225    90 C    1.204   111 H    0.898
    92   6 C    3.923 --    93 C    1.371    90 C    1.336   112 H    0.963
    93   6 C    3.927 --    92 C    1.371    97 N    1.295    94 C    1.115
    94   6 C    3.961 --    95 C    1.715    93 C    1.115   113 H    0.973
    95   6 C    3.961 --    94 C    1.715    96 C    1.123   114 H    0.968
    96   6 C    3.921 --    97 N    1.363    98 C    1.244    95 C    1.123
    97   7 N    3.000 --    96 C    1.363    93 C    1.295
    98   6 C    3.927 --    99 C    1.247    96 C    1.244    77 C    1.186
    99   6 C    3.907 --    98 C    1.247   100 C    1.240   103 N    1.226
   100   6 C    3.953 --   101 C    1.588    99 C    1.240   115 H    0.969
   101   6 C    3.949 --   100 C    1.588   102 C    1.227   116 H    0.973
   102   6 C    3.915 --   104 C    1.337   101 C    1.227   103 N    1.203
   103   7 N    3.586 --    99 C    1.226   102 C    1.203   117 H    0.898
   104   6 C    3.922 --   105 C    1.370   102 C    1.337   118 H    0.963
   105   6 C    3.928 --   104 C    1.370   106 N    1.298    83 C    1.115
   106   7 N    3.000 --    85 C    1.360   105 C    1.298
   107   1 H    0.999 --    83 C    0.973
   108   1 H    0.999 --    84 C    0.970
   109   1 H    0.998 --    88 C    0.970
   110   1 H    0.998 --    89 C    0.973
   111   1 H    0.954 --    91 N    0.898
   112   1 H    0.997 --    92 C    0.963
   113   1 H    0.999 --    94 C    0.973
   114   1 H    0.999 --    95 C    0.968
   115   1 H    0.998 --   100 C    0.969
   116   1 H    0.998 --   101 C    0.973
   117   1 H    0.954 --   103 N    0.898
   118   1 H    0.997 --   104 C    0.963
   119   6 C    3.961 --   120 C    1.715   141 C    1.115   143 H    0.973
   120   6 C    3.961 --   119 C    1.715   121 C    1.124   144 H    0.969
   121   6 C    3.921 --   142 N    1.363   122 C    1.244   120 C    1.124
   122   6 C    3.926 --   123 C    1.247   121 C    1.244    78 C    1.187
   123   6 C    3.907 --   122 C    1.247   124 C    1.241   127 N    1.226
   124   6 C    3.952 --   125 C    1.587   123 C    1.241   145 H    0.969
   125   6 C    3.949 --   124 C    1.587   126 C    1.228   146 H    0.973
   126   6 C    3.914 --   128 C    1.336   125 C    1.228   127 N    1.204
   127   7 N    3.585 --   123 C    1.226   126 C    1.204   147 H    0.897
   128   6 C    3.922 --   129 C    1.371   126 C    1.336   148 H    0.963
   129   6 C    3.927 --   128 C    1.371   133 N    1.296   130 C    1.115
   130   6 C    3.961 --   131 C    1.715   129 C    1.115   149 H    0.973
   131   6 C    3.961 --   130 C    1.715   132 C    1.123   150 H    0.969
   132   6 C    3.922 --   133 N    1.362   134 C    1.245   131 C    1.123
   133   7 N    3.000 --   132 C    1.362   129 C    1.296
   134   6 C    3.925 --   135 C    1.248   132 C    1.245    79 C    1.184
   135   6 C    3.908 --   134 C    1.248   136 C    1.241   139 N    1.226
   136   6 C    3.952 --   137 C    1.588   135 C    1.241   151 H    0.970
   137   6 C    3.949 --   136 C    1.588   138 C    1.228   152 H    0.973
   138   6 C    3.914 --   140 C    1.336   137 C    1.228   139 N    1.204
   139   7 N    3.585 --   135 C    1.226   138 C    1.204   153 H    0.897
   140   6 C    3.922 --   141 C    1.371   138 C    1.336   154 H    0.963
   141   6 C    3.927 --   140 C    1.371   142 N    1.295   119 C    1.115
   142   7 N    3.000 --   121 C    1.363   141 C    1.295
   143   1 H    0.999 --   119 C    0.973
   144   1 H    0.999 --   120 C    0.969
   145   1 H    0.998 --   124 C    0.969
   146   1 H    0.998 --   125 C    0.973
   147   1 H    0.954 --   127 N    0.897
   148   1 H    0.997 --   128 C    0.963
   149   1 H    0.999 --   130 C    0.973
   150   1 H    0.999 --   131 C    0.969
   151   1 H    0.998 --   136 C    0.970
   152   1 H    0.998 --   137 C    0.973
   153   1 H    0.954 --   139 N    0.897
   154   1 H    0.997 --   140 C    0.963
   155   6 C    3.961 --   156 C    1.716   177 C    1.115   179 H    0.973
   156   6 C    3.961 --   155 C    1.716   157 C    1.123   180 H    0.969
   157   6 C    3.922 --   178 N    1.363   158 C    1.245   156 C    1.123
   158   6 C    3.927 --   159 C    1.249   157 C    1.245    80 C    1.184
   159   6 C    3.908 --   158 C    1.249   160 C    1.240   163 N    1.226
   160   6 C    3.953 --   161 C    1.588   159 C    1.240   181 H    0.970
   161   6 C    3.949 --   160 C    1.588   162 C    1.227   182 H    0.973
   162   6 C    3.915 --   164 C    1.337   161 C    1.227   163 N    1.203
   163   7 N    3.586 --   159 C    1.226   162 C    1.203   183 H    0.898
   164   6 C    3.922 --   165 C    1.370   162 C    1.337   184 H    0.963
   165   6 C    3.928 --   164 C    1.370   169 N    1.298   166 C    1.115
   166   6 C    3.961 --   167 C    1.716   165 C    1.115   185 H    0.973
   167   6 C    3.961 --   166 C    1.716   168 C    1.123   186 H    0.970
   168   6 C    3.923 --   169 N    1.360   170 C    1.248   167 C    1.123
   169   7 N    3.000 --   168 C    1.360   165 C    1.298
   170   6 C    3.926 --   171 C    1.250   168 C    1.248    81 C    1.179
   171   6 C    3.909 --   170 C    1.250   172 C    1.240   175 N    1.225
   172   6 C    3.952 --   173 C    1.589   171 C    1.240   187 H    0.970
   173   6 C    3.949 --   172 C    1.589   174 C    1.227   188 H    0.973
   174   6 C    3.914 --   176 C    1.336   173 C    1.227   175 N    1.204
   175   7 N    3.586 --   171 C    1.225   174 C    1.204   189 H    0.898
   176   6 C    3.923 --   177 C    1.371   174 C    1.336   190 H    0.963
   177   6 C    3.927 --   176 C    1.371   178 N    1.296   155 C    1.115
   178   7 N    3.000 --   157 C    1.363   177 C    1.296
   179   1 H    0.999 --   155 C    0.973
   180   1 H    0.999 --   156 C    0.969
   181   1 H    0.998 --   160 C    0.970
   182   1 H    0.998 --   161 C    0.973
   183   1 H    0.954 --   163 N    0.898
   184   1 H    0.997 --   164 C    0.963
   185   1 H    0.999 --   166 C    0.973
   186   1 H    0.999 --   167 C    0.970
   187   1 H    0.998 --   172 C    0.970
   188   1 H    0.998 --   173 C    0.973
   189   1 H    0.954 --   175 N    0.898
   190   1 H    0.997 --   176 C    0.963
 ---------------------------------------------------------------------------

Topologies differ in total number of bonds
Writing topology from bond orders to xtbtopo.mol

molecular dipole:
                 x           y           z       tot (Debye)
 q only:        0.001       0.002      -0.002
   full:        0.000       0.000      -0.019       0.047
molecular quadrupole (traceless):
                xx          xy          yy          xz          yz          zz
 q only:       42.909     -51.774      -3.669       3.991      -2.768     -39.240
  q+dip:       91.464     -26.266      17.201      -1.129      -9.184    -108.665
   full:       63.057     -25.041       4.588      -1.401      -5.306     -67.644


           -------------------------------------------------
          | TOTAL ENERGY             -321.120365203489 Eh   |
          | GRADIENT NORM               0.000525714874 Eh/α |
          | HOMO-LUMO GAP               0.781645397378 eV   |
           -------------------------------------------------

------------------------------------------------------------------------
 * finished run on 2021/11/21 at 19:10:19.529     
------------------------------------------------------------------------
 total:
 * wall-time:     0 d,  0 h,  0 min,  1.647 sec
 *  cpu-time:     0 d,  0 h,  0 min,  1.647 sec
 * ratio c/w:     1.000 speedup
 SCF:
 * wall-time:     0 d,  0 h,  0 min,  1.553 sec
 *  cpu-time:     0 d,  0 h,  0 min,  1.553 sec
 * ratio c/w:     1.000 speedup

