 Entering Gaussian System
 *********************************************
 Gaussian 98:
 frequency output generated by the xtb code
 *********************************************
                         Standard orientation:
 --------------------------------------------------------------------
  Center     Atomic     Atomic              Coordinates (Angstroms)
  Number     Number      Type              X           Y           Z
 --------------------------------------------------------------------
    1         26             0        9.302516   -0.061560    0.072335
    2          6             0       11.825437   -3.426086    0.801893
    3          6             0       12.736671   -2.438096    0.645215
    4          6             0       12.005121   -1.243418    0.336012
    5          6             0       12.635083   -0.028396    0.045096
    6          6             0       11.976602    1.174271   -0.233871
    7          6             0       12.679129    2.383678   -0.553207
    8          6             0       11.745903    3.353452   -0.693654
    9          6             0       10.476750    2.729286   -0.472395
   10          7             0       10.630488    1.395830   -0.209945
   11          6             0        9.262656    3.385836   -0.501763
   12          6             0        8.063543    2.727932   -0.319664
   13          6             0        6.771879    3.350068   -0.349517
   14          6             0        5.866628    2.359595   -0.184451
   15          6             0        6.607648    1.135529   -0.052341
   16          7             0        7.950065    1.381354   -0.125652
   17          6             0        5.998176   -0.094973    0.096676
   18          6             0        6.634486   -1.312872    0.236843
   19          6             0        5.920389   -2.551613    0.379950
   20          6             0        6.847801   -3.523453    0.532323
   21          6             0        8.126015   -2.875312    0.483612
   22          7             0        7.982513   -1.531445    0.290729
   23          6             0        9.340755   -3.508633    0.648443
   24          6             0       10.540703   -2.827682    0.600282
   25          7             0       10.663480   -1.491713    0.334250
   26          1             0       11.989190   -4.460334    1.034576
   27          1             0       13.803357   -2.490574    0.739083
   28          1             0       13.742933    2.457873   -0.663908
   29          1             0       11.885218    4.391042   -0.927400
   30          1             0        9.252182    4.449894   -0.681247
   31          1             0        6.603862    4.401235   -0.483481
   32          1             0        4.796046    2.427084   -0.154242
   33          1             0        4.917563   -0.105899    0.104478
   34          1             0        4.851070   -2.640803    0.365242
   35          1             0        6.703088   -4.577727    0.669055
   36          1             0        9.354597   -4.572546    0.828510
   37          6             0       14.042493   -0.014694    0.031776
   38          6             0       15.254432   -0.007700    0.018583
   39         26             0       19.993236    0.061477   -0.072421
   40          6             0       17.476217    3.403284    0.771452
   41          6             0       16.565753    2.412200    0.630431
   42          6             0       17.293795    1.225448    0.284500
   43          6             0       16.661690    0.010533   -0.002578
   44          6             0       17.317946   -1.186396   -0.309662
   45          6             0       16.612732   -2.397266   -0.617177
   46          6             0       17.546404   -3.361256   -0.790587
   47          6             0       18.818223   -2.731864   -0.601734
   48          7             0       18.665320   -1.401096   -0.325577
   49          6             0       20.034368   -3.381519   -0.671889
   50          6             0       21.234915   -2.718046   -0.522315
   51          6             0       22.528490   -3.332430   -0.596844
   52          6             0       23.432907   -2.337686   -0.454342
   53          6             0       22.689539   -1.118802   -0.291143
   54          7             0       21.346891   -1.372078   -0.323264
   55          6             0       23.296358    0.114424   -0.154287
   56          6             0       22.657856    1.327444    0.015171
   57          6             0       23.368959    2.569492    0.143791
   58          6             0       22.441492    3.534193    0.336023
   59          6             0       21.166281    2.878441    0.325715
   60          7             0       21.311148    1.537186    0.116368
   61          6             0       19.954154    3.502499    0.538253
   62          6             0       18.757239    2.814727    0.522806
   63          7             0       18.633447    1.481150    0.245400
   64          1             0       17.314244    4.433670    1.021835
   65          1             0       15.502206    2.457500    0.757828
   66          1             0       15.546567   -2.476295   -0.697568
   67          1             0       17.405708   -4.398028   -1.027130
   68          1             0       20.045105   -4.444270   -0.858961
   69          1             0       22.698138   -4.381742   -0.742782
   70          1             0       24.504273   -2.399102   -0.458463
   71          1             0       24.376568    0.131864   -0.181751
   72          1             0       24.436580    2.665546    0.093090
   73          1             0       22.584445    4.588230    0.476340
   74          1             0       19.940159    4.564461    0.729470
 --------------------------------------------------------------------
     1 basis functions        1 primitive gaussians
     1 alpha electrons        1 beta electrons

 Harmonic frequencies (cm**-1), IR intensities (km*mol⁻¹),
 Raman scattering activities (A**4/amu), Raman depolarization ratios,
 reduced masses (AMU), force constants (mDyne/A) and normal coordinates:
                      1                      2                      3
                        a                      a                      a 
 Frequencies --     8.9591                 9.8892                10.6750
 Red. masses --    11.3111                11.2616                11.3605
 Frc consts  --     0.0000                 0.0000                 0.0000
 IR Inten    --     2.3214                15.5996                 0.9691
 Raman Activ --     0.0000                 0.0000                 0.0000
 Depolar     --     0.0000                 0.0000                 0.0000
 Atom AN      X      Y      Z        X      Y      Z        X      Y      Z
   1  26     0.00   0.00  -0.01     0.00   0.00  -0.00     0.00   0.01  -0.03
   2   6    -0.02   0.01   0.14    -0.01  -0.04  -0.15    -0.11  -0.09  -0.09
   3   6    -0.02   0.01   0.16    -0.01  -0.03  -0.09    -0.07  -0.12  -0.08
   4   6    -0.01   0.01   0.12    -0.00  -0.02  -0.05    -0.04  -0.09  -0.05
   5   6     0.00   0.01   0.14    -0.00  -0.01  -0.01     0.00  -0.11  -0.04
   6   6     0.01   0.01   0.13    -0.00   0.00   0.02     0.04  -0.09  -0.06
   7   6     0.02   0.02   0.17    -0.00   0.01   0.05     0.08  -0.12  -0.09
   8   6     0.03   0.02   0.16     0.00   0.02   0.11     0.11  -0.09  -0.11
   9   6     0.02   0.01   0.10     0.00   0.02   0.12     0.09  -0.05  -0.08
  10   7     0.01   0.01   0.08     0.00   0.01   0.06     0.05  -0.05  -0.06
  11   6     0.02   0.01   0.05     0.01   0.03   0.18     0.11  -0.00  -0.07
  12   6     0.01   0.00  -0.04     0.01   0.03   0.18     0.09   0.05  -0.02
  13   6     0.01  -0.01  -0.11     0.01   0.04   0.25     0.12   0.09   0.01
  14   6     0.00  -0.02  -0.19     0.01   0.03   0.21     0.08   0.13   0.07
  15   6     0.00  -0.01  -0.16     0.01   0.02   0.11     0.04   0.11   0.06
  16   7     0.01  -0.00  -0.07     0.01   0.02   0.11     0.05   0.06   0.01
  17   6     0.00  -0.02  -0.22     0.00   0.01   0.03    -0.00   0.13   0.10
  18   6    -0.00  -0.02  -0.18    -0.00  -0.00  -0.07    -0.04   0.11   0.08
  19   6    -0.00  -0.02  -0.22    -0.00  -0.01  -0.16    -0.09   0.13   0.10
  20   6    -0.01  -0.01  -0.15    -0.01  -0.02  -0.22    -0.12   0.10   0.05
  21   6    -0.01  -0.00  -0.07    -0.01  -0.02  -0.17    -0.09   0.05   0.01
  22   7    -0.00  -0.01  -0.09    -0.00  -0.01  -0.09    -0.05   0.06   0.02
  23   6    -0.02   0.00   0.01    -0.01  -0.03  -0.20    -0.11  -0.00  -0.04
  24   6    -0.02   0.01   0.07    -0.01  -0.03  -0.14    -0.09  -0.04  -0.06
  25   7    -0.01   0.01   0.07    -0.00  -0.02  -0.08    -0.05  -0.05  -0.05
  26   1    -0.01   0.00   0.05    -0.00  -0.01  -0.06    -0.04  -0.03  -0.03
  27   1    -0.01   0.00   0.06    -0.00  -0.01  -0.02    -0.02  -0.05  -0.03
  28   1     0.01   0.01   0.06    -0.00   0.00   0.01     0.02  -0.05  -0.03
  29   1     0.01   0.01   0.05     0.00   0.01   0.04     0.04  -0.03  -0.04
  30   1     0.01   0.00   0.02     0.00   0.01   0.07     0.04  -0.00  -0.03
  31   1     0.00  -0.00  -0.03     0.00   0.01   0.09     0.04   0.03  -0.00
  32   1     0.00  -0.01  -0.08     0.00   0.01   0.07     0.03   0.05   0.03
  33   1    -0.00  -0.01  -0.08     0.00   0.00   0.01    -0.00   0.05   0.04
  34   1    -0.00  -0.01  -0.09    -0.00  -0.00  -0.05    -0.03   0.05   0.04
  35   1    -0.00  -0.00  -0.05    -0.00  -0.01  -0.09    -0.04   0.03   0.01
  36   1    -0.01   0.00   0.01    -0.00  -0.01  -0.08    -0.04  -0.00  -0.02
  37   6     0.00   0.00   0.16    -0.00  -0.01  -0.01     0.00  -0.14  -0.02
  38   6     0.00  -0.01   0.16    -0.00  -0.01  -0.01     0.00  -0.14   0.02
  39  26    -0.00  -0.00  -0.01    -0.00   0.00   0.00    -0.00   0.01   0.03
  40   6     0.03  -0.02   0.14    -0.01   0.03  -0.14    -0.10  -0.10   0.10
  41   6     0.02  -0.02   0.16    -0.00   0.01  -0.08    -0.07  -0.12   0.09
  42   6     0.01  -0.01   0.12    -0.00   0.00  -0.05    -0.04  -0.09   0.06
  43   6     0.00  -0.01   0.14    -0.00  -0.01  -0.01     0.00  -0.11   0.04
  44   6    -0.01  -0.01   0.13     0.00  -0.01   0.03     0.04  -0.09   0.05
  45   6    -0.02  -0.02   0.18     0.01  -0.03   0.07     0.08  -0.12   0.08
  46   6    -0.02  -0.02   0.16     0.02  -0.03   0.13     0.11  -0.09   0.09
  47   6    -0.01  -0.01   0.10     0.01  -0.03   0.13     0.09  -0.04   0.06
  48   7    -0.01  -0.01   0.08     0.01  -0.02   0.07     0.05  -0.05   0.05
  49   6    -0.01  -0.01   0.05     0.01  -0.03   0.19     0.11   0.00   0.04
  50   6    -0.01   0.00  -0.04     0.01  -0.02   0.18     0.09   0.05  -0.00
  51   6    -0.01   0.01  -0.11     0.01  -0.03   0.24     0.11   0.10  -0.04
  52   6    -0.01   0.02  -0.19     0.01  -0.02   0.19     0.08   0.14  -0.09
  53   6    -0.01   0.02  -0.17     0.00  -0.01   0.10     0.04   0.11  -0.07
  54   7    -0.01   0.01  -0.08     0.01  -0.01   0.11     0.05   0.06  -0.02
  55   6    -0.01   0.02  -0.22    -0.00   0.01   0.01    -0.00   0.13  -0.09
  56   6    -0.00   0.02  -0.18    -0.01   0.02  -0.08    -0.05   0.11  -0.06
  57   6    -0.01   0.02  -0.22    -0.01   0.03  -0.17    -0.09   0.13  -0.06
  58   6    -0.00   0.02  -0.15    -0.02   0.04  -0.23    -0.12   0.09  -0.01
  59   6     0.00   0.01  -0.07    -0.01   0.03  -0.17    -0.09   0.04   0.02
  60   7     0.00   0.01  -0.09    -0.01   0.02  -0.09    -0.05   0.06  -0.01
  61   6     0.01  -0.00   0.01    -0.01   0.03  -0.19    -0.11  -0.01   0.07
  62   6     0.02  -0.01   0.07    -0.01   0.02  -0.13    -0.09  -0.05   0.08
  63   7     0.01  -0.01   0.07    -0.01   0.01  -0.08    -0.05  -0.05   0.06
  64   1     0.01  -0.01   0.05    -0.00   0.01  -0.05    -0.04  -0.03   0.04
  65   1     0.01  -0.01   0.06    -0.00   0.00  -0.02    -0.02  -0.05   0.03
  66   1    -0.01  -0.01   0.06     0.00  -0.01   0.01     0.02  -0.05   0.03
  67   1    -0.01  -0.01   0.06     0.01  -0.01   0.05     0.04  -0.03   0.03
  68   1    -0.01  -0.00   0.02     0.00  -0.01   0.07     0.04  -0.00   0.02
  69   1    -0.00   0.00  -0.03     0.00  -0.01   0.09     0.04   0.03  -0.01
  70   1    -0.00   0.01  -0.08     0.00  -0.00   0.06     0.02   0.05  -0.04
  71   1    -0.00   0.01  -0.09    -0.00   0.00   0.00    -0.00   0.05  -0.04
  72   1    -0.00   0.01  -0.09    -0.00   0.01  -0.05    -0.03   0.05  -0.03
  73   1     0.00   0.00  -0.04    -0.01   0.01  -0.09    -0.04   0.03   0.00
  74   1     0.01  -0.00   0.01    -0.01   0.01  -0.07    -0.04  -0.00   0.03
                      4                      5                      6
                        a                      a                      a 
 Frequencies --    29.0721                30.1547                40.5882
 Red. masses --    11.8245                10.9357                11.4034
 Frc consts  --     0.0000                 0.0000                 0.0000
 IR Inten    --     0.4101                 7.3998                 0.5743
 Raman Activ --     0.0000                 0.0000                 0.0000
 Depolar     --     0.0000                 0.0000                 0.0000
 Atom AN      X      Y      Z        X      Y      Z        X      Y      Z
   1  26    -0.00  -0.01  -0.08    -0.00   0.00  -0.01     0.00  -0.05   0.03
   2   6     0.07   0.03  -0.15     0.02  -0.04  -0.23    -0.05  -0.08  -0.08
   3   6     0.04   0.06  -0.08     0.02  -0.04  -0.22    -0.04  -0.07   0.07
   4   6     0.02   0.05  -0.06     0.01  -0.02  -0.10    -0.02  -0.05   0.11
   5   6    -0.00   0.07  -0.04     0.01   0.01  -0.01     0.00  -0.04   0.19
   6   6    -0.03   0.05  -0.08     0.00   0.03   0.09     0.02  -0.05   0.11
   7   6    -0.05   0.05  -0.13     0.01   0.06   0.20     0.04  -0.07   0.07
   8   6    -0.08   0.02  -0.19     0.00   0.05   0.19     0.05  -0.08  -0.08
   9   6    -0.06  -0.00  -0.17    -0.00   0.02   0.07     0.04  -0.07  -0.12
  10   7    -0.03   0.02  -0.11     0.00   0.01   0.04     0.02  -0.05  -0.00
  11   6    -0.07  -0.02  -0.16    -0.01  -0.00  -0.02     0.05  -0.06  -0.20
  12   6    -0.06  -0.03  -0.05    -0.02  -0.02  -0.11     0.04  -0.02  -0.13
  13   6    -0.06  -0.04   0.04    -0.02  -0.03  -0.20     0.05   0.00  -0.10
  14   6    -0.04  -0.04   0.17    -0.02  -0.03  -0.18     0.04   0.04   0.05
  15   6    -0.02  -0.03   0.14    -0.01  -0.02  -0.08     0.02   0.03   0.09
  16   7    -0.03  -0.03   0.01    -0.01  -0.01  -0.06     0.02  -0.01  -0.02
  17   6     0.00  -0.03   0.21    -0.01  -0.00   0.03     0.00   0.05   0.17
  18   6     0.02  -0.03   0.12    -0.00   0.01   0.11    -0.02   0.03   0.09
  19   6     0.04  -0.05   0.12    -0.00   0.02   0.22    -0.04   0.03   0.05
  20   6     0.07  -0.05  -0.01    -0.00   0.02   0.21    -0.05  -0.00  -0.10
  21   6     0.06  -0.03  -0.08     0.00   0.01   0.09    -0.04  -0.03  -0.13
  22   7     0.03  -0.03  -0.00    -0.00   0.00   0.06    -0.02  -0.01  -0.01
  23   6     0.07  -0.02  -0.16     0.01  -0.00  -0.02    -0.04  -0.06  -0.20
  24   6     0.06   0.00  -0.15     0.01  -0.02  -0.11    -0.04  -0.07  -0.12
  25   7     0.03   0.02  -0.10     0.01  -0.01  -0.06    -0.02  -0.05  -0.00
  26   1     0.03   0.01  -0.05     0.01  -0.02  -0.09    -0.02  -0.03  -0.05
  27   1     0.01   0.03  -0.01     0.01  -0.02  -0.08    -0.01  -0.02   0.04
  28   1    -0.01   0.02  -0.03     0.00   0.02   0.08     0.02  -0.02   0.04
  29   1    -0.03   0.00  -0.07     0.00   0.02   0.07     0.02  -0.03  -0.05
  30   1    -0.03  -0.01  -0.06    -0.00  -0.00  -0.01     0.02  -0.02  -0.09
  31   1    -0.02  -0.01   0.00    -0.01  -0.01  -0.08     0.02  -0.00  -0.05
  32   1    -0.01  -0.01   0.08    -0.01  -0.01  -0.07     0.01   0.02   0.03
  33   1     0.00  -0.01   0.09    -0.00  -0.00   0.01     0.00   0.02   0.07
  34   1     0.01  -0.02   0.06    -0.00   0.01   0.08    -0.01   0.02   0.03
  35   1     0.02  -0.02  -0.02     0.00   0.01   0.08    -0.02  -0.00  -0.05
  36   1     0.03  -0.01  -0.06     0.00  -0.00  -0.01    -0.02  -0.02  -0.09
  37   6    -0.00   0.10  -0.01     0.01   0.01  -0.00     0.00  -0.03   0.26
  38   6    -0.00   0.10   0.01     0.01   0.01   0.00     0.00   0.03   0.26
  39  26     0.00  -0.01   0.08    -0.00  -0.00   0.01    -0.00   0.05   0.03
  40   6     0.07   0.03   0.14     0.03  -0.05   0.23     0.05   0.09  -0.08
  41   6     0.05   0.06   0.07     0.02  -0.05   0.22     0.04   0.07   0.07
  42   6     0.02   0.05   0.06     0.01  -0.02   0.10     0.02   0.05   0.11
  43   6    -0.00   0.07   0.04     0.01   0.01   0.00     0.00   0.04   0.19
  44   6    -0.02   0.05   0.08     0.00   0.03  -0.09    -0.02   0.04   0.11
  45   6    -0.05   0.05   0.13     0.00   0.06  -0.19    -0.04   0.07   0.07
  46   6    -0.07   0.01   0.20    -0.00   0.05  -0.18    -0.06   0.08  -0.08
  47   6    -0.06  -0.00   0.17    -0.00   0.02  -0.07    -0.04   0.07  -0.12
  48   7    -0.03   0.01   0.12     0.00   0.01  -0.03    -0.02   0.05  -0.00
  49   6    -0.07  -0.03   0.16    -0.01  -0.00   0.03    -0.05   0.06  -0.20
  50   6    -0.05  -0.03   0.05    -0.01  -0.02   0.11    -0.04   0.03  -0.13
  51   6    -0.06  -0.04  -0.04    -0.01  -0.03   0.21    -0.05  -0.00  -0.10
  52   6    -0.05  -0.04  -0.18    -0.01  -0.03   0.19    -0.04  -0.04   0.05
  53   6    -0.02  -0.03  -0.15    -0.01  -0.02   0.08    -0.02  -0.03   0.09
  54   7    -0.03  -0.03  -0.01    -0.01  -0.01   0.06    -0.02   0.01  -0.01
  55   6    -0.00  -0.03  -0.21    -0.01  -0.00  -0.03     0.00  -0.05   0.17
  56   6     0.02  -0.03  -0.12    -0.01   0.01  -0.11     0.02  -0.03   0.09
  57   6     0.04  -0.05  -0.12    -0.01   0.02  -0.22     0.04  -0.03   0.05
  58   6     0.07  -0.05   0.01    -0.01   0.02  -0.21     0.05   0.00  -0.10
  59   6     0.06  -0.03   0.08    -0.00   0.01  -0.09     0.03   0.03  -0.13
  60   7     0.03  -0.03   0.00    -0.00   0.00  -0.06     0.02   0.01  -0.02
  61   6     0.08  -0.02   0.16     0.01  -0.01   0.02     0.04   0.06  -0.20
  62   6     0.06   0.00   0.14     0.02  -0.02   0.11     0.03   0.07  -0.12
  63   7     0.03   0.02   0.10     0.01  -0.01   0.06     0.02   0.05  -0.00
  64   1     0.03   0.01   0.05     0.01  -0.02   0.09     0.02   0.03  -0.05
  65   1     0.01   0.03   0.01     0.01  -0.02   0.08     0.01   0.02   0.04
  66   1    -0.01   0.02   0.03     0.00   0.02  -0.08    -0.01   0.02   0.04
  67   1    -0.03   0.00   0.07    -0.00   0.02  -0.07    -0.02   0.03  -0.05
  68   1    -0.03  -0.01   0.06    -0.00  -0.00   0.01    -0.02   0.02  -0.09
  69   1    -0.02  -0.01  -0.00    -0.00  -0.01   0.08    -0.02   0.00  -0.05
  70   1    -0.01  -0.01  -0.08    -0.00  -0.01   0.07    -0.01  -0.02   0.04
  71   1    -0.00  -0.01  -0.09    -0.00  -0.00  -0.01     0.00  -0.02   0.07
  72   1     0.01  -0.02  -0.06    -0.00   0.01  -0.09     0.01  -0.02   0.03
  73   1     0.03  -0.02   0.02    -0.00   0.01  -0.08     0.02   0.00  -0.05
  74   1     0.03  -0.01   0.06     0.00  -0.00   0.01     0.01   0.02  -0.09
                      7                      8                      9
                        a                      a                      a 
 Frequencies --    42.9998                63.3291                73.9583
 Red. masses --    11.2442                13.0718                18.2363
 Frc consts  --     0.0000                 0.0000                 0.0000
 IR Inten    --     1.8977                 0.0739                 0.5490
 Raman Activ --     0.0000                 0.0000                 0.0000
 Depolar     --     0.0000                 0.0000                 0.0000
 Atom AN      X      Y      Z        X      Y      Z        X      Y      Z
   1  26     0.05   0.00  -0.00     0.00   0.14   0.03     0.02  -0.04  -0.28
   2   6     0.02   0.05   0.24     0.10   0.13  -0.02     0.03   0.02  -0.00
   3   6     0.01   0.05   0.21     0.06   0.17   0.05     0.02   0.01  -0.12
   4   6     0.01   0.02   0.10     0.03   0.15   0.05     0.01  -0.01  -0.16
   5   6     0.00   0.00   0.00     0.00   0.17   0.06     0.00  -0.01  -0.17
   6   6     0.01  -0.02  -0.10    -0.02   0.15   0.05    -0.00  -0.01  -0.16
   7   6     0.01  -0.05  -0.21    -0.06   0.17   0.05    -0.01   0.01  -0.11
   8   6     0.01  -0.05  -0.24    -0.10   0.13  -0.01    -0.01   0.03   0.00
   9   6     0.01  -0.02  -0.15    -0.08   0.09  -0.04    -0.00   0.02   0.02
  10   7     0.01  -0.01  -0.08    -0.04   0.11   0.00    -0.00  -0.00  -0.11
  11   6     0.02  -0.01  -0.07    -0.11   0.04  -0.10    -0.00   0.03   0.16
  12   6     0.03   0.01   0.05    -0.09   0.01  -0.08     0.00   0.02   0.13
  13   6     0.03   0.02   0.16    -0.11  -0.03  -0.07     0.00   0.02   0.21
  14   6     0.04   0.02   0.18    -0.07  -0.05   0.02     0.00  -0.01   0.06
  15   6     0.03   0.01   0.08    -0.03  -0.02   0.06     0.01  -0.02  -0.08
  16   7     0.03   0.01   0.03    -0.05   0.02  -0.00     0.01  -0.01  -0.03
  17   6     0.03   0.00   0.00     0.00  -0.03   0.11     0.01  -0.03  -0.15
  18   6     0.03  -0.01  -0.08     0.04  -0.02   0.06     0.01  -0.02  -0.08
  19   6     0.04  -0.02  -0.18     0.08  -0.05   0.03     0.02  -0.01   0.06
  20   6     0.03  -0.02  -0.16     0.11  -0.03  -0.07     0.02   0.02   0.22
  21   6     0.03  -0.01  -0.05     0.09   0.01  -0.08     0.01   0.01   0.14
  22   7     0.04  -0.01  -0.03     0.05   0.02  -0.00     0.02  -0.01  -0.03
  23   6     0.03   0.01   0.06     0.11   0.04  -0.11     0.02   0.02   0.16
  24   6     0.02   0.02   0.14     0.08   0.09  -0.05     0.02   0.01   0.01
  25   7     0.01   0.01   0.08     0.04   0.11   0.00     0.01  -0.01  -0.11
  26   1     0.01   0.02   0.09     0.04   0.04  -0.01     0.01   0.01   0.02
  27   1     0.00   0.02   0.07     0.02   0.06   0.03     0.01   0.00  -0.04
  28   1     0.00  -0.02  -0.07    -0.02   0.06   0.03    -0.00   0.00  -0.04
  29   1     0.00  -0.02  -0.09    -0.04   0.04  -0.01    -0.00   0.01   0.02
  30   1     0.01  -0.00  -0.03    -0.04   0.01  -0.05    -0.00   0.02   0.08
  31   1     0.01   0.01   0.06    -0.04  -0.01  -0.04     0.00   0.01   0.10
  32   1     0.01   0.01   0.07    -0.02  -0.02   0.02     0.00  -0.01   0.02
  33   1     0.01  -0.00   0.00     0.00  -0.02   0.05     0.00  -0.01  -0.05
  34   1     0.01  -0.01  -0.07     0.02  -0.02   0.02     0.00  -0.00   0.02
  35   1     0.01  -0.01  -0.06     0.04  -0.01  -0.04     0.00   0.01   0.11
  36   1     0.01   0.00   0.02     0.04   0.01  -0.05     0.01   0.01   0.08
  37   6     0.00   0.00  -0.00     0.00   0.13   0.04    -0.00   0.01  -0.09
  38   6    -0.00   0.00  -0.00     0.00  -0.13   0.04     0.00   0.01   0.09
  39  26    -0.05  -0.00   0.00    -0.00  -0.14   0.03    -0.01  -0.04   0.28
  40   6    -0.01  -0.06   0.24    -0.10  -0.13  -0.02     0.01   0.03   0.00
  41   6    -0.01  -0.05   0.21    -0.06  -0.17   0.05     0.01   0.01   0.11
  42   6    -0.01  -0.02   0.10    -0.02  -0.15   0.05     0.01  -0.01   0.16
  43   6    -0.00  -0.00  -0.00     0.00  -0.17   0.05     0.00  -0.01   0.17
  44   6    -0.01   0.02  -0.10     0.03  -0.15   0.05    -0.01  -0.01   0.16
  45   6    -0.02   0.05  -0.21     0.06  -0.17   0.05    -0.02   0.01   0.11
  46   6    -0.02   0.05  -0.24     0.10  -0.13  -0.01    -0.03   0.02   0.00
  47   6    -0.02   0.02  -0.14     0.08  -0.09  -0.04    -0.02   0.01  -0.01
  48   7    -0.01   0.01  -0.08     0.04  -0.11   0.00    -0.01  -0.01   0.11
  49   6    -0.02   0.01  -0.06     0.10  -0.04  -0.11    -0.02   0.03  -0.16
  50   6    -0.03  -0.01   0.05     0.08  -0.01  -0.08    -0.02   0.01  -0.13
  51   6    -0.03  -0.02   0.16     0.10   0.03  -0.08    -0.02   0.02  -0.22
  52   6    -0.03  -0.02   0.18     0.07   0.05   0.02    -0.02  -0.01  -0.06
  53   6    -0.03  -0.01   0.08     0.04   0.02   0.06    -0.01  -0.03   0.08
  54   7    -0.03  -0.01   0.03     0.05  -0.02  -0.00    -0.01  -0.02   0.03
  55   6    -0.04   0.00  -0.00    -0.00   0.03   0.11    -0.01  -0.04   0.15
  56   6    -0.04   0.01  -0.08    -0.04   0.02   0.06    -0.01  -0.02   0.08
  57   6    -0.04   0.02  -0.18    -0.08   0.04   0.03    -0.01  -0.01  -0.06
  58   6    -0.04   0.02  -0.16    -0.11   0.03  -0.07    -0.01   0.02  -0.21
  59   6    -0.03   0.01  -0.05    -0.09  -0.01  -0.07    -0.01   0.02  -0.13
  60   7    -0.04   0.01  -0.03    -0.05  -0.02  -0.00    -0.01  -0.01   0.03
  61   6    -0.02  -0.01   0.07    -0.11  -0.04  -0.11    -0.00   0.04  -0.16
  62   6    -0.01  -0.03   0.15    -0.08  -0.09  -0.05     0.00   0.02  -0.01
  63   7    -0.01  -0.01   0.08    -0.04  -0.11   0.00     0.00  -0.00   0.11
  64   1    -0.00  -0.02   0.09    -0.04  -0.04  -0.01     0.00   0.01  -0.02
  65   1    -0.00  -0.02   0.07    -0.02  -0.06   0.03     0.00   0.00   0.04
  66   1    -0.00   0.02  -0.07     0.02  -0.06   0.03    -0.01   0.00   0.04
  67   1    -0.01   0.02  -0.09     0.04  -0.04  -0.01    -0.01   0.01  -0.02
  68   1    -0.01   0.00  -0.02     0.04  -0.01  -0.05    -0.01   0.01  -0.08
  69   1    -0.01  -0.01   0.06     0.04   0.01  -0.04    -0.01   0.01  -0.10
  70   1    -0.01  -0.01   0.07     0.02   0.02   0.02    -0.00  -0.00  -0.02
  71   1    -0.01   0.00  -0.00    -0.00   0.02   0.05    -0.00  -0.01   0.05
  72   1    -0.01   0.01  -0.07    -0.02   0.02   0.02    -0.00  -0.01  -0.02
  73   1    -0.01   0.01  -0.06    -0.04   0.01  -0.04    -0.00   0.01  -0.10
  74   1    -0.01  -0.00   0.03    -0.04  -0.01  -0.05    -0.00   0.02  -0.08
                     10                     11                     12
                        a                      a                      a 
 Frequencies --    76.1315                92.7919               102.3824
 Red. masses --    18.7332                29.9157                23.3909
 Frc consts  --     0.0000                 0.0000                 0.0000
 IR Inten    --     0.0345                 0.9326                 0.8462
 Raman Activ --     0.0000                 0.0000                 0.0000
 Depolar     --     0.0000                 0.0000                 0.0000
 Atom AN      X      Y      Z        X      Y      Z        X      Y      Z
   1  26     0.28   0.00   0.01    -0.00  -0.08  -0.46     0.00   0.07   0.37
   2   6     0.12  -0.03  -0.04    -0.01   0.04   0.15     0.03  -0.03  -0.21
   3   6     0.09   0.00  -0.01    -0.02   0.04   0.15     0.02  -0.03  -0.22
   4   6     0.06  -0.02   0.00    -0.01   0.01  -0.00     0.01   0.00  -0.06
   5   6     0.02  -0.00   0.01     0.00   0.01   0.00    -0.00   0.01  -0.05
   6   6     0.06   0.01   0.01     0.01   0.01  -0.00    -0.01   0.00  -0.05
   7   6     0.10  -0.01   0.02     0.02   0.04   0.15    -0.02  -0.03  -0.22
   8   6     0.13   0.02   0.04     0.01   0.04   0.15    -0.03  -0.03  -0.21
   9   6     0.11   0.06   0.03     0.00   0.00  -0.01    -0.01   0.00  -0.02
  10   7     0.07   0.05   0.02     0.00  -0.01  -0.11    -0.00   0.02   0.05
  11   6     0.12   0.07   0.01     0.00  -0.00  -0.00    -0.01   0.01   0.05
  12   6     0.13   0.04  -0.01     0.00  -0.01  -0.02    -0.01   0.01   0.09
  13   6     0.12   0.01  -0.05     0.01   0.01   0.14    -0.02  -0.01  -0.02
  14   6     0.14  -0.01  -0.05     0.01   0.01   0.16    -0.02  -0.03  -0.13
  15   6     0.16   0.01  -0.02     0.00  -0.00   0.01    -0.01  -0.01  -0.05
  16   7     0.17   0.04  -0.01     0.00  -0.02  -0.11    -0.00   0.01   0.10
  17   6     0.18   0.00   0.00     0.00   0.00   0.04    -0.00  -0.03  -0.12
  18   6     0.16  -0.00   0.03    -0.00  -0.00   0.01     0.01  -0.01  -0.05
  19   6     0.14   0.02   0.04    -0.01   0.01   0.16     0.02  -0.03  -0.13
  20   6     0.11  -0.01   0.02    -0.01   0.01   0.14     0.02  -0.01  -0.03
  21   6     0.13  -0.04  -0.00    -0.00  -0.01  -0.02     0.01   0.01   0.09
  22   7     0.17  -0.03   0.01    -0.00  -0.02  -0.10     0.01   0.01   0.10
  23   6     0.11  -0.07  -0.03    -0.00  -0.00  -0.00     0.01   0.01   0.05
  24   6     0.11  -0.06  -0.03    -0.00   0.00  -0.01     0.01   0.00  -0.02
  25   7     0.07  -0.05  -0.01    -0.00  -0.01  -0.11     0.01   0.02   0.06
  26   1     0.04  -0.01  -0.02    -0.01   0.02   0.07     0.01  -0.02  -0.09
  27   1     0.03   0.01   0.00    -0.01   0.02   0.08     0.01  -0.02  -0.09
  28   1     0.03  -0.01   0.00     0.01   0.02   0.08    -0.01  -0.02  -0.09
  29   1     0.05   0.01   0.01     0.01   0.02   0.07    -0.01  -0.02  -0.09
  30   1     0.03   0.02   0.01     0.00   0.00   0.02    -0.01   0.00   0.01
  31   1     0.03   0.00  -0.02     0.00   0.01   0.07    -0.01  -0.00  -0.01
  32   1     0.04  -0.01  -0.02     0.00   0.01   0.08    -0.01  -0.01  -0.07
  33   1     0.05   0.00   0.00     0.00   0.00   0.04    -0.00  -0.01  -0.07
  34   1     0.04   0.01   0.02    -0.00   0.01   0.08     0.01  -0.01  -0.07
  35   1     0.03  -0.00   0.01    -0.00   0.01   0.07     0.01  -0.00  -0.01
  36   1     0.03  -0.02  -0.01    -0.00   0.00   0.02     0.01   0.00   0.01
  37   6     0.00  -0.00   0.00     0.00   0.01   0.06    -0.00   0.02  -0.04
  38   6    -0.00   0.00  -0.01     0.00  -0.01   0.06     0.00   0.02   0.04
  39  26    -0.28   0.00  -0.02    -0.01   0.08  -0.46    -0.01   0.07  -0.37
  40   6    -0.12   0.03  -0.04     0.02  -0.04   0.15     0.03  -0.04   0.21
  41   6    -0.09  -0.00  -0.03     0.02  -0.04   0.15     0.03  -0.03   0.22
  42   6    -0.06   0.02  -0.02     0.01  -0.01  -0.00     0.01   0.00   0.05
  43   6    -0.02   0.00  -0.01    -0.00  -0.01   0.00     0.00   0.01   0.05
  44   6    -0.06  -0.01  -0.01    -0.01  -0.01  -0.00    -0.01   0.00   0.06
  45   6    -0.09   0.01   0.01    -0.01  -0.04   0.15    -0.02  -0.03   0.22
  46   6    -0.12  -0.03   0.04    -0.01  -0.04   0.15    -0.02  -0.03   0.21
  47   6    -0.11  -0.06   0.03    -0.01  -0.00  -0.01    -0.01   0.00   0.02
  48   7    -0.07  -0.05   0.00    -0.01   0.02  -0.11    -0.01   0.02  -0.06
  49   6    -0.12  -0.07   0.04    -0.00   0.00  -0.00    -0.01   0.01  -0.06
  50   6    -0.13  -0.04   0.01    -0.00   0.01  -0.02    -0.01   0.01  -0.09
  51   6    -0.12  -0.01  -0.02    -0.01  -0.01   0.14    -0.02  -0.01   0.03
  52   6    -0.14   0.01  -0.04    -0.01  -0.02   0.16    -0.01  -0.03   0.13
  53   6    -0.16  -0.00  -0.03    -0.00   0.00   0.01    -0.01  -0.01   0.05
  54   7    -0.17  -0.04  -0.01    -0.01   0.02  -0.10    -0.01   0.01  -0.10
  55   6    -0.18  -0.00  -0.01     0.00  -0.00   0.04     0.00  -0.03   0.12
  56   6    -0.16   0.00   0.02     0.01   0.00   0.01     0.01  -0.01   0.05
  57   6    -0.13  -0.02   0.06     0.01  -0.02   0.16     0.02  -0.03   0.13
  58   6    -0.11   0.00   0.06     0.01  -0.01   0.14     0.02  -0.01   0.02
  59   6    -0.13   0.03   0.02     0.00   0.01  -0.02     0.01   0.01  -0.08
  60   7    -0.17   0.03   0.01    -0.00   0.02  -0.10     0.00   0.01  -0.10
  61   6    -0.12   0.06  -0.01     0.00   0.00  -0.00     0.01   0.01  -0.05
  62   6    -0.11   0.06  -0.03     0.00  -0.00  -0.01     0.01   0.00   0.02
  63   7    -0.07   0.06  -0.02    -0.00   0.02  -0.10     0.00   0.02  -0.05
  64   1    -0.04   0.01  -0.01     0.01  -0.02   0.07     0.01  -0.02   0.09
  65   1    -0.03  -0.01  -0.00     0.01  -0.02   0.08     0.01  -0.02   0.09
  66   1    -0.03   0.01  -0.00    -0.01  -0.02   0.08    -0.01  -0.02   0.09
  67   1    -0.04  -0.01   0.02    -0.00  -0.02   0.07    -0.01  -0.02   0.09
  68   1    -0.03  -0.02   0.02     0.00  -0.00   0.02    -0.01   0.00  -0.01
  69   1    -0.03  -0.00  -0.00    -0.00  -0.01   0.07    -0.01  -0.00   0.01
  70   1    -0.04   0.01  -0.02    -0.00  -0.01   0.08    -0.00  -0.01   0.07
  71   1    -0.05  -0.00  -0.00     0.00  -0.01   0.04     0.00  -0.01   0.07
  72   1    -0.04  -0.01   0.02     0.01  -0.01   0.08     0.01  -0.01   0.07
  73   1    -0.03  -0.00   0.02     0.01  -0.01   0.07     0.01  -0.00   0.01
  74   1    -0.03   0.02  -0.00     0.00  -0.00   0.02     0.01   0.00  -0.00
                     13                     14                     15
                        a                      a                      a 
 Frequencies --   120.4196               121.5769               130.8001
 Red. masses --    11.0908                10.5535                10.7160
 Frc consts  --     0.0000                 0.0000                 0.0000
 IR Inten    --     0.3412                25.7855                 1.3024
 Raman Activ --     0.0000                 0.0000                 0.0000
 Depolar     --     0.0000                 0.0000                 0.0000
 Atom AN      X      Y      Z        X      Y      Z        X      Y      Z
   1  26    -0.00   0.02  -0.04     0.00  -0.00   0.00     0.04   0.00  -0.00
   2   6     0.03  -0.02  -0.20     0.00  -0.01  -0.04     0.01  -0.03  -0.08
   3   6     0.02   0.01  -0.07     0.02  -0.05  -0.21     0.02  -0.05  -0.23
   4   6     0.00   0.04   0.08     0.01  -0.02  -0.09     0.01  -0.03  -0.10
   5   6     0.00   0.07   0.19     0.01  -0.00  -0.00     0.00  -0.00  -0.00
   6   6    -0.00   0.04   0.08     0.01   0.02   0.08     0.01   0.03   0.10
   7   6    -0.02   0.01  -0.07     0.02   0.05   0.21     0.02   0.06   0.23
   8   6    -0.03  -0.02  -0.20     0.00   0.01   0.04     0.01   0.03   0.08
   9   6    -0.02  -0.00  -0.09    -0.01  -0.03  -0.13     0.00  -0.01  -0.10
  10   7    -0.01   0.02   0.03     0.00  -0.02  -0.08     0.00  -0.00  -0.06
  11   6    -0.02   0.01   0.02    -0.01  -0.05  -0.23    -0.01  -0.03  -0.23
  12   6    -0.01   0.02   0.10    -0.01  -0.02  -0.12     0.00  -0.02  -0.13
  13   6    -0.01   0.02   0.20     0.00   0.00   0.05     0.01   0.00   0.04
  14   6    -0.01  -0.01   0.03     0.00   0.03   0.22     0.02   0.02   0.21
  15   6    -0.01  -0.02  -0.12    -0.01   0.01   0.09     0.02   0.01   0.09
  16   7    -0.01  -0.00  -0.05    -0.01  -0.02  -0.06     0.01  -0.01  -0.07
  17   6    -0.00  -0.04  -0.23    -0.01   0.00   0.00     0.02   0.00   0.00
  18   6     0.00  -0.02  -0.12    -0.01  -0.01  -0.09     0.02  -0.01  -0.09
  19   6     0.01  -0.01   0.03     0.00  -0.03  -0.22     0.02  -0.02  -0.21
  20   6     0.01   0.02   0.20    -0.00  -0.00  -0.06     0.01  -0.00  -0.04
  21   6     0.01   0.02   0.10    -0.01   0.02   0.12     0.00   0.02   0.13
  22   7     0.00  -0.00  -0.04    -0.01   0.02   0.06     0.01   0.01   0.07
  23   6     0.02   0.02   0.02    -0.01   0.05   0.23    -0.00   0.03   0.22
  24   6     0.02   0.00  -0.09    -0.00   0.03   0.13     0.00   0.01   0.10
  25   7     0.01   0.03   0.03     0.00   0.02   0.08     0.00   0.00   0.06
  26   1     0.01  -0.01  -0.10     0.00  -0.00  -0.02     0.01  -0.01  -0.03
  27   1     0.00   0.00  -0.02     0.01  -0.03  -0.11     0.01  -0.03  -0.11
  28   1    -0.01   0.00  -0.02     0.01   0.03   0.11     0.01   0.03   0.11
  29   1    -0.01  -0.01  -0.10     0.00   0.00   0.02     0.01   0.01   0.03
  30   1    -0.01   0.00   0.01    -0.01  -0.02  -0.09    -0.00  -0.01  -0.09
  31   1    -0.00   0.01   0.10     0.00   0.00   0.02     0.00   0.00   0.01
  32   1    -0.00  -0.00   0.01     0.00   0.02   0.11     0.01   0.01   0.11
  33   1    -0.00  -0.02  -0.09    -0.00   0.00   0.00     0.00   0.00   0.00
  34   1     0.00  -0.00   0.01     0.00  -0.02  -0.11     0.01  -0.01  -0.11
  35   1     0.00   0.01   0.10     0.00  -0.00  -0.02     0.00  -0.00  -0.01
  36   1     0.01   0.01   0.01    -0.00   0.02   0.09    -0.00   0.01   0.09
  37   6     0.00   0.06   0.28     0.01  -0.00  -0.00     0.00  -0.00  -0.00
  38   6     0.00  -0.07   0.28     0.01   0.00  -0.00     0.00  -0.00   0.00
  39  26    -0.00  -0.02  -0.04     0.00   0.00  -0.00    -0.04  -0.00   0.00
  40   6    -0.03   0.02  -0.20     0.01  -0.01   0.04    -0.02   0.03  -0.08
  41   6    -0.02  -0.01  -0.07     0.02  -0.05   0.21    -0.02   0.06  -0.23
  42   6    -0.00  -0.04   0.08     0.01  -0.02   0.08    -0.01   0.03  -0.10
  43   6     0.00  -0.07   0.18     0.01   0.00  -0.00    -0.00  -0.00   0.00
  44   6     0.00  -0.04   0.07     0.01   0.02  -0.09    -0.00  -0.03   0.10
  45   6     0.02  -0.01  -0.07     0.01   0.05  -0.21    -0.01  -0.06   0.23
  46   6     0.02   0.02  -0.20     0.00   0.01  -0.04    -0.01  -0.03   0.08
  47   6     0.02   0.00  -0.09    -0.00  -0.03   0.13    -0.00   0.01  -0.10
  48   7     0.01  -0.03   0.03     0.00  -0.02   0.08    -0.00   0.00  -0.06
  49   6     0.02  -0.01   0.02    -0.01  -0.05   0.23    -0.00   0.03  -0.23
  50   6     0.01  -0.02   0.10    -0.01  -0.02   0.11    -0.01   0.02  -0.13
  51   6     0.02  -0.02   0.20    -0.00   0.00  -0.06    -0.01  -0.00   0.04
  52   6     0.01   0.01   0.03    -0.00   0.03  -0.22    -0.01  -0.02   0.21
  53   6     0.00   0.02  -0.12    -0.01   0.01  -0.09    -0.02  -0.01   0.09
  54   7     0.01   0.00  -0.04    -0.01  -0.02   0.06    -0.02   0.01  -0.07
  55   6    -0.00   0.04  -0.23    -0.01  -0.00   0.00    -0.02   0.00  -0.00
  56   6    -0.01   0.02  -0.12    -0.00  -0.01   0.09    -0.02   0.01  -0.09
  57   6    -0.01   0.00   0.03     0.01  -0.03   0.22    -0.02   0.02  -0.21
  58   6    -0.00  -0.03   0.20     0.00  -0.00   0.05    -0.01   0.00  -0.03
  59   6    -0.01  -0.02   0.10    -0.01   0.03  -0.12    -0.00  -0.02   0.13
  60   7    -0.01   0.00  -0.05    -0.01   0.02  -0.06    -0.01  -0.01   0.07
  61   6    -0.02  -0.01   0.02    -0.02   0.05  -0.23     0.01  -0.03   0.23
  62   6    -0.02   0.00  -0.09    -0.01   0.03  -0.13     0.00  -0.01   0.10
  63   7    -0.01  -0.03   0.02     0.00   0.02  -0.08    -0.00  -0.00   0.06
  64   1    -0.01   0.02  -0.10     0.00  -0.01   0.02    -0.01   0.01  -0.03
  65   1    -0.01  -0.00  -0.02     0.01  -0.03   0.11    -0.01   0.03  -0.11
  66   1     0.00  -0.00  -0.03     0.01   0.03  -0.11    -0.01  -0.03   0.11
  67   1     0.01   0.01  -0.10     0.00   0.00  -0.02    -0.00  -0.01   0.03
  68   1     0.01  -0.00   0.01    -0.00  -0.02   0.09     0.00   0.01  -0.09
  69   1     0.01  -0.01   0.10     0.00   0.00  -0.02    -0.00  -0.00   0.01
  70   1     0.00   0.00   0.01    -0.00   0.02  -0.11    -0.00  -0.01   0.11
  71   1    -0.00   0.02  -0.09    -0.00  -0.00   0.00    -0.01   0.00  -0.00
  72   1    -0.00   0.00   0.01     0.01  -0.02   0.11    -0.01   0.01  -0.11
  73   1    -0.00  -0.01   0.10     0.00  -0.00   0.02    -0.00   0.00  -0.01
  74   1    -0.01  -0.00   0.01    -0.01   0.02  -0.09     0.00  -0.01   0.09
                     16                     17                     18
                        a                      a                      a 
 Frequencies --   144.4173               158.2001               184.7454
 Red. masses --    11.1174                12.2435                12.5912
 Frc consts  --     0.0000                 0.0000                 0.0000
 IR Inten    --     0.5684               136.4356                 0.2281
 Raman Activ --     0.0000                 0.0000                 0.0000
 Depolar     --     0.0000                 0.0000                 0.0000
 Atom AN      X      Y      Z        X      Y      Z        X      Y      Z
   1  26    -0.00   0.00   0.03    -0.02  -0.00   0.00     0.00  -0.01  -0.08
   2   6    -0.00   0.05   0.16    -0.02   0.05  -0.00     0.11  -0.11   0.02
   3   6     0.00   0.01  -0.06     0.05  -0.01   0.01     0.11  -0.10   0.02
   4   6     0.00  -0.03  -0.19     0.13   0.03  -0.00     0.10  -0.11   0.03
   5   6    -0.00  -0.04  -0.26     0.19   0.00  -0.00     0.00  -0.06   0.02
   6   6    -0.00  -0.03  -0.19     0.14  -0.03   0.00    -0.10  -0.11   0.03
   7   6    -0.00   0.01  -0.06     0.05   0.02  -0.01    -0.11  -0.11   0.02
   8   6     0.01   0.05   0.16    -0.02  -0.05  -0.00    -0.11  -0.11   0.03
   9   6     0.01   0.02   0.10     0.03  -0.13   0.02    -0.11  -0.10   0.03
  10   7     0.00  -0.01  -0.09     0.13  -0.12   0.02    -0.12  -0.11   0.03
  11   6    -0.00   0.01   0.07    -0.00  -0.18   0.04    -0.06   0.00   0.01
  12   6    -0.01  -0.01  -0.04    -0.03  -0.13   0.03    -0.11   0.10  -0.01
  13   6    -0.01  -0.03  -0.19     0.01  -0.04   0.01    -0.11   0.11  -0.02
  14   6    -0.01  -0.01  -0.07    -0.06   0.02  -0.01    -0.11   0.11  -0.01
  15   6    -0.00   0.01   0.11    -0.15  -0.03  -0.00    -0.10   0.11  -0.01
  16   7    -0.00   0.01   0.10    -0.14  -0.12   0.02    -0.12   0.11  -0.02
  17   6    -0.00   0.02   0.20    -0.19  -0.00   0.00    -0.00   0.06   0.00
  18   6     0.00   0.01   0.11    -0.15   0.02   0.00     0.10   0.11  -0.01
  19   6     0.01  -0.01  -0.07    -0.06  -0.02   0.02     0.11   0.11  -0.01
  20   6     0.01  -0.03  -0.19     0.01   0.04  -0.01     0.11   0.11  -0.02
  21   6     0.01  -0.01  -0.04    -0.03   0.13  -0.03     0.11   0.10  -0.01
  22   7     0.00   0.01   0.09    -0.14   0.12  -0.02     0.12   0.12  -0.02
  23   6     0.00   0.01   0.07    -0.01   0.18  -0.04     0.06   0.00   0.01
  24   6    -0.00   0.03   0.10     0.02   0.13  -0.03     0.11  -0.09   0.03
  25   7    -0.00  -0.01  -0.09     0.12   0.13  -0.02     0.12  -0.11   0.03
  26   1    -0.00   0.02   0.09    -0.03   0.01   0.00     0.03  -0.03   0.01
  27   1     0.00   0.00  -0.03     0.01  -0.02   0.01     0.03  -0.03   0.00
  28   1    -0.00   0.00  -0.03     0.01   0.02  -0.01    -0.03  -0.03   0.00
  29   1     0.00   0.02   0.09    -0.03  -0.01  -0.00    -0.03  -0.03   0.01
  30   1    -0.00   0.00   0.03     0.00  -0.05   0.01     0.01   0.00   0.00
  31   1    -0.01  -0.01  -0.10     0.02  -0.01   0.00    -0.03   0.03  -0.01
  32   1    -0.00  -0.01  -0.04    -0.02   0.03  -0.01    -0.03   0.03  -0.00
  33   1    -0.00   0.01   0.07    -0.06  -0.00   0.00     0.00  -0.01   0.01
  34   1     0.00  -0.01  -0.04    -0.02  -0.03   0.01     0.03   0.03  -0.00
  35   1     0.01  -0.01  -0.10     0.02   0.01  -0.00     0.03   0.03  -0.01
  36   1     0.00   0.01   0.03    -0.00   0.05  -0.01    -0.01   0.00   0.00
  37   6     0.00  -0.03  -0.16     0.18   0.00  -0.00    -0.00   0.03   0.00
  38   6     0.00  -0.03   0.16     0.18   0.00  -0.00     0.00  -0.03   0.00
  39  26    -0.00   0.00  -0.03    -0.02   0.00  -0.00    -0.00   0.01  -0.07
  40   6    -0.01   0.05  -0.15    -0.02   0.05   0.00    -0.10   0.10   0.03
  41   6     0.00   0.01   0.06     0.05  -0.01  -0.01    -0.11   0.10   0.02
  42   6     0.01  -0.03   0.19     0.13   0.03  -0.00    -0.09   0.10   0.03
  43   6     0.01  -0.05   0.26     0.19   0.00  -0.01    -0.00   0.06   0.02
  44   6     0.00  -0.03   0.19     0.14  -0.03  -0.01     0.09   0.10   0.02
  45   6     0.00   0.01   0.06     0.05   0.02   0.01     0.10   0.10   0.02
  46   6     0.00   0.05  -0.16    -0.02  -0.05   0.00     0.10   0.10   0.02
  47   6     0.00   0.02  -0.10     0.03  -0.13  -0.02     0.10   0.09   0.03
  48   7     0.00  -0.01   0.09     0.13  -0.12  -0.03     0.11   0.11   0.03
  49   6    -0.00   0.01  -0.07    -0.00  -0.18  -0.04     0.06  -0.00   0.01
  50   6    -0.01  -0.01   0.04    -0.03  -0.13  -0.03     0.11  -0.09  -0.02
  51   6    -0.01  -0.03   0.19     0.01  -0.04  -0.01     0.10  -0.10  -0.02
  52   6    -0.01  -0.01   0.07    -0.06   0.02   0.02     0.11  -0.10  -0.02
  53   6    -0.00   0.01  -0.11    -0.15  -0.03   0.01     0.10  -0.11  -0.01
  54   7    -0.00   0.01  -0.09    -0.14  -0.12  -0.02     0.12  -0.11  -0.02
  55   6    -0.01   0.02  -0.20    -0.19  -0.00   0.01     0.00  -0.06   0.00
  56   6    -0.00   0.01  -0.11    -0.15   0.02   0.00    -0.10  -0.11  -0.01
  57   6     0.01  -0.01   0.07    -0.06  -0.02  -0.01    -0.11  -0.11  -0.01
  58   6     0.02  -0.03   0.19     0.01   0.04   0.01    -0.10  -0.11  -0.02
  59   6     0.01  -0.01   0.04    -0.03   0.13   0.03    -0.11  -0.10  -0.01
  60   7    -0.00   0.01  -0.10    -0.14   0.12   0.03    -0.12  -0.11  -0.01
  61   6    -0.00   0.01  -0.07    -0.00   0.18   0.04    -0.06  -0.00   0.01
  62   6    -0.01   0.03  -0.10     0.02   0.13   0.02    -0.11   0.09   0.03
  63   7    -0.00  -0.01   0.09     0.12   0.13   0.02    -0.11   0.10   0.03
  64   1    -0.00   0.02  -0.09    -0.03   0.01  -0.00    -0.03   0.03   0.01
  65   1     0.00   0.00   0.03     0.01  -0.02  -0.01    -0.03   0.03   0.00
  66   1    -0.00   0.00   0.03     0.01   0.02   0.01     0.03   0.03   0.00
  67   1    -0.00   0.02  -0.09    -0.03  -0.01   0.00     0.03   0.03   0.01
  68   1    -0.00   0.01  -0.03    -0.00  -0.05  -0.01    -0.01  -0.00   0.00
  69   1    -0.00  -0.02   0.10     0.02  -0.01  -0.00     0.03  -0.03  -0.01
  70   1    -0.00  -0.01   0.04    -0.02   0.03   0.01     0.03  -0.03  -0.00
  71   1    -0.00   0.01  -0.07    -0.06  -0.00   0.00     0.00   0.01   0.01
  72   1     0.00  -0.01   0.04    -0.02  -0.03  -0.01    -0.03  -0.03  -0.00
  73   1     0.01  -0.02   0.10     0.02   0.01   0.00    -0.03  -0.03  -0.01
  74   1     0.00   0.01  -0.03    -0.00   0.05   0.01     0.01  -0.00  -0.00
                     19                     20                     21
                        a                      a                      a 
 Frequencies --   185.7493               210.9362               211.1719
 Red. masses --    12.3802                35.5170                28.0790
 Frc consts  --     0.0000                 0.0000                 0.0000
 IR Inten    --     0.4371                 4.0462                 7.7109
 Raman Activ --     0.0000                 0.0000                 0.0000
 Depolar     --     0.0000                 0.0000                 0.0000
 Atom AN      X      Y      Z        X      Y      Z        X      Y      Z
   1  26    -0.00   0.01   0.05     0.49  -0.02  -0.18    -0.35  -0.04  -0.25
   2   6    -0.10   0.10  -0.02    -0.04   0.01  -0.00     0.03   0.01  -0.04
   3   6    -0.11   0.10  -0.02    -0.01  -0.03  -0.05     0.01   0.02  -0.08
   4   6    -0.09   0.11  -0.01     0.03  -0.00  -0.05    -0.03   0.01  -0.03
   5   6    -0.00   0.06  -0.01     0.02   0.02   0.04    -0.01   0.02   0.05
   6   6     0.09   0.11  -0.02     0.04   0.01  -0.02    -0.01  -0.00  -0.06
   7   6     0.10   0.10  -0.02    -0.01   0.03  -0.06     0.01  -0.02  -0.07
   8   6     0.10   0.11  -0.02    -0.04   0.00  -0.03     0.03   0.01  -0.01
   9   6     0.10   0.09  -0.02    -0.02  -0.02   0.03     0.02   0.04   0.03
  10   7     0.11   0.11  -0.01     0.04  -0.02  -0.00    -0.01   0.02  -0.06
  11   6     0.06   0.00  -0.01    -0.04  -0.06   0.09     0.03   0.07   0.11
  12   6     0.11  -0.09   0.00    -0.04  -0.06   0.08     0.03   0.05   0.07
  13   6     0.10  -0.10   0.02    -0.03  -0.05  -0.07     0.02   0.01  -0.09
  14   6     0.11  -0.10   0.02    -0.05  -0.03  -0.07     0.03  -0.00  -0.10
  15   6     0.10  -0.11   0.01    -0.06  -0.02   0.08     0.04   0.02   0.07
  16   7     0.12  -0.11   0.00    -0.05  -0.05   0.15     0.04   0.06   0.12
  17   6     0.00  -0.06   0.00    -0.09   0.01   0.09     0.06   0.01   0.12
  18   6    -0.10  -0.11   0.01    -0.06   0.02   0.04     0.04  -0.01   0.10
  19   6    -0.11  -0.11   0.02    -0.05   0.00  -0.07     0.04  -0.03  -0.10
  20   6    -0.10  -0.11   0.02    -0.03   0.03  -0.06     0.02  -0.04  -0.10
  21   6    -0.10  -0.10   0.00    -0.04   0.07   0.04     0.03  -0.04   0.10
  22   7    -0.12  -0.11   0.01    -0.06   0.07   0.07     0.03  -0.03   0.18
  23   6    -0.06  -0.00  -0.01    -0.04   0.08   0.08     0.03  -0.03   0.12
  24   6    -0.11   0.09  -0.02    -0.03   0.05   0.02     0.01  -0.01   0.03
  25   7    -0.11   0.11  -0.01     0.03   0.03  -0.05    -0.03  -0.01  -0.02
  26   1    -0.03   0.03  -0.01    -0.02   0.00   0.01     0.02   0.00  -0.02
  27   1    -0.03   0.03  -0.01    -0.00  -0.02  -0.02     0.00   0.01  -0.04
  28   1     0.03   0.03  -0.01    -0.00   0.02  -0.03     0.00  -0.01  -0.04
  29   1     0.03   0.03  -0.01    -0.02   0.00  -0.02     0.01   0.00   0.00
  30   1    -0.01   0.00  -0.00    -0.02  -0.02   0.02     0.01   0.02   0.04
  31   1     0.03  -0.03   0.01    -0.00  -0.02  -0.05    -0.00  -0.00  -0.06
  32   1     0.03  -0.03   0.01    -0.01  -0.01  -0.05     0.01  -0.01  -0.06
  33   1    -0.00   0.01  -0.00    -0.03   0.00   0.02     0.02   0.00   0.03
  34   1    -0.03  -0.03   0.01    -0.01  -0.01  -0.04     0.01  -0.01  -0.07
  35   1    -0.03  -0.03   0.01     0.00   0.00  -0.04     0.00  -0.02  -0.07
  36   1     0.01   0.00  -0.00    -0.02   0.03   0.03     0.01  -0.01   0.04
  37   6     0.00  -0.02   0.01     0.00   0.03   0.17     0.00   0.04   0.24
  38   6    -0.00  -0.02  -0.01    -0.00  -0.03   0.17     0.01  -0.04   0.24
  39  26    -0.00   0.01  -0.06    -0.49   0.02  -0.17     0.35   0.05  -0.26
  40   6    -0.11   0.11   0.02     0.04  -0.01  -0.00    -0.03  -0.01  -0.04
  41   6    -0.11   0.11   0.02     0.01   0.03  -0.05    -0.01  -0.02  -0.08
  42   6    -0.10   0.11   0.02    -0.03   0.00  -0.05     0.03  -0.01  -0.03
  43   6    -0.00   0.06   0.01    -0.02  -0.02   0.04     0.01  -0.03   0.05
  44   6     0.10   0.11   0.01    -0.04  -0.01  -0.02     0.01   0.00  -0.06
  45   6     0.11   0.11   0.02     0.01  -0.03  -0.06    -0.01   0.02  -0.07
  46   6     0.11   0.11   0.02     0.04  -0.00  -0.03    -0.03  -0.01  -0.01
  47   6     0.11   0.10   0.02     0.02   0.02   0.03    -0.02  -0.04   0.02
  48   7     0.12   0.12   0.01    -0.04   0.02   0.00     0.01  -0.02  -0.06
  49   6     0.06   0.00   0.01     0.04   0.06   0.09    -0.03  -0.07   0.11
  50   6     0.11  -0.10  -0.01     0.04   0.06   0.08    -0.03  -0.05   0.07
  51   6     0.11  -0.11  -0.02     0.03   0.05  -0.08    -0.02  -0.01  -0.09
  52   6     0.11  -0.11  -0.02     0.05   0.03  -0.08    -0.03   0.00  -0.10
  53   6     0.11  -0.11  -0.01     0.06   0.02   0.08    -0.04  -0.02   0.07
  54   7     0.12  -0.11  -0.01     0.05   0.05   0.15    -0.04  -0.06   0.12
  55   6     0.00  -0.06  -0.00     0.09  -0.01   0.09    -0.06  -0.01   0.12
  56   6    -0.10  -0.12  -0.01     0.06  -0.03   0.04    -0.04   0.01   0.10
  57   6    -0.11  -0.11  -0.02     0.04  -0.00  -0.07    -0.04   0.03  -0.10
  58   6    -0.11  -0.11  -0.02     0.02  -0.02  -0.06    -0.03   0.04  -0.10
  59   6    -0.11  -0.10  -0.00     0.05  -0.07   0.04    -0.02   0.04   0.10
  60   7    -0.12  -0.12  -0.00     0.06  -0.07   0.06    -0.03   0.03   0.18
  61   6    -0.06  -0.00   0.01     0.05  -0.08   0.07    -0.03   0.03   0.12
  62   6    -0.11   0.10   0.02     0.03  -0.05   0.02    -0.01   0.01   0.03
  63   7    -0.12   0.11   0.02    -0.03  -0.03  -0.05     0.03   0.01  -0.02
  64   1    -0.03   0.03   0.01     0.02  -0.00   0.01    -0.02  -0.00  -0.02
  65   1    -0.03   0.03   0.01     0.00   0.02  -0.02    -0.00  -0.01  -0.04
  66   1     0.03   0.03   0.01     0.00  -0.02  -0.03    -0.00   0.01  -0.03
  67   1     0.03   0.03   0.01     0.02  -0.00  -0.02    -0.01  -0.00   0.00
  68   1    -0.01   0.00   0.00     0.02   0.02   0.02    -0.01  -0.02   0.04
  69   1     0.03  -0.03  -0.01     0.00   0.02  -0.05    -0.00   0.00  -0.06
  70   1     0.03  -0.03  -0.01     0.01   0.01  -0.05    -0.01   0.01  -0.06
  71   1    -0.00   0.01   0.00     0.03  -0.00   0.02    -0.02  -0.00   0.03
  72   1    -0.03  -0.03  -0.01     0.01   0.01  -0.04    -0.01   0.01  -0.07
  73   1    -0.03  -0.03  -0.01    -0.00  -0.00  -0.04    -0.01   0.02  -0.07
  74   1     0.01   0.00   0.00     0.02  -0.03   0.03    -0.01   0.01   0.04
                     22                     23                     24
                        a                      a                      a 
 Frequencies --   213.7359               220.2716               222.0308
 Red. masses --    41.7028                11.9433                17.5343
 Frc consts  --     0.0000                 0.0000                 0.0000
 IR Inten    --     6.4962                 6.1700                 0.9133
 Raman Activ --     0.0000                 0.0000                 0.0000
 Depolar     --     0.0000                 0.0000                 0.0000
 Atom AN      X      Y      Z        X      Y      Z        X      Y      Z
   1  26     0.58   0.01  -0.00    -0.02  -0.00  -0.00     0.25   0.00  -0.00
   2   6    -0.08  -0.01   0.05    -0.03   0.01   0.11    -0.02  -0.03  -0.10
   3   6    -0.05  -0.03   0.00    -0.03  -0.01  -0.00    -0.02  -0.01   0.01
   4   6    -0.01  -0.03  -0.06    -0.03  -0.04  -0.15    -0.02   0.03   0.15
   5   6    -0.02  -0.00  -0.00    -0.02   0.00   0.00    -0.03  -0.00  -0.00
   6   6    -0.01   0.03   0.06    -0.03   0.04   0.15    -0.02  -0.03  -0.15
   7   6    -0.05   0.03  -0.00    -0.03   0.00   0.00    -0.02   0.01  -0.01
   8   6    -0.08   0.01  -0.05    -0.03  -0.01  -0.11    -0.02   0.03   0.10
   9   6    -0.06   0.00   0.02    -0.03   0.04   0.04    -0.03  -0.01  -0.05
  10   7    -0.02   0.02   0.09    -0.03   0.07   0.22    -0.03  -0.04  -0.23
  11   6    -0.07  -0.01  -0.03    -0.02   0.05  -0.08    -0.02   0.01   0.07
  12   6    -0.07  -0.01   0.02    -0.02   0.06   0.03    -0.02  -0.01  -0.02
  13   6    -0.08  -0.03  -0.05    -0.05   0.00  -0.13    -0.02   0.01   0.13
  14   6    -0.06  -0.03   0.01    -0.01  -0.01   0.02    -0.02  -0.01  -0.03
  15   6    -0.02  -0.01   0.07     0.04   0.03   0.17    -0.02  -0.03  -0.16
  16   7    -0.03   0.00   0.10     0.03   0.09   0.23    -0.02  -0.04  -0.22
  17   6    -0.03  -0.00  -0.00     0.06   0.00   0.00    -0.03  -0.00  -0.00
  18   6    -0.02   0.01  -0.07     0.04  -0.03  -0.16    -0.02   0.03   0.17
  19   6    -0.06   0.03  -0.01    -0.01   0.01  -0.02    -0.02   0.01   0.02
  20   6    -0.08   0.03   0.05    -0.04  -0.00   0.13    -0.02  -0.01  -0.13
  21   6    -0.07   0.01  -0.02    -0.02  -0.06  -0.02    -0.02   0.01   0.03
  22   7    -0.03  -0.00  -0.10     0.03  -0.09  -0.22    -0.02   0.04   0.23
  23   6    -0.07   0.01   0.03    -0.02  -0.05   0.08    -0.02  -0.01  -0.07
  24   6    -0.06  -0.01  -0.02    -0.03  -0.04  -0.04    -0.02   0.01   0.05
  25   7    -0.02  -0.02  -0.09    -0.03  -0.07  -0.22    -0.02   0.04   0.23
  26   1    -0.03   0.00   0.03    -0.01   0.01   0.08    -0.00  -0.02  -0.08
  27   1    -0.02  -0.02   0.01    -0.01   0.00   0.02    -0.00  -0.01  -0.02
  28   1    -0.02   0.02  -0.01    -0.01  -0.00  -0.02    -0.00   0.01   0.02
  29   1    -0.03  -0.00  -0.03    -0.01  -0.01  -0.08    -0.00   0.02   0.08
  30   1    -0.02  -0.01  -0.03    -0.01   0.00  -0.08    -0.00   0.01   0.08
  31   1    -0.03  -0.01  -0.04    -0.03  -0.01  -0.09    -0.00   0.01   0.09
  32   1    -0.02  -0.02  -0.00    -0.00  -0.02  -0.01    -0.01  -0.00   0.01
  33   1    -0.01  -0.00  -0.00     0.02   0.00  -0.00    -0.01  -0.00  -0.00
  34   1    -0.02   0.02   0.00    -0.00   0.02   0.01    -0.01   0.00  -0.01
  35   1    -0.03   0.01   0.04    -0.03   0.01   0.09    -0.00  -0.01  -0.09
  36   1    -0.02   0.01   0.03    -0.00  -0.00   0.09    -0.00  -0.01  -0.08
  37   6    -0.03  -0.00  -0.00    -0.00   0.00   0.00    -0.03  -0.00   0.00
  38   6    -0.03   0.00  -0.00     0.00  -0.00   0.00    -0.03  -0.00   0.00
  39  26     0.58   0.01  -0.01     0.03   0.00  -0.00     0.25   0.01  -0.00
  40   6    -0.08  -0.01  -0.05     0.03  -0.01   0.11    -0.02  -0.03   0.10
  41   6    -0.05  -0.03  -0.00     0.03   0.00  -0.00    -0.02  -0.01  -0.00
  42   6    -0.01  -0.03   0.06     0.02   0.04  -0.15    -0.02   0.03  -0.15
  43   6    -0.02  -0.00   0.00     0.01  -0.00   0.00    -0.03  -0.00   0.00
  44   6    -0.02   0.03  -0.06     0.03  -0.04   0.15    -0.01  -0.03   0.15
  45   6    -0.05   0.03   0.01     0.03  -0.00   0.00    -0.02   0.01   0.01
  46   6    -0.08   0.00   0.05     0.03   0.01  -0.11    -0.02   0.03  -0.10
  47   6    -0.06   0.00  -0.02     0.03  -0.04   0.04    -0.02  -0.01   0.05
  48   7    -0.02   0.02  -0.09     0.03  -0.07   0.22    -0.02  -0.04   0.22
  49   6    -0.07  -0.01   0.03     0.02  -0.04  -0.08    -0.02   0.01  -0.07
  50   6    -0.07  -0.01  -0.01     0.02  -0.06   0.03    -0.02  -0.02   0.03
  51   6    -0.08  -0.03   0.05     0.04  -0.00  -0.13    -0.02   0.01  -0.12
  52   6    -0.06  -0.03  -0.01     0.01   0.01   0.02    -0.02  -0.01   0.02
  53   6    -0.02  -0.01  -0.07    -0.04  -0.03   0.17    -0.01  -0.03   0.16
  54   7    -0.03   0.00  -0.10    -0.03  -0.09   0.23    -0.01  -0.05   0.22
  55   6    -0.03  -0.00  -0.00    -0.07  -0.00   0.00    -0.03  -0.00  -0.00
  56   6    -0.02   0.01   0.07    -0.05   0.03  -0.16    -0.02   0.03  -0.16
  57   6    -0.06   0.03   0.01     0.00  -0.01  -0.02    -0.02   0.01  -0.02
  58   6    -0.08   0.03  -0.05     0.05   0.00   0.13    -0.01  -0.01   0.13
  59   6    -0.07   0.01   0.02     0.02   0.06  -0.02    -0.02   0.01  -0.02
  60   7    -0.02  -0.00   0.10    -0.04   0.09  -0.22    -0.03   0.04  -0.22
  61   6    -0.07   0.01  -0.03     0.02   0.04   0.08    -0.02  -0.01   0.07
  62   6    -0.06  -0.01   0.02     0.03   0.04  -0.04    -0.03   0.01  -0.05
  63   7    -0.02  -0.02   0.09     0.02   0.07  -0.23    -0.03   0.04  -0.23
  64   1    -0.03   0.00  -0.03     0.01  -0.02   0.08    -0.00  -0.02   0.08
  65   1    -0.02  -0.02  -0.01     0.01  -0.01   0.02    -0.00  -0.01   0.02
  66   1    -0.02   0.02   0.01     0.01   0.00  -0.02    -0.00   0.01  -0.02
  67   1    -0.03  -0.00   0.04     0.01   0.01  -0.08    -0.00   0.02  -0.07
  68   1    -0.02  -0.01   0.03     0.00  -0.00  -0.09    -0.01   0.01  -0.08
  69   1    -0.03  -0.01   0.04     0.02   0.01  -0.09    -0.01   0.01  -0.09
  70   1    -0.02  -0.02   0.00     0.00   0.02  -0.01    -0.01  -0.00  -0.01
  71   1    -0.01  -0.00  -0.00    -0.02  -0.00  -0.00    -0.01   0.00  -0.00
  72   1    -0.02   0.02  -0.00     0.00  -0.02   0.01    -0.01   0.00   0.01
  73   1    -0.03   0.01  -0.03     0.03  -0.01   0.09    -0.00  -0.01   0.09
  74   1    -0.02   0.01  -0.03     0.01   0.00   0.09    -0.00  -0.01   0.08
                     25                     26                     27
                        a                      a                      a 
 Frequencies --   225.0598               225.1777               234.5986
 Red. masses --    15.6210                26.6336                13.3523
 Frc consts  --     0.0000                 0.0000                 0.0000
 IR Inten    --     3.8655                 1.7227                 0.3086
 Raman Activ --     0.0000                 0.0000                 0.0000
 Depolar     --     0.0000                 0.0000                 0.0000
 Atom AN      X      Y      Z        X      Y      Z        X      Y      Z
   1  26    -0.00   0.01  -0.23    -0.00  -0.06  -0.40     0.00  -0.08  -0.10
   2   6    -0.01  -0.02  -0.06    -0.00  -0.02  -0.10     0.00   0.00  -0.03
   3   6     0.01  -0.05  -0.15     0.00  -0.02  -0.11    -0.01   0.05   0.14
   4   6     0.00   0.02   0.11    -0.00   0.02   0.09    -0.01   0.01   0.01
   5   6    -0.00   0.01   0.07     0.00   0.03   0.13    -0.00   0.02   0.06
   6   6    -0.00   0.02   0.10     0.00   0.02   0.08     0.01   0.01   0.00
   7   6    -0.01  -0.05  -0.15    -0.00  -0.02  -0.11     0.01   0.05   0.14
   8   6     0.01  -0.02  -0.05    -0.00  -0.02  -0.10    -0.01   0.01  -0.03
   9   6     0.02   0.05   0.18     0.01   0.03   0.09    -0.01  -0.03  -0.15
  10   7     0.01   0.07   0.29     0.01   0.04   0.16    -0.00  -0.04  -0.18
  11   6     0.01   0.02   0.06     0.01   0.02   0.10     0.01  -0.01  -0.01
  12   6     0.00  -0.02  -0.10     0.01   0.00   0.05     0.02   0.02   0.18
  13   6    -0.00  -0.02  -0.05    -0.00  -0.02  -0.09     0.02   0.01  -0.00
  14   6     0.01  -0.01   0.07     0.00  -0.02  -0.06     0.01  -0.00  -0.14
  15   6     0.02  -0.02   0.00     0.01   0.00   0.07     0.00   0.02   0.06
  16   7     0.01  -0.03  -0.15     0.01   0.01   0.09     0.01   0.03   0.27
  17   6     0.00   0.00   0.12     0.00   0.01   0.14     0.00   0.01  -0.04
  18   6    -0.01  -0.02   0.00    -0.01   0.00   0.07    -0.00   0.02   0.06
  19   6    -0.01  -0.01   0.07    -0.00  -0.02  -0.06    -0.01   0.00  -0.14
  20   6    -0.00  -0.02  -0.05    -0.00  -0.02  -0.09    -0.02   0.01  -0.00
  21   6    -0.00  -0.02  -0.10    -0.01   0.00   0.05    -0.02   0.01   0.18
  22   7    -0.01  -0.03  -0.14    -0.01   0.01   0.09    -0.01   0.03   0.27
  23   6    -0.01   0.02   0.06    -0.01   0.02   0.10    -0.01  -0.02  -0.01
  24   6    -0.02   0.05   0.18    -0.01   0.03   0.10     0.00  -0.04  -0.15
  25   7    -0.01   0.07   0.29    -0.01   0.04   0.17    -0.00  -0.04  -0.18
  26   1    -0.00  -0.01  -0.06     0.00  -0.01  -0.07     0.00   0.00   0.00
  27   1     0.01  -0.03  -0.11     0.00  -0.02  -0.07    -0.01   0.03   0.09
  28   1    -0.01  -0.03  -0.11    -0.00  -0.02  -0.07     0.01   0.03   0.09
  29   1     0.00  -0.01  -0.06    -0.00  -0.01  -0.07    -0.00   0.00   0.00
  30   1    -0.00   0.01   0.01    -0.00   0.00   0.02    -0.00  -0.01  -0.02
  31   1    -0.00  -0.01  -0.01    -0.00  -0.01  -0.05     0.01  -0.00  -0.03
  32   1     0.00  -0.00   0.05     0.00  -0.01  -0.04    -0.00  -0.00  -0.10
  33   1     0.00   0.01   0.09     0.00   0.01   0.05    -0.00  -0.00  -0.07
  34   1    -0.00  -0.00   0.05    -0.00  -0.01  -0.04    -0.00  -0.00  -0.10
  35   1     0.00  -0.01  -0.01     0.00  -0.01  -0.06    -0.01  -0.00  -0.03
  36   1     0.00   0.01   0.01     0.00   0.00   0.02    -0.00  -0.01  -0.02
  37   6    -0.00  -0.02  -0.07     0.00   0.03   0.08     0.00   0.04   0.12
  38   6    -0.00   0.02  -0.08    -0.00   0.02  -0.07    -0.00   0.04  -0.12
  39  26     0.00  -0.01  -0.17     0.00  -0.06   0.43     0.00  -0.08   0.10
  40   6     0.01   0.01  -0.04     0.00  -0.02   0.11     0.01   0.01   0.02
  41   6    -0.01   0.05  -0.13     0.01  -0.03   0.13    -0.01   0.05  -0.14
  42   6    -0.00  -0.01   0.09    -0.00   0.02  -0.10    -0.01   0.01  -0.00
  43   6     0.00  -0.00   0.05    -0.00   0.03  -0.13    -0.00   0.02  -0.06
  44   6     0.00  -0.01   0.09     0.00   0.02  -0.10     0.01   0.01  -0.01
  45   6     0.00   0.05  -0.13     0.00  -0.03   0.13     0.01   0.05  -0.14
  46   6    -0.01   0.01  -0.04     0.01  -0.02   0.11    -0.00   0.00   0.03
  47   6    -0.01  -0.05   0.17     0.01   0.03  -0.12    -0.00  -0.04   0.15
  48   7    -0.00  -0.07   0.27     0.01   0.05  -0.21     0.01  -0.04   0.18
  49   6    -0.00  -0.02   0.04     0.00   0.02  -0.11     0.01  -0.02   0.01
  50   6    -0.01   0.02  -0.11     0.01  -0.00  -0.04     0.01   0.02  -0.18
  51   6    -0.00   0.02  -0.04     0.01  -0.02   0.10     0.02   0.01   0.00
  52   6    -0.01   0.01   0.08     0.01  -0.02   0.05     0.01  -0.00   0.14
  53   6    -0.02   0.02  -0.01     0.01  -0.00  -0.07    -0.00   0.02  -0.06
  54   7    -0.02   0.03  -0.15     0.01   0.00  -0.07     0.00   0.03  -0.27
  55   6     0.00  -0.00   0.09    -0.00   0.01  -0.16    -0.00   0.01   0.04
  56   6     0.01   0.02  -0.01    -0.01  -0.00  -0.07    -0.00   0.02  -0.06
  57   6     0.01   0.01   0.08    -0.00  -0.02   0.05    -0.00  -0.00   0.14
  58   6    -0.00   0.02  -0.03     0.00  -0.02   0.09    -0.02   0.01   0.00
  59   6    -0.00   0.02  -0.11    -0.01   0.00  -0.04    -0.02   0.02  -0.18
  60   7     0.01   0.03  -0.16    -0.01   0.00  -0.07    -0.02   0.03  -0.27
  61   6     0.01  -0.02   0.04    -0.01   0.03  -0.11    -0.00  -0.01   0.01
  62   6     0.02  -0.05   0.17    -0.01   0.03  -0.12     0.01  -0.04   0.15
  63   7     0.02  -0.07   0.26    -0.02   0.05  -0.20     0.00  -0.04   0.18
  64   1     0.00   0.01  -0.05     0.00  -0.02   0.07     0.00   0.00  -0.00
  65   1    -0.01   0.03  -0.10     0.01  -0.02   0.08    -0.01   0.03  -0.08
  66   1     0.00   0.03  -0.10    -0.00  -0.02   0.08     0.00   0.03  -0.09
  67   1    -0.01   0.01  -0.05     0.00  -0.02   0.07    -0.00   0.00  -0.00
  68   1     0.00  -0.00   0.01    -0.00   0.00  -0.02     0.00  -0.01   0.02
  69   1     0.00   0.01  -0.00     0.00  -0.01   0.06     0.01  -0.00   0.03
  70   1    -0.00  -0.00   0.06     0.00  -0.01   0.03     0.00  -0.00   0.10
  71   1     0.00  -0.01   0.08    -0.00   0.01  -0.06     0.00  -0.00   0.07
  72   1     0.01   0.00   0.06     0.00  -0.01   0.03     0.00  -0.01   0.10
  73   1    -0.00   0.01  -0.00     0.00  -0.01   0.06    -0.01  -0.00   0.03
  74   1    -0.00  -0.00   0.01     0.00   0.01  -0.02     0.00  -0.01   0.02
                     28                     29                     30
                        a                      a                      a 
 Frequencies --   238.4510               245.1643               249.1767
 Red. masses --    15.0903                10.8350                10.9468
 Frc consts  --     0.0000                 0.0000                 0.0000
 IR Inten    --     1.3521                 0.5777                 2.4095
 Raman Activ --     0.0000                 0.0000                 0.0000
 Depolar     --     0.0000                 0.0000                 0.0000
 Atom AN      X      Y      Z        X      Y      Z        X      Y      Z
   1  26     0.19   0.00  -0.00     0.01  -0.00   0.00     0.04   0.00  -0.00
   2   6    -0.09  -0.04   0.01     0.01  -0.02  -0.14     0.00  -0.02  -0.13
   3   6    -0.11  -0.02  -0.00    -0.01   0.04   0.17    -0.02   0.05   0.19
   4   6    -0.10  -0.01   0.03    -0.00   0.03   0.10    -0.01   0.03   0.12
   5   6    -0.06  -0.00   0.00     0.00   0.00  -0.00    -0.01  -0.00  -0.00
   6   6    -0.10   0.01  -0.03    -0.00  -0.03  -0.10    -0.01  -0.03  -0.12
   7   6    -0.11   0.02   0.00    -0.01  -0.04  -0.17    -0.02  -0.05  -0.19
   8   6    -0.10   0.04  -0.00     0.01   0.02   0.14     0.00   0.02   0.13
   9   6    -0.11   0.06  -0.04     0.01   0.03   0.19     0.00   0.04   0.18
  10   7    -0.12   0.05  -0.07     0.01   0.01   0.09    -0.01   0.02   0.08
  11   6    -0.07   0.15   0.00     0.00  -0.00  -0.00    -0.01   0.02   0.01
  12   6    -0.08   0.16  -0.02    -0.01  -0.03  -0.20    -0.02  -0.01  -0.19
  13   6    -0.14   0.06   0.06    -0.01  -0.02  -0.12    -0.03  -0.02  -0.12
  14   6    -0.04  -0.04  -0.02     0.00   0.02   0.18    -0.01   0.02   0.18
  15   6     0.08   0.02  -0.08    -0.00   0.01   0.09    -0.00   0.01   0.09
  16   7     0.05   0.14  -0.10    -0.01  -0.02  -0.12    -0.01  -0.00  -0.12
  17   6     0.14   0.00  -0.00    -0.01  -0.00  -0.00     0.00  -0.00   0.00
  18   6     0.08  -0.02   0.08    -0.01  -0.01  -0.09    -0.00  -0.01  -0.09
  19   6    -0.04   0.04   0.02    -0.00  -0.02  -0.18    -0.01  -0.02  -0.18
  20   6    -0.13  -0.06  -0.05    -0.01   0.02   0.12    -0.03   0.01   0.12
  21   6    -0.07  -0.16   0.02    -0.01   0.03   0.20    -0.02   0.01   0.19
  22   7     0.06  -0.14   0.10    -0.01   0.02   0.13    -0.01   0.00   0.11
  23   6    -0.07  -0.15  -0.00     0.00   0.00   0.00    -0.01  -0.02  -0.01
  24   6    -0.11  -0.06   0.04     0.01  -0.03  -0.19     0.00  -0.04  -0.18
  25   7    -0.12  -0.05   0.07     0.01  -0.01  -0.09    -0.01  -0.02  -0.08
  26   1    -0.02  -0.01  -0.01     0.00  -0.01  -0.06     0.00  -0.01  -0.06
  27   1    -0.03  -0.01  -0.01    -0.01   0.02   0.11    -0.01   0.03   0.10
  28   1    -0.03   0.01   0.01    -0.01  -0.02  -0.11    -0.01  -0.03  -0.10
  29   1    -0.02   0.01   0.01     0.00   0.01   0.06     0.00   0.01   0.06
  30   1    -0.00   0.05   0.02     0.00   0.00   0.00    -0.00   0.01   0.01
  31   1    -0.07   0.02   0.04    -0.00  -0.01  -0.05    -0.01  -0.01  -0.05
  32   1    -0.01  -0.04   0.00     0.00   0.01   0.11    -0.00   0.01   0.11
  33   1     0.04   0.00  -0.00    -0.00  -0.00  -0.00     0.00   0.00   0.00
  34   1    -0.01   0.04  -0.00     0.00  -0.01  -0.11    -0.00  -0.01  -0.11
  35   1    -0.07  -0.02  -0.04    -0.00   0.01   0.05    -0.01   0.01   0.05
  36   1    -0.00  -0.05  -0.02     0.00  -0.00  -0.00    -0.00  -0.01  -0.01
  37   6    -0.01  -0.00   0.00     0.00  -0.00   0.00    -0.00  -0.00  -0.00
  38   6     0.01   0.00   0.00     0.00  -0.00  -0.00     0.00   0.00   0.00
  39  26    -0.19  -0.00  -0.01     0.01  -0.00  -0.00    -0.04   0.00   0.00
  40   6     0.09   0.04  -0.00     0.02  -0.02   0.14    -0.01   0.02  -0.13
  41   6     0.11   0.02  -0.00    -0.01   0.05  -0.17     0.02  -0.05   0.19
  42   6     0.10   0.01   0.03    -0.00   0.03  -0.10     0.02  -0.03   0.12
  43   6     0.06  -0.00   0.00     0.00   0.00  -0.00     0.01  -0.00   0.00
  44   6     0.10  -0.01  -0.03     0.00  -0.03   0.10     0.01   0.03  -0.12
  45   6     0.11  -0.02   0.00    -0.00  -0.04   0.17     0.01   0.05  -0.19
  46   6     0.10  -0.04  -0.01     0.01   0.02  -0.14    -0.00  -0.02   0.13
  47   6     0.11  -0.06  -0.04     0.01   0.03  -0.19     0.00  -0.04   0.18
  48   7     0.12  -0.05  -0.07     0.01   0.01  -0.09     0.01  -0.02   0.08
  49   6     0.07  -0.15  -0.00     0.00  -0.00   0.00     0.01  -0.02   0.01
  50   6     0.08  -0.16  -0.02    -0.01  -0.03   0.20     0.02   0.01  -0.19
  51   6     0.14  -0.06   0.05    -0.00  -0.02   0.12     0.02   0.02  -0.12
  52   6     0.04   0.04  -0.02    -0.01   0.02  -0.18     0.01  -0.02   0.18
  53   6    -0.08  -0.02  -0.07    -0.01   0.01  -0.09     0.00  -0.01   0.09
  54   7    -0.05  -0.14  -0.10    -0.01  -0.02   0.12     0.01   0.00  -0.11
  55   6    -0.14  -0.00   0.01    -0.01   0.00   0.00    -0.00  -0.00  -0.00
  56   6    -0.08   0.02   0.08    -0.00  -0.01   0.09    -0.00   0.01  -0.09
  57   6     0.04  -0.04   0.01     0.00  -0.02   0.18     0.00   0.02  -0.18
  58   6     0.13   0.06  -0.06    -0.01   0.02  -0.12     0.03  -0.02   0.12
  59   6     0.07   0.16   0.02    -0.02   0.03  -0.19     0.03  -0.01   0.19
  60   7    -0.05   0.14   0.11    -0.01   0.02  -0.12     0.01  -0.00   0.12
  61   6     0.07   0.15  -0.00     0.00   0.00  -0.00     0.01   0.02  -0.01
  62   6     0.11   0.06   0.04     0.02  -0.03   0.18    -0.01   0.04  -0.18
  63   7     0.12   0.05   0.07     0.01  -0.02   0.09     0.00   0.02  -0.09
  64   1     0.02   0.01  -0.01     0.01  -0.01   0.06    -0.01   0.01  -0.06
  65   1     0.03   0.01  -0.01    -0.01   0.03  -0.11     0.01  -0.03   0.10
  66   1     0.03  -0.01   0.01    -0.00  -0.03   0.11     0.01   0.03  -0.10
  67   1     0.02  -0.01   0.00     0.00   0.01  -0.06    -0.00  -0.01   0.06
  68   1     0.00  -0.05   0.02     0.00  -0.00  -0.00     0.00  -0.01   0.01
  69   1     0.07  -0.01   0.04    -0.00  -0.01   0.05     0.01   0.01  -0.05
  70   1     0.01   0.04  -0.00    -0.00   0.02  -0.11     0.00  -0.01   0.11
  71   1    -0.04  -0.00   0.00    -0.00  -0.00   0.00    -0.00   0.00  -0.00
  72   1     0.01  -0.04  -0.00     0.00  -0.02   0.11    -0.00   0.01  -0.11
  73   1     0.07   0.02  -0.04    -0.00   0.01  -0.05     0.01  -0.01   0.05
  74   1     0.00   0.05  -0.02     0.00  -0.00   0.00     0.00   0.01  -0.01
                     31                     32                     33
                        a                      a                      a 
 Frequencies --   257.4261               258.2899               263.0716
 Red. masses --    12.1066                12.1769                17.1751
 Frc consts  --     0.0000                 0.0000                 0.0000
 IR Inten    --     0.2912                 0.0024                19.3327
 Raman Activ --     0.0000                 0.0000                 0.0000
 Depolar     --     0.0000                 0.0000                 0.0000
 Atom AN      X      Y      Z        X      Y      Z        X      Y      Z
   1  26     0.00   0.00  -0.00     0.01   0.00  -0.00     0.00   0.10   0.23
   2   6     0.01  -0.02  -0.13    -0.00  -0.02  -0.13    -0.01   0.02   0.09
   3   6     0.00   0.01   0.01    -0.01   0.00  -0.00     0.01  -0.03  -0.12
   4   6    -0.01   0.04   0.18    -0.02   0.04   0.18     0.01  -0.04  -0.16
   5   6    -0.01  -0.00   0.00    -0.01  -0.00   0.00     0.00  -0.01  -0.02
   6   6    -0.01  -0.04  -0.18    -0.02  -0.04  -0.17    -0.01  -0.04  -0.16
   7   6     0.00  -0.01  -0.01    -0.01  -0.00   0.00    -0.01  -0.03  -0.12
   8   6     0.01   0.02   0.13    -0.00   0.02   0.13     0.01   0.02   0.09
   9   6    -0.00  -0.02  -0.05    -0.01  -0.02  -0.06     0.00   0.02   0.05
  10   7    -0.02  -0.06  -0.25    -0.03  -0.06  -0.26    -0.01  -0.02  -0.13
  11   6     0.00  -0.01   0.01    -0.00   0.00   0.01     0.00   0.02   0.09
  12   6     0.00  -0.00   0.06    -0.00   0.02   0.06    -0.02  -0.01  -0.12
  13   6    -0.00  -0.02  -0.13    -0.02  -0.01  -0.12    -0.02  -0.01  -0.02
  14   6     0.00  -0.00   0.00    -0.00  -0.01  -0.00    -0.01  -0.01   0.07
  15   6     0.01   0.02   0.17     0.02   0.02   0.16    -0.00  -0.01  -0.04
  16   7     0.01   0.03   0.25     0.02   0.04   0.24    -0.01  -0.02  -0.19
  17   6     0.00  -0.00  -0.00     0.02   0.00  -0.00     0.00  -0.00   0.06
  18   6     0.00  -0.02  -0.17     0.02  -0.02  -0.16     0.00  -0.01  -0.04
  19   6     0.00   0.00  -0.00    -0.00   0.01   0.00     0.01  -0.01   0.07
  20   6    -0.00   0.02   0.13    -0.01   0.01   0.12     0.02  -0.01  -0.02
  21   6     0.00   0.00  -0.05    -0.00  -0.02  -0.06     0.01  -0.01  -0.12
  22   7     0.01  -0.03  -0.25     0.01  -0.04  -0.24     0.01  -0.02  -0.19
  23   6     0.00   0.01  -0.01    -0.00  -0.00  -0.01    -0.00   0.02   0.09
  24   6    -0.00   0.02   0.05    -0.01   0.02   0.06    -0.00   0.01   0.05
  25   7    -0.01   0.06   0.25    -0.02   0.06   0.26     0.01  -0.02  -0.13
  26   1     0.01  -0.02  -0.10     0.00  -0.02  -0.10    -0.01   0.01   0.06
  27   1     0.00  -0.00  -0.02    -0.00  -0.01  -0.03     0.00  -0.01  -0.06
  28   1     0.00   0.00   0.02    -0.00   0.01   0.03    -0.00  -0.01  -0.06
  29   1     0.01   0.02   0.10     0.00   0.02   0.10     0.01   0.01   0.06
  30   1     0.00  -0.00   0.00     0.00   0.00   0.01     0.01   0.02   0.08
  31   1    -0.00  -0.01  -0.10    -0.01  -0.01  -0.09    -0.01  -0.00   0.01
  32   1    -0.00  -0.00  -0.02    -0.00  -0.01  -0.03    -0.00  -0.00   0.05
  33   1     0.00  -0.00  -0.00     0.01   0.00  -0.00     0.00   0.00   0.07
  34   1    -0.00   0.00   0.02    -0.00   0.01   0.03     0.00   0.00   0.05
  35   1    -0.00   0.01   0.10    -0.01   0.01   0.09     0.01  -0.00   0.01
  36   1     0.00   0.00  -0.00     0.00  -0.00  -0.01    -0.00   0.02   0.08
  37   6    -0.01  -0.00  -0.00    -0.00  -0.00   0.00     0.00   0.06   0.34
  38   6    -0.01  -0.00  -0.00     0.00   0.00   0.00     0.00  -0.06   0.34
  39  26     0.00   0.00   0.00    -0.01  -0.00  -0.00     0.01  -0.10   0.23
  40   6     0.01  -0.02   0.13     0.00   0.02  -0.13     0.01  -0.02   0.09
  41   6     0.00   0.01  -0.01     0.01  -0.00  -0.00    -0.01   0.03  -0.12
  42   6    -0.01   0.05  -0.18     0.02  -0.05   0.18    -0.01   0.04  -0.15
  43   6    -0.01  -0.00   0.00     0.01   0.00   0.00    -0.00   0.01  -0.02
  44   6    -0.01  -0.05   0.18     0.01   0.05  -0.18     0.00   0.04  -0.16
  45   6     0.00  -0.01   0.01     0.01   0.00   0.00     0.01   0.03  -0.12
  46   6     0.01   0.02  -0.13     0.01  -0.02   0.13    -0.00  -0.02   0.09
  47   6    -0.00  -0.02   0.05     0.01   0.02  -0.06     0.00  -0.01   0.05
  48   7    -0.01  -0.06   0.25     0.02   0.06  -0.26     0.01   0.02  -0.13
  49   6     0.00  -0.01  -0.01     0.00  -0.00   0.01     0.00  -0.02   0.09
  50   6     0.00  -0.00  -0.05     0.01  -0.02   0.06     0.01   0.01  -0.12
  51   6     0.00  -0.02   0.13     0.01   0.02  -0.12     0.02   0.01  -0.02
  52   6     0.00  -0.00  -0.00     0.00   0.01  -0.00     0.01   0.01   0.07
  53   6     0.00   0.02  -0.17    -0.01  -0.02   0.16     0.00   0.01  -0.04
  54   7     0.00   0.03  -0.24    -0.01  -0.05   0.24     0.00   0.02  -0.20
  55   6     0.00  -0.00   0.00    -0.02   0.00   0.00    -0.00   0.00   0.06
  56   6     0.01  -0.02   0.17    -0.02   0.02  -0.16    -0.01   0.01  -0.04
  57   6     0.00   0.00   0.00     0.00  -0.01   0.00    -0.01   0.00   0.07
  58   6    -0.00   0.02  -0.13     0.02  -0.02   0.12    -0.02   0.01  -0.02
  59   6     0.00   0.00   0.05     0.00   0.02  -0.06    -0.02   0.01  -0.12
  60   7     0.01  -0.03   0.24    -0.02   0.05  -0.24    -0.02   0.02  -0.19
  61   6     0.00   0.01   0.01     0.00   0.00  -0.01     0.00  -0.02   0.09
  62   6    -0.00   0.02  -0.05     0.02  -0.02   0.06     0.00  -0.02   0.05
  63   7    -0.02   0.06  -0.24     0.03  -0.06   0.26    -0.01   0.02  -0.13
  64   1     0.01  -0.02   0.10    -0.00   0.02  -0.10     0.01  -0.01   0.06
  65   1     0.00  -0.00   0.02     0.00   0.01  -0.03    -0.00   0.02  -0.06
  66   1     0.00   0.00  -0.02     0.00  -0.01   0.03     0.00   0.01  -0.06
  67   1     0.00   0.02  -0.10    -0.00  -0.02   0.10    -0.00  -0.01   0.06
  68   1     0.00  -0.00  -0.00    -0.00  -0.00   0.01    -0.00  -0.02   0.08
  69   1     0.00  -0.02   0.10     0.01   0.01  -0.09     0.01   0.00   0.01
  70   1     0.00  -0.00   0.02     0.00   0.01  -0.03     0.00   0.00   0.05
  71   1     0.00   0.00   0.00    -0.01  -0.00   0.00     0.00  -0.00   0.07
  72   1    -0.00   0.00  -0.02     0.00  -0.01   0.03    -0.00  -0.00   0.05
  73   1    -0.00   0.02  -0.10     0.01  -0.01   0.09    -0.01   0.00   0.01
  74   1     0.00   0.00   0.00    -0.00   0.00  -0.01     0.01  -0.02   0.08
                     34                     35                     36
                        a                      a                      a 
 Frequencies --   279.8569               280.4899               308.9013
 Red. masses --    31.9908                33.0232                13.6346
 Frc consts  --     0.0000                 0.0000                 0.0000
 IR Inten    --     0.4390                 1.5959                 1.2026
 Raman Activ --     0.0000                 0.0000                 0.0000
 Depolar     --     0.0000                 0.0000                 0.0000
 Atom AN      X      Y      Z        X      Y      Z        X      Y      Z
   1  26    -0.01   0.49  -0.10    -0.01   0.47  -0.08     0.00  -0.10   0.11
   2   6    -0.05  -0.07   0.01    -0.05  -0.06   0.02     0.02  -0.02   0.01
   3   6     0.03  -0.14   0.05     0.02  -0.12   0.04     0.07  -0.05  -0.02
   4   6     0.09  -0.10   0.02     0.08  -0.09   0.01     0.11  -0.03  -0.03
   5   6     0.00  -0.07   0.01     0.00  -0.06   0.01    -0.00   0.06   0.11
   6   6    -0.09  -0.10   0.02    -0.07  -0.09   0.01    -0.11  -0.03  -0.03
   7   6    -0.02  -0.14   0.05    -0.02  -0.13   0.04    -0.07  -0.06  -0.02
   8   6     0.06  -0.07   0.01     0.05  -0.06   0.01    -0.02  -0.02   0.01
   9   6     0.00   0.03  -0.03     0.00   0.03  -0.03    -0.03   0.00  -0.02
  10   7    -0.09   0.02  -0.02    -0.07   0.02  -0.03    -0.11  -0.03  -0.12
  11   6    -0.00   0.05  -0.02    -0.00   0.05  -0.02     0.03   0.07   0.12
  12   6    -0.00   0.04   0.02    -0.01   0.04   0.02     0.06  -0.01  -0.03
  13   6    -0.05  -0.07   0.02    -0.06  -0.06   0.01     0.08  -0.00  -0.03
  14   6     0.03  -0.15   0.01     0.02  -0.14   0.01     0.09  -0.00  -0.02
  15   6     0.10  -0.09   0.02     0.08  -0.09   0.02     0.08  -0.00  -0.02
  16   7     0.09   0.03   0.04     0.08   0.03   0.03     0.08  -0.03  -0.11
  17   6     0.00  -0.06  -0.01     0.00  -0.06  -0.00    -0.00   0.05   0.11
  18   6    -0.09  -0.10   0.02    -0.08  -0.09   0.02    -0.08  -0.00  -0.02
  19   6    -0.02  -0.15   0.01    -0.02  -0.14   0.01    -0.08  -0.00  -0.01
  20   6     0.06  -0.07   0.02     0.06  -0.06   0.01    -0.08  -0.00  -0.03
  21   6    -0.00   0.04   0.02     0.00   0.04   0.02    -0.06  -0.01  -0.03
  22   7    -0.09   0.03   0.04    -0.08   0.03   0.03    -0.08  -0.03  -0.11
  23   6    -0.00   0.05  -0.02     0.00   0.05  -0.02    -0.03   0.07   0.12
  24   6    -0.00   0.03  -0.03    -0.00   0.03  -0.03     0.03   0.00  -0.02
  25   7     0.09   0.02  -0.03     0.07   0.02  -0.03     0.10  -0.03  -0.12
  26   1    -0.05  -0.02   0.01    -0.04  -0.02   0.01     0.00  -0.01   0.01
  27   1     0.01  -0.06   0.03     0.00  -0.05   0.02     0.02  -0.03  -0.01
  28   1    -0.00  -0.06   0.03    -0.00  -0.05   0.02    -0.02  -0.03  -0.01
  29   1     0.05  -0.02   0.01     0.04  -0.02   0.01     0.00  -0.01   0.01
  30   1     0.00   0.01  -0.01     0.00   0.01  -0.01     0.01   0.03   0.09
  31   1    -0.05  -0.03   0.00    -0.04  -0.02   0.00     0.03  -0.00  -0.01
  32   1     0.01  -0.07  -0.00     0.00  -0.06  -0.00     0.02  -0.00  -0.00
[...]
  66   1    -0.23  -0.02  -0.02    -0.26  -0.02  -0.02    -0.09  -0.01  -0.01
  67   1     0.06   0.48   0.11     0.08   0.57   0.13     0.03   0.23   0.05
  68   1    -0.00   0.02   0.00    -0.00   0.02   0.00    -0.00   0.01   0.00
  69   1     0.00  -0.01  -0.00     0.00  -0.01  -0.00    -0.00   0.00   0.00
  70   1     0.02  -0.00  -0.00     0.03  -0.00  -0.00     0.00  -0.00  -0.00
  71   1     0.00   0.00   0.00     0.00   0.00   0.00     0.00  -0.00  -0.00
  72   1    -0.02  -0.00   0.00    -0.01  -0.00   0.00     0.02   0.00  -0.00
  73   1    -0.00  -0.01  -0.00    -0.00  -0.00  -0.00     0.00   0.00   0.00
  74   1     0.00   0.01   0.00     0.00   0.01   0.00    -0.00  -0.02  -0.00
                    208                    209                    210
                        a                      a                      a 
 Frequencies --  3154.6195              3160.5647              3160.5778
 Red. masses --     1.8242                 1.9743                 1.9742
 Frc consts  --     0.0000                 0.0000                 0.0000
 IR Inten    --     7.9687                13.5122               159.9309
 Raman Activ --     0.0000                 0.0000                 0.0000
 Depolar     --     0.0000                 0.0000                 0.0000
 Atom AN      X      Y      Z        X      Y      Z        X      Y      Z
   1  26     0.00   0.00  -0.00     0.00   0.00  -0.00     0.00  -0.00   0.00
   2   6    -0.02   0.13  -0.03     0.00  -0.00   0.00    -0.00   0.00  -0.00
   3   6     0.06  -0.00   0.01    -0.00   0.00  -0.00     0.00  -0.00   0.00
   4   6     0.00   0.00  -0.00     0.00  -0.00   0.00     0.00   0.00  -0.00
   5   6     0.00   0.00  -0.00     0.00  -0.00   0.00    -0.00   0.00  -0.00
   6   6     0.00  -0.00   0.00    -0.00  -0.00   0.00    -0.00   0.00  -0.00
   7   6     0.04   0.00  -0.00     0.00   0.00  -0.00    -0.00  -0.00   0.00
   8   6    -0.01  -0.08   0.02    -0.00  -0.00   0.00     0.00   0.00  -0.00
   9   6     0.00  -0.00   0.00     0.00  -0.00   0.00    -0.00   0.00  -0.00
  10   7    -0.00   0.00  -0.00    -0.00   0.00  -0.00     0.00  -0.00   0.00
  11   6     0.00  -0.00   0.00     0.00  -0.00   0.00    -0.00   0.00  -0.00
  12   6     0.00  -0.00   0.00    -0.00  -0.00   0.00     0.00   0.00  -0.00
  13   6    -0.00   0.00  -0.00     0.01  -0.08   0.01    -0.02   0.14  -0.02
  14   6    -0.01   0.00   0.00     0.06  -0.00  -0.00    -0.11   0.00   0.00
  15   6    -0.00  -0.00   0.00     0.00   0.00  -0.00    -0.00  -0.00   0.00
  16   7     0.00   0.00  -0.00    -0.00   0.00  -0.00     0.00  -0.00   0.00
  17   6    -0.00  -0.00   0.00    -0.00  -0.00   0.00    -0.00   0.00  -0.00
  18   6    -0.00   0.00  -0.00    -0.00   0.00  -0.00     0.00  -0.00   0.00
  19   6    -0.01  -0.00  -0.00    -0.08  -0.00  -0.00     0.11   0.00   0.00
  20   6    -0.00  -0.00   0.00    -0.01  -0.09   0.01     0.01   0.13  -0.02
  21   6    -0.00   0.00  -0.00     0.00  -0.00   0.00    -0.00   0.00  -0.00
  22   7     0.00  -0.00   0.00     0.00   0.00  -0.00    -0.00  -0.00   0.00
  23   6     0.00   0.00  -0.00    -0.00  -0.00   0.00     0.00   0.00  -0.00
  24   6     0.00   0.00  -0.00    -0.00  -0.00   0.00     0.00   0.00  -0.00
  25   7    -0.00  -0.00   0.00     0.00   0.00  -0.00    -0.00  -0.00   0.00
  26   1     0.07  -0.44   0.10    -0.00   0.01  -0.00     0.00  -0.02   0.00
  27   1    -0.22   0.01  -0.02     0.01  -0.00   0.00    -0.02   0.00  -0.00
  28   1    -0.15  -0.01   0.01    -0.01  -0.00   0.00     0.02   0.00  -0.00
  29   1     0.04   0.28  -0.06     0.00   0.01  -0.00    -0.00  -0.01   0.00
  30   1    -0.00   0.01  -0.00     0.00   0.01  -0.00    -0.00  -0.01   0.00
  31   1     0.00  -0.01   0.00    -0.04   0.25  -0.03     0.07  -0.45   0.06
  32   1     0.02  -0.00  -0.00    -0.21   0.01   0.01     0.37  -0.02  -0.01
  33   1     0.00  -0.00  -0.00     0.00  -0.00   0.00     0.00   0.00  -0.00
  34   1     0.03   0.00   0.00     0.24   0.02   0.00    -0.34  -0.03  -0.00
  35   1     0.00   0.02  -0.00     0.04   0.30  -0.04    -0.06  -0.43   0.06
  36   1    -0.00  -0.02   0.00    -0.00   0.01  -0.00     0.00  -0.01   0.00
  37   6    -0.00  -0.00  -0.00    -0.00   0.00   0.00     0.00   0.00   0.00
  38   6     0.00   0.00  -0.00     0.00  -0.00   0.00     0.00   0.00  -0.00
  39  26    -0.00  -0.00   0.00     0.00  -0.00  -0.00     0.00  -0.00  -0.00
  40   6     0.02  -0.16  -0.04    -0.00   0.00   0.00    -0.00   0.00   0.00
  41   6    -0.07   0.01   0.01     0.00  -0.00  -0.00     0.00  -0.00  -0.00
  42   6    -0.00  -0.00  -0.00     0.00   0.00   0.00     0.00   0.00   0.00
  43   6    -0.00  -0.00  -0.00    -0.00   0.00   0.00    -0.00   0.00   0.00
  44   6    -0.00   0.00   0.00    -0.00   0.00   0.00    -0.00   0.00   0.00
  45   6    -0.04  -0.00  -0.00    -0.00  -0.00  -0.00    -0.00  -0.00  -0.00
  46   6     0.01   0.09   0.02     0.00   0.00   0.00     0.00   0.00   0.00
  47   6    -0.00   0.00   0.00    -0.00   0.00   0.00    -0.00   0.00   0.00
  48   7     0.00  -0.00  -0.00     0.00  -0.00  -0.00     0.00  -0.00  -0.00
  49   6    -0.00   0.00   0.00    -0.00   0.00   0.00    -0.00   0.00   0.00
  50   6    -0.00   0.00   0.00     0.01   0.00   0.00     0.00   0.00   0.00
  51   6     0.00  -0.00  -0.00    -0.02   0.15   0.02    -0.01   0.09   0.01
  52   6     0.01  -0.00   0.00    -0.12   0.00  -0.00    -0.08   0.00  -0.00
  53   6     0.00   0.00   0.00    -0.00  -0.00  -0.00    -0.00  -0.00  -0.00
  54   7    -0.00  -0.00  -0.00     0.00  -0.00  -0.00     0.00  -0.00  -0.00
  55   6     0.00   0.00  -0.00    -0.00   0.00   0.00    -0.00   0.00   0.00
  56   6     0.00  -0.00  -0.00     0.00  -0.00  -0.00     0.00  -0.00  -0.00
  57   6     0.01   0.00  -0.00     0.10   0.00  -0.01     0.06   0.00  -0.00
  58   6     0.00   0.01   0.00     0.01   0.12   0.02     0.01   0.08   0.01
  59   6     0.00  -0.00  -0.00    -0.00   0.00   0.00    -0.00   0.00   0.00
  60   7    -0.00   0.00   0.00    -0.00  -0.00  -0.00    -0.00  -0.00  -0.00
  61   6    -0.00  -0.01  -0.00     0.00   0.00   0.00     0.00   0.00   0.00
  62   6    -0.00  -0.00  -0.00     0.00   0.00   0.00     0.00   0.00   0.00
  63   7     0.00   0.00   0.00    -0.00  -0.00  -0.00    -0.00  -0.00  -0.00
  64   1    -0.09   0.56   0.14     0.00  -0.02  -0.00     0.00  -0.01  -0.00
  65   1     0.27  -0.01  -0.03    -0.01   0.00   0.00    -0.01   0.00   0.00
  66   1     0.17   0.01   0.01     0.02   0.00   0.00     0.01   0.00   0.00
  67   1    -0.04  -0.33  -0.07    -0.00  -0.02  -0.00    -0.00  -0.01  -0.00
  68   1     0.00  -0.01  -0.00    -0.00  -0.01  -0.00    -0.00  -0.01  -0.00
  69   1    -0.00   0.01   0.00     0.08  -0.47  -0.07     0.05  -0.30  -0.04
  70   1    -0.02   0.00   0.00     0.38  -0.02  -0.00     0.24  -0.01  -0.00
  71   1    -0.00   0.00   0.00     0.00   0.00   0.00     0.00   0.00   0.00
  72   1    -0.03  -0.00   0.00    -0.32  -0.03   0.02    -0.20  -0.02   0.01
  73   1    -0.00  -0.02  -0.00    -0.05  -0.40  -0.05    -0.03  -0.25  -0.03
  74   1     0.00   0.02   0.00     0.00  -0.01  -0.00     0.00  -0.01  -0.00
                    211                    212                    213
                        a                      a                      a 
 Frequencies --  3160.7662              3161.3486              3171.6068
 Red. masses --     1.9753                 1.9744                 1.9493
 Frc consts  --     0.0000                 0.0000                 0.0000
 IR Inten    --    49.4972               112.9064                39.2490
 Raman Activ --     0.0000                 0.0000                 0.0000
 Depolar     --     0.0000                 0.0000                 0.0000
 Atom AN      X      Y      Z        X      Y      Z        X      Y      Z
   1  26     0.00   0.00  -0.00     0.00   0.00  -0.00    -0.00  -0.00   0.00
   2   6     0.00  -0.00   0.00     0.00  -0.00   0.00    -0.01   0.06  -0.01
   3   6    -0.00   0.00  -0.00    -0.01   0.00  -0.00    -0.12   0.00  -0.01
   4   6    -0.00  -0.00   0.00    -0.00  -0.00   0.00    -0.00  -0.00   0.00
   5   6     0.00   0.00   0.00    -0.00  -0.00   0.00     0.00   0.00  -0.00
   6   6    -0.00   0.00  -0.00    -0.00   0.00  -0.00     0.00  -0.00   0.00
   7   6    -0.00  -0.00   0.00    -0.01  -0.00   0.00     0.14   0.01  -0.01
   8   6     0.00   0.00  -0.00     0.00   0.00  -0.00     0.00   0.07  -0.02
   9   6    -0.00   0.00   0.00    -0.00   0.00  -0.00    -0.00   0.00   0.00
  10   7     0.00  -0.00   0.00     0.00  -0.00   0.00    -0.00  -0.00   0.00
  11   6    -0.00   0.00  -0.00    -0.00   0.00  -0.00     0.00   0.00  -0.00
  12   6     0.00   0.00  -0.00     0.00   0.00  -0.00     0.00  -0.00   0.00
  13   6    -0.01   0.11  -0.01    -0.01   0.11  -0.01    -0.00   0.00  -0.00
  14   6    -0.10   0.00   0.00    -0.10   0.00   0.00    -0.00   0.00   0.00
  15   6    -0.00  -0.00   0.00    -0.00  -0.00   0.00    -0.00  -0.00   0.00
  16   7     0.00  -0.00   0.00     0.00  -0.00   0.00     0.00  -0.00   0.00
  17   6    -0.00  -0.00   0.00    -0.00  -0.00   0.00    -0.00   0.00  -0.00
  18   6    -0.00   0.00  -0.00    -0.00   0.00  -0.00     0.00  -0.00   0.00
  19   6    -0.09  -0.00  -0.00    -0.10  -0.00  -0.00     0.00   0.00   0.00
  20   6    -0.01  -0.11   0.01    -0.01  -0.11   0.01     0.00   0.00  -0.00
  21   6     0.00  -0.00   0.00     0.00  -0.00   0.00    -0.00  -0.00   0.00
  22   7     0.00   0.00  -0.00     0.00   0.00  -0.00    -0.00  -0.00   0.00
  23   6    -0.00  -0.00   0.00    -0.00  -0.00   0.00    -0.00   0.00  -0.00
  24   6    -0.00  -0.00  -0.00    -0.00  -0.00   0.00     0.00   0.00   0.00
  25   7     0.00   0.00  -0.00     0.00   0.00  -0.00     0.00  -0.00   0.00
  26   1    -0.00   0.01  -0.00    -0.00   0.02  -0.00     0.03  -0.19   0.04
  27   1     0.00  -0.00   0.00     0.02  -0.00   0.00     0.40  -0.02   0.03
  28   1     0.00   0.00  -0.00     0.02   0.00  -0.00    -0.46  -0.03   0.04
  29   1    -0.00  -0.01   0.00    -0.00  -0.02   0.00    -0.03  -0.21   0.05
  30   1    -0.00  -0.01   0.00    -0.00  -0.01   0.00     0.00  -0.00   0.00
  31   1     0.06  -0.36   0.05     0.06  -0.36   0.05     0.00  -0.01   0.00
  32   1     0.30  -0.02  -0.01     0.31  -0.02  -0.01     0.00  -0.00  -0.00
  33   1     0.01   0.00  -0.00     0.02   0.00  -0.00     0.00   0.00   0.00
  34   1     0.30   0.02   0.00     0.31   0.03   0.00    -0.00  -0.00  -0.00
  35   1     0.05   0.36  -0.05     0.05   0.36  -0.05    -0.00  -0.01   0.00
  36   1    -0.00   0.01  -0.00    -0.00   0.01  -0.00    -0.00  -0.00   0.00
  37   6     0.00  -0.00   0.00     0.00   0.00   0.00    -0.00  -0.00  -0.00
  38   6     0.00  -0.00   0.00    -0.00   0.00   0.00     0.00  -0.00   0.00
  39  26     0.00   0.00  -0.00    -0.00  -0.00   0.00     0.00  -0.00  -0.00
  40   6     0.00  -0.00  -0.00    -0.00   0.00   0.00    -0.01   0.07   0.02
  41   6    -0.00   0.00   0.00     0.01  -0.00  -0.00    -0.13   0.00   0.01
  42   6    -0.00  -0.00  -0.00     0.00   0.00   0.00    -0.00  -0.00  -0.00
  43   6    -0.00  -0.00  -0.00     0.00   0.00  -0.00    -0.00   0.00   0.00
  44   6    -0.00   0.00   0.00     0.00  -0.00  -0.00     0.00  -0.00  -0.00
  45   6    -0.00  -0.00  -0.00     0.01   0.00   0.00     0.13   0.01   0.01
  46   6     0.00   0.00   0.00    -0.00  -0.00  -0.00     0.00   0.06   0.01
  47   6    -0.00   0.00   0.00     0.00  -0.00  -0.00    -0.00   0.00  -0.00
  48   7     0.00  -0.00  -0.00    -0.00   0.00   0.00    -0.00  -0.00  -0.00
  49   6    -0.00   0.00   0.00     0.00  -0.00  -0.00     0.00   0.00   0.00
  50   6     0.00   0.00   0.00    -0.00  -0.00  -0.00     0.00  -0.00  -0.00
  51   6    -0.01   0.10   0.01     0.01  -0.11  -0.01    -0.00   0.00   0.00
  52   6    -0.08   0.00  -0.00     0.09  -0.00   0.00    -0.00  -0.00  -0.00
  53   6    -0.00  -0.00  -0.00     0.00   0.00   0.00    -0.00  -0.00  -0.00
  54   7     0.00  -0.00  -0.00    -0.00   0.00   0.00     0.00  -0.00  -0.00
  55   6    -0.00  -0.00   0.00     0.00   0.00  -0.00     0.00   0.00   0.00
  56   6    -0.00   0.00   0.00     0.00  -0.00  -0.00     0.00  -0.00  -0.00
  57   6    -0.11  -0.00   0.01     0.10   0.00  -0.01     0.00   0.00  -0.00
  58   6    -0.01  -0.13  -0.02     0.01   0.12   0.02     0.00   0.00   0.00
  59   6     0.00  -0.00  -0.00    -0.00   0.00   0.00    -0.00  -0.00  -0.00
  60   7     0.00   0.00   0.00    -0.00  -0.00  -0.00    -0.00  -0.00  -0.00
  61   6    -0.00  -0.00  -0.00     0.00   0.00   0.00    -0.00   0.00   0.00
  62   6    -0.00  -0.00  -0.00     0.00   0.00   0.00     0.00   0.00  -0.00
  63   7     0.00   0.00   0.00    -0.00  -0.00  -0.00     0.00  -0.00  -0.00
  64   1    -0.00   0.01   0.00     0.00  -0.02  -0.00     0.03  -0.20  -0.05
  65   1     0.01  -0.00  -0.00    -0.03   0.00   0.00     0.44  -0.02  -0.05
  66   1     0.00   0.00   0.00    -0.02  -0.00  -0.00    -0.42  -0.03  -0.03
  67   1    -0.00  -0.01  -0.00     0.00   0.02   0.00    -0.03  -0.20  -0.04
  68   1    -0.00  -0.01  -0.00     0.00   0.01   0.00     0.00  -0.00  -0.00
  69   1     0.05  -0.31  -0.04    -0.06   0.34   0.05     0.00  -0.01  -0.00
  70   1     0.26  -0.01  -0.00    -0.29   0.02   0.00     0.00  -0.00  -0.00
  71   1     0.01   0.00  -0.00    -0.02  -0.00   0.00    -0.00   0.00  -0.00
  72   1     0.34   0.03  -0.02    -0.31  -0.03   0.01    -0.00  -0.00   0.00
  73   1     0.06   0.41   0.05    -0.05  -0.37  -0.05    -0.00  -0.01  -0.00
  74   1    -0.00   0.01   0.00     0.00  -0.01  -0.00    -0.00  -0.00  -0.00
                    214                    215                    216
                        a                      a                      a 
 Frequencies --  3171.9596              3173.1915              3173.2298
 Red. masses --     1.9493                 1.9476                 1.9480
 Frc consts  --     0.0000                 0.0000                 0.0000
 IR Inten    --    11.2185               712.5736               110.6198
 Raman Activ --     0.0000                 0.0000                 0.0000
 Depolar     --     0.0000                 0.0000                 0.0000
 Atom AN      X      Y      Z        X      Y      Z        X      Y      Z
   1  26    -0.00  -0.00   0.00     0.00   0.00  -0.00    -0.00   0.00  -0.00
   2   6     0.01  -0.07   0.01    -0.00   0.03  -0.01     0.01  -0.08   0.02
   3   6     0.13  -0.00   0.01    -0.08   0.00  -0.01     0.18  -0.00   0.01
   4   6     0.00   0.00  -0.00    -0.00  -0.00   0.00     0.00   0.01  -0.00
   5   6     0.00  -0.00   0.00    -0.00  -0.00   0.00     0.00  -0.00   0.00
   6   6     0.00  -0.00   0.00    -0.00   0.01  -0.00    -0.00   0.00  -0.00
   7   6     0.12   0.00  -0.01    -0.17  -0.01   0.02    -0.07  -0.00   0.01
   8   6     0.00   0.06  -0.01    -0.00  -0.08   0.02    -0.00  -0.03   0.01
   9   6    -0.00   0.00   0.00     0.00  -0.00  -0.00     0.00  -0.00  -0.00
  10   7    -0.00  -0.00   0.00     0.00   0.00  -0.00     0.00   0.00  -0.00
  11   6     0.00   0.00  -0.00    -0.00  -0.00   0.00    -0.00  -0.00   0.00
  12   6     0.00   0.00  -0.00     0.00   0.00  -0.00    -0.00   0.00  -0.00
  13   6    -0.00   0.00  -0.00     0.00  -0.00   0.00     0.00  -0.00   0.00
  14   6    -0.00   0.00   0.00     0.00  -0.00  -0.00     0.00   0.00  -0.00
  15   6    -0.00  -0.00   0.00     0.00   0.00  -0.00     0.00   0.00  -0.00
  16   7     0.00  -0.00   0.00    -0.00   0.00  -0.00     0.00  -0.00  -0.00
  17   6    -0.00  -0.00   0.00     0.00  -0.00   0.00    -0.00  -0.00   0.00
  18   6    -0.00   0.00  -0.00     0.00   0.00  -0.00    -0.00   0.00  -0.00
  19   6    -0.00  -0.00  -0.00    -0.00   0.00  -0.00    -0.00  -0.00  -0.00
  20   6    -0.00  -0.00   0.00    -0.00  -0.00   0.00    -0.00  -0.00   0.00
  21   6     0.00   0.00  -0.00     0.00  -0.00   0.00    -0.00   0.00  -0.00
  22   7     0.00   0.00  -0.00    -0.00  -0.00   0.00     0.00   0.00  -0.00
  23   6     0.00  -0.00   0.00    -0.00   0.00  -0.00     0.00  -0.00   0.00
  24   6    -0.00  -0.00  -0.00     0.00   0.00   0.00    -0.00  -0.00  -0.00
  25   7    -0.00   0.00  -0.00     0.00  -0.00   0.00    -0.00   0.00  -0.00
  26   1    -0.03   0.20  -0.04     0.02  -0.10   0.02    -0.04   0.24  -0.05
  27   1    -0.43   0.02  -0.04     0.26  -0.01   0.02    -0.59   0.03  -0.05
  28   1    -0.41  -0.03   0.04     0.56   0.04  -0.06     0.24   0.02  -0.02
  29   1    -0.03  -0.19   0.04     0.03   0.23  -0.05     0.01   0.10  -0.02
  30   1     0.00  -0.00   0.00    -0.00   0.00  -0.00    -0.00   0.00  -0.00
  31   1     0.00  -0.01   0.00    -0.00   0.00  -0.00    -0.00   0.00  -0.00
  32   1     0.01  -0.00  -0.00    -0.00   0.00   0.00    -0.00   0.00   0.00
  33   1     0.00   0.00  -0.00    -0.00  -0.00   0.00     0.00  -0.00  -0.00
  34   1     0.01   0.00   0.00     0.00   0.00   0.00     0.00   0.00   0.00
  35   1     0.00   0.01  -0.00     0.00   0.00  -0.00     0.00   0.00  -0.00
  36   1     0.00   0.00  -0.00    -0.00  -0.00   0.00     0.00   0.00  -0.00
  37   6    -0.00   0.00   0.00     0.00  -0.00  -0.00    -0.00  -0.00  -0.00
  38   6     0.00  -0.00  -0.00     0.00   0.00  -0.00    -0.00   0.00  -0.00
  39  26     0.00   0.00  -0.00     0.00  -0.00  -0.00    -0.00  -0.00  -0.00
  40   6    -0.01   0.06   0.01    -0.01   0.08   0.02    -0.00   0.04   0.01
  41   6    -0.12   0.00   0.01    -0.17   0.00   0.02    -0.08   0.00   0.01
  42   6    -0.00  -0.00  -0.00    -0.00  -0.01  -0.00    -0.00  -0.00  -0.00
  43   6    -0.00  -0.00  -0.00    -0.00   0.00   0.00     0.00   0.00   0.00
  44   6    -0.00   0.00   0.00    -0.00   0.00   0.00     0.00  -0.01  -0.00
  45   6    -0.14  -0.01  -0.01    -0.07  -0.00  -0.00     0.16   0.01   0.01
  46   6    -0.01  -0.07  -0.02    -0.00  -0.03  -0.01     0.00   0.07   0.02
  47   6     0.00  -0.00   0.00     0.00  -0.00   0.00    -0.00   0.00  -0.00
  48   7     0.00   0.00   0.00     0.00   0.00   0.00    -0.00  -0.00  -0.00
  49   6    -0.00  -0.00  -0.00    -0.00  -0.00  -0.00     0.00   0.00   0.00
  50   6    -0.00   0.00   0.00     0.00   0.00   0.00    -0.00  -0.00  -0.00
  51   6     0.00  -0.00  -0.00    -0.00   0.00   0.00    -0.00   0.00   0.00
  52   6     0.00  -0.00   0.00     0.00  -0.00  -0.00    -0.00  -0.00  -0.00
  53   6     0.00   0.00   0.00    -0.00  -0.00   0.00    -0.00  -0.00  -0.00
  54   7    -0.00   0.00   0.00    -0.00   0.00   0.00     0.00  -0.00  -0.00
  55   6     0.00   0.00  -0.00     0.00   0.00   0.00    -0.00   0.00   0.00
  56   6     0.00  -0.00  -0.00     0.00  -0.00  -0.00     0.00  -0.00  -0.00
  57   6     0.00   0.00  -0.00     0.00   0.00  -0.00     0.00  -0.00  -0.00
  58   6     0.00   0.00   0.00     0.00   0.00   0.00     0.00   0.00   0.00
  59   6    -0.00  -0.00   0.00     0.00  -0.00  -0.00    -0.00  -0.00  -0.00
  60   7    -0.00  -0.00  -0.00    -0.00  -0.00  -0.00     0.00   0.00  -0.00
  61   6    -0.00   0.00   0.00    -0.00   0.00   0.00    -0.00   0.00   0.00
  62   6     0.00   0.00  -0.00     0.00   0.00  -0.00     0.00   0.00  -0.00
  63   7     0.00  -0.00  -0.00     0.00  -0.00  -0.00     0.00  -0.00  -0.00
  64   1     0.03  -0.19  -0.05     0.04  -0.23  -0.06     0.02  -0.11  -0.03
  65   1     0.40  -0.02  -0.05     0.57  -0.02  -0.07     0.26  -0.01  -0.03
  66   1     0.47   0.03   0.03     0.24   0.02   0.02    -0.55  -0.04  -0.04
  67   1     0.03   0.22   0.05     0.01   0.09   0.02    -0.03  -0.22  -0.05
  68   1    -0.00   0.01   0.00    -0.00   0.00   0.00     0.00  -0.00  -0.00
  69   1    -0.00   0.01   0.00     0.00  -0.00  -0.00     0.00  -0.00  -0.00
  70   1    -0.01   0.00   0.00    -0.00   0.00   0.00     0.00  -0.00  -0.00
  71   1    -0.00  -0.00   0.00    -0.00   0.00  -0.00     0.00   0.00   0.00
  72   1    -0.01  -0.00   0.00    -0.00  -0.00   0.00    -0.00  -0.00   0.00
  73   1    -0.00  -0.01  -0.00    -0.00  -0.00  -0.00    -0.00  -0.00  -0.00
  74   1    -0.00  -0.00  -0.00    -0.00  -0.00  -0.00    -0.00  -0.00  -0.00
