      -----------------------------------------------------------      
     |                   =====================                   |     
     |                           x T B                           |     
     |                   =====================                   |     
     |                         S. Grimme                         |     
     |          Mulliken Center for Theoretical Chemistry        |     
     |                    University of Bonn                     |     
      -----------------------------------------------------------      

   * xtb version 6.4.1 (bd6e46d) compiled by 'conda@4901f00b25ba' on 2021-06-10

   xtb is free software: you can redistribute it and/or modify it under
   the terms of the GNU Lesser General Public License as published by
   the Free Software Foundation, either version 3 of the License, or
   (at your option) any later version.
   
   xtb is distributed in the hope that it will be useful,
   but WITHOUT ANY WARRANTY; without even the implied warranty of
   MERCHANTABILITY or FITNESS FOR A PARTICULAR PURPOSE.  See the
   GNU Lesser General Public License for more details.
   
   Cite this work as:
   * C. Bannwarth, E. Caldeweyher, S. Ehlert, A. Hansen, P. Pracht,
     J. Seibert, S. Spicher, S. Grimme, WIREs Comput. Mol. Sci., 2020, 11,
     e01493. DOI: 10.1002/wcms.1493
   
   for GFN2-xTB:
   * C. Bannwarth, S. Ehlert and S. Grimme., J. Chem. Theory Comput., 2019,
     15, 1652-1671. DOI: 10.1021/acs.jctc.8b01176
   for GFN1-xTB:
   * S. Grimme, C. Bannwarth, P. Shushkov, J. Chem. Theory Comput., 2017,
     13, 1989-2009. DOI: 10.1021/acs.jctc.7b00118
   for GFN0-xTB:
   * P. Pracht, E. Caldeweyher, S. Ehlert, S. Grimme, ChemRxiv, 2019, preprint.
     DOI: 10.26434/chemrxiv.8326202.v1
   for GFN-FF:
   * S. Spicher and S. Grimme, Angew. Chem. Int. Ed., 2020, 59, 15665-15673.
     DOI: 10.1002/anie.202004239
   
   for DFT-D4:
   * E. Caldeweyher, C. Bannwarth and S. Grimme, J. Chem. Phys., 2017,
     147, 034112. DOI: 10.1063/1.4993215
   * E. Caldeweyher, S. Ehlert, A. Hansen, H. Neugebauer, S. Spicher,
     C. Bannwarth and S. Grimme, J. Chem. Phys., 2019, 150, 154122.
     DOI: 10.1063/1.5090222
   * E. Caldeweyher, J.-M. Mewes, S. Ehlert and S. Grimme, Phys. Chem. Chem. Phys.
     2020, 22, 8499-8512. DOI: 10.1039/D0CP00502A
   
   for sTDA-xTB:
   * S. Grimme and C. Bannwarth, J. Chem. Phys., 2016, 145, 054103.
     DOI: 10.1063/1.4959605
   
   in the mass-spec context:
   * V. Asgeirsson, C. Bauer and S. Grimme, Chem. Sci., 2017, 8, 4879.
     DOI: 10.1039/c7sc00601b
   * J. Koopman and S. Grimme, ACS Omega 2019, 4, 12, 15120-15133.
     DOI: 10.1021/acsomega.9b02011
   
   for metadynamics refer to:
   * S. Grimme, J. Chem. Theory Comput., 2019, 155, 2847-2862
     DOI: 10.1021/acs.jctc.9b00143
   
   for SPH calculations refer to:
   * S. Spicher and S. Grimme, J. Chem. Theory Comput., 2021, 17, 1701-1714
     DOI: 10.1021/acs.jctc.0c01306
   
   with help from (in alphabetical order)
   P. Atkinson, C. Bannwarth, F. Bohle, G. Brandenburg, E. Caldeweyher
   M. Checinski, S. Dohm, S. Ehlert, S. Ehrlich, I. Gerasimov, J. Koopman
   C. Lavigne, S. Lehtola, F. März, M. Müller, F. Musil, H. Neugebauer
   J. Pisarek, C. Plett, P. Pracht, J. Seibert, P. Shushkov, S. Spicher
   M. Stahn, M. Steiner, T. Strunk, J. Stückrath, T. Rose, and J. Unsleber
   
 * started run on 2021/11/19 at 10:22:39.561     

           -------------------------------------------------
          |                Calculation Setup                |
           -------------------------------------------------

          program call               : /home/jeff/miniconda3/bin/xtb input_structure_1.xyz --gfn 2 --ohess normal --parallel 1 --etemp 300 --chrg 0 --uhf 0 -I det_control.in
          hostname                   : jelfscompute1
          coordinate file            : input_structure_1.xyz
          omp threads                :                     1
          number of atoms            :                    74
          number of electrons        :                   246
          charge                     :                     0
          spin                       :                   0.0
          first test random number   :      0.11683713936649

   ID    Z sym.   atoms
    1   26 Fe     1, 39
    2    6 C      2-9, 11-15, 17-21, 23, 24, 37, 38, 40-47, 49-53, 55-59, 61,
                  62
    3    7 N      10, 16, 22, 25, 48, 54, 60, 63
    4    1 H      26-36, 64-74

           -------------------------------------------------
          |                 G F N 2 - x T B                 |
           -------------------------------------------------

        Reference                      10.1021/acs.jctc.8b01176
      * Hamiltonian:
        H0-scaling (s, p, d)           1.850000    2.230000    2.230000
        zeta-weighting                 0.500000
      * Dispersion:
        s8                             2.700000
        a1                             0.520000
        a2                             5.000000
        s9                             5.000000
      * Repulsion:
        kExp                           1.500000    1.000000
        rExp                           1.000000
      * Coulomb:
        alpha                          2.000000
        third order                    shell-resolved
        anisotropic                    true
        a3                             3.000000
        a5                             4.000000
        cn-shift                       1.200000
        cn-exp                         4.000000
        max-rad                        5.000000


          ...................................................
          :                      SETUP                      :
          :.................................................:
          :  # basis functions                 242          :
          :  # atomic orbitals                 240          :
          :  # shells                          128          :
          :  # electrons                       246          :
          :  max. iterations                   250          :
          :  Hamiltonian                  GFN2-xTB          :
          :  restarted?                      false          :
          :  GBSA solvation                  false          :
          :  PC potential                    false          :
          :  electronic temp.          300.0000000     K    :
          :  accuracy                    1.0000000          :
          :  -> integral cutoff          0.2500000E+02      :
          :  -> integral neglect         0.1000000E-07      :
          :  -> SCF convergence          0.1000000E-05 Eh   :
          :  -> wf. convergence          0.1000000E-03 e    :
          :  Broyden damping             0.4000000          :
          ...................................................

 iter      E             dE          RMSdq      gap      omega  full diag
   1   -130.9230284 -0.130923E+03  0.775E+00    0.53       0.0  T
   2   -121.8195864  0.910344E+01  0.122E+01    0.18       1.0  T
   3   -130.7761257 -0.895654E+01  0.623E+00    0.18       1.0  T
   4   -130.4911774  0.284948E+00  0.533E+00    0.14       1.0  T
   5   -130.3706152  0.120562E+00  0.480E+00    0.13       1.0  T
   6   -131.0122661 -0.641651E+00  0.421E+00    0.05       1.0  T
   7   -130.7802988  0.231967E+00  0.434E+00    0.10       1.0  T
   8   -131.1809706 -0.400672E+00  0.360E+00    0.06       1.0  T
   9   -132.0864439 -0.905473E+00  0.285E+00    0.03       1.0  T
  10   -131.9632106  0.123233E+00  0.267E+00    0.05       1.0  T
  11   -129.9790124  0.198420E+01  0.555E+00    0.07       1.0  T
  12   -130.8469015 -0.867889E+00  0.423E+00    0.12       1.0  T
  13   -131.3624022 -0.515501E+00  0.357E+00    0.15       1.0  T
  14   -131.4958571 -0.133455E+00  0.343E+00    0.14       1.0  T
  15   -132.9605527 -0.146470E+01  0.111E+00    0.02       1.0  T
  16   -132.9636080 -0.305532E-02  0.972E-01    0.02       1.0  T
  17   -132.7705432  0.193065E+00  0.167E+00    0.01       1.0  T
  18   -131.7105350  0.106001E+01  0.335E+00    0.06       1.0  T
  19   -132.6109426 -0.900408E+00  0.169E+00    0.03       1.0  T
  20   -132.6013735  0.956914E-02  0.189E+00    0.03       1.0  T
  21   -131.6604354  0.940938E+00  0.324E+00    0.14       1.0  T
  22   -132.8766652 -0.121623E+01  0.141E+00    0.01       1.0  T
  23   -132.3680045  0.508661E+00  0.246E+00    0.06       1.0  T
  24   -132.0211779  0.346827E+00  0.277E+00    0.10       1.0  T
  25   -132.2822915 -0.261114E+00  0.263E+00    0.06       1.0  T
  26   -131.5272474  0.755044E+00  0.368E+00    0.06       1.0  T
  27   -131.3914646  0.135783E+00  0.385E+00    0.06       1.0  T
  28   -131.4149786 -0.235140E-01  0.383E+00    0.06       1.0  T
  29   -131.4812829 -0.663043E-01  0.377E+00    0.06       1.0  T
  30   -131.4756734  0.560953E-02  0.376E+00    0.06       1.0  T
  31   -131.5151969 -0.395235E-01  0.366E+00    0.06       1.0  T
  32   -131.5916655 -0.764686E-01  0.353E+00    0.06       1.0  T
  33   -131.7307967 -0.139131E+00  0.329E+00    0.06       1.0  T
  34   -132.6267938 -0.895997E+00  0.177E+00    0.02       1.0  T
  35   -132.7630546 -0.136261E+00  0.151E+00    0.01       1.0  T
  36   -132.7316755  0.313791E-01  0.145E+00    0.02       1.0  T
  37   -132.9521422 -0.220467E+00  0.568E-01    0.01       1.0  T
  38   -132.9671360 -0.149937E-01  0.244E-01    0.01       1.0  T
  39   -132.9596092  0.752673E-02  0.311E-01    0.01       1.0  T
  40   -132.9665879 -0.697869E-02  0.187E-01    0.01       1.0  T
  41   -132.9686822 -0.209430E-02  0.154E-01    0.01       1.0  T
  42   -132.9709047 -0.222243E-02  0.391E-02    0.01       1.0  T
  43   -132.9709844 -0.796998E-04  0.470E-02    0.01       1.0  T
  44   -132.9710091 -0.247875E-04  0.414E-02    0.01       1.0  T
  45   -132.9709226  0.865236E-04  0.579E-02    0.01       1.0  T
  46   -132.9706518  0.270868E-03  0.635E-02    0.01       1.0  T
  47   -132.9710220 -0.370272E-03  0.196E-02    0.01       1.0  T
  48   -132.9710103  0.117672E-04  0.129E-02    0.01       1.0  T
  49   -132.9710201 -0.981664E-05  0.956E-03    0.01       1.2  T
  50   -132.9710270 -0.697073E-05  0.563E-03    0.01       2.1  T
  51   -132.9710295 -0.246285E-05  0.304E-03    0.01       3.8  T
  52   -132.9710273  0.218293E-05  0.515E-03    0.01       2.3  T
  53   -132.9710302 -0.288579E-05  0.184E-03    0.01       6.3  T
  54   -132.9710306 -0.353582E-06  0.970E-04    0.01      12.0  T
  55   -132.9710306 -0.742861E-07  0.204E-04    0.01      56.9  T

   *** convergence criteria satisfied after 55 iterations ***

         #    Occupation            Energy/Eh            Energy/eV
      -------------------------------------------------------------
         1        2.0000           -0.6912155             -18.8089
       ...           ...                  ...                  ...
       117        1.9999           -0.3326520              -9.0519
       118        1.9987           -0.3303836              -8.9902
       119        1.9946           -0.3290237              -8.9532
       120        1.9817           -0.3278548              -8.9214
       121        1.8690           -0.3259272              -8.8689
       122        1.2777           -0.3239441              -8.8150
       123        1.1816           -0.3237511              -8.8097 (HOMO)
       124        0.9293           -0.3232676              -8.7966 (LUMO)
       125        0.7661           -0.3229494              -8.7879
       126        0.0014           -0.3164769              -8.6118
       127                         -0.2966035              -8.0710
       128                         -0.2942194              -8.0061
       ...                                ...                  ...
       240                          4.2425227             115.4449
      -------------------------------------------------------------
                  HL-Gap            0.0004835 Eh            0.0132 eV
             Fermi-level           -0.3234022 Eh           -8.8002 eV

 SCC (total)                   0 d,  0 h,  0 min,  0.685 sec
 SCC setup                      ...        0 min,  0.001 sec (  0.150%)
 Dispersion                     ...        0 min,  0.003 sec (  0.381%)
 classical contributions        ...        0 min,  0.000 sec (  0.061%)
 integral evaluation            ...        0 min,  0.027 sec (  4.005%)
 iterations                     ...        0 min,  0.574 sec ( 83.802%)
 molecular gradient             ...        0 min,  0.079 sec ( 11.471%)
 printout                       ...        0 min,  0.001 sec (  0.128%)

         :::::::::::::::::::::::::::::::::::::::::::::::::::::
         ::                     SUMMARY                     ::
         :::::::::::::::::::::::::::::::::::::::::::::::::::::
         :: total energy            -129.945683460736 Eh    ::
         :: gradient norm              2.269307577934 Eh/a0 ::
         :: HOMO-LUMO gap              0.013157583986 eV    ::
         ::.................................................::
         :: SCC energy              -132.971030638271 Eh    ::
         :: -> isotropic ES            0.002767055859 Eh    ::
         :: -> anisotropic ES          0.020195752190 Eh    ::
         :: -> anisotropic XC          0.074412446196 Eh    ::
         :: -> dispersion             -0.102933398088 Eh    ::
         :: repulsion energy           3.025114443093 Eh    ::
         :: add. restraining           0.000000000000 Eh    ::
         :: total charge              -0.000000000000 e     ::
         :::::::::::::::::::::::::::::::::::::::::::::::::::::

      ----------------------------------------------------------- 
     |                   =====================                   |
     |                        A N C O P T                        |
     |                   =====================                   |
     |               Approximate Normal Coordinate               |
     |                Rational Function Optimizer                |
      ----------------------------------------------------------- 

          ...................................................
          :                      SETUP                      :
          :.................................................:
          :   optimization level            normal          :
          :   max. optcycles                   222          :
          :   ANC micro-cycles                  20          :
          :   degrees of freedom               216          :
          :.................................................:
          :   RF solver                   davidson          :
          :   write xtbopt.log                true          :
          :   linear?                        false          :
          :   energy convergence         0.5000000E-05 Eh   :
          :   grad. convergence          0.1000000E-02 Eh/α :
          :   maximium RF displ.         1.0000000          :
          :   Hlow (freq-cutoff)         0.1000000E-01      :
          :   Hmax (freq-cutoff)         5.0000000          :
          :   S6 in model hess.         20.0000000          :
          ...................................................

generating ANC from model Hessian ...
Using Lindh-Hessian (1995)
 Shifting diagonal of input Hessian by    1.0007019626338471E-002
 Lowest  eigenvalues of input Hessian
    0.010000    0.000000    0.000000    0.000000    0.000000    0.000000
    0.000000    0.010132    0.010269    0.010799    0.011142    0.011514
    0.011745    0.011948    0.012578    0.013098    0.014195    0.014484
 Highest eigenvalues
    2.226785    2.661895    3.220586    3.589358    4.083715    4.498012


........................................................................
.............................. CYCLE    1 ..............................
........................................................................
   1   -132.9710306 -0.132971E+03  0.318E-05    0.01       0.0  T
   2   -132.9710299  0.764818E-06  0.250E-03    0.01       4.7  T
   3   -132.9710306 -0.761692E-06  0.209E-04    0.01      55.5  T
   4   -132.9710306  0.367464E-08  0.244E-04    0.01      47.7  T
     SCC iter.                  ...        0 min,  0.040 sec
     gradient                   ...        0 min,  0.078 sec
 * total energy  :  -129.9456835 Eh     change        0.5869595E-08 Eh
   gradient norm :     2.2693078 Eh/α   predicted     0.0000000E+00 (-100.00%)
   displ. norm   :     0.5396772 α      lambda       -0.1094971E+01
   maximum displ.:     0.3809443 α      in ANC's #216, #166, #121, ...

........................................................................
.............................. CYCLE    2 ..............................
........................................................................
   1   -133.0107399 -0.133011E+03  0.668E-01    0.02       0.0  T
   2   -131.7569910  0.125375E+01  0.367E+00    0.07       1.0  T
   3   -131.4197522  0.337239E+00  0.363E+00    0.18       1.0  T
   4   -132.6363973 -0.121665E+01  0.186E+00    0.03       1.0  T
   5   -131.7679398  0.868457E+00  0.343E+00    0.07       1.0  T
   6   -132.7220680 -0.954128E+00  0.173E+00    0.02       1.0  T
   7   -132.9507788 -0.228711E+00  0.990E-01    0.01       1.0  T
   8   -131.8044496  0.114633E+01  0.316E+00    0.14       1.0  T
   9   -132.8931379 -0.108869E+01  0.125E+00    0.00       1.0  T
  10   -132.8542198  0.389181E-01  0.131E+00    0.01       1.0  T
  11   -132.8760896 -0.218698E-01  0.112E+00    0.01       1.0  T
  12   -132.8763131 -0.223521E-03  0.112E+00    0.01       1.0  T
  13   -132.9646269 -0.883138E-01  0.692E-01    0.01       1.0  T
  14   -133.0204118 -0.557848E-01  0.569E-02    0.02       1.0  T
  15   -133.0176665  0.274524E-02  0.161E-01    0.02       1.0  T
  16   -133.0204662 -0.279971E-02  0.271E-02    0.02       1.0  T
  17   -133.0204281  0.381660E-04  0.339E-02    0.02       1.0  T
  18   -133.0204807 -0.526398E-04  0.242E-02    0.02       1.0  T
  19   -133.0205481 -0.673665E-04  0.609E-03    0.02       1.9  T
  20   -133.0205326  0.154498E-04  0.117E-02    0.02       1.0  T
  21   -133.0205475 -0.148886E-04  0.301E-03    0.02       3.9  T
  22   -133.0205472  0.351081E-06  0.328E-03    0.02       3.5  T
  23   -133.0205424  0.477842E-05  0.725E-03    0.02       1.6  T
  24   -133.0205479 -0.552754E-05  0.220E-03    0.02       5.3  T
  25   -133.0205484 -0.525905E-06  0.611E-04    0.02      19.0  T
  26   -133.0205485 -0.440110E-07  0.136E-04    0.02      85.2  T
     SCC iter.                  ...        0 min,  0.251 sec
     gradient                   ...        0 min,  0.078 sec
 * total energy  :  -130.4816116 Eh     change       -0.5359282E+00 Eh
   gradient norm :     0.5596025 Eh/α   predicted    -0.7069520E+00 (  31.91%)
   displ. norm   :     0.5998791 α      lambda       -0.2733563E+00
   maximum displ.:     0.1778622 α      in ANC's #121, #166, #73, ...

........................................................................
.............................. CYCLE    3 ..............................
........................................................................
   1   -132.9335842 -0.132934E+03  0.116E+00    0.05       0.0  T
   2   -130.9525721  0.198101E+01  0.459E+00    0.12       1.0  T
   3   -130.1898575  0.762715E+00  0.535E+00    0.06       1.0  T
   4   -132.2276726 -0.203782E+01  0.277E+00    0.03       1.0  T
   5   -131.8083786  0.419294E+00  0.327E+00    0.12       1.0  T
   6   -131.9401087 -0.131730E+00  0.317E+00    0.08       1.0  T
   7   -131.6160358  0.324073E+00  0.356E+00    0.07       1.0  T
   8   -131.5951772  0.208586E-01  0.359E+00    0.07       1.0  T
   9   -131.2865538  0.308623E+00  0.401E+00    0.07       1.0  T
  10   -131.5802927 -0.293739E+00  0.356E+00    0.06       1.0  T
  11   -131.9694105 -0.389118E+00  0.298E+00    0.06       1.0  T
  12   -132.8648703 -0.895460E+00  0.275E+00    0.04       1.0  T
  13   -132.9301004 -0.652301E-01  0.349E+00    0.06       1.0  T
  14   -132.9290844  0.101600E-02  0.355E+00    0.06       1.0  T
  15   -132.9302434 -0.115901E-02  0.347E+00    0.06       1.0  T
  16   -132.9383323 -0.808889E-02  0.283E+00    0.05       1.0  T
  17   -132.9344625  0.386980E-02  0.278E+00    0.05       1.0  T
  18   -132.9356608 -0.119836E-02  0.279E+00    0.05       1.0  T
  19   -132.8750593  0.606016E-01  0.193E+00    0.04       1.0  T
  20   -132.7044574  0.170602E+00  0.200E+00    0.00       1.0  T
  21   -132.9455886 -0.241131E+00  0.153E+00    0.04       1.0  T
  22   -132.8836740  0.619147E-01  0.111E+00    0.03       1.0  T
  23   -132.9438553 -0.601813E-01  0.857E-01    0.04       1.0  T
  24   -132.9399940  0.386127E-02  0.976E-01    0.04       1.0  T
  25   -132.9408833 -0.889290E-03  0.506E-01    0.04       1.0  T
  26   -132.9522553 -0.113720E-01  0.344E-01    0.04       1.0  T
  27   -132.9400227  0.122327E-01  0.328E-01    0.03       1.0  T
  28   -132.9450469 -0.502421E-02  0.260E-01    0.03       1.0  T
  29   -132.9502094 -0.516254E-02  0.155E-01    0.03       1.0  T
  30   -132.9516295 -0.142010E-02  0.110E-01    0.03       1.0  T
  31   -132.9529424 -0.131285E-02  0.435E-02    0.03       1.0  T
  32   -132.9531292 -0.186824E-03  0.630E-03    0.03       1.8  T
  33   -132.9531205  0.869069E-05  0.102E-02    0.03       1.1  T
  34   -132.9531334 -0.129483E-04  0.275E-03    0.03       4.2  T
  35   -132.9531336 -0.152158E-06  0.187E-03    0.03       6.2  T
  36   -132.9531336  0.294072E-07  0.179E-03    0.03       6.5  T
  37   -132.9531338 -0.278734E-06  0.114E-03    0.03      10.2  T
  38   -132.9531340 -0.108220E-06  0.118E-04    0.03      98.8  T
  39   -132.9531340  0.841283E-11  0.140E-04    0.03      82.9  T
     SCC iter.                  ...        0 min,  0.373 sec
     gradient                   ...        0 min,  0.078 sec
 * total energy  :  -130.6421726 Eh     change       -0.1605610E+00 Eh
   gradient norm :     0.3258322 Eh/α   predicted    -0.1858624E+00 (  15.76%)
   displ. norm   :     0.5977116 α      lambda       -0.1015846E+00
   maximum displ.:     0.1817077 α      in ANC's #73, #71, #80, ...

........................................................................
.............................. CYCLE    4 ..............................
........................................................................
   1   -132.9406583 -0.132941E+03  0.161E+00    0.06       0.0  T
   2   -125.5179525  0.742271E+01  0.845E+00    0.24       1.0  T
   3   -131.4842886 -0.596634E+01  0.430E+00    0.09       1.0  T
   4   -132.1802178 -0.695929E+00  0.324E+00    0.06       1.0  T
   5   -132.7950408 -0.614823E+00  0.188E+00    0.02       1.0  T
   6   -132.8406459 -0.456051E-01  0.133E+00    0.03       1.0  T
   7   -132.9777872 -0.137141E+00  0.789E-01    0.07       1.0  T
   8   -132.8373758  0.140411E+00  0.122E+00    0.03       1.0  T
   9   -131.7016784  0.113570E+01  0.404E+00    0.11       1.0  T
  10   -132.9806860 -0.127901E+01  0.853E-01    0.07       1.0  T
  11   -132.6680263  0.312660E+00  0.165E+00    0.00       1.0  T
  12   -132.6884316 -0.204053E-01  0.157E+00    0.00       1.0  T
  13   -132.9771982 -0.288767E+00  0.639E-01    0.07       1.0  T
  14   -132.8699943  0.107204E+00  0.980E-01    0.03       1.0  T
  15   -132.8984107 -0.284165E-01  0.843E-01    0.04       1.0  T
  16   -132.9831414 -0.847306E-01  0.428E-01    0.07       1.0  T
  17   -132.9829799  0.161483E-03  0.411E-01    0.07       1.0  T
  18   -132.9799884  0.299152E-02  0.381E-01    0.07       1.0  T
  19   -132.9804755 -0.487072E-03  0.350E-01    0.06       1.0  T
  20   -132.9815958 -0.112031E-02  0.307E-01    0.06       1.0  T
  21   -132.9815572  0.386164E-04  0.231E-01    0.06       1.0  T
  22   -132.9830290 -0.147185E-02  0.157E-01    0.06       1.0  T
  23   -132.9838079 -0.778915E-03  0.843E-02    0.06       1.0  T
  24   -132.9838111 -0.314179E-05  0.482E-02    0.06       1.0  T
  25   -132.9839141 -0.103040E-03  0.321E-02    0.06       1.0  T
  26   -132.9839086  0.551077E-05  0.140E-02    0.06       1.0  T
  27   -132.9839247 -0.160983E-04  0.432E-03    0.06       2.7  T
  28   -132.9839249 -0.233351E-06  0.417E-03    0.06       2.8  T
  29   -132.9839269 -0.195612E-05  0.856E-04    0.06      13.6  T
  30   -132.9839270 -0.767649E-07  0.611E-04    0.06      19.0  T
  31   -132.9839270 -0.827100E-09  0.435E-04    0.06      26.7  T
     SCC iter.                  ...        0 min,  0.297 sec
     gradient                   ...        0 min,  0.078 sec
 * total energy  :  -130.7231926 Eh     change       -0.8101993E-01 Eh
   gradient norm :     0.1890169 Eh/α   predicted    -0.6893837E-01 ( -14.91%)
   displ. norm   :     0.7164993 α      lambda       -0.7187469E-01
   maximum displ.:     0.2020022 α      in ANC's #34, #73, #51, ...

........................................................................
.............................. CYCLE    5 ..............................
........................................................................
   1   -132.9940603 -0.132994E+03  0.136E+00    0.10       0.0  T
   2   -130.9680789  0.202598E+01  0.550E+00    0.16       1.0  T
   3   -131.3728510 -0.404772E+00  0.450E+00    0.16       1.0  T
   4   -132.8288421 -0.145599E+01  0.157E+00    0.03       1.0  T
   5   -131.6213904  0.120745E+01  0.416E+00    0.18       1.0  T
   6   -132.9937335 -0.137234E+01  0.885E-01    0.09       1.0  T
   7   -132.9281852  0.655482E-01  0.938E-01    0.05       1.0  T
   8   -133.0159682 -0.877829E-01  0.917E-01    0.15       1.0  T
   9   -133.0156056  0.362560E-03  0.779E-01    0.15       1.0  T
  10   -133.0108935  0.471209E-02  0.550E-01    0.12       1.0  T
  11   -133.0161127 -0.521917E-02  0.552E-01    0.13       1.0  T
  12   -133.0166708 -0.558123E-03  0.474E-01    0.13       1.0  T
  13   -133.0170865 -0.415720E-03  0.422E-01    0.13       1.0  T
  14   -133.0159676  0.111892E-02  0.181E-01    0.12       1.0  T
  15   -133.0173232 -0.135562E-02  0.844E-02    0.11       1.0  T
  16   -133.0160405  0.128269E-02  0.120E-01    0.12       1.0  T
  17   -133.0172178 -0.117725E-02  0.736E-02    0.12       1.0  T
  18   -133.0175757 -0.357896E-03  0.325E-02    0.12       1.0  T
  19   -133.0175521  0.235553E-04  0.228E-02    0.12       1.0  T
  20   -133.0175921 -0.399815E-04  0.283E-03    0.12       4.1  T
  21   -133.0175920  0.152100E-06  0.335E-03    0.12       3.5  T
  22   -133.0175922 -0.282855E-06  0.227E-03    0.12       5.1  T
  23   -133.0175920  0.278421E-06  0.257E-03    0.12       4.5  T
  24   -133.0175926 -0.664542E-06  0.289E-04    0.12      40.2  T
  25   -133.0175926  0.186357E-07  0.434E-04    0.12      26.8  T
     SCC iter.                  ...        0 min,  0.243 sec
     gradient                   ...        0 min,  0.078 sec
 * total energy  :  -130.7807790 Eh     change       -0.5758648E-01 Eh
   gradient norm :     0.0938896 Eh/α   predicted    -0.5438654E-01 (  -5.56%)
   displ. norm   :     0.7600270 α      lambda       -0.4695423E-01
   maximum displ.:     0.2781380 α      in ANC's #34, #51, #50, ...

........................................................................
.............................. CYCLE    6 ..............................
........................................................................
   1   -133.0324534 -0.133032E+03  0.840E-01    0.15       0.0  T
   2   -131.5569108  0.147554E+01  0.500E+00    0.18       1.0  T
   3   -131.6008523 -0.439416E-01  0.448E+00    0.16       1.0  T
   4   -131.6162399 -0.153876E-01  0.445E+00    0.16       1.0  T
   5   -132.6609779 -0.104474E+01  0.205E+00    0.00       1.0  T
   6   -131.4807656  0.118021E+01  0.470E+00    0.20       1.0  T
   7   -131.0727968  0.407969E+00  0.486E+00    0.12       1.0  T
   8   -130.7527407  0.320056E+00  0.511E+00    0.08       1.0  T
   9   -127.6390186  0.311372E+01  0.713E+00    0.04       1.0  T
  10   -128.8341072 -0.119509E+01  0.638E+00    0.02       1.0  T
  11   -131.0328382 -0.219873E+01  0.459E+00    0.09       1.0  T
  12   -131.8988491 -0.866011E+00  0.330E+00    0.11       1.0  T
  13   -132.7007636 -0.801915E+00  0.234E+00    0.01       1.0  T
  14   -132.5145956  0.186168E+00  0.242E+00    0.01       1.0  T
  15   -130.6587550  0.185584E+01  0.475E+00    0.04       1.0  T
  16   -132.0349404 -0.137619E+01  0.378E+00    0.02       1.0  T
  17   -131.6662030  0.368737E+00  0.374E+00    0.03       1.0  T
  18   -132.1421482 -0.475945E+00  0.347E+00    0.02       1.0  T
  19   -132.2274414 -0.852933E-01  0.341E+00    0.02       1.0  T
  20   -132.5367312 -0.309290E+00  0.352E+00    0.01       1.0  T
  21   -132.5367319 -0.670099E-06  0.352E+00    0.01       1.0  T
  22   -132.9506603 -0.413928E+00  0.410E+00    0.10       1.0  T
  23   -132.9902262 -0.395659E-01  0.298E+00    0.10       1.0  T
  24   -133.0125371 -0.223109E-01  0.207E+00    0.11       1.0  T
  25   -133.0203769 -0.783975E-02  0.125E+00    0.11       1.0  T
  26   -133.0360961 -0.157192E-01  0.922E-01    0.17       1.0  T
  27   -133.0369927 -0.896618E-03  0.789E-01    0.18       1.0  T
  28   -133.0375804 -0.587734E-03  0.623E-01    0.21       1.0  T
  29   -133.0361325  0.144796E-02  0.517E-01    0.23       1.0  T
  30   -133.0363576 -0.225104E-03  0.465E-01    0.22       1.0  T
  31   -133.0355095  0.848128E-03  0.359E-01    0.19       1.0  T
  32   -133.0358436 -0.334160E-03  0.325E-01    0.19       1.0  T
  33   -133.0356886  0.154988E-03  0.282E-01    0.17       1.0  T
  34   -133.0340202  0.166840E-02  0.252E-01    0.15       1.0  T
  35   -133.0347482 -0.727943E-03  0.243E-01    0.15       1.0  T
  36   -133.0359909 -0.124274E-02  0.233E-01    0.16       1.0  T
  37   -133.0370756 -0.108471E-02  0.221E-01    0.17       1.0  T
  38   -133.0385791 -0.150343E-02  0.208E-01    0.19       1.0  T
  39   -133.0394919 -0.912793E-03  0.180E-01    0.20       1.0  T
  40   -133.0403558 -0.863943E-03  0.138E-01    0.23       1.0  T
  41   -133.0407244 -0.368593E-03  0.773E-02    0.23       1.0  T
  42   -133.0408074 -0.830434E-04  0.242E-02    0.23       1.0  T
  43   -133.0407841  0.233713E-04  0.352E-02    0.23       1.0  T
  44   -133.0408068 -0.227556E-04  0.134E-02    0.23       1.0  T
  45   -133.0408098 -0.298994E-05  0.979E-03    0.23       1.2  T
  46   -133.0408113 -0.150614E-05  0.906E-03    0.23       1.3  T
  47   -133.0408135 -0.215330E-05  0.951E-03    0.23       1.2  T
  48   -133.0408143 -0.879150E-06  0.815E-03    0.23       1.4  T
  49   -133.0408166 -0.226150E-05  0.669E-03    0.23       1.7  T
  50   -133.0408183 -0.167512E-05  0.494E-03    0.23       2.4  T
  51   -133.0408197 -0.143370E-05  0.216E-03    0.23       5.4  T
  52   -133.0408200 -0.269740E-06  0.621E-04    0.23      18.7  T
  53   -133.0408200 -0.331324E-07  0.287E-04    0.23      40.5  T
     SCC iter.                  ...        0 min,  0.515 sec
     gradient                   ...        0 min,  0.078 sec
 * total energy  :  -130.8195719 Eh     change       -0.3879282E-01 Eh
   gradient norm :     0.0696905 Eh/α   predicted    -0.3703847E-01 (  -4.52%)
   displ. norm   :     0.7643277 α      lambda       -0.3290454E-01
   maximum displ.:     0.3139215 α      in ANC's #34, #51, #50, ...

........................................................................
.............................. CYCLE    7 ..............................
........................................................................
   1   -133.0565905 -0.133057E+03  0.466E-01    0.24       0.0  T
   2   -133.0261846  0.304060E-01  0.776E-01    0.11       1.0  T
   3   -132.8938024  0.132382E+00  0.150E+00    0.04       1.0  T
   4   -132.9660615 -0.722591E-01  0.108E+00    0.06       1.0  T
   5   -133.0595838 -0.935223E-01  0.261E-01    0.33       1.0  T
   6   -133.0601874 -0.603669E-03  0.185E-01    0.36       1.0  T
   7   -133.0565290  0.365842E-02  0.212E-01    0.18       1.0  T
   8   -133.0589233 -0.239433E-02  0.193E-01    0.22       1.0  T
   9   -133.0586497  0.273622E-03  0.187E-01    0.21       1.0  T
  10   -133.0589468 -0.297067E-03  0.176E-01    0.21       1.0  T
  11   -133.0590930 -0.146205E-03  0.170E-01    0.22       1.0  T
  12   -133.0591337 -0.407313E-04  0.165E-01    0.22       1.0  T
  13   -133.0592766 -0.142899E-03  0.155E-01    0.23       1.0  T
  14   -133.0595077 -0.231075E-03  0.140E-01    0.23       1.0  T
  15   -133.0598081 -0.300399E-03  0.112E-01    0.25       1.0  T
  16   -133.0600770 -0.268952E-03  0.765E-02    0.28       1.0  T
  17   -133.0601033 -0.262601E-04  0.773E-02    0.28       1.0  T
  18   -133.0602425 -0.139159E-03  0.518E-02    0.31       1.0  T
  19   -133.0603146 -0.721454E-04  0.352E-02    0.33       1.0  T
  20   -133.0603480 -0.333771E-04  0.252E-02    0.34       1.0  T
  21   -133.0603734 -0.253628E-04  0.135E-02    0.36       1.0  T
  22   -133.0603827 -0.939729E-05  0.439E-03    0.35       2.7  T
  23   -133.0603840 -0.123453E-05  0.990E-04    0.35      11.7  T
  24   -133.0603840 -0.410674E-07  0.218E-04    0.35      53.3  T
  25   -133.0603840 -0.459977E-09  0.118E-04    0.35      98.9  T
     SCC iter.                  ...        0 min,  0.241 sec
     gradient                   ...        0 min,  0.078 sec
 * total energy  :  -130.8463484 Eh     change       -0.2677650E-01 Eh
   gradient norm :     0.0596146 Eh/α   predicted    -0.2606364E-01 (  -2.66%)
   displ. norm   :     0.7228458 α      lambda       -0.2141474E-01
   maximum displ.:     0.2815035 α      in ANC's #34, #6, #13, ...

........................................................................
.............................. CYCLE    8 ..............................
........................................................................
   1   -133.0787266 -0.133079E+03  0.341E-01    0.34       0.0  T
   2   -133.0775378  0.118883E-02  0.281E-01    0.32       1.0  T
   3   -133.0795352 -0.199743E-02  0.179E-01    0.36       1.0  T
   4   -133.0801428 -0.607590E-03  0.747E-02    0.40       1.0  T
   5   -133.0801604 -0.176066E-04  0.301E-02    0.40       1.0  T
   6   -133.0801761 -0.157143E-04  0.730E-03    0.40       1.6  T
   7   -133.0801781 -0.191933E-05  0.371E-03    0.40       3.1  T
   8   -133.0801781 -0.559748E-07  0.183E-03    0.40       6.4  T
   9   -133.0801782 -0.610828E-07  0.758E-04    0.40      15.3  T
  10   -133.0801782 -0.291186E-08  0.439E-04    0.40      26.5  T
     SCC iter.                  ...        0 min,  0.097 sec
     gradient                   ...        0 min,  0.078 sec
 * total energy  :  -130.8632497 Eh     change       -0.1690132E-01 Eh
   gradient norm :     0.0405837 Eh/α   predicted    -0.1630207E-01 (  -3.55%)
   displ. norm   :     0.6906553 α      lambda       -0.1282407E-01
   maximum displ.:     0.3343399 α      in ANC's #6, #13, #10, ...

........................................................................
.............................. CYCLE    9 ..............................
........................................................................
   1   -133.0973527 -0.133097E+03  0.262E-01    0.41       0.0  T
   2   -133.0970194  0.333321E-03  0.197E-01    0.39       1.0  T
   3   -133.0974761 -0.456693E-03  0.130E-01    0.41       1.0  T
   4   -133.0977570 -0.280891E-03  0.609E-02    0.41       1.0  T
   5   -133.0978323 -0.752929E-04  0.142E-02    0.41       1.0  T
   6   -133.0978358 -0.351100E-05  0.547E-03    0.41       2.1  T
   7   -133.0978363 -0.533569E-06  0.166E-03    0.41       7.0  T
   8   -133.0978363  0.189063E-07  0.136E-03    0.41       8.5  T
   9   -133.0978364 -0.636544E-07  0.748E-04    0.41      15.5  T
  10   -133.0978364 -0.582173E-08  0.212E-04    0.41      54.8  T
     SCC iter.                  ...        0 min,  0.097 sec
     gradient                   ...        0 min,  0.078 sec
 * total energy  :  -130.8732199 Eh     change       -0.9970237E-02 Eh
   gradient norm :     0.0274962 Eh/α   predicted    -0.9470612E-02 (  -5.01%)
   displ. norm   :     0.7189094 α      lambda       -0.8841385E-02
   maximum displ.:     0.4140132 α      in ANC's #6, #13, #10, ...

........................................................................
.............................. CYCLE   10 ..............................
........................................................................
   1   -133.1105886 -0.133111E+03  0.307E-01    0.39       0.0  T
   2   -133.1106284 -0.398307E-04  0.222E-01    0.38       1.0  T
   3   -133.1107625 -0.134143E-03  0.127E-01    0.39       1.0  T
   4   -133.1107944 -0.318289E-04  0.613E-02    0.39       1.0  T
   5   -133.1107992 -0.483792E-05  0.211E-02    0.39       1.0  T
   6   -133.1108030 -0.383137E-05  0.574E-03    0.39       2.0  T
   7   -133.1108036 -0.555015E-06  0.255E-03    0.39       4.6  T
   8   -133.1108038 -0.163433E-06  0.119E-03    0.39       9.8  T
   9   -133.1108038 -0.281447E-07  0.728E-04    0.39      16.0  T
  10   -133.1108038 -0.972858E-08  0.232E-04    0.39      50.2  T
     SCC iter.                  ...        0 min,  0.098 sec
     gradient                   ...        0 min,  0.078 sec
 * total energy  :  -130.8792211 Eh     change       -0.6001210E-02 Eh
   gradient norm :     0.0285791 Eh/α   predicted    -0.6705446E-02 (  11.73%)
   displ. norm   :     0.7422358 α      lambda       -0.8535710E-02
   maximum displ.:     0.4618832 α      in ANC's #6, #13, #10, ...

........................................................................
.............................. CYCLE   11 ..............................
........................................................................
   1   -133.1193879 -0.133119E+03  0.357E-01    0.36       0.0  T
   2   -133.1194078 -0.199061E-04  0.336E-01    0.35       1.0  T
   3   -133.1196476 -0.239767E-03  0.134E-01    0.36       1.0  T
   4   -133.1196632 -0.156496E-04  0.662E-02    0.35       1.0  T
   5   -133.1196687 -0.551921E-05  0.274E-02    0.35       1.0  T
   6   -133.1196721 -0.332980E-05  0.604E-03    0.35       1.9  T
   7   -133.1196723 -0.230742E-06  0.264E-03    0.35       4.4  T
   8   -133.1196725 -0.182917E-06  0.127E-03    0.35       9.1  T
   9   -133.1196725 -0.286781E-07  0.779E-04    0.35      14.9  T
  10   -133.1196725 -0.202913E-07  0.187E-04    0.35      62.2  T
     SCC iter.                  ...        0 min,  0.100 sec
     gradient                   ...        0 min,  0.078 sec
 * total energy  :  -130.8847029 Eh     change       -0.5481785E-02 Eh
   gradient norm :     0.0280652 Eh/α   predicted    -0.6619080E-02 (  20.75%)
   displ. norm   :     0.6279846 α      lambda       -0.4991825E-02
   maximum displ.:     0.4580273 α      in ANC's #6, #13, #5, ...

........................................................................
.............................. CYCLE   12 ..............................
........................................................................
   1   -133.1211581 -0.133121E+03  0.311E-01    0.33       0.0  T
   2   -133.1210388  0.119225E-03  0.384E-01    0.31       1.0  T
   3   -133.1213023 -0.263440E-03  0.989E-02    0.32       1.0  T
   4   -133.1213105 -0.822340E-05  0.597E-02    0.32       1.0  T
   5   -133.1213143 -0.381574E-05  0.203E-02    0.32       1.0  T
   6   -133.1213151 -0.768105E-06  0.454E-03    0.32       2.6  T
   7   -133.1213151 -0.166719E-07  0.271E-03    0.32       4.3  T
   8   -133.1213155 -0.441017E-06  0.819E-04    0.32      14.2  T
   9   -133.1213155 -0.154406E-07  0.392E-04    0.32      29.6  T
     SCC iter.                  ...        0 min,  0.089 sec
     gradient                   ...        0 min,  0.078 sec
 * total energy  :  -130.8890281 Eh     change       -0.4325184E-02 Eh
   gradient norm :     0.0253327 Eh/α   predicted    -0.3480213E-02 ( -19.54%)
   displ. norm   :     0.7290077 α      lambda       -0.5866819E-02
   maximum displ.:     0.5230625 α      in ANC's #6, #13, #5, ...

........................................................................
.............................. CYCLE   13 ..............................
........................................................................
   1   -133.1255161 -0.133126E+03  0.321E-01    0.30       0.0  T
   2   -133.1251041  0.411932E-03  0.407E-01    0.29       1.0  T
   3   -133.1258277 -0.723527E-03  0.112E-01    0.30       1.0  T
   4   -133.1258419 -0.142095E-04  0.766E-02    0.30       1.0  T
   5   -133.1258560 -0.140948E-04  0.299E-02    0.30       1.0  T
   6   -133.1258590 -0.300343E-05  0.587E-03    0.30       2.0  T
   7   -133.1258591 -0.166936E-06  0.297E-03    0.30       3.9  T
   8   -133.1258592 -0.880408E-07  0.186E-03    0.30       6.3  T
   9   -133.1258594 -0.157234E-06  0.791E-04    0.30      14.7  T
  10   -133.1258594 -0.176342E-07  0.257E-04    0.30      45.2  T
     SCC iter.                  ...        0 min,  0.098 sec
     gradient                   ...        0 min,  0.078 sec
 * total energy  :  -130.8935466 Eh     change       -0.4518505E-02 Eh
   gradient norm :     0.0189747 Eh/α   predicted    -0.4492380E-02 (  -0.58%)
   displ. norm   :     0.7545205 α      lambda       -0.4938663E-02
   maximum displ.:     0.5645566 α      in ANC's #6, #5, #13, ...

........................................................................
.............................. CYCLE   14 ..............................
........................................................................
   1   -133.1239709 -0.133124E+03  0.304E-01    0.27       0.0  T
   2   -133.1228924  0.107857E-02  0.485E-01    0.22       1.0  T
   3   -133.1240786 -0.118629E-02  0.113E-01    0.25       1.0  T
   4   -133.1235922  0.486450E-03  0.104E-01    0.23       1.0  T
   5   -133.1239449 -0.352725E-03  0.734E-02    0.24       1.0  T
   6   -133.1242509 -0.305982E-03  0.255E-02    0.27       1.0  T
   7   -133.1242620 -0.110977E-04  0.761E-03    0.27       1.5  T
   8   -133.1242624 -0.390679E-06  0.472E-03    0.27       2.5  T
   9   -133.1242625 -0.152861E-06  0.119E-03    0.27       9.8  T
  10   -133.1242625  0.122096E-07  0.964E-04    0.27      12.1  T
  11   -133.1242625 -0.216508E-07  0.479E-04    0.27      24.3  T
     SCC iter.                  ...        0 min,  0.108 sec
     gradient                   ...        0 min,  0.078 sec
 * total energy  :  -130.8974350 Eh     change       -0.3888393E-02 Eh
   gradient norm :     0.0194832 Eh/α   predicted    -0.3875128E-02 (  -0.34%)
   displ. norm   :     0.7540181 α      lambda       -0.3853517E-02
   maximum displ.:     0.5823803 α      in ANC's #6, #5, #13, ...

........................................................................
.............................. CYCLE   15 ..............................
........................................................................
   1   -133.1151936 -0.133115E+03  0.192E-01    0.26       0.0  T
   2   -133.1151085  0.850940E-04  0.181E-01    0.26       1.0  T
   3   -133.1151662 -0.576679E-04  0.112E-01    0.26       1.0  T
   4   -133.1150843  0.818454E-04  0.673E-02    0.26       1.0  T
   5   -133.1150921 -0.779478E-05  0.466E-02    0.25       1.0  T
   6   -133.1152258 -0.133688E-03  0.247E-02    0.26       1.0  T
   7   -133.1152501 -0.242310E-04  0.809E-03    0.26       1.4  T
   8   -133.1152498  0.271441E-06  0.295E-03    0.26       3.9  T
   9   -133.1152502 -0.423357E-06  0.744E-04    0.26      15.6  T
  10   -133.1152502 -0.887121E-08  0.509E-04    0.26      22.8  T
     SCC iter.                  ...        0 min,  0.099 sec
     gradient                   ...        0 min,  0.078 sec
 * total energy  :  -130.9006138 Eh     change       -0.3178791E-02 Eh
   gradient norm :     0.0192568 Eh/α   predicted    -0.3022210E-02 (  -4.93%)
   displ. norm   :     0.7655789 α      lambda       -0.3658818E-02
   maximum displ.:     0.6012843 α      in ANC's #6, #5, #13, ...

........................................................................
.............................. CYCLE   16 ..............................
........................................................................
   1   -133.1211758 -0.133121E+03  0.219E-01    0.25       0.0  T
   2   -133.1191196  0.205618E-02  0.381E-01    0.19       1.0  T
   3   -133.1196719 -0.552240E-03  0.162E-01    0.18       1.0  T
   4   -133.1184370  0.123485E-02  0.185E-01    0.17       1.0  T
   5   -133.1212249 -0.278791E-02  0.110E-01    0.24       1.0  T
   6   -133.1213605 -0.135588E-03  0.726E-02    0.25       1.0  T
   7   -133.1213859 -0.253820E-04  0.518E-02    0.25       1.0  T
   8   -133.1213938 -0.784798E-05  0.709E-03    0.25       1.6  T
   9   -133.1213952 -0.139643E-05  0.220E-03    0.25       5.3  T
  10   -133.1213950  0.141035E-06  0.184E-03    0.25       6.3  T
  11   -133.1213951 -0.120550E-06  0.998E-04    0.25      11.6  T
  12   -133.1213952 -0.873214E-07  0.238E-04    0.25      48.7  T
     SCC iter.                  ...        0 min,  0.118 sec
     gradient                   ...        0 min,  0.078 sec
 * total energy  :  -130.9034007 Eh     change       -0.2786937E-02 Eh
   gradient norm :     0.0147556 Eh/α   predicted    -0.2901645E-02 (   4.12%)
   displ. norm   :     0.7444537 α      lambda       -0.2821227E-02
   maximum displ.:     0.5709851 α      in ANC's #6, #5, #13, ...

........................................................................
.............................. CYCLE   17 ..............................
........................................................................
   1   -133.1247936 -0.133125E+03  0.207E-01    0.23       0.0  T
   2   -133.1084984  0.162952E-01  0.556E-01    0.12       1.0  T
   3   -133.0890023  0.194961E-01  0.753E-01    0.09       1.0  T
   4   -133.1250350 -0.360327E-01  0.157E-01    0.25       1.0  T
   5   -133.1248096  0.225362E-03  0.111E-01    0.22       1.0  T
   6   -133.1248134 -0.383255E-05  0.106E-01    0.23       1.0  T
   7   -133.1250805 -0.267048E-03  0.582E-02    0.24       1.0  T
   8   -133.1250630  0.174681E-04  0.487E-02    0.24       1.0  T
   9   -133.1250790 -0.159967E-04  0.393E-02    0.24       1.0  T
  10   -133.1250842 -0.515009E-05  0.360E-02    0.24       1.0  T
  11   -133.1250990 -0.147913E-04  0.209E-02    0.24       1.0  T
  12   -133.1251019 -0.289269E-05  0.156E-02    0.24       1.0  T
  13   -133.1251045 -0.260163E-05  0.275E-03    0.24       4.2  T
  14   -133.1251045 -0.447764E-07  0.467E-04    0.24      24.9  T
  15   -133.1251045  0.687942E-08  0.772E-04    0.24      15.1  T
     SCC iter.                  ...        0 min,  0.144 sec
     gradient                   ...        0 min,  0.078 sec
 * total energy  :  -130.9054718 Eh     change       -0.2071033E-02 Eh
   gradient norm :     0.0141416 Eh/α   predicted    -0.2192396E-02 (   5.86%)
   displ. norm   :     0.7211976 α      lambda       -0.2183147E-02
   maximum displ.:     0.5895329 α      in ANC's #6, #5, #13, ...

........................................................................
.............................. CYCLE   18 ..............................
........................................................................
   1   -133.1215528 -0.133122E+03  0.169E-01    0.23       0.0  T
   2   -133.1203850  0.116772E-02  0.269E-01    0.19       1.0  T
   3   -133.1188606  0.152448E-02  0.193E-01    0.16       1.0  T
   4   -133.1183891  0.471435E-03  0.189E-01    0.17       1.0  T
   5   -133.1212232 -0.283409E-02  0.116E-01    0.21       1.0  T
   6   -133.1215673 -0.344038E-03  0.953E-02    0.23       1.0  T
   7   -133.1215989 -0.316390E-04  0.736E-02    0.23       1.0  T
   8   -133.1216124 -0.135397E-04  0.212E-02    0.23       1.0  T
   9   -133.1216160 -0.357198E-05  0.872E-03    0.23       1.3  T
  10   -133.1216162 -0.158207E-06  0.242E-03    0.23       4.8  T
  11   -133.1216166 -0.402924E-06  0.191E-03    0.23       6.1  T
  12   -133.1216168 -0.190221E-06  0.334E-04    0.23      34.8  T
  13   -133.1216168 -0.672935E-08  0.249E-04    0.23      46.8  T
     SCC iter.                  ...        0 min,  0.125 sec
     gradient                   ...        0 min,  0.078 sec
 * total energy  :  -130.9071322 Eh     change       -0.1660452E-02 Eh
   gradient norm :     0.0158083 Eh/α   predicted    -0.1659330E-02 (  -0.07%)
   displ. norm   :     0.6854462 α      lambda       -0.1929276E-02
   maximum displ.:     0.5203005 α      in ANC's #6, #5, #13, ...

........................................................................
.............................. CYCLE   19 ..............................
........................................................................
   1   -133.1223060 -0.133122E+03  0.169E-01    0.22       0.0  T
   2   -133.1137260  0.857993E-02  0.480E-01    0.13       1.0  T
   3   -133.0999306  0.137954E-01  0.576E-01    0.10       1.0  T
   4   -133.1224098 -0.224792E-01  0.987E-02    0.22       1.0  T
   5   -133.1211891  0.122065E-02  0.127E-01    0.18       1.0  T
   6   -133.1223617 -0.117258E-02  0.753E-02    0.22       1.0  T
   7   -133.1223843 -0.225974E-04  0.555E-02    0.22       1.0  T
   8   -133.1224096 -0.252260E-04  0.509E-02    0.22       1.0  T
   9   -133.1224174 -0.782472E-05  0.395E-02    0.22       1.0  T
  10   -133.1224259 -0.851126E-05  0.320E-02    0.22       1.0  T
  11   -133.1224355 -0.963402E-05  0.196E-02    0.22       1.0  T
  12   -133.1224391 -0.354884E-05  0.104E-02    0.22       1.1  T
  13   -133.1224402 -0.110781E-05  0.649E-04    0.22      17.9  T
  14   -133.1224402 -0.877984E-08  0.958E-04    0.22      12.1  T
  15   -133.1224402 -0.623547E-08  0.102E-04    0.22     114.1  T
     SCC iter.                  ...        0 min,  0.146 sec
     gradient                   ...        0 min,  0.078 sec
 * total energy  :  -130.9085951 Eh     change       -0.1462860E-02 Eh
   gradient norm :     0.0166551 Eh/α   predicted    -0.1417861E-02 (  -3.08%)
   displ. norm   :     0.6668556 α      lambda       -0.1920535E-02
   maximum displ.:     0.4907313 α      in ANC's #6, #5, #10, ...

........................................................................
.............................. CYCLE   20 ..............................
........................................................................
   1   -133.1360772 -0.133136E+03  0.147E-01    0.21       0.0  T
   2   -133.1064863  0.295909E-01  0.716E-01    0.10       1.0  T
   3   -133.1318789 -0.253926E-01  0.245E-01    0.15       1.0  T
   4   -133.1346011 -0.272219E-02  0.151E-01    0.17       1.0  T
   5   -133.1361324 -0.153134E-02  0.118E-01    0.21       1.0  T
   6   -133.1356025  0.529893E-03  0.988E-02    0.19       1.0  T
   7   -133.1362390 -0.636426E-03  0.604E-02    0.21       1.0  T
   8   -133.1362163  0.226175E-04  0.542E-02    0.21       1.0  T
   9   -133.1362022  0.141250E-04  0.370E-02    0.21       1.0  T
  10   -133.1362376 -0.353503E-04  0.250E-02    0.21       1.0  T
  11   -133.1362586 -0.210724E-04  0.106E-02    0.21       1.1  T
  12   -133.1362618 -0.317332E-05  0.266E-03    0.21       4.4  T
  13   -133.1362619 -0.553799E-07  0.104E-03    0.21      11.1  T
  14   -133.1362619 -0.462018E-07  0.622E-04    0.21      18.7  T
  15   -133.1362619 -0.227954E-07  0.171E-04    0.21      67.9  T
     SCC iter.                  ...        0 min,  0.148 sec
     gradient                   ...        0 min,  0.078 sec
 * total energy  :  -130.9099763 Eh     change       -0.1381218E-02 Eh
   gradient norm :     0.0175375 Eh/α   predicted    -0.1387298E-02 (   0.44%)
   displ. norm   :     0.6733799 α      lambda       -0.1555564E-02
   maximum displ.:     0.4914130 α      in ANC's #6, #5, #10, ...
 * RMSD in coord.:     1.2057442 α      energy gain  -0.9642928E+00 Eh

generating ANC from model Hessian ...
Using Lindh-Hessian (1995)
 Shifting diagonal of input Hessian by    1.0017134510148629E-002
 Lowest  eigenvalues of input Hessian
    0.010000    0.010011    0.000000    0.000000    0.000000    0.000000
    0.000000    0.000000    0.010111    0.010409    0.011290    0.011553
    0.011705    0.011913    0.012576    0.012828    0.013246    0.013663
 Highest eigenvalues
    2.137841    2.140173    2.145039    2.146179    2.158507    2.651249


........................................................................
.............................. CYCLE   21 ..............................
........................................................................
   1   -133.1374883 -0.133137E+03  0.133E-01    0.21       0.0  T
   2   -133.1340072  0.348105E-02  0.205E-01    0.15       1.0  T
   3   -133.1034191  0.305881E-01  0.690E-01    0.09       1.0  T
   4   -133.1322769 -0.288578E-01  0.234E-01    0.14       1.0  T
   5   -133.1375140 -0.523711E-02  0.811E-02    0.21       1.0  T
   6   -133.1374524  0.616672E-04  0.958E-02    0.21       1.0  T
   7   -133.1373992  0.532030E-04  0.823E-02    0.21       1.0  T
   8   -133.1373016  0.975842E-04  0.777E-02    0.20       1.0  T
   9   -133.1373777 -0.761148E-04  0.712E-02    0.20       1.0  T
  10   -133.1374455 -0.677732E-04  0.572E-02    0.21       1.0  T
  11   -133.1374589 -0.134162E-04  0.534E-02    0.21       1.0  T
  12   -133.1375014 -0.425060E-04  0.369E-02    0.21       1.0  T
  13   -133.1375380 -0.366591E-04  0.179E-02    0.21       1.0  T
  14   -133.1375481 -0.100814E-04  0.536E-03    0.21       2.2  T
  15   -133.1375489 -0.726666E-06  0.210E-03    0.21       5.5  T
  16   -133.1375490 -0.137442E-06  0.108E-04    0.21     107.4  T
  17   -133.1375490  0.124359E-08  0.202E-04    0.21      57.5  T
     SCC iter.                  ...        0 min,  0.163 sec
     gradient                   ...        0 min,  0.078 sec
 * total energy  :  -130.9111472 Eh     change       -0.1170915E-02 Eh
   gradient norm :     0.0187801 Eh/α   predicted     0.0000000E+00 (-100.00%)
   displ. norm   :     0.1812556 α      lambda       -0.9193589E-03
   maximum displ.:     0.1247273 α      in ANC's #6, #12, #13, ...

........................................................................
.............................. CYCLE   22 ..............................
........................................................................
   1   -133.1371111 -0.133137E+03  0.657E-02    0.21       0.0  T
   2   -133.1370997  0.114053E-04  0.817E-02    0.21       1.0  T
   3   -133.1370721  0.276613E-04  0.474E-02    0.21       1.0  T
   4   -133.1356873  0.138479E-02  0.128E-01    0.17       1.0  T
   5   -133.1370450 -0.135777E-02  0.347E-02    0.21       1.0  T
   6   -133.1371101 -0.650571E-04  0.146E-02    0.21       1.0  T
   7   -133.1371079  0.223691E-05  0.117E-02    0.21       1.0  T
   8   -133.1371187 -0.108760E-04  0.634E-03    0.21       1.8  T
   9   -133.1371188 -0.263010E-07  0.219E-03    0.21       5.3  T
  10   -133.1371188 -0.601252E-07  0.815E-04    0.21      14.3  T
  11   -133.1371188 -0.230267E-08  0.610E-04    0.21      19.1  T
     SCC iter.                  ...        0 min,  0.108 sec
     gradient                   ...        0 min,  0.077 sec
 * total energy  :  -130.9118578 Eh     change       -0.7106104E-03 Eh
   gradient norm :     0.0086800 Eh/α   predicted    -0.4748269E-03 ( -33.18%)
   displ. norm   :     0.3502594 α      lambda       -0.9432376E-03
   maximum displ.:     0.2558025 α      in ANC's #6, #12, #13, ...

........................................................................
.............................. CYCLE   23 ..............................
........................................................................
   1   -133.1365647 -0.133137E+03  0.110E-01    0.21       0.0  T
   2   -133.1365327  0.319835E-04  0.158E-01    0.22       1.0  T
   3   -133.1365677 -0.349766E-04  0.590E-02    0.21       1.0  T
   4   -133.1358024  0.765313E-03  0.102E-01    0.18       1.0  T
   5   -133.1355533  0.249098E-03  0.986E-02    0.18       1.0  T
   6   -133.1365353 -0.982073E-03  0.290E-02    0.21       1.0  T
   7   -133.1365766 -0.412853E-04  0.150E-02    0.21       1.0  T
   8   -133.1365790 -0.238316E-05  0.101E-02    0.21       1.1  T
   9   -133.1365805 -0.153131E-05  0.304E-03    0.21       3.8  T
  10   -133.1365806 -0.181113E-07  0.427E-04    0.21      27.2  T
  11   -133.1365806 -0.306429E-08  0.101E-03    0.21      11.5  T
  12   -133.1365806 -0.426922E-08  0.368E-04    0.21      31.6  T
     SCC iter.                  ...        0 min,  0.116 sec
     gradient                   ...        0 min,  0.077 sec
 * total energy  :  -130.9125192 Eh     change       -0.6613705E-03 Eh
   gradient norm :     0.0075935 Eh/α   predicted    -0.5294779E-03 ( -19.94%)
   displ. norm   :     0.2915185 α      lambda       -0.4600410E-03
   maximum displ.:     0.2236705 α      in ANC's #6, #13, #12, ...

........................................................................
.............................. CYCLE   24 ..............................
........................................................................
   1   -133.1373686 -0.133137E+03  0.832E-02    0.22       0.0  T
   2   -133.1373382  0.304672E-04  0.129E-01    0.22       1.0  T
   3   -133.1373374  0.802018E-06  0.441E-02    0.22       1.0  T
   4   -133.1324983  0.483905E-02  0.231E-01    0.15       1.0  T
   5   -133.1373593 -0.486099E-02  0.336E-02    0.22       1.0  T
   6   -133.1373458  0.135126E-04  0.186E-02    0.22       1.0  T
   7   -133.1373726 -0.268014E-04  0.108E-02    0.22       1.1  T
   8   -133.1373714  0.121463E-05  0.972E-03    0.22       1.2  T
   9   -133.1373756 -0.425445E-05  0.529E-03    0.22       2.2  T
  10   -133.1373759 -0.234870E-06  0.391E-03    0.22       3.0  T
  11   -133.1373761 -0.265887E-06  0.211E-03    0.22       5.5  T
  12   -133.1373762 -0.654244E-07  0.348E-04    0.22      33.4  T
  13   -133.1373762 -0.177249E-08  0.837E-05    0.22     138.9  T
     SCC iter.                  ...        0 min,  0.125 sec
     gradient                   ...        0 min,  0.078 sec
 * total energy  :  -130.9128975 Eh     change       -0.3782983E-03 Eh
   gradient norm :     0.0094971 Eh/α   predicted    -0.2495748E-03 ( -34.03%)
   displ. norm   :     0.2945822 α      lambda       -0.4428568E-03
   maximum displ.:     0.2303462 α      in ANC's #6, #13, #5, ...

........................................................................
.............................. CYCLE   25 ..............................
........................................................................
   1   -133.1397016 -0.133140E+03  0.759E-02    0.22       0.0  T
   2   -133.1395895  0.112090E-03  0.104E-01    0.22       1.0  T
   3   -133.1392231  0.366430E-03  0.815E-02    0.20       1.0  T
   4   -133.1372913  0.193171E-02  0.164E-01    0.17       1.0  T
   5   -133.1396697 -0.237831E-02  0.485E-02    0.22       1.0  T
   6   -133.1396931 -0.234788E-04  0.304E-02    0.22       1.0  T
   7   -133.1397061 -0.129480E-04  0.264E-02    0.22       1.0  T
   8   -133.1397047  0.133865E-05  0.164E-02    0.22       1.0  T
   9   -133.1397098 -0.502583E-05  0.686E-03    0.22       1.7  T
  10   -133.1397105 -0.693036E-06  0.225E-03    0.22       5.2  T
  11   -133.1397104  0.892104E-07  0.210E-03    0.22       5.5  T
  12   -133.1397105 -0.106535E-06  0.363E-04    0.22      32.1  T
  13   -133.1397105  0.851855E-09  0.164E-04    0.22      70.7  T
     SCC iter.                  ...        0 min,  0.127 sec
     gradient                   ...        0 min,  0.078 sec
 * total energy  :  -130.9132699 Eh     change       -0.3723683E-03 Eh
   gradient norm :     0.0070690 Eh/α   predicted    -0.2406445E-03 ( -35.37%)
   displ. norm   :     0.3191038 α      lambda       -0.3985865E-03
   maximum displ.:     0.2532920 α      in ANC's #6, #5, #13, ...

........................................................................
.............................. CYCLE   26 ..............................
........................................................................
   1   -133.1418640 -0.133142E+03  0.732E-02    0.22       0.0  T
   2   -133.1414634  0.400656E-03  0.875E-02    0.20       1.0  T
   3   -133.1382072  0.325619E-02  0.209E-01    0.15       1.0  T
   4   -133.1418315 -0.362430E-02  0.431E-02    0.22       1.0  T
   5   -133.1415743  0.257179E-03  0.662E-02    0.20       1.0  T
   6   -133.1418429 -0.268603E-03  0.362E-02    0.22       1.0  T
   7   -133.1418208  0.221162E-04  0.301E-02    0.22       1.0  T
   8   -133.1418783 -0.575213E-04  0.172E-02    0.22       1.0  T
   9   -133.1418789 -0.569389E-06  0.134E-02    0.22       1.0  T
  10   -133.1418788  0.123246E-06  0.139E-02    0.22       1.0  T
  11   -133.1418804 -0.159773E-05  0.466E-03    0.22       2.5  T
  12   -133.1418805 -0.168640E-06  0.111E-03    0.22      10.4  T
  13   -133.1418805 -0.180343E-07  0.154E-04    0.22      75.3  T
  14   -133.1418805  0.349729E-09  0.255E-04    0.22      45.6  T
     SCC iter.                  ...        0 min,  0.135 sec
     gradient                   ...        0 min,  0.078 sec
 * total energy  :  -130.9135976 Eh     change       -0.3277721E-03 Eh
   gradient norm :     0.0038547 Eh/α   predicted    -0.2195876E-03 ( -33.01%)
   displ. norm   :     0.3025434 α      lambda       -0.2891302E-03
   maximum displ.:     0.2387627 α      in ANC's #6, #5, #4, ...

........................................................................
.............................. CYCLE   27 ..............................
........................................................................
   1   -133.1427540 -0.133143E+03  0.655E-02    0.22       0.0  T
   2   -133.1420546  0.699353E-03  0.104E-01    0.19       1.0  T
   3   -133.1403960  0.165862E-02  0.160E-01    0.16       1.0  T
   4   -133.1427603 -0.236430E-02  0.663E-02    0.22       1.0  T
   5   -133.1427425  0.178110E-04  0.316E-02    0.22       1.0  T
   6   -133.1427374  0.513000E-05  0.258E-02    0.22       1.0  T
   7   -133.1427683 -0.309555E-04  0.145E-02    0.22       1.0  T
   8   -133.1427731 -0.475201E-05  0.747E-03    0.22       1.6  T
   9   -133.1427731 -0.142954E-07  0.792E-03    0.22       1.5  T
  10   -133.1427735 -0.441528E-06  0.420E-03    0.22       2.8  T
  11   -133.1427736 -0.539250E-07  0.101E-03    0.22      11.5  T
  12   -133.1427736 -0.301890E-08  0.598E-04    0.22      19.5  T
  13   -133.1427736 -0.483578E-08  0.464E-05    0.22     250.4  T
     SCC iter.                  ...        0 min,  0.127 sec
     gradient                   ...        0 min,  0.077 sec
 * total energy  :  -130.9138443 Eh     change       -0.2466705E-03 Eh
   gradient norm :     0.0033323 Eh/α   predicted    -0.1577984E-03 ( -36.03%)
   displ. norm   :     0.2863885 α      lambda       -0.2396119E-03
   maximum displ.:     0.2185386 α      in ANC's #6, #5, #7, ...

........................................................................
.............................. CYCLE   28 ..............................
........................................................................
   1   -133.1429194 -0.133143E+03  0.654E-02    0.21       0.0  T
   2   -133.1420527  0.866731E-03  0.140E-01    0.18       1.0  T
   3   -133.1410102  0.104254E-02  0.144E-01    0.17       1.0  T
   4   -133.1428814 -0.187128E-02  0.522E-02    0.21       1.0  T
   5   -133.1429247 -0.432788E-04  0.261E-02    0.21       1.0  T
   6   -133.1429097  0.149895E-04  0.189E-02    0.21       1.0  T
   7   -133.1429379 -0.281862E-04  0.101E-02    0.21       1.2  T
   8   -133.1429382 -0.309530E-06  0.636E-03    0.21       1.8  T
   9   -133.1429387 -0.513331E-06  0.335E-03    0.21       3.5  T
  10   -133.1429388 -0.135158E-07  0.133E-03    0.21       8.8  T
  11   -133.1429388 -0.112560E-07  0.695E-04    0.21      16.7  T
  12   -133.1429388  0.764203E-09  0.369E-04    0.21      31.5  T
     SCC iter.                  ...        0 min,  0.116 sec
     gradient                   ...        0 min,  0.078 sec
 * total energy  :  -130.9140576 Eh     change       -0.2133001E-03 Eh
   gradient norm :     0.0039518 Eh/α   predicted    -0.1296377E-03 ( -39.22%)
   displ. norm   :     0.3250329 α      lambda       -0.2551877E-03
   maximum displ.:     0.2364362 α      in ANC's #6, #5, #1, ...

........................................................................
.............................. CYCLE   29 ..............................
........................................................................
   1   -133.1425036 -0.133143E+03  0.819E-02    0.21       0.0  T
   2   -133.1412695  0.123411E-02  0.202E-01    0.17       1.0  T
   3   -133.1385886  0.268093E-02  0.211E-01    0.15       1.0  T
   4   -133.1425026 -0.391403E-02  0.474E-02    0.21       1.0  T
   5   -133.1424586  0.440104E-04  0.341E-02    0.21       1.0  T
   6   -133.1425252 -0.665929E-04  0.160E-02    0.21       1.0  T
   7   -133.1425081  0.170703E-04  0.166E-02    0.21       1.0  T
   8   -133.1425261 -0.180274E-04  0.852E-03    0.21       1.4  T
   9   -133.1425264 -0.299452E-06  0.445E-03    0.21       2.6  T
  10   -133.1425265 -0.410927E-07  0.109E-03    0.21      10.7  T
  11   -133.1425265 -0.117080E-08  0.888E-04    0.21      13.1  T
  12   -133.1425265 -0.111979E-08  0.612E-04    0.21      19.0  T
     SCC iter.                  ...        0 min,  0.117 sec
     gradient                   ...        0 min,  0.078 sec
 * total energy  :  -130.9142843 Eh     change       -0.2267194E-03 Eh
   gradient norm :     0.0042616 Eh/α   predicted    -0.1410745E-03 ( -37.78%)
   displ. norm   :     0.3972040 α      lambda       -0.2765966E-03
   maximum displ.:     0.2791650 α      in ANC's #6, #1, #7, ...

........................................................................
.............................. CYCLE   30 ..............................
........................................................................
   1   -133.1414262 -0.133141E+03  0.105E-01    0.20       0.0  T
   2   -133.1397460  0.168027E-02  0.270E-01    0.17       1.0  T
   3   -133.1321255  0.762046E-02  0.337E-01    0.13       1.0  T
   4   -133.1414499 -0.932435E-02  0.514E-02    0.20       1.0  T
   5   -133.1410904  0.359486E-03  0.604E-02    0.19       1.0  T
   6   -133.1413588 -0.268417E-03  0.356E-02    0.20       1.0  T
   7   -133.1414444 -0.856157E-04  0.187E-02    0.20       1.0  T
   8   -133.1414509 -0.651322E-05  0.167E-02    0.20       1.0  T
   9   -133.1414522 -0.123692E-05  0.106E-02    0.20       1.1  T
  10   -133.1414531 -0.886404E-06  0.705E-03    0.20       1.6  T
  11   -133.1414537 -0.599348E-06  0.209E-03    0.20       5.6  T
  12   -133.1414537 -0.399224E-07  0.206E-04    0.20      56.4  T
  13   -133.1414537 -0.267133E-08  0.860E-05    0.20     135.2  T
     SCC iter.                  ...        0 min,  0.125 sec
     gradient                   ...        0 min,  0.077 sec
 * total energy  :  -130.9145214 Eh     change       -0.2371164E-03 Eh
   gradient norm :     0.0040147 Eh/α   predicted    -0.1601222E-03 ( -32.47%)
   displ. norm   :     0.4339199 α      lambda       -0.2438126E-03
   maximum displ.:     0.3005571 α      in ANC's #6, #1, #7, ...

........................................................................
.............................. CYCLE   31 ..............................
........................................................................
   1   -133.1402368 -0.133140E+03  0.113E-01    0.19       0.0  T
   2   -133.1387707  0.146614E-02  0.288E-01    0.16       1.0  T
   3   -133.1283032  0.104675E-01  0.383E-01    0.12       1.0  T
   4   -133.1402526 -0.119495E-01  0.538E-02    0.19       1.0  T
   5   -133.1398614  0.391204E-03  0.637E-02    0.18       1.0  T
   6   -133.1401566 -0.295225E-03  0.357E-02    0.19       1.0  T
   7   -133.1402492 -0.925936E-04  0.201E-02    0.19       1.0  T
   8   -133.1402611 -0.118506E-04  0.169E-02    0.19       1.0  T
   9   -133.1402598  0.131997E-05  0.117E-02    0.19       1.0  T
  10   -133.1402609 -0.114765E-05  0.815E-03    0.19       1.4  T
  11   -133.1402617 -0.812505E-06  0.314E-03    0.19       3.7  T
  12   -133.1402618 -0.116640E-06  0.470E-04    0.19      24.7  T
  13   -133.1402618 -0.167427E-08  0.121E-04    0.19      96.3  T
     SCC iter.                  ...        0 min,  0.127 sec
     gradient                   ...        0 min,  0.077 sec
 * total energy  :  -130.9147210 Eh     change       -0.1995210E-03 Eh
   gradient norm :     0.0034495 Eh/α   predicted    -0.1448624E-03 ( -27.39%)
   displ. norm   :     0.4084451 α      lambda       -0.1742717E-03
   maximum displ.:     0.2824005 α      in ANC's #6, #1, #7, ...

........................................................................
.............................. CYCLE   32 ..............................
........................................................................
   1   -133.1396802 -0.133140E+03  0.998E-02    0.19       0.0  T
   2   -133.1388154  0.864807E-03  0.243E-01    0.17       1.0  T
   3   -133.1316687  0.714670E-02  0.304E-01    0.13       1.0  T
   4   -133.1396018 -0.793311E-02  0.550E-02    0.18       1.0  T
   5   -133.1396878 -0.859622E-04  0.307E-02    0.19       1.0  T
   6   -133.1393370  0.350751E-03  0.545E-02    0.18       1.0  T
   7   -133.1396903 -0.353270E-03  0.185E-02    0.19       1.0  T
   8   -133.1396963 -0.603408E-05  0.123E-02    0.19       1.0  T
   9   -133.1396963  0.278355E-07  0.125E-02    0.19       1.0  T
  10   -133.1396964 -0.142342E-06  0.608E-03    0.19       1.9  T
  11   -133.1396966 -0.226418E-06  0.209E-03    0.19       5.6  T
  12   -133.1396967 -0.213278E-07  0.491E-04    0.19      23.7  T
  13   -133.1396967 -0.100016E-08  0.138E-04    0.19      84.1  T
     SCC iter.                  ...        0 min,  0.127 sec
     gradient                   ...        0 min,  0.077 sec
 * total energy  :  -130.9148596 Eh     change       -0.1386143E-03 Eh
   gradient norm :     0.0027940 Eh/α   predicted    -0.1016747E-03 ( -26.65%)
   displ. norm   :     0.3548559 α      lambda       -0.1199306E-03
   maximum displ.:     0.2454369 α      in ANC's #6, #1, #7, ...

........................................................................
.............................. CYCLE   33 ..............................
........................................................................
   1   -133.1401277 -0.133140E+03  0.771E-02    0.18       0.0  T
   2   -133.1396638  0.463855E-03  0.172E-01    0.17       1.0  T
   3   -133.1352999  0.436385E-02  0.228E-01    0.14       1.0  T
   4   -133.1399497 -0.464979E-02  0.571E-02    0.18       1.0  T
   5   -133.1399758 -0.261030E-04  0.448E-02    0.18       1.0  T
   6   -133.1399386  0.372480E-04  0.411E-02    0.18       1.0  T
   7   -133.1401203 -0.181757E-03  0.190E-02    0.18       1.0  T
   8   -133.1401360 -0.156156E-04  0.876E-03    0.18       1.3  T
   9   -133.1401360 -0.471195E-08  0.874E-03    0.18       1.3  T
  10   -133.1401363 -0.359379E-06  0.266E-03    0.18       4.4  T
  11   -133.1401364 -0.232016E-07  0.985E-04    0.18      11.8  T
  12   -133.1401364 -0.102284E-07  0.267E-04    0.18      43.5  T
     SCC iter.                  ...        0 min,  0.116 sec
     gradient                   ...        0 min,  0.078 sec
 * total energy  :  -130.9149552 Eh     change       -0.9562215E-04 Eh
   gradient norm :     0.0023546 Eh/α   predicted    -0.6751975E-04 ( -29.39%)
   displ. norm   :     0.3164155 α      lambda       -0.9627198E-04
   maximum displ.:     0.2170813 α      in ANC's #6, #1, #4, ...

........................................................................
.............................. CYCLE   34 ..............................
........................................................................
   1   -133.1411895 -0.133141E+03  0.571E-02    0.18       0.0  T
   2   -133.1407725  0.416990E-03  0.106E-01    0.17       1.0  T
   3   -133.1359140  0.485857E-02  0.237E-01    0.13       1.0  T
   4   -133.1411863 -0.527233E-02  0.437E-02    0.18       1.0  T
   5   -133.1411925 -0.621835E-05  0.200E-02    0.18       1.0  T
   6   -133.1411035  0.890607E-04  0.281E-02    0.18       1.0  T
   7   -133.1411724 -0.689910E-04  0.157E-02    0.18       1.0  T
   8   -133.1411940 -0.215946E-04  0.579E-03    0.18       2.0  T
   9   -133.1411941 -0.689729E-07  0.546E-03    0.18       2.1  T
  10   -133.1411942 -0.116177E-06  0.180E-03    0.18       6.5  T
  11   -133.1411942 -0.148740E-07  0.241E-04    0.18      48.2  T
  12   -133.1411942 -0.266311E-09  0.151E-04    0.18      77.2  T
     SCC iter.                  ...        0 min,  0.116 sec
     gradient                   ...        0 min,  0.077 sec
 * total energy  :  -130.9150334 Eh     change       -0.7824406E-04 Eh
   gradient norm :     0.0022913 Eh/α   predicted    -0.5295872E-04 ( -32.32%)
   displ. norm   :     0.2978344 α      lambda       -0.9199313E-04
   maximum displ.:     0.1973602 α      in ANC's #6, #1, #4, ...

........................................................................
.............................. CYCLE   35 ..............................
........................................................................
   1   -133.1426164 -0.133143E+03  0.483E-02    0.18       0.0  T
   2   -133.1419813  0.635115E-03  0.801E-02    0.17       1.0  T
   3   -133.1369617  0.501953E-02  0.246E-01    0.13       1.0  T
   4   -133.1418848 -0.492308E-02  0.889E-02    0.17       1.0  T
   5   -133.1426139 -0.729111E-03  0.292E-02    0.18       1.0  T
   6   -133.1425833  0.305725E-04  0.276E-02    0.18       1.0  T
   7   -133.1425917 -0.831649E-05  0.215E-02    0.18       1.0  T
   8   -133.1426186 -0.269780E-04  0.100E-02    0.18       1.2  T
   9   -133.1426197 -0.107210E-05  0.802E-03    0.18       1.4  T
  10   -133.1426209 -0.114681E-05  0.195E-03    0.18       5.9  T
  11   -133.1426209  0.250682E-08  0.595E-04    0.18      19.5  T
  12   -133.1426209 -0.137460E-07  0.773E-04    0.18      15.0  T
     SCC iter.                  ...        0 min,  0.117 sec
     gradient                   ...        0 min,  0.077 sec
 * total energy  :  -130.9151108 Eh     change       -0.7733770E-04 Eh
   gradient norm :     0.0025408 Eh/α   predicted    -0.5007931E-04 ( -35.25%)
   displ. norm   :     0.2911059 α      lambda       -0.9679769E-04
   maximum displ.:     0.1943613 α      in ANC's #1, #6, #4, ...

........................................................................
.............................. CYCLE   36 ..............................
........................................................................
   1   -133.1439418 -0.133144E+03  0.561E-02    0.18       0.0  T
   2   -133.1427000  0.124173E-02  0.128E-01    0.16       1.0  T
   3   -133.1340251  0.867489E-02  0.331E-01    0.12       1.0  T
   4   -133.1435401 -0.951499E-02  0.642E-02    0.17       1.0  T
   5   -133.1431416  0.398492E-03  0.920E-02    0.16       1.0  T
   6   -133.1439485 -0.806896E-03  0.338E-02    0.18       1.0  T
   7   -133.1439279  0.205893E-04  0.282E-02    0.18       1.0  T
   8   -133.1439376 -0.969811E-05  0.226E-02    0.18       1.0  T
   9   -133.1439473 -0.964867E-05  0.170E-02    0.18       1.0  T
  10   -133.1439499 -0.258453E-05  0.112E-02    0.18       1.0  T
  11   -133.1439506 -0.712249E-06  0.688E-03    0.18       1.7  T
  12   -133.1439509 -0.329628E-06  0.756E-04    0.18      15.4  T
  13   -133.1439509 -0.185855E-07  0.386E-04    0.18      30.1  T
     SCC iter.                  ...        0 min,  0.125 sec
     gradient                   ...        0 min,  0.077 sec
 * total energy  :  -130.9151950 Eh     change       -0.8421306E-04 Eh
   gradient norm :     0.0026623 Eh/α   predicted    -0.5250379E-04 ( -37.65%)
   displ. norm   :     0.2945278 α      lambda       -0.1039385E-03
   maximum displ.:     0.2077869 α      in ANC's #1, #6, #12, ...

........................................................................
.............................. CYCLE   37 ..............................
........................................................................
   1   -133.1448037 -0.133145E+03  0.707E-02    0.19       0.0  T
   2   -133.1427788  0.202487E-02  0.181E-01    0.16       1.0  T
   3   -133.1243263  0.184525E-01  0.495E-01    0.10       1.0  T
   4   -133.1431062 -0.187799E-01  0.124E-01    0.16       1.0  T
   5   -133.1444020 -0.129579E-02  0.669E-02    0.17       1.0  T
   6   -133.1447906 -0.388573E-03  0.352E-02    0.19       1.0  T
   7   -133.1447578  0.327490E-04  0.324E-02    0.18       1.0  T
   8   -133.1448178 -0.599483E-04  0.229E-02    0.19       1.0  T
   9   -133.1448092  0.853740E-05  0.203E-02    0.19       1.0  T
  10   -133.1448150 -0.579209E-05  0.158E-02    0.19       1.0  T
  11   -133.1448181 -0.305331E-05  0.117E-02    0.19       1.0  T
  12   -133.1448196 -0.150093E-05  0.668E-03    0.19       1.7  T
  13   -133.1448207 -0.111895E-05  0.935E-04    0.19      12.4  T
  14   -133.1448207 -0.593151E-07  0.291E-04    0.19      39.9  T
  15   -133.1448207 -0.947580E-09  0.212E-04    0.19      54.9  T
     SCC iter.                  ...        0 min,  0.146 sec
     gradient                   ...        0 min,  0.077 sec
 * total energy  :  -130.9152859 Eh     change       -0.9091662E-04 Eh
   gradient norm :     0.0024409 Eh/α   predicted    -0.5647829E-04 ( -37.88%)
   displ. norm   :     0.2846487 α      lambda       -0.9913236E-04
   maximum displ.:     0.2079169 α      in ANC's #1, #6, #7, ...

........................................................................
.............................. CYCLE   38 ..............................
........................................................................
   1   -133.1450336 -0.133145E+03  0.717E-02    0.19       0.0  T
   2   -133.1428091  0.222446E-02  0.187E-01    0.16       1.0  T
   3   -133.1259740  0.168351E-01  0.475E-01    0.11       1.0  T
   4   -133.1433436 -0.173696E-01  0.125E-01    0.16       1.0  T
   5   -133.1447708 -0.142720E-02  0.561E-02    0.18       1.0  T
   6   -133.1450117 -0.240906E-03  0.356E-02    0.19       1.0  T
   7   -133.1449630  0.487667E-04  0.350E-02    0.19       1.0  T
   8   -133.1450456 -0.826570E-04  0.225E-02    0.19       1.0  T
   9   -133.1450435  0.216254E-05  0.189E-02    0.19       1.0  T
  10   -133.1450474 -0.390810E-05  0.152E-02    0.19       1.0  T
  11   -133.1450507 -0.328574E-05  0.109E-02    0.19       1.1  T
  12   -133.1450525 -0.188575E-05  0.517E-03    0.19       2.2  T
  13   -133.1450532 -0.685605E-06  0.540E-04    0.19      21.5  T
  14   -133.1450533 -0.219980E-07  0.143E-04    0.19      81.2  T
     SCC iter.                  ...        0 min,  0.134 sec
     gradient                   ...        0 min,  0.077 sec
 * total energy  :  -130.9153726 Eh     change       -0.8667203E-04 Eh
   gradient norm :     0.0020008 Eh/α   predicted    -0.5358368E-04 ( -38.18%)
   displ. norm   :     0.2540858 α      lambda       -0.8516049E-04
   maximum displ.:     0.1892287 α      in ANC's #1, #6, #5, ...

........................................................................
.............................. CYCLE   39 ..............................
........................................................................
   1   -133.1449868 -0.133145E+03  0.556E-02    0.19       0.0  T
   2   -133.1432698  0.171701E-02  0.148E-01    0.16       1.0  T
   3   -133.1379908  0.527899E-02  0.272E-01    0.13       1.0  T
   4   -133.1447664 -0.677559E-02  0.560E-02    0.18       1.0  T
   5   -133.1448027 -0.363068E-04  0.488E-02    0.18       1.0  T
   6   -133.1449887 -0.185911E-03  0.288E-02    0.19       1.0  T
   7   -133.1449687  0.200000E-04  0.241E-02    0.19       1.0  T
   8   -133.1450009 -0.322477E-04  0.147E-02    0.20       1.0  T
   9   -133.1449999  0.958959E-06  0.101E-02    0.19       1.2  T
  10   -133.1450008 -0.856444E-06  0.641E-03    0.19       1.8  T
  11   -133.1450012 -0.450968E-06  0.205E-03    0.19       5.7  T
  12   -133.1450012  0.115258E-07  0.151E-03    0.19       7.7  T
  13   -133.1450013 -0.341301E-07  0.532E-04    0.19      21.8  T
  14   -133.1450013 -0.123819E-08  0.595E-05    0.19     195.5  T
[...]
    46   6 C       47   6 C                                       1.4315468
    44   6 C       48   7 N                                       1.3644656
    47   6 C       48   7 N                                       1.3676931
    47   6 C       49   6 C                                       1.3805725
    49   6 C       50   6 C                                       1.3798128
    50   6 C       51   6 C                                       1.4340016
    51   6 C       52   6 C                                       1.3519586
    52   6 C       53   6 C                                       1.4369792 (max)
    50   6 C       54   7 N                                       1.3652064
    53   6 C       54   7 N                                       1.3667050
    53   6 C       55   6 C                                       1.3812339
    55   6 C       56   6 C                                       1.3812383
    56   6 C       57   6 C                                       1.4369735
    57   6 C       58   6 C                                       1.3519598
    58   6 C       59   6 C                                       1.4339724
    56   6 C       60   7 N                                       1.3666949
    59   6 C       60   7 N                                       1.3652025
    59   6 C       61   6 C                                       1.3798093
    40   6 C       62   6 C                                       1.4315173
    61   6 C       62   6 C                                       1.3805339
    42   6 C       63   7 N                                       1.3643976
    62   6 C       63   7 N                                       1.3677380
    40   6 C       64   1 H                                       1.0726711
    41   6 C       65   1 H                                       1.0721069
    45   6 C       66   1 H                                       1.0721082
    46   6 C       67   1 H                                       1.0726807
    49   6 C       68   1 H                                       1.0791436
    51   6 C       69   1 H                                       1.0729089
    52   6 C       70   1 H                                       1.0731331
    55   6 C       71   1 H                                       1.0806998
    57   6 C       72   1 H                                       1.0731322
    58   6 C       73   1 H                                       1.0729022
    61   6 C       74   1 H                                       1.0791303

 * 3 distinct bonds (by element types)

   Z      Z             #   av. dist./Å        max./Å        min./Å
   1 H    6 C          22     1.0746013     1.0806998     1.0720935
   6 C    6 C          41     1.3937604     1.4369792     1.2120307
   6 C    7 N          16     1.3660126     1.3677380     1.3643976

           -------------------------------------------------
          |               Frequency Printout                |
           -------------------------------------------------
 projected vibrational frequencies (cm⁻¹)
eigval :       -0.00    -0.00    -0.00    -0.00     0.00     0.00
eigval :        8.96     9.89    10.68    29.07    30.15    40.59
eigval :       43.00    63.33    73.96    76.13    92.79   102.38
eigval :      120.42   121.58   130.80   144.42   158.20   184.75
eigval :      185.75   210.94   211.17   213.74   220.27   222.03
eigval :      225.06   225.18   234.60   238.45   245.16   249.18
eigval :      257.43   258.29   263.07   279.86   280.49   308.90
eigval :      321.08   323.50   325.89   326.66   329.17   349.51
eigval :      364.75   368.04   376.19   386.52   386.88   392.72
eigval :      393.70   399.38   418.28   419.14   427.67   428.74
eigval :      432.72   434.95   464.21   464.41   505.46   519.67
eigval :      597.01   619.50   622.51   622.99   623.00   626.01
eigval :      626.15   638.98   639.28   643.20   643.98   657.97
eigval :      658.26   662.90   663.61   667.20   669.30   717.70
eigval :      718.19   721.79   722.37   757.06   760.52   760.97
eigval :      765.09   778.78   779.12   779.50   779.93   791.75
eigval :      798.12   798.45   801.98   802.78   804.42   809.18
eigval :      812.40   815.27   817.88   826.21   828.16   830.24
eigval :      832.11   836.33   837.07   838.99   840.39   841.38
eigval :      842.24   843.28   843.29   853.28   855.38   885.92
eigval :      948.78   980.67   981.57  1001.91  1002.24  1009.99
eigval :     1016.61  1016.64  1017.68  1021.86  1025.06  1031.59
eigval :     1032.04  1036.92  1040.29  1059.78  1062.48  1066.53
eigval :     1067.45  1070.08  1071.09  1073.26  1074.80  1086.36
eigval :     1134.10  1147.06  1147.50  1151.40  1171.15  1175.15
eigval :     1177.24  1183.71  1228.45  1231.93  1236.40  1237.07
eigval :     1281.05  1282.15  1288.52  1304.22  1306.67  1308.07
eigval :     1312.21  1312.94  1317.54  1326.71  1327.35  1327.55
eigval :     1332.37  1333.62  1341.99  1349.47  1360.38  1360.42
eigval :     1360.53  1448.04  1468.12  1469.87  1471.69  1476.23
eigval :     1487.31  1494.28  1494.80  1507.95  1508.76  1523.03
eigval :     1528.30  1529.91  1531.91  1542.83  1543.46  1555.25
eigval :     1556.44  1572.06  1572.35  1580.06  1580.88  1604.57
eigval :     1604.79  2271.41  3079.87  3079.90  3095.36  3095.43
eigval :     3095.48  3095.60  3146.23  3146.25  3146.68  3146.71
eigval :     3154.40  3154.44  3154.56  3154.62  3160.56  3160.58
eigval :     3160.77  3161.35  3171.61  3171.96  3173.19  3173.23
 reduced masses (amu)
   1: 13.68   2: 17.16   3: 16.72   4: 17.98   5: 17.29   6: 18.27   7: 11.31   8: 11.26
   9: 11.36  10: 11.82  11: 10.94  12: 11.40  13: 11.24  14: 13.07  15: 18.24  16: 18.73
  17: 29.92  18: 23.39  19: 11.09  20: 10.55  21: 10.72  22: 11.12  23: 12.24  24: 12.59
  25: 12.38  26: 35.52  27: 28.08  28: 41.70  29: 11.94  30: 17.53  31: 15.62  32: 26.63
  33: 13.35  34: 15.09  35: 10.83  36: 10.95  37: 12.11  38: 12.18  39: 17.18  40: 31.99
  41: 33.02  42: 13.63  43: 11.87  44: 14.50  45: 12.06  46: 12.06  47: 16.97  48: 10.52
  49: 10.89  50: 12.38  51: 12.61  52: 12.48  53: 11.79  54: 10.37  55:  9.93  56: 11.70
  57: 21.19  58: 21.17  59:  9.97  60: 10.01  61: 10.23  62: 10.29  63: 12.03  64: 12.10
  65: 11.64  66: 11.60  67: 11.67  68: 11.06  69: 11.20  70: 11.09  71: 11.09  72: 10.78
  73: 10.79  74: 11.22  75: 11.23  76: 11.12  77: 11.15  78: 11.37  79: 11.39  80: 11.51
  81: 11.46  82: 11.47  83: 11.35  84: 11.08  85: 11.03  86: 11.09  87: 11.07  88: 11.16
  89: 11.14  90: 11.23  91: 11.28  92: 11.40  93: 11.38  94: 11.06  95: 11.01  96: 11.67
  97:  3.83  98:  4.28  99: 11.08 100:  3.97 101:  3.86 102:  4.22 103:  4.10 104:  4.37
 105:  4.25 106:  3.70 107:  3.74 108:  3.91 109:  3.92 110:  3.84 111:  3.96 112:  3.34
 113:  3.50 114:  3.42 115:  3.47 116:  3.59 117:  3.59 118:  3.59 119:  3.31 120: 10.96
 121: 11.78 122: 12.33 123: 12.27 124: 12.12 125: 12.14 126: 11.62 127: 10.17 128: 10.68
 129: 10.25 130:  8.79 131:  8.72 132:  9.33 133:  9.29 134:  8.18 135:  8.47 136:  2.00
 137:  2.06 138:  1.63 139:  1.77 140:  1.80 141:  1.89 142:  1.86 143:  2.06 144:  8.94
 145:  5.09 146:  5.81 147:  5.82 148:  6.35 149:  6.22 150:  7.27 151:  7.25 152:  7.41
 153:  8.94 154:  8.96 155:  8.66 156:  8.64 157:  9.50 158:  9.46 159: 11.37 160: 10.71
 161: 10.99 162: 10.93 163: 10.02 164:  9.89 165: 11.56 166:  9.70 167: 11.66 168:  9.79
 169: 11.97 170: 11.91 171: 10.34 172:  9.76 173:  8.50 174:  8.86 175: 10.50 176: 11.58
 177: 11.51 178: 11.57 179: 11.55 180: 11.62 181: 11.81 182: 11.47 183: 11.47 184: 11.70
 185: 11.70 186: 11.68 187: 11.75 188: 11.82 189: 11.83 190: 11.65 191: 11.65 192: 11.57
 193: 11.57 194: 11.62 195: 11.63 196: 11.62 197: 11.62 198: 11.71 199: 11.71 200: 12.01
 201:  1.81 202:  1.81 203:  1.82 204:  1.82 205:  1.82 206:  1.82 207:  1.81 208:  1.81
 209:  1.80 210:  1.80 211:  1.82 212:  1.83 213:  1.83 214:  1.82 215:  1.97 216:  1.97
 217:  1.98 218:  1.97 219:  1.95 220:  1.95 221:  1.95 222:  1.95
 IR intensities (km·mol⁻¹)
   1:  8.87   2:  3.69   3:  6.04   4:  1.13   5:  0.10   6:  2.31   7:  2.32   8: 15.60
   9:  0.97  10:  0.41  11:  7.40  12:  0.57  13:  1.90  14:  0.07  15:  0.55  16:  0.03
  17:  0.93  18:  0.85  19:  0.34  20: 25.79  21:  1.30  22:  0.57  23:136.44  24:  0.23
  25:  0.44  26:  4.05  27:  7.71  28:  6.50  29:  6.17  30:  0.91  31:  3.87  32:  1.72
  33:  0.31  34:  1.35  35:  0.58  36:  2.41  37:  0.29  38:  0.00  39: 19.33  40:  0.44
  41:  1.60  42:  1.20  43: 17.54  44:  0.83  45: 39.95  46:  0.12  47:  0.07  48: 15.70
  49:  1.58  50:  7.95  51:108.51  52:  0.07  53:  0.22  54:  1.14  55:  0.01  56:  4.08
  57:  0.60  58:  7.49  59:  0.83  60:  0.09  61:  0.21  62: 52.79  63:  0.61  64:  0.37
  65:  1.50  66:  5.33  67: 24.10  68:  9.99  69:  0.02  70:  4.72  71:  0.08  72:  0.54
  73:  0.44  74:  2.84  75:  3.27  76:  0.00  77:  1.03  78: 32.33  79:  6.26  80:  1.58
  81: 27.07  82:  2.68  83:  5.32  84: 24.76  85:  0.61  86:  0.21  87:  7.24  88:  1.29
  89:  0.91  90:  2.37  91: 29.16  92:  0.94  93: 10.88  94: 60.11  95: 86.77  96:  0.29
  97: 41.55  98:  0.73  99:  2.66 100:  0.61 101:  0.86 102:  9.04 103:  0.23 104: 12.98
 105:  2.21 106: 21.02 107: 13.21 108:  4.37 109:  1.03 110: 92.87 111: 24.31 112:  8.72
 113: 17.16 114:  4.04 115:  9.44 116:  5.37 117:  2.50 118:  0.60 119:  1.25 120:  0.92
 121:158.10 122:  2.10 123:  1.64 124:  1.85 125: 55.66 126:  3.81 127:  0.94 128:  4.24
 129:  4.21 130:  1.69 131:  3.06 132:  7.31 133:  2.97 134:  1.61 135: 33.15 136: 45.84
 137:  0.33 138: 19.57 139:  1.07 140:  1.05 141:102.61 142: 13.97 143: 12.47 144:  2.32
 145: 24.89 146:  0.53 147:  8.15 148:  0.02 149:  6.94 150:  0.25 151: 10.10 152:  0.40
 153:  0.80 154: 12.54 155:  3.45 156:  0.43 157:  2.54 158: 48.05 159:  5.97 160:  0.01
 161:  0.99 162: 29.49 163:  0.43 164:  4.46 165:  0.41 166:  0.70 167: 13.85 168: 17.67
 169: 28.87 170: 26.29 171:  5.43 172:  0.15 173:  0.53 174: 18.95 175: 52.94 176:  1.36
 177: 18.43 178:  3.01 179: 44.08 180:  2.87 181: 12.37 182:  1.08 183:  0.23 184:  6.17
 185:  8.26 186:  0.30 187:  0.02 188:  0.24 189: 11.57 190:  5.85 191: 72.40 192: 36.08
 193:863.04 194:  2.08 195:  6.14 196: 41.69 197:  0.01 198:  0.71 199:  1.09 200:  0.01
Refinement of some symmetry elements was terminated before convergence was reached.
Some symmetry elements may remain unidentified.
Molecule has the following symmetry elements: (C2) 
It seems to be the C2 point group
 201:  0.62 202: 28.95 203:  4.89 204:  3.83 205:  7.63 206:  2.65 207:  8.98 208: 17.17
 209:423.99 210: 67.61 211: 68.04 212:  6.33 213:251.91 214:  7.97 215: 13.51 216:159.93
 217: 49.50 218:112.91 219: 39.25 220: 11.22 221:712.57 222:110.62
 Raman intensities (amu)
   1:  0.00   2:  0.00   3:  0.00   4:  0.00   5:  0.00   6:  0.00   7:  0.00   8:  0.00
   9:  0.00  10:  0.00  11:  0.00  12:  0.00  13:  0.00  14:  0.00  15:  0.00  16:  0.00
  17:  0.00  18:  0.00  19:  0.00  20:  0.00  21:  0.00  22:  0.00  23:  0.00  24:  0.00
  25:  0.00  26:  0.00  27:  0.00  28:  0.00  29:  0.00  30:  0.00  31:  0.00  32:  0.00
  33:  0.00  34:  0.00  35:  0.00  36:  0.00  37:  0.00  38:  0.00  39:  0.00  40:  0.00
  41:  0.00  42:  0.00  43:  0.00  44:  0.00  45:  0.00  46:  0.00  47:  0.00  48:  0.00
  49:  0.00  50:  0.00  51:  0.00  52:  0.00  53:  0.00  54:  0.00  55:  0.00  56:  0.00
  57:  0.00  58:  0.00  59:  0.00  60:  0.00  61:  0.00  62:  0.00  63:  0.00  64:  0.00
  65:  0.00  66:  0.00  67:  0.00  68:  0.00  69:  0.00  70:  0.00  71:  0.00  72:  0.00
  73:  0.00  74:  0.00  75:  0.00  76:  0.00  77:  0.00  78:  0.00  79:  0.00  80:  0.00
  81:  0.00  82:  0.00  83:  0.00  84:  0.00  85:  0.00  86:  0.00  87:  0.00  88:  0.00
  89:  0.00  90:  0.00  91:  0.00  92:  0.00  93:  0.00  94:  0.00  95:  0.00  96:  0.00
  97:  0.00  98:  0.00  99:  0.00 100:  0.00 101:  0.00 102:  0.00 103:  0.00 104:  0.00
 105:  0.00 106:  0.00 107:  0.00 108:  0.00 109:  0.00 110:  0.00 111:  0.00 112:  0.00
 113:  0.00 114:  0.00 115:  0.00 116:  0.00 117:  0.00 118:  0.00 119:  0.00 120:  0.00
 121:  0.00 122:  0.00 123:  0.00 124:  0.00 125:  0.00 126:  0.00 127:  0.00 128:  0.00
 129:  0.00 130:  0.00 131:  0.00 132:  0.00 133:  0.00 134:  0.00 135:  0.00 136:  0.00
 137:  0.00 138:  0.00 139:  0.00 140:  0.00 141:  0.00 142:  0.00 143:  0.00 144:  0.00
 145:  0.00 146:  0.00 147:  0.00 148:  0.00 149:  0.00 150:  0.00 151:  0.00 152:  0.00
 153:  0.00 154:  0.00 155:  0.00 156:  0.00 157:  0.00 158:  0.00 159:  0.00 160:  0.00
 161:  0.00 162:  0.00 163:  0.00 164:  0.00 165:  0.00 166:  0.00 167:  0.00 168:  0.00
 169:  0.00 170:  0.00 171:  0.00 172:  0.00 173:  0.00 174:  0.00 175:  0.00 176:  0.00
 177:  0.00 178:  0.00 179:  0.00 180:  0.00 181:  0.00 182:  0.00 183:  0.00 184:  0.00
 185:  0.00 186:  0.00 187:  0.00 188:  0.00 189:  0.00 190:  0.00 191:  0.00 192:  0.00
 193:  0.00 194:  0.00 195:  0.00 196:  0.00 197:  0.00 198:  0.00 199:  0.00 200:  0.00
 201:  0.00 202:  0.00 203:  0.00 204:  0.00 205:  0.00 206:  0.00 207:  0.00 208:  0.00
 209:  0.00 210:  0.00 211:  0.00 212:  0.00 213:  0.00 214:  0.00 215:  0.00 216:  0.00
 217:  0.00 218:  0.00 219:  0.00 220:  0.00 221:  0.00 222:  0.00
 output can be read by thermo (or use thermo option).
 writing <g98.out> molden fake output.
 recommended (thermochemical) frequency scaling factor: 1.0
           -------------------------------------------------
          |             Thermodynamic Functions             |
           -------------------------------------------------

c2  symmetry found (for desy threshold:  0.10E+00) used in thermo

          ...................................................
          :                      SETUP                      :
          :.................................................:
          :  # frequencies                         216      :
          :  # imaginary freq.                       0      :
          :  linear?                             false      :
          :  only rotor calc.                    false      :
          :  symmetry                               c2      :
          :  rotational number                       2      :
          :  scaling factor                  1.0000000      :
          :  rotor cutoff                   50.0000000 cm⁻¹ :
          :  imag. cutoff                  -20.0000000 cm⁻¹ :
          :.................................................:

    mode    ω/cm⁻¹     T·S(HO)/kcal·mol⁻¹    T·S(FR)/kcal·mol⁻¹   T·S(vib)
   ------------------------------------------------------------------------
       1      8.96    -2.45360 (  0.10%)    -1.56587 ( 99.90%)    -1.56678
       2      9.89    -2.39509 (  0.15%)    -1.53661 ( 99.85%)    -1.53792
       3     10.68    -2.34980 (  0.21%)    -1.51396 ( 99.79%)    -1.51569
       4     29.07    -1.75662 ( 10.26%)    -1.21718 ( 89.74%)    -1.27251
       5     30.15    -1.73500 ( 11.68%)    -1.20635 ( 88.32%)    -1.26811
       6     40.59    -1.55937 ( 30.28%)    -1.11832 ( 69.72%)    -1.25186
       7     43.00    -1.52529 ( 35.36%)    -1.10123 ( 64.64%)    -1.25117
       8     63.33    -1.29715 ( 72.02%)    -0.98654 ( 27.98%)    -1.21023
       9     73.96    -1.20606 ( 82.72%)    -0.94057 ( 17.28%)    -1.16018
      10     76.13    -1.18908 ( 84.31%)    -0.93200 ( 15.69%)    -1.14876
      11     92.79    -1.07344 ( 92.23%)    -0.87337 (  7.77%)    -1.05788
      12    102.38    -1.01623 ( 94.62%)    -0.84423 (  5.38%)    -1.00697
      13    120.42    -0.92236 ( 97.11%)    -0.79616 (  2.89%)    -0.91872
      14    121.58    -0.91685 ( 97.22%)    -0.79333 (  2.78%)    -0.91342
      15    130.80    -0.87484 ( 97.91%)    -0.77167 (  2.09%)    -0.87269
      16    144.42    -0.81827 ( 98.58%)    -0.74233 (  1.42%)    -0.81720
      17    158.20    -0.76660 ( 99.01%)    -0.71533 (  0.99%)    -0.76610
      18    184.75    -0.67976 ( 99.47%)    -0.66937 (  0.53%)    -0.67970
      19    185.75    -0.67675 ( 99.48%)    -0.66777 (  0.52%)    -0.67670
      20    210.94    -0.60690 ( 99.69%)    -0.63010 (  0.31%)    -0.60697
      21    211.17    -0.60629 ( 99.69%)    -0.62977 (  0.31%)    -0.60637
      22    213.74    -0.59974 ( 99.70%)    -0.62619 (  0.30%)    -0.59982
      23    220.27    -0.58344 ( 99.74%)    -0.61727 (  0.26%)    -0.58353
      24    222.03    -0.57915 ( 99.74%)    -0.61491 (  0.26%)    -0.57924
      25    225.06    -0.57185 ( 99.76%)    -0.61090 (  0.24%)    -0.57195
      26    225.18    -0.57157 ( 99.76%)    -0.61074 (  0.24%)    -0.57167
      27    234.60    -0.54963 ( 99.79%)    -0.59860 (  0.21%)    -0.54973
      28    238.45    -0.54096 ( 99.81%)    -0.59378 (  0.19%)    -0.54107
      29    245.16    -0.52626 ( 99.83%)    -0.58555 (  0.17%)    -0.52636
      30    249.18    -0.51771 ( 99.84%)    -0.58074 (  0.16%)    -0.51781
      31    257.43    -0.50064 ( 99.86%)    -0.57109 (  0.14%)    -0.50074
      32    258.29    -0.49889 ( 99.86%)    -0.57010 (  0.14%)    -0.49899
      33    263.07    -0.48935 ( 99.87%)    -0.56467 (  0.13%)    -0.48945
      34    279.86    -0.45752 ( 99.90%)    -0.54634 (  0.10%)    -0.45761
      35    280.49    -0.45637 ( 99.90%)    -0.54568 (  0.10%)    -0.45646
   ------------------------------------------------------------------------

   temp. (K)  partition function   enthalpy   heat capacity  entropy
                                   cal/mol     cal/K/mol   cal/K/mol   J/K/mol
 298.15  VIB  0.112E+18            23320.913    157.633    141.751
         ROT  0.617E+08              888.752      2.981     38.628
         INT  0.690E+25            24209.665    160.614    180.379
         TR   0.199E+29             1481.254      4.968     45.705
         TOT                       25690.9188   165.5824   226.0841   945.9357

       T/K    H(0)-H(T)+PV         H(T)/Eh          T*S/Eh         G(T)/Eh
   ------------------------------------------------------------------------
    298.15    0.409411E-01    0.560575E+00    0.107420E+00    0.453155E+00
   ------------------------------------------------------------------------

         :::::::::::::::::::::::::::::::::::::::::::::::::::::
         ::                  THERMODYNAMIC                  ::
         :::::::::::::::::::::::::::::::::::::::::::::::::::::
         :: total free energy        -130.463763029461 Eh   ::
         ::.................................................::
         :: total energy             -130.916918162039 Eh   ::
         :: zero point energy           0.519633880484 Eh   ::
         :: G(RRHO) w/o ZPVE           -0.066478747905 Eh   ::
         :: G(RRHO) contrib.            0.453155132578 Eh   ::
         :::::::::::::::::::::::::::::::::::::::::::::::::::::

optimized geometry written to: xtbopt.xyz


           -------------------------------------------------
          | TOTAL ENERGY             -130.916918162039 Eh   |
          | TOTAL ENTHALPY           -130.356343196455 Eh   |
          | TOTAL FREE ENERGY        -130.463763029461 Eh   |
          | GRADIENT NORM               0.000282579387 Eh/α |
          | HOMO-LUMO GAP               0.190916930223 eV   |
           -------------------------------------------------

------------------------------------------------------------------------
 * finished run on 2021/11/19 at 10:24:27.106     
------------------------------------------------------------------------
 total:
 * wall-time:     0 d,  0 h,  1 min, 47.544 sec
 *  cpu-time:     0 d,  0 h,  1 min, 47.540 sec
 * ratio c/w:     1.000 speedup
 SCF:
 * wall-time:     0 d,  0 h,  0 min,  0.685 sec
 *  cpu-time:     0 d,  0 h,  0 min,  0.685 sec
 * ratio c/w:     1.000 speedup
 ANC optimizer:
 * wall-time:     0 d,  0 h,  0 min, 20.909 sec
 *  cpu-time:     0 d,  0 h,  0 min, 20.904 sec
 * ratio c/w:     1.000 speedup
 analytical hessian:
 * wall-time:     0 d,  0 h,  1 min, 18.248 sec
 *  cpu-time:     0 d,  0 h,  1 min, 18.249 sec
 * ratio c/w:     1.000 speedup

