74
 energy: -129.945683454866 gnorm: 2.269307916537 xtb: 6.4.1 (bd6e46d)
Fe        9.61674700000000    0.02433600000000   -0.00470500000000
C        11.94573800000000   -3.12245800000000    1.31798400000000
C        12.86184500000000   -2.17825000000000    1.26770200000000
C        12.45066600000000   -1.12434600000000    0.34641000000000
C        13.06953600000000    0.00000000000000    0.00000000000000
C        12.36549400000000    1.21994800000000   -0.36410500000000
C        12.69360400000000    2.18000300000000   -1.21157900000000
C        11.65882500000000    3.19628900000000   -1.22847700000000
C        10.72255700000000    2.81982700000000   -0.38158500000000
N        11.12454700000000    1.58681600000000    0.18223200000000
C         9.46148200000000    3.46482600000000   -0.00243300000000
C         8.36626500000000    2.83004300000000    0.34832700000000
C         7.29264000000000    3.14799900000000    1.31735500000000
C         6.45507700000000    2.15124500000000    1.24018900000000
C         6.89337400000000    1.14756200000000    0.25973700000000
N         7.99831200000000    1.58641500000000   -0.22455600000000
C         6.28253900000000   -0.10570900000000   -0.15381100000000
C         6.94670000000000   -1.21021500000000   -0.40823600000000
C         6.57285100000000   -2.27315700000000   -1.36576300000000
C         7.52159800000000   -3.16691200000000   -1.27674400000000
C         8.50732200000000   -2.72946300000000   -0.29386600000000
N         8.15427600000000   -1.58365700000000    0.20293100000000
C         9.73821000000000   -3.38553300000000    0.15185500000000
C        10.86125200000000   -2.73967200000000    0.41897600000000
N        11.18985200000000   -1.49223100000000   -0.17942800000000
H        12.00600000000000   -4.03223800000000    1.93553000000000
H        13.77817300000000   -2.21819900000000    1.84575000000000
H        13.62097000000000    2.19679900000000   -1.81272200000000
H        11.67572400000000    4.10097700000000   -1.84109800000000
H         9.41376000000000    4.55962900000000   -0.00621100000000
H         7.23981800000000    4.02672400000000    1.94234700000000
H         5.54344600000000    2.11557600000000    1.85751300000000
H         5.18428900000000   -0.10279800000000   -0.25308200000000
H         5.70399500000000   -2.32562200000000   -2.01471300000000
H         7.51875200000000   -4.08322100000000   -1.87550300000000
H         9.70272800000000   -4.48133400000000    0.26378000000000
C        14.04471100000000    0.00000000000000    0.00000000000000
C        15.26091700000000    0.00000000000000    0.00000000000000
Fe       19.72483700000000   -0.00926700000000   -0.16365300000000
C        17.17896800000000    3.22807700000000    1.12819700000000
C        16.25260800000000    2.30090300000000    0.98365000000000
C        16.85462100000000    1.13212300000000    0.32690600000000
C        16.26166900000000    0.00000000000000    0.00000000000000
C        16.89398300000000   -1.31318700000000   -0.02189100000000
C        16.37332000000000   -2.53274800000000    0.09962100000000
C        17.40886700000000   -3.53403100000000    0.01105400000000
C        18.56224200000000   -2.87856200000000   -0.16665800000000
N        18.27578900000000   -1.50783700000000   -0.19098400000000
C        19.90386600000000   -3.45018400000000   -0.31499700000000
C        21.04606000000000   -2.84495400000000   -0.14565100000000
C        22.32477200000000   -3.26380600000000    0.49090500000000
C        23.12464800000000   -2.25815800000000    0.35269600000000
C        22.47628600000000   -1.13258800000000   -0.35664800000000
N        21.28615700000000   -1.53013100000000   -0.61496100000000
C        22.98561100000000    0.18176500000000   -0.74347000000000
C        22.32622900000000    1.31092600000000   -0.64654000000000
C        22.72403600000000    2.59563200000000   -1.26695000000000
C        21.81683900000000    3.45875700000000   -0.92580900000000
C        20.81028100000000    2.79054400000000   -0.08741500000000
N        21.14020500000000    1.55184600000000    0.05002200000000
C        19.61483300000000    3.36180400000000    0.52614500000000
C        18.44821000000000    2.75141800000000    0.58563900000000
N        18.19719500000000    1.44905400000000    0.10130900000000
H        16.98734400000000    4.21027900000000    1.59597300000000
H        15.21029300000000    2.42575500000000    1.31558600000000
H        15.28730400000000   -2.69977300000000    0.24779800000000
H        17.23679100000000   -4.59554100000000    0.08059900000000
H        19.96479400000000   -4.51830000000000   -0.60107600000000
H        22.47792100000000   -4.22712500000000    0.95200800000000
H        24.14695400000000   -2.26091500000000    0.71966400000000
H        24.01967700000000    0.14843600000000   -1.14041600000000
H        23.60010100000000    2.79831100000000   -1.88991800000000
H        21.85649100000000    4.50999700000000   -1.24743700000000
H        19.70143100000000    4.35147900000000    0.95670400000000
74
 energy: -130.481611611190 gnorm: 0.559602455877 xtb: 6.4.1 (bd6e46d)
Fe        9.61931793155825    0.02491189286084   -0.00380091985042
C        11.94170203164341   -3.13186498718641    1.31509305225739
C        12.86629611842439   -2.17407167506476    1.26561387857015
C        12.39063248278276   -1.15355644883534    0.35362707986999
C        12.90962736042901    0.01202441764254   -0.00019043139045
C        12.31816100856313    1.23297025855568   -0.36187845331303
C        12.69796022825311    2.19635824696939   -1.22309111771572
C        11.67560651298380    3.20093083613619   -1.23840162101893
C        10.71458739693102    2.81215839114476   -0.37568255892735
N        11.10466010547830    1.58423123053089    0.18394498706226
C         9.47296672758657    3.46832417994659   -0.00409144360328
C         8.35612250734694    2.82100446058528    0.34973740296301
C         7.29684155868882    3.15374970270085    1.30960316030235
C         6.43927266744275    2.14481271140652    1.24332313217228
C         6.88702850289495    1.14840660034635    0.26858714095600
N         8.01647764020404    1.58051765961357   -0.22076108770738
C         6.27397771937266   -0.09096579118082   -0.14935070463970
C         6.95011119379976   -1.21653581703241   -0.41202026549783
C         6.56725727597905   -2.26954381546714   -1.36004106856041
C         7.52784227646026   -3.18011399688846   -1.27648844035842
C         8.51297658809582   -2.73875849768275   -0.29807212490252
N         8.15669422758839   -1.57139003353972    0.19408673679256
C         9.72458497980668   -3.39255922848116    0.14710110731205
C        10.86646030465501   -2.73491772763981    0.42161419580204
N        11.17960054103174   -1.49960460840325   -0.16585192028503
H        12.00295283021985   -4.02970315042999    1.93201001531212
H        13.77853832642531   -2.21247595012387    1.84395309997105
H        13.61835896194701    2.19802734093734   -1.81175737326268
H        11.67796904636331    4.09956509536888   -1.84130931702740
H         9.41919964645602    4.55865387210094   -0.00354022830085
H         7.24232405825558    4.02595235284213    1.94039722900140
H         5.54297058083960    2.11186086908403    1.85626535652477
H         5.18580454889654   -0.10024643164245   -0.25494168136976
H         5.70510631177783   -2.32184332062741   -2.01173964000999
H         7.52309161527119   -4.08384567095514   -1.87360936842896
H         9.70083869906474   -4.47949467634216    0.26404561173357
C        14.13035101667843    0.00518419166068   -0.00228434454927
C        15.19494644665128   -0.00578029432978   -0.00388913384278
Fe       19.72100507005702   -0.00985047656243   -0.16340306223572
C        17.18245471458005    3.23710345930946    1.13134799598273
C        16.24969654357646    2.29716586183163    0.98039264486178
C        16.91065819490706    1.16354854371145    0.33237134350876
C        16.40717161457810   -0.01373546714013   -0.00040674487740
C        16.94074059419713   -1.32455919048603   -0.02333672353142
C        16.36753530865285   -2.54819675440146    0.10061284022068
C        17.39236488482419   -3.53590237094668    0.01073679084600
C        18.56945479474192   -2.87081271487771   -0.17463707089147
N        18.29352110242083   -1.50633266324095   -0.19058493478024
C        19.88846929550605   -3.45611700821314   -0.31596343074388
C        21.05895513566163   -2.83395540304256   -0.14772225545791
C        22.31535607683949   -3.27035405822568    0.48207585190354
C        23.13998914940391   -2.24753868183898    0.35132167221357
C        22.48371169198301   -1.13530364839043   -0.35139217864198
N        21.26867448845110   -1.52412477676726   -0.60578784462981
C        22.99448594486539    0.16626810171377   -0.74264028693028
C        22.32470697908430    1.31726129051905   -0.64979417658510
C        22.73053715501343    2.58931687503067   -1.26671790501254
C        21.81031341609040    3.47225255872632   -0.92090307490369
C        20.80863931929153    2.79985253567303   -0.08687152396788
N        21.13677138112444    1.53995751187803    0.04227331127567
C        19.62585647627286    3.36637687697302    0.52323085567257
C        18.44020235909483    2.74434196307442    0.58853243984520
N        18.20788642619137    1.45576283522358    0.10573579412296
H        16.99117110122816    4.20785503775393    1.59398667103606
H        15.21401219052598    2.42013761923118    1.31207527388467
H        15.29203863592230   -2.70178732486085    0.24719879131885
H        17.23540034524784   -4.59566299037948    0.08100910533636
H        19.95937468822817   -4.51810277980891   -0.59223570852853
H        22.47573831495191   -4.22619868092787    0.95119976038340
H        24.14977771764217   -2.25731121162366    0.72018868580524
H        24.01724442164792    0.14901781884452   -1.13934847266601
H        23.59824587402673    2.79395318912235   -1.88771372655581
H        21.85191923908314    4.50933700334727   -1.24448942854340
H        19.70252637723908    4.35396293118976    0.95345177922420
74
 energy: -130.642172624391 gnorm: 0.325832259588 xtb: 6.4.1 (bd6e46d)
Fe        9.61880485056697    0.02483192430925   -0.00191247382322
C        11.93676225122601   -3.14900299996309    1.30593641349549
C        12.86399318602946   -2.17727520268864    1.25852211394090
C        12.31542835029203   -1.17555196231150    0.36888632131443
C        12.79409213473693    0.02899173621019   -0.00007981938921
C        12.24580667613785    1.24845798609590   -0.36662316574419
C        12.69413167604947    2.22505196993520   -1.23425737087196
C        11.69756514703898    3.21164351500151   -1.24552716149092
C        10.70116675983526    2.80903713135987   -0.37501592999439
N        11.04740417908857    1.58266622471456    0.17303983306968
C         9.48637699253772    3.47030432317150   -0.00442123302561
C         8.34982770532298    2.80673998852998    0.35205507770243
C         7.29504846180906    3.15789427020733    1.29046278932354
C         6.41582612751479    2.14122212296901    1.24250153450583
C         6.88204200699444    1.14925456654554    0.28591947164370
N         8.04845999981986    1.56028279146427   -0.19512075930435
C         6.26535105456709   -0.07152285435352   -0.14188099606267
C         6.95304910909799   -1.21543211704556   -0.41983265085410
C         6.56197216761253   -2.27116216361643   -1.34466698382892
C         7.53084372571510   -3.19978144399242   -1.27097579756303
C         8.51833753560980   -2.74969889442730   -0.30835240687378
N         8.16807686632544   -1.54985042934111    0.16207014242403
C         9.70115389371219   -3.40877815125285    0.14140305976110
C        10.85469918901313   -2.74395311303689    0.43044345303467
N        11.12944811680314   -1.51742001116474   -0.12744933259515
H        11.99411724264949   -4.03033095566234    1.92482421488527
H        13.77657477117244   -2.19524333022903    1.83571146415552
H        13.61152340781775    2.20254514209905   -1.80925945655099
H        11.68639198419237    4.10143631784825   -1.84459160497708
H         9.43472396753764    4.55668893708332    0.00221125754600
H         7.24982641716387    4.02316209011187    1.93119120055055
H         5.53487284690115    2.10154017334170    1.85560394116553
H         5.18622446063881   -0.09075448951894   -0.25838616523148
H         5.70737496370250   -2.31146762741655   -2.00171067566008
H         7.53498931033879   -4.09120037288455   -1.86990962054823
H         9.69128053211137   -4.48405594392906    0.26267344031105
C        14.05194802647631    0.01599645249487   -0.00552248980083
C        15.26690788122407   -0.01744069615010   -0.00478168486116
Fe       19.71757466911614   -0.00878622392110   -0.16449617769639
C        17.19182086501348    3.24907234739572    1.13498472955037
C        16.25874859416443    2.29796901485510    0.96781410776064
C        16.98270453788074    1.19028994278903    0.33914297970000
C        16.52384447810882   -0.03382472208627    0.00900021231934
C        17.01421132167826   -1.33897395656944   -0.02882976783289
C        16.37327994916024   -2.56778821339688    0.09609045727068
C        17.37302857883371   -3.53805921364687    0.00364947399504
C        18.58184735713202   -2.86968973558095   -0.19168911303992
N        18.34475546583220   -1.51247074274127   -0.18733432339900
C        19.87154339256265   -3.46156137124469   -0.31560271917464
C        21.06678756227488   -2.81848268977194   -0.15396730184986
C        22.30731656714772   -3.27155944378751    0.45755931051946
C        23.15943786617004   -2.23756270808391    0.34255558634825
C        22.49064365939479   -1.13856505525166   -0.33964780466270
N        21.24034178830755   -1.50552668860419   -0.57198879013126
C        23.00466171946391    0.14564865422017   -0.73807597771520
C        22.32314812236651    1.31689352530417   -0.65976449943068
C        22.73410706171916    2.58362223347810   -1.26017735591584
C        21.80764861790720    3.48759970477817   -0.90768775048370
C        20.80994251395588    2.81032660880064   -0.08693827951985
N        21.12571351931495    1.52367224449075    0.01447500742505
C        19.64491375287541    3.37919477448274    0.51978518484487
C        18.44770604228421    2.74709589099865    0.59914572006870
N        18.25332294053657    1.47606220417951    0.12143180599071
H        17.00229140832100    4.20784403855534    1.59189783758171
H        15.22670260495529    2.40122850880290    1.29888693161570
H        15.30608058342015   -2.70539952163694    0.24516342629044
H        17.22917414000596   -4.59702999665998    0.08170915273906
H        19.94335355776528   -4.52138542961077   -0.56473713771747
H        22.46752592222967   -4.22036368607867    0.94411073092358
H        24.16032513319594   -2.24732709178747    0.72110904474395
H        24.01643907475260    0.14806167271624   -1.13515680439017
H        23.59463574077784    2.78161683163984   -1.88174414263859
H        21.83917127712716    4.51282500150955   -1.23536157769053
H        19.70865063886451    4.36750638695507    0.94151287382278
74
 energy: -130.723192557946 gnorm: 0.189016890115 xtb: 6.4.1 (bd6e46d)
Fe        9.60682169683013    0.02313409214809    0.00428102430478
C        11.92752118304487   -3.17314723584156    1.29237075318609
C        12.85220413069503   -2.18097315711314    1.25175326518950
C        12.27377648154967   -1.18457001037690    0.38724782140047
C        12.76075185323846    0.04692929303129   -0.00104703433755
C        12.19060267589582    1.26237048988312   -0.37320895371550
C        12.68421398772601    2.25629981186654   -1.23944696027561
C        11.71645779315912    3.23343030328821   -1.24484962520537
C        10.67892019044963    2.81636615611177   -0.38317180427411
N        10.97552528548948    1.57687202522095    0.12475338656138
C         9.49459893317045    3.47443256175425   -0.00419322833704
C         8.35135700132097    2.78752715876208    0.36356554403264
C         7.28976417071014    3.15933009824745    1.26492768106920
C         6.38942673203231    2.14241554840970    1.23188485172800
C         6.88262754841365    1.14424647973516    0.31208576997741
N         8.09285190817955    1.52711654560189   -0.14208330169917
C         6.26349288353809   -0.05312865539564   -0.13344461846144
C         6.96170696661884   -1.20697229308234   -0.43828024058184
C         6.55630454615197   -2.27474990316591   -1.32536532818251
C         7.52398554395172   -3.22299585627311   -1.25827961605967
C         8.51994884447216   -2.76070918612012   -0.32607666191867
N         8.19015463076900   -1.52001746875957    0.10534416519420
C         9.66742236749635   -3.43562011330388    0.13796581639712
C        10.82653161187380   -2.76648299845496    0.45122244015923
N        11.06729274695788   -1.52836650523044   -0.05478612111437
H        11.98158147913052   -4.04504729525172    1.91017811470386
H        13.76815045778532   -2.17085738190077    1.81906250507919
H        13.60042846548355    2.21222634114252   -1.80119726782174
H        11.69807631342752    4.11673458640366   -1.84495167221857
H         9.45075445130056    4.55676449081455    0.00718644897901
H         7.25743340279837    4.02115669465755    1.90936033541114
H         5.51685569172020    2.08823137786017    1.84790862757168
H         5.18883290656659   -0.07678293170953   -0.25677190742685
H         5.70527859968153   -2.29758716973151   -1.98219904725891
H         7.54696680649143   -4.10818183447476   -1.85936126003796
H         9.66733521775060   -4.50422920443088    0.25460462730429
C        14.05022120053594    0.02582004828913   -0.00819065187097
C        15.26131579690977   -0.03014407849089    0.00002012351880
Fe       19.71525051716211   -0.00723778869135   -0.16760833686515
C        17.21347062191026    3.26268826575583    1.13700517602091
C        16.28131724446596    2.29997647376403    0.95167098259230
C        17.02071616908475    1.20594131376338    0.34089543444703
C        16.55821962769868   -0.05642132780490    0.02739598642056
C        17.07564859849681   -1.34992705824806   -0.03680409595211
C        16.39114561631430   -2.58556841849950    0.08360291734669
C        17.36200677161008   -3.54371205336637   -0.01577501406724
C        18.60315239018741   -2.87950610881725   -0.21075118835805
N        18.40171429031167   -1.52697952617009   -0.18098086710189
C        19.86065256389769   -3.47067729400885   -0.30954760372193
C        21.06842002230485   -2.79980727963906   -0.15564143677822
C        22.30017566297900   -3.26678194889608    0.42129891372073
C        23.17675175326040   -2.22966149864100    0.32053640286939
C        22.49121076953787   -1.13552359487723   -0.31862001108555
N        21.20393997426999   -1.47773252473483   -0.51407660341696
C        23.00828862066057    0.12669995967097   -0.72941935149770
C        22.31305624960060    1.31176805574950   -0.68034385528862
C        22.73496530787289    2.57621229403815   -1.24970097636179
C        21.81362032489340    3.50036438975825   -0.88478733212842
C        20.81425128143401    2.82063156652864   -0.09193429534538
N        21.10190681277496    1.50497332670050   -0.03617024001618
C        19.67475188963391    3.40233556009041    0.51701678099004
C        18.47205709993753    2.76068532810754    0.61877707521877
N        18.29998933516201    1.49510088262555    0.15443701819855
H        17.02585662735547    4.21531649654411    1.58857338934661
H        15.25147926965253    2.37292674959048    1.27286684590943
H        15.33214488052178   -2.70876204466542    0.23980098044163
H        17.22516502741611   -4.60206675351268    0.07673056895248
H        19.92596942575291   -4.53394310288699   -0.51310303909733
H        22.45621975644335   -4.20926083302368    0.92196054302236
H        24.17336665242129   -2.23281914085288    0.71250049631497
H        24.01776735426165    0.14656847327643   -1.11825576291117
H        23.59254131272883    2.76172312639875   -1.87051784404889
H        21.82491132347701    4.52074817318937   -1.21312107397843
H        19.72623135119075    4.40088503766326    0.91327441523844
74
 energy: -130.780779041570 gnorm: 0.093889663361 xtb: 6.4.1 (bd6e46d)
Fe        9.58016239156920    0.01971175850979    0.01813404735383
C        11.91421701579264   -3.19278952400060    1.28328387426981
C        12.82647127415304   -2.17931696690888    1.24127781538851
C        12.21889531173664   -1.17116325386336    0.41698200505100
C        12.72976972673819    0.06187558574028   -0.00294888978522
C        12.12567630930275    1.25489999593203   -0.38924989018596
C        12.66568664528242    2.27573852382209   -1.23526450817465
C        11.72717048946355    3.26024581267505   -1.24043581772229
C        10.64519050946770    2.82878889886294   -0.40108701425985
N        10.89079149223682    1.56461036098397    0.05055565912920
C         9.49074140340975    3.48497157827748   -0.00478234673621
C         8.35927518087219    2.76552918677447    0.38893777734923
C         7.28444053796106    3.15811244179540    1.24641111341545
C         6.36923950182413    2.14567804149653    1.21697490374775
C         6.88973972357359    1.13211116865858    0.34158175066504
N         8.14165054063944    1.49162365487776   -0.07357869740001
C         6.27259438639235   -0.04138877593848   -0.12603170041078
C         6.98099349841750   -1.19477520072802   -0.46858260773287
C         6.55149276718104   -2.27607532909359   -1.31373590532012
C         7.50769943273782   -3.24328525642419   -1.24335708547607
C         8.52039575659016   -2.76935985812535   -0.34832253580585
N         8.22206904897345   -1.48791550736159    0.03643192030601
C         9.63540385166972   -3.45989540785149    0.13614340869303
C        10.78912245942187   -2.78188241969661    0.48675600690501
N        10.98600600474289   -1.52030160065815    0.02756046558596
H        11.97626672011542   -4.07066227909300    1.89025143345422
H        13.75482243180646   -2.14345694261418    1.78613996010853
H        13.59032839599581    2.21559222467739   -1.77888411852818
H        11.71017972426468    4.14653336640019   -1.83693846847454
H         9.45163424114024    4.56337865866040    0.00443253677362
H         7.25691637510123    4.02604799167536    1.88025532599299
H         5.49206437171001    2.07839733487405    1.82612076535544
H         5.19742442270581   -0.06882768311692   -0.24293879208623
H         5.69373929205846   -2.28605510677975   -1.95887257339954
H         7.54830478927065   -4.13255782309881   -1.83783931603526
H         9.64242713760538   -4.52940280397932    0.23474856571995
C        14.05343131611074    0.03345177581837   -0.01095878909726
C        15.25086752563276   -0.04323828944060    0.00874726631122
Fe       19.72725593093104   -0.00829634691083   -0.17303820711178
C        17.24238051047071    3.27041391665800    1.13780226470727
C        16.32122402318648    2.29200152830023    0.93498078816641
C        17.06570008992844    1.20226963073713    0.34758434500160
C        16.58514433534404   -0.07763043803042    0.05357300095425
C        17.14274948257611   -1.34569478113161   -0.03954267431258
C        16.42001656760386   -2.58709950192976    0.06657494795792
C        17.36094927989845   -3.55190723114247   -0.04006668131736
C        18.63249206685817   -2.89633677658548   -0.22254610444957
N        18.46564214120090   -1.54316569092729   -0.17550894943144
C        19.86373743696323   -3.49012083426776   -0.29465702907940
C        21.06663081441792   -2.78158298992353   -0.14459714168171
C        22.29636969202198   -3.26026140872844    0.39008165303767
C        23.18649121938645   -2.22376417261210    0.29479649904893
C        22.48353185692938   -1.12486752825282   -0.29378823983621
N        21.16683169677043   -1.45400563464874   -0.45251078537603
C        22.99954626845380    0.11476991754567   -0.71771307840798
C        22.28873395937880    1.30693954707655   -0.70976484937326
C        22.73417338162134    2.56807070928271   -1.24221936585536
C        21.82708623551759    3.50881066140966   -0.86138686882697
C        20.81631262334090    2.83186327326576   -0.10322798268197
N        21.06689264918493    1.49067772653337   -0.09440977440572
C        19.70536053755379    3.42928259578905    0.51122243584335
C        18.50508786639540    2.77252214258103    0.64522582918961
N        18.36054582797112    1.49942637679764    0.19662124222680
H        17.05166123198636    4.22531522477416    1.58295704049213
H        15.28558115809712    2.33603611918540    1.23336823838679
H        15.36278439445868   -2.69524329873390    0.22971897293504
H        17.22749417894792   -4.61078626570383    0.06254553667816
H        19.92457219250920   -4.55569041704356   -0.45694005095192
H        22.45266332462520   -4.20262287114158    0.88751825107807
H        24.18443992075763   -2.21797467776614    0.68768308579329
H        24.01761113744962    0.14895941815645   -1.08424126212974
H        23.59696882468126    2.73967395900597   -1.85730097995866
H        21.82029107961698    4.53224038506963   -1.17887136224467
H        19.74756905929787    4.44282740157173    0.87216271099016
74
 energy: -130.819571866447 gnorm: 0.069690666404 xtb: 6.4.1 (bd6e46d)
Fe        9.54861224004490    0.01441734344106    0.03199425287285
C        11.89729516768329   -3.20313908958302    1.28031754917737
C        12.79279919767723   -2.17316137794956    1.23377285175171
C        12.16015801435407   -1.14489270612407    0.45474233788423
C        12.70177234896640    0.07090214802819   -0.00324046977036
C        12.06828347751956    1.23620338845568   -0.41670497491797
C        12.64409235836228    2.28440033672808   -1.22943421746451
C        11.72688888968675    3.28230273666397   -1.23777377127248
C        10.60899494902663    2.83572686442356   -0.43188542169761
N        10.81070615330053    1.54260014642792   -0.03840929428920
C         9.47792843320632    3.49797807273167   -0.00289379234928
C         8.36873105835538    2.75111746433325    0.42181197558993
C         7.27169643051593    3.16056475543104    1.23623568119330
C         6.35668124472028    2.14810427181576    1.20630395014976
C         6.90692347907881    1.11347389820866    0.37587460274152
N         8.18638648894997    1.46181332359275    0.00277952622149
C         6.29171220034571   -0.03861616103185   -0.12054611615811
C         7.00459553498784   -1.18340862740788   -0.50161892265189
C         6.54362939333774   -2.27844079678298   -1.30895642412111
C         7.48602936760803   -3.25905456414713   -1.23495784101241
C         8.52282738999619   -2.77586491509461   -0.37799083238336
N         8.26012448590001   -1.46638118917510   -0.03538830923642
C         9.61109749322211   -3.47779650068089    0.13397425253705
C        10.74771937925021   -2.78677194438375    0.52951225439563
N        10.90405725274168   -1.49696141177760    0.11608096139220
H        11.97923980384310   -4.10205722062925    1.85827001068288
H        13.73989372943715   -2.12077829760205    1.74511652029903
H        13.58340030153324    2.22132335984798   -1.74796437422557
H        11.72781329454633    4.18479146764608   -1.81374488459967
H         9.44132144303853    4.57441771764197    0.00276568679494
H         7.24007250457206    4.04371255277513    1.84579258288240
H         5.45999389089506    2.07619180429221    1.78970310705353
H         5.21394236951181   -0.06478169441931   -0.22255976170827
H         5.66917879390913   -2.28056355828192   -1.93040082712267
H         7.53039241457649   -4.16484781647788   -1.80580421227465
H         9.61678701783796   -4.55181478310680    0.20689730798251
C        14.05255649737734    0.03824644573398   -0.01099854473959
C        15.24199818182164   -0.05289703517130    0.02114236317722
Fe       19.74444057459772   -0.00885306343360   -0.16959988021077
C        17.27330192901295    3.27082173152123    1.13821187390366
C        16.36551336394313    2.28095819663184    0.92323139899316
C        17.11053553097352    1.18599875543560    0.36337216376493
C        16.60257543796415   -0.09143524130939    0.08143548410554
C        17.19321693103070   -1.33650416577859   -0.03983776614358
C        16.44997870584784   -2.57983959255361    0.04739178566305
C        17.36975916056572   -3.55864435979021   -0.06484405864196
C        18.65673770971311   -2.91031052974603   -0.23022240834744
N        18.51532044825658   -1.55317022193575   -0.17129599473148
C        19.87971928463230   -3.51451796316972   -0.27412437050382
C        21.06462027165808   -2.77178177250523   -0.12496005988138
C        22.30581057666699   -3.25738708544016    0.36554073128165
C        23.19236699680512   -2.21904113752232    0.27354837128410
C        22.46923130206428   -1.10878872961039   -0.26719671789828
N        21.13690093062129   -1.43772624431632   -0.39228662671425
C        22.98288336268359    0.11320021118072   -0.70725318700464
C        22.26142761616622    1.30465302721747   -0.73967059314565
C        22.73722781580899    2.56350530053302   -1.23982385565154
C        21.84668869170156    3.51514751387701   -0.84726709665961
C        20.81537941005681    2.84244692320425   -0.12368599391825
N        21.03141086492601    1.48758344651680   -0.14968121080704
C        19.72900562563326    3.45245878923738    0.50106860835620
C        18.53939580643733    2.77621265082815    0.67150818243889
N        18.41674879455774    1.48870122375655    0.24214917699784
H        17.07951660687365    4.23287326487118    1.57167509958456
H        15.32106762328947    2.30360366178777    1.18954199106262
H        15.39266175836790   -2.67553759441262    0.21432367514048
H        17.23463521721497   -4.61787785321058    0.03716258121136
H        19.93897665097138   -4.58551572032661   -0.39276615732533
H        22.46462125009259   -4.20733877844911    0.84155668269056
H        24.19816264565489   -2.20415974889784    0.64785605016020
H        24.01481572361847    0.15304790492327   -1.03843564865228