      -----------------------------------------------------------      
     |                   =====================                   |     
     |                           x T B                           |     
     |                   =====================                   |     
     |                         S. Grimme                         |     
     |          Mulliken Center for Theoretical Chemistry        |     
     |                    University of Bonn                     |     
      -----------------------------------------------------------      

   * xtb version 6.4.1 (bd6e46d) compiled by 'conda@4901f00b25ba' on 2021-06-10

   xtb is free software: you can redistribute it and/or modify it under
   the terms of the GNU Lesser General Public License as published by
   the Free Software Foundation, either version 3 of the License, or
   (at your option) any later version.
   
   xtb is distributed in the hope that it will be useful,
   but WITHOUT ANY WARRANTY; without even the implied warranty of
   MERCHANTABILITY or FITNESS FOR A PARTICULAR PURPOSE.  See the
   GNU Lesser General Public License for more details.
   
   Cite this work as:
   * C. Bannwarth, E. Caldeweyher, S. Ehlert, A. Hansen, P. Pracht,
     J. Seibert, S. Spicher, S. Grimme, WIREs Comput. Mol. Sci., 2020, 11,
     e01493. DOI: 10.1002/wcms.1493
   
   for GFN2-xTB:
   * C. Bannwarth, S. Ehlert and S. Grimme., J. Chem. Theory Comput., 2019,
     15, 1652-1671. DOI: 10.1021/acs.jctc.8b01176
   for GFN1-xTB:
   * S. Grimme, C. Bannwarth, P. Shushkov, J. Chem. Theory Comput., 2017,
     13, 1989-2009. DOI: 10.1021/acs.jctc.7b00118
   for GFN0-xTB:
   * P. Pracht, E. Caldeweyher, S. Ehlert, S. Grimme, ChemRxiv, 2019, preprint.
     DOI: 10.26434/chemrxiv.8326202.v1
   for GFN-FF:
   * S. Spicher and S. Grimme, Angew. Chem. Int. Ed., 2020, 59, 15665-15673.
     DOI: 10.1002/anie.202004239
   
   for DFT-D4:
   * E. Caldeweyher, C. Bannwarth and S. Grimme, J. Chem. Phys., 2017,
     147, 034112. DOI: 10.1063/1.4993215
   * E. Caldeweyher, S. Ehlert, A. Hansen, H. Neugebauer, S. Spicher,
     C. Bannwarth and S. Grimme, J. Chem. Phys., 2019, 150, 154122.
     DOI: 10.1063/1.5090222
   * E. Caldeweyher, J.-M. Mewes, S. Ehlert and S. Grimme, Phys. Chem. Chem. Phys.
     2020, 22, 8499-8512. DOI: 10.1039/D0CP00502A
   
   for sTDA-xTB:
   * S. Grimme and C. Bannwarth, J. Chem. Phys., 2016, 145, 054103.
     DOI: 10.1063/1.4959605
   
   in the mass-spec context:
   * V. Asgeirsson, C. Bauer and S. Grimme, Chem. Sci., 2017, 8, 4879.
     DOI: 10.1039/c7sc00601b
   * J. Koopman and S. Grimme, ACS Omega 2019, 4, 12, 15120-15133.
     DOI: 10.1021/acsomega.9b02011
   
   for metadynamics refer to:
   * S. Grimme, J. Chem. Theory Comput., 2019, 155, 2847-2862
     DOI: 10.1021/acs.jctc.9b00143
   
   for SPH calculations refer to:
   * S. Spicher and S. Grimme, J. Chem. Theory Comput., 2021, 17, 1701-1714
     DOI: 10.1021/acs.jctc.0c01306
   
   with help from (in alphabetical order)
   P. Atkinson, C. Bannwarth, F. Bohle, G. Brandenburg, E. Caldeweyher
   M. Checinski, S. Dohm, S. Ehlert, S. Ehrlich, I. Gerasimov, J. Koopman
   C. Lavigne, S. Lehtola, F. März, M. Müller, F. Musil, H. Neugebauer
   J. Pisarek, C. Plett, P. Pracht, J. Seibert, P. Shushkov, S. Spicher
   M. Stahn, M. Steiner, T. Strunk, J. Stückrath, T. Rose, and J. Unsleber
   
 * started run on 2021/11/21 at 19:16:24.217     

           -------------------------------------------------
          |                Calculation Setup                |
           -------------------------------------------------

          program call               : /home/jeff/miniconda3/bin/xtb /home/jeff/chem/final-year-proejct/Ni+2_6_6_outenergy/input_structure.xyz --gfn 2 --parallel 1 --etemp 300 --chrg 0 --uhf 0 -I det_control.in
          coordinate file            : /home/jeff/chem/final-year-proejct/Ni+2_6_6_outenergy/input_structure.xyz
          omp threads                :                     1
          number of atoms            :                   242
          number of electrons        :                   842
          charge                     :                     0
          spin                       :                   0.0
          first test random number   :      0.73119094218484

   ID    Z sym.   atoms
    1   28 Ni     1, 37, 103, 138, 173, 208
    2    6 C      2-9, 11-15, 17-21, 23, 24, 38-45, 47-51, 53-57, 59, 60,
                  73-102, 104-111, 113-117, 119-123, 125, 126, 139-146,
                  148-152, 154-158, 160, 161, 174-181, 183-187, 189-193, 195,
                  196, 209-216, 218-222, 224-228, 230, 231
    3    7 N      10, 16, 22, 25, 46, 52, 58, 61, 112, 118, 124, 127, 147,
                  153, 159, 162, 182, 188, 194, 197, 217, 223, 229, 232
    4    1 H      26-36, 62-72, 128-137, 163-172, 198-207, 233-242

           -------------------------------------------------
          |                 G F N 2 - x T B                 |
           -------------------------------------------------

        Reference                      10.1021/acs.jctc.8b01176
      * Hamiltonian:
        H0-scaling (s, p, d)           1.850000    2.230000    2.230000
        zeta-weighting                 0.500000
      * Dispersion:
        s8                             2.700000
        a1                             0.520000
        a2                             5.000000
        s9                             5.000000
      * Repulsion:
        kExp                           1.500000    1.000000
        rExp                           1.000000
      * Coulomb:
        alpha                          2.000000
        third order                    shell-resolved
        anisotropic                    true
        a3                             3.000000
        a5                             4.000000
        cn-shift                       1.200000
        cn-exp                         4.000000
        max-rad                        5.000000


          ...................................................
          :                      SETUP                      :
          :.................................................:
          :  # basis functions                 818          :
          :  # atomic orbitals                 812          :
          :  # shells                          428          :
          :  # electrons                       842          :
          :  max. iterations                   250          :
          :  Hamiltonian                  GFN2-xTB          :
          :  restarted?                      false          :
          :  GBSA solvation                  false          :
          :  PC potential                    false          :
          :  electronic temp.          300.0000000     K    :
          :  accuracy                    1.0000000          :
          :  -> integral cutoff          0.2500000E+02      :
          :  -> integral neglect         0.1000000E-07      :
          :  -> SCF convergence          0.1000000E-05 Eh   :
          :  -> wf. convergence          0.1000000E-03 e    :
          :  Broyden damping             0.4000000          :
          ...................................................

 iter      E             dE          RMSdq      gap      omega  full diag
   1   -459.4644785 -0.459464E+03  0.820E+00    0.63       0.0  T
   2   -459.9939886 -0.529510E+00  0.450E+00    0.94       1.0  T
   3   -459.9234339  0.705547E-01  0.119E+00    0.80       1.0  T
   4   -459.9615048 -0.380709E-01  0.621E-01    0.98       1.0  T
   5   -460.0214467 -0.599419E-01  0.296E-01    0.95       1.0  T
   6   -460.0282708 -0.682410E-02  0.193E-01    0.95       1.0  T
   7   -460.0241418  0.412898E-02  0.154E-01    0.96       1.0  T
   8   -460.0309617 -0.681986E-02  0.313E-02    0.96       1.0  T
   9   -460.0311378 -0.176176E-03  0.165E-02    0.95       1.0  T
  10   -460.0311891 -0.512181E-04  0.876E-03    0.96       1.0  T
  11   -460.0312060 -0.169299E-04  0.393E-03    0.95       1.6  T
  12   -460.0312088 -0.285167E-05  0.239E-03    0.95       2.7  T
  13   -460.0312095 -0.647555E-06  0.137E-03    0.95       4.7  T
  14   -460.0312096 -0.117809E-06  0.863E-04    0.95       7.4  T
  15   -460.0312098 -0.164710E-06  0.445E-04    0.95      14.5  T

   *** convergence criteria satisfied after 15 iterations ***

         #    Occupation            Energy/Eh            Energy/eV
      -------------------------------------------------------------
         1        2.0000           -0.6779120             -18.4469
       ...           ...                  ...                  ...
       415        2.0000           -0.3634332              -9.8895
       416        2.0000           -0.3634298              -9.8894
       417        2.0000           -0.3616065              -9.8398
       418        2.0000           -0.3615958              -9.8395
       419        2.0000           -0.3604634              -9.8087
       420        2.0000           -0.3562315              -9.6936
       421        2.0000           -0.3534388              -9.6176 (HOMO)
       422                         -0.3183457              -8.6626 (LUMO)
       423                         -0.3147940              -8.5660
       424                         -0.3101775              -8.4404
       425                         -0.3051610              -8.3039
       426                         -0.3017125              -8.2100
       ...                                ...                  ...
       812                          1.7150919              46.6700
      -------------------------------------------------------------
                  HL-Gap            0.0350931 Eh            0.9549 eV
             Fermi-level           -0.3358786 Eh           -9.1397 eV

 SCC (total)                   0 d,  0 h,  0 min,  3.643 sec
 SCC setup                      ...        0 min,  0.011 sec (  0.300%)
 Dispersion                     ...        0 min,  0.022 sec (  0.611%)
 classical contributions        ...        0 min,  0.002 sec (  0.052%)
 integral evaluation            ...        0 min,  0.175 sec (  4.800%)
 iterations                     ...        0 min,  2.985 sec ( 81.936%)
 molecular gradient             ...        0 min,  0.422 sec ( 11.597%)
 printout                       ...        0 min,  0.026 sec (  0.703%)

         :::::::::::::::::::::::::::::::::::::::::::::::::::::
         ::                     SUMMARY                     ::
         :::::::::::::::::::::::::::::::::::::::::::::::::::::
         :: total energy            -451.652112604197 Eh    ::
         :: gradient norm              0.000976437358 Eh/a0 ::
         :: HOMO-LUMO gap              0.954931615941 eV    ::
         ::.................................................::
         :: SCC energy              -460.031209762255 Eh    ::
         :: -> isotropic ES            0.123862761065 Eh    ::
         :: -> anisotropic ES          0.030560608675 Eh    ::
         :: -> anisotropic XC          0.222800891694 Eh    ::
         :: -> dispersion             -0.392027544478 Eh    ::
         :: repulsion energy           8.385621159253 Eh    ::
         :: add. restraining           0.000000000000 Eh    ::
         :: total charge               0.000000000570 e     ::
         :::::::::::::::::::::::::::::::::::::::::::::::::::::

           -------------------------------------------------
          |                Property Printout                |
           -------------------------------------------------

    * Orbital Energies and Occupations

         #    Occupation            Energy/Eh            Energy/eV
      -------------------------------------------------------------
         1        2.0000           -0.6779120             -18.4469
       ...           ...                  ...                  ...
       409        2.0000           -0.3675108             -10.0005
       410        2.0000           -0.3675103             -10.0005
       411        2.0000           -0.3674993             -10.0002
       412        2.0000           -0.3652264              -9.9383
       413        2.0000           -0.3637155              -9.8972
       414        2.0000           -0.3637154              -9.8972
       415        2.0000           -0.3634332              -9.8895
       416        2.0000           -0.3634298              -9.8894
       417        2.0000           -0.3616065              -9.8398
       418        2.0000           -0.3615958              -9.8395
       419        2.0000           -0.3604634              -9.8087
       420        2.0000           -0.3562315              -9.6936
       421        2.0000           -0.3534388              -9.6176 (HOMO)
       422                         -0.3183457              -8.6626 (LUMO)
       423                         -0.3147940              -8.5660
       424                         -0.3101775              -8.4404
       425                         -0.3051610              -8.3039
       426                         -0.3017125              -8.2100
       427                         -0.3017088              -8.2099
       428                         -0.3015712              -8.2062
       429                         -0.3015708              -8.2062
       430                         -0.3014139              -8.2019
       431                         -0.3014087              -8.2017
       432                         -0.3012862              -8.1984
       ...                                ...                  ...
       812                          1.7150919              46.6700
      -------------------------------------------------------------
                  HL-Gap            0.0350931 Eh            0.9549 eV
             Fermi-level           -0.3358786 Eh           -9.1397 eV

     #   Z          covCN         q      C6AA      α(0)
     1  28 Ni       3.021    -0.292   189.380    28.395
     2   6 C        3.024    -0.052    29.266     8.874
     3   6 C        3.021    -0.051    29.231     8.869
     4   6 C        3.186     0.074    25.913     8.306
     5   6 C        2.956     0.025    27.442     8.592
     6   6 C        3.186     0.074    25.913     8.306
     7   6 C        3.021    -0.051    29.230     8.868
     8   6 C        3.024    -0.052    29.267     8.874
     9   6 C        3.172     0.073    26.004     8.330
    10   7 N        2.624    -0.048    22.179     6.994
    11   6 C        2.904    -0.041    29.027     8.834
    12   6 C        3.168     0.074    25.996     8.331
    13   6 C        3.020    -0.051    29.247     8.871
    14   6 C        3.021    -0.051    29.247     8.871
    15   6 C        3.168     0.075    25.991     8.330
    16   7 N        2.625    -0.047    22.158     6.991
    17   6 C        2.904    -0.043    29.069     8.840
    18   6 C        3.168     0.075    25.990     8.330
    19   6 C        3.021    -0.051    29.247     8.871
    20   6 C        3.020    -0.051    29.247     8.871
    21   6 C        3.168     0.074    25.996     8.331
    22   7 N        2.625    -0.047    22.158     6.991
    23   6 C        2.904    -0.041    29.027     8.834
    24   6 C        3.172     0.073    26.004     8.330
    25   7 N        2.624    -0.048    22.179     6.994
    26   1 H        0.926     0.035     2.511     2.478
    27   1 H        0.926     0.037     2.483     2.464
    28   1 H        0.926     0.037     2.483     2.464
    29   1 H        0.926     0.035     2.511     2.478
    30   1 H        0.926     0.049     2.329     2.387
    31   1 H        0.926     0.036     2.504     2.474
    32   1 H        0.926     0.036     2.505     2.475
    33   1 H        0.926     0.049     2.337     2.391
    34   1 H        0.926     0.036     2.505     2.475
    35   1 H        0.926     0.036     2.504     2.474
    36   1 H        0.926     0.049     2.329     2.387
    37  28 Ni       3.021    -0.292   189.381    28.395
    38   6 C        3.024    -0.052    29.267     8.874
    39   6 C        3.021    -0.051    29.231     8.868
    40   6 C        3.186     0.074    25.912     8.306
    41   6 C        2.956     0.025    27.442     8.592
    42   6 C        3.186     0.074    25.916     8.307
    43   6 C        3.021    -0.051    29.230     8.868
    44   6 C        3.024    -0.052    29.266     8.874
    45   6 C        3.172     0.073    26.004     8.330
    46   7 N        2.624    -0.048    22.180     6.994
    47   6 C        2.904    -0.041    29.027     8.834
    48   6 C        3.168     0.074    25.997     8.331
    49   6 C        3.020    -0.051    29.247     8.871
    50   6 C        3.021    -0.051    29.247     8.871
    51   6 C        3.168     0.075    25.991     8.330
    52   7 N        2.625    -0.047    22.158     6.991
    53   6 C        2.904    -0.043    29.069     8.840
    54   6 C        3.168     0.075    25.991     8.330
    55   6 C        3.021    -0.051    29.247     8.871
    56   6 C        3.020    -0.051    29.247     8.871
    57   6 C        3.168     0.074    25.996     8.331
    58   7 N        2.625    -0.047    22.158     6.991
    59   6 C        2.904    -0.041    29.027     8.834
    60   6 C        3.172     0.073    26.003     8.330
    61   7 N        2.625    -0.048    22.179     6.994
    62   1 H        0.926     0.035     2.511     2.478
    63   1 H        0.926     0.037     2.483     2.464
    64   1 H        0.926     0.037     2.483     2.464
    65   1 H        0.926     0.035     2.511     2.478
    66   1 H        0.926     0.049     2.329     2.387
    67   1 H        0.926     0.036     2.504     2.474
    68   1 H        0.926     0.036     2.505     2.475
    69   1 H        0.926     0.049     2.337     2.391
    70   1 H        0.926     0.036     2.505     2.475
    71   1 H        0.926     0.036     2.504     2.474
    72   1 H        0.926     0.049     2.329     2.387
    73   6 C        1.993    -0.020    31.567     9.073
    74   6 C        1.963    -0.010    31.323     9.038
    75   6 C        1.965    -0.001    31.108     9.007
    76   6 C        1.965    -0.002    31.127     9.010
    77   6 C        1.963    -0.009    31.305     9.035
    78   6 C        1.992    -0.020    31.589     9.077
    79   6 C        1.992    -0.020    31.572     9.074
    80   6 C        1.963    -0.009    31.312     9.036
    81   6 C        1.965    -0.001    31.111     9.007
    82   6 C        1.965    -0.002    31.116     9.008
    83   6 C        1.963    -0.009    31.307     9.036
    84   6 C        1.992    -0.020    31.577     9.075
    85   6 C        1.992    -0.020    31.575     9.075
    86   6 C        1.963    -0.009    31.308     9.036
    87   6 C        1.965    -0.002    31.112     9.008
    88   6 C        1.965    -0.002    31.112     9.008
    89   6 C        1.963    -0.009    31.308     9.036
    90   6 C        1.992    -0.020    31.575     9.075
    91   6 C        1.992    -0.020    31.578     9.075
    92   6 C        1.963    -0.009    31.307     9.036
    93   6 C        1.965    -0.002    31.116     9.008
    94   6 C        1.965    -0.002    31.111     9.007
    95   6 C        1.963    -0.009    31.312     9.036
    96   6 C        1.992    -0.020    31.572     9.074
    97   6 C        1.992    -0.020    31.588     9.076
    98   6 C        1.963    -0.009    31.304     9.035
    99   6 C        1.965    -0.002    31.126     9.010
   100   6 C        1.965    -0.001    31.107     9.007
   101   6 C        1.963    -0.010    31.322     9.038
   102   6 C        1.992    -0.020    31.566     9.073
   103  28 Ni       3.015    -0.286   189.251    28.385
   104   6 C        3.024    -0.052    29.262     8.873
   105   6 C        3.022    -0.050    29.228     8.868
   106   6 C        3.188     0.074    25.898     8.303
   107   6 C        2.956     0.025    27.434     8.591
   108   6 C        3.187     0.074    25.898     8.303
   109   6 C        3.022    -0.050    29.227     8.868
   110   6 C        3.024    -0.052    29.262     8.873
   111   6 C        3.173     0.073    25.997     8.328
   112   7 N        2.623    -0.050    22.214     7.000
   113   6 C        2.904    -0.039    28.977     8.826
   114   6 C        3.173     0.073    25.998     8.328
   115   6 C        3.024    -0.052    29.261     8.873
   116   6 C        3.022    -0.051    29.229     8.868
   117   6 C        3.187     0.074    25.896     8.302
   118   7 N        2.623    -0.050    22.214     7.000
   119   6 C        2.956     0.025    27.442     8.592
   120   6 C        3.187     0.074    25.896     8.302
   121   6 C        3.022    -0.051    29.229     8.868
   122   6 C        3.024    -0.052    29.261     8.873
   123   6 C        3.173     0.073    25.998     8.328
   124   7 N        2.623    -0.050    22.214     7.000
   125   6 C        2.904    -0.039    28.976     8.826
   126   6 C        3.173     0.073    25.997     8.328
   127   7 N        2.623    -0.050    22.213     7.000
   128   1 H        0.926     0.036     2.509     2.477
   129   1 H        0.926     0.038     2.481     2.463
   130   1 H        0.926     0.038     2.481     2.463
   131   1 H        0.926     0.036     2.509     2.477
   132   1 H        0.926     0.050     2.321     2.382
   133   1 H        0.926     0.036     2.509     2.477
   134   1 H        0.926     0.037     2.483     2.464
   135   1 H        0.926     0.037     2.483     2.464
   136   1 H        0.926     0.036     2.509     2.477
   137   1 H        0.926     0.050     2.321     2.382
   138  28 Ni       3.015    -0.286   189.247    28.385
   139   6 C        3.024    -0.052    29.261     8.873
   140   6 C        3.022    -0.050    29.228     8.868
   141   6 C        3.187     0.074    25.896     8.303
   142   6 C        2.956     0.025    27.437     8.591
   143   6 C        3.188     0.074    25.896     8.302
   144   6 C        3.022    -0.050    29.228     8.868
   145   6 C        3.024    -0.052    29.261     8.873
   146   6 C        3.174     0.073    25.997     8.328
   147   7 N        2.623    -0.050    22.213     7.000
   148   6 C        2.904    -0.039    28.975     8.826
   149   6 C        3.173     0.073    25.998     8.328
   150   6 C        3.024    -0.052    29.261     8.873
   151   6 C        3.022    -0.050    29.228     8.868
   152   6 C        3.187     0.074    25.896     8.302
   153   7 N        2.623    -0.050    22.213     7.000
   154   6 C        2.956     0.025    27.439     8.592
   155   6 C        3.187     0.074    25.896     8.303
   156   6 C        3.022    -0.051    29.228     8.868
   157   6 C        3.024    -0.052    29.261     8.873
   158   6 C        3.173     0.073    25.998     8.328
   159   7 N        2.623    -0.050    22.214     7.000
   160   6 C        2.904    -0.039    28.975     8.826
   161   6 C        3.173     0.073    25.997     8.328
   162   7 N        2.623    -0.050    22.214     7.000
   163   1 H        0.926     0.036     2.508     2.476
   164   1 H        0.926     0.038     2.481     2.463
   165   1 H        0.926     0.038     2.481     2.463
   166   1 H        0.926     0.036     2.508     2.476
   167   1 H        0.926     0.050     2.319     2.382
   168   1 H        0.926     0.036     2.508     2.476
   169   1 H        0.926     0.038     2.482     2.464
   170   1 H        0.926     0.038     2.482     2.464
   171   1 H        0.926     0.036     2.508     2.476
   172   1 H        0.926     0.050     2.320     2.382
   173  28 Ni       3.015    -0.286   189.247    28.385
   174   6 C        3.024    -0.052    29.261     8.873
   175   6 C        3.022    -0.051    29.228     8.868
   176   6 C        3.187     0.074    25.896     8.302
   177   6 C        2.956     0.025    27.439     8.592
   178   6 C        3.187     0.074    25.896     8.302
   179   6 C        3.022    -0.050    29.228     8.868
   180   6 C        3.024    -0.052    29.261     8.873
   181   6 C        3.173     0.073    25.998     8.328
   182   7 N        2.623    -0.050    22.214     7.000
   183   6 C        2.904    -0.039    28.975     8.826
   184   6 C        3.173     0.073    25.997     8.328
   185   6 C        3.024    -0.052    29.261     8.873
   186   6 C        3.022    -0.050    29.227     8.868
   187   6 C        3.187     0.074    25.896     8.302
   188   7 N        2.623    -0.050    22.213     7.000
   189   6 C        2.956     0.025    27.437     8.591
   190   6 C        3.187     0.074    25.896     8.302
   191   6 C        3.022    -0.050    29.228     8.868
   192   6 C        3.024    -0.052    29.261     8.873
   193   6 C        3.173     0.073    25.997     8.328
   194   7 N        2.623    -0.050    22.213     7.000
   195   6 C        2.904    -0.039    28.975     8.826
   196   6 C        3.173     0.073    25.998     8.328
   197   7 N        2.623    -0.050    22.214     7.000
   198   1 H        0.926     0.036     2.508     2.476
   199   1 H        0.926     0.038     2.482     2.464
   200   1 H        0.926     0.038     2.482     2.464
   201   1 H        0.926     0.036     2.508     2.476
   202   1 H        0.926     0.050     2.320     2.382
   203   1 H        0.926     0.036     2.508     2.476
   204   1 H        0.926     0.038     2.481     2.463
   205   1 H        0.926     0.038     2.481     2.463
   206   1 H        0.926     0.036     2.508     2.476
   207   1 H        0.926     0.050     2.319     2.382
   208  28 Ni       3.015    -0.286   189.251    28.385
   209   6 C        3.024    -0.052    29.261     8.873
   210   6 C        3.022    -0.051    29.229     8.868
   211   6 C        3.187     0.074    25.896     8.303
   212   6 C        2.956     0.025    27.442     8.592
   213   6 C        3.187     0.074    25.896     8.302
   214   6 C        3.022    -0.051    29.229     8.868
   215   6 C        3.024    -0.052    29.261     8.873
   216   6 C        3.173     0.073    25.998     8.328
   217   7 N        2.623    -0.050    22.215     7.000
   218   6 C        2.904    -0.039    28.977     8.826
   219   6 C        3.173     0.073    25.997     8.328
   220   6 C        3.024    -0.052    29.262     8.873
   221   6 C        3.022    -0.050    29.227     8.868
   222   6 C        3.187     0.074    25.898     8.303
   223   7 N        2.623    -0.050    22.213     7.000
   224   6 C        2.956     0.025    27.434     8.591
   225   6 C        3.187     0.074    25.898     8.303
   226   6 C        3.022    -0.050    29.227     8.868
   227   6 C        3.024    -0.052    29.262     8.873
   228   6 C        3.173     0.073    25.997     8.328
   229   7 N        2.623    -0.050    22.214     7.000
   230   6 C        2.904    -0.039    28.977     8.826
   231   6 C        3.173     0.073    25.999     8.328
   232   7 N        2.623    -0.050    22.214     7.000
   233   1 H        0.926     0.036     2.509     2.477
   234   1 H        0.926     0.037     2.483     2.464
   235   1 H        0.926     0.037     2.483     2.464
   236   1 H        0.926     0.036     2.509     2.477
   237   1 H        0.926     0.050     2.321     2.382
   238   1 H        0.926     0.036     2.509     2.477
   239   1 H        0.926     0.038     2.481     2.463
   240   1 H        0.926     0.038     2.481     2.463
   241   1 H        0.926     0.036     2.509     2.477
   242   1 H        0.926     0.050     2.321     2.382

 Mol. C6AA /au·bohr⁶  :    1188949.287784
 Mol. C8AA /au·bohr⁸  :   34917421.522723
 Mol. α(0) /au        :       1796.064284


Wiberg/Mayer (AO) data.
largest (>0.10) Wiberg bond orders for each atom

 ---------------------------------------------------------------------------
     #   Z sym  total        # sym  WBO       # sym  WBO       # sym  WBO
 ---------------------------------------------------------------------------
     1  28 Ni   3.475 --    10 N    0.753    25 N    0.753    16 N    0.751
                            22 N    0.751
     2   6 C    3.953 --     3 C    1.645    24 C    1.170    26 H    0.972
     3   6 C    3.957 --     2 C    1.645     4 C    1.179    27 H    0.970
     4   6 C    3.916 --    25 N    1.262     5 C    1.251     3 C    1.179
     5   6 C    3.945 --     6 C    1.251     4 C    1.251    73 C    1.183
     6   6 C    3.916 --    10 N    1.262     5 C    1.251     7 C    1.179
     7   6 C    3.957 --     8 C    1.645     6 C    1.179    28 H    0.970
     8   6 C    3.953 --     7 C    1.645     9 C    1.170    29 H    0.972
     9   6 C    3.930 --    11 C    1.356    10 N    1.227     8 C    1.170
    10   7 N    3.577 --     6 C    1.262     9 C    1.227     1 Ni   0.753
    11   6 C    3.935 --     9 C    1.356    12 C    1.353    30 H    0.964
    12   6 C    3.935 --    11 C    1.353    16 N    1.240    13 C    1.161
    13   6 C    3.957 --    14 C    1.661    12 C    1.161    31 H    0.972
    14   6 C    3.955 --    13 C    1.661    15 C    1.161    32 H    0.972
    15   6 C    3.937 --    17 C    1.353    16 N    1.242    14 C    1.161
    16   7 N    3.571 --    15 C    1.242    12 C    1.240     1 Ni   0.751
    17   6 C    3.931 --    15 C    1.353    18 C    1.353    33 H    0.964
    18   6 C    3.937 --    17 C    1.353    22 N    1.242    19 C    1.161
    19   6 C    3.955 --    20 C    1.661    18 C    1.161    34 H    0.972
    20   6 C    3.957 --    19 C    1.661    21 C    1.161    35 H    0.972
    21   6 C    3.935 --    23 C    1.353    22 N    1.240    20 C    1.161
    22   7 N    3.571 --    18 C    1.242    21 C    1.240     1 Ni   0.751
    23   6 C    3.935 --    24 C    1.356    21 C    1.353    36 H    0.964
    24   6 C    3.930 --    23 C    1.356    25 N    1.227     2 C    1.170
    25   7 N    3.576 --     4 C    1.262    24 C    1.227     1 Ni   0.753
    26   1 H    0.998 --     2 C    0.972
    27   1 H    0.998 --     3 C    0.970
    28   1 H    0.998 --     7 C    0.970
    29   1 H    0.998 --     8 C    0.972
    30   1 H    0.996 --    11 C    0.964
    31   1 H    0.998 --    13 C    0.972
    32   1 H    0.998 --    14 C    0.972
    33   1 H    0.997 --    17 C    0.964
    34   1 H    0.998 --    19 C    0.972
    35   1 H    0.998 --    20 C    0.972
    36   1 H    0.996 --    23 C    0.964
    37  28 Ni   3.475 --    61 N    0.753    46 N    0.753    52 N    0.751
                            58 N    0.751
    38   6 C    3.953 --    39 C    1.645    60 C    1.170    62 H    0.972
    39   6 C    3.957 --    38 C    1.645    40 C    1.179    63 H    0.970
    40   6 C    3.916 --    61 N    1.262    41 C    1.251    39 C    1.179
    41   6 C    3.945 --    42 C    1.252    40 C    1.251   102 C    1.183
    42   6 C    3.916 --    46 N    1.262    41 C    1.252    43 C    1.179
    43   6 C    3.957 --    44 C    1.645    42 C    1.179    64 H    0.970
    44   6 C    3.953 --    43 C    1.645    45 C    1.170    65 H    0.972
    45   6 C    3.930 --    47 C    1.355    46 N    1.227    44 C    1.170
    46   7 N    3.577 --    42 C    1.262    45 C    1.227    37 Ni   0.753
    47   6 C    3.935 --    45 C    1.355    48 C    1.353    66 H    0.964
    48   6 C    3.935 --    47 C    1.353    52 N    1.240    49 C    1.161
    49   6 C    3.957 --    50 C    1.661    48 C    1.161    67 H    0.972
    50   6 C    3.955 --    49 C    1.661    51 C    1.160    68 H    0.972
    51   6 C    3.937 --    53 C    1.353    52 N    1.242    50 C    1.160
    52   7 N    3.571 --    51 C    1.242    48 C    1.240    37 Ni   0.751
    53   6 C    3.931 --    51 C    1.353    54 C    1.353    69 H    0.964
    54   6 C    3.937 --    53 C    1.353    58 N    1.242    55 C    1.160
    55   6 C    3.955 --    56 C    1.661    54 C    1.160    70 H    0.972
    56   6 C    3.957 --    55 C    1.661    57 C    1.161    71 H    0.972
    57   6 C    3.935 --    59 C    1.353    58 N    1.240    56 C    1.161
    58   7 N    3.571 --    54 C    1.242    57 C    1.240    37 Ni   0.751
    59   6 C    3.935 --    60 C    1.356    57 C    1.353    72 H    0.964
    60   6 C    3.930 --    59 C    1.356    61 N    1.227    38 C    1.170
    61   7 N    3.577 --    40 C    1.262    60 C    1.227    37 Ni   0.753
    62   1 H    0.998 --    38 C    0.972
    63   1 H    0.998 --    39 C    0.970
    64   1 H    0.998 --    43 C    0.970
    65   1 H    0.998 --    44 C    0.972
    66   1 H    0.996 --    47 C    0.964
    67   1 H    0.998 --    49 C    0.972
    68   1 H    0.998 --    50 C    0.972
    69   1 H    0.997 --    53 C    0.964
    70   1 H    0.998 --    55 C    0.972
    71   1 H    0.998 --    56 C    0.972
    72   1 H    0.996 --    59 C    0.964
    73   6 C    3.884 --    74 C    2.447     5 C    1.183    76 C    0.193
    74   6 C    3.930 --    73 C    2.447    75 C    1.330
    75   6 C    3.920 --    76 C    2.361    74 C    1.330    78 C    0.193
    76   6 C    3.921 --    75 C    2.361    77 C    1.330    73 C    0.193
    77   6 C    3.927 --    78 C    2.445    76 C    1.330
    78   6 C    3.885 --    77 C    2.445   107 C    1.186    75 C    0.193
    79   6 C    3.883 --    80 C    2.443   119 C    1.186    82 C    0.193
    80   6 C    3.927 --    79 C    2.443    81 C    1.332
    81   6 C    3.919 --    82 C    2.358    80 C    1.332    84 C    0.193
    82   6 C    3.920 --    81 C    2.358    83 C    1.332    79 C    0.193
    83   6 C    3.927 --    84 C    2.443    82 C    1.332
    84   6 C    3.883 --    83 C    2.443   142 C    1.186    81 C    0.193
    85   6 C    3.883 --    86 C    2.443   154 C    1.186    88 C    0.193
    86   6 C    3.927 --    85 C    2.443    87 C    1.332
    87   6 C    3.919 --    88 C    2.358    86 C    1.332    90 C    0.193
    88   6 C    3.919 --    87 C    2.358    89 C    1.332    85 C    0.193
    89   6 C    3.927 --    90 C    2.443    88 C    1.332
    90   6 C    3.883 --    89 C    2.443   177 C    1.186    87 C    0.193
    91   6 C    3.884 --    92 C    2.443   189 C    1.186    94 C    0.193
    92   6 C    3.927 --    91 C    2.443    93 C    1.332
    93   6 C    3.920 --    94 C    2.358    92 C    1.332    96 C    0.193
    94   6 C    3.919 --    93 C    2.358    95 C    1.332    91 C    0.193
    95   6 C    3.927 --    96 C    2.443    94 C    1.332
    96   6 C    3.883 --    95 C    2.443   212 C    1.186    93 C    0.193
    97   6 C    3.884 --    98 C    2.445   224 C    1.185   100 C    0.193
    98   6 C    3.927 --    97 C    2.445    99 C    1.330
    99   6 C    3.921 --   100 C    2.361    98 C    1.330   102 C    0.193
   100   6 C    3.920 --    99 C    2.361   101 C    1.329    97 C    0.193
   101   6 C    3.930 --   102 C    2.448   100 C    1.329
   102   6 C    3.884 --   101 C    2.448    41 C    1.183    99 C    0.193
   103  28 Ni   3.458 --   118 N    0.749   124 N    0.749   112 N    0.749
                           127 N    0.749
   104   6 C    3.953 --   105 C    1.644   126 C    1.171   128 H    0.972
   105   6 C    3.955 --   104 C    1.644   106 C    1.179   129 H    0.970
   106   6 C    3.916 --   127 N    1.265   107 C    1.249   105 C    1.179
   107   6 C    3.934 --   108 C    1.249   106 C    1.249    78 C    1.186
   108   6 C    3.916 --   112 N    1.264   107 C    1.249   109 C    1.179
   109   6 C    3.955 --   110 C    1.644   108 C    1.179   130 H    0.970
   110   6 C    3.953 --   109 C    1.644   111 C    1.171   131 H    0.972
   111   6 C    3.928 --   113 C    1.354   112 N    1.225   110 C    1.171
   112   7 N    3.568 --   108 C    1.264   111 C    1.225   103 Ni   0.749
   113   6 C    3.930 --   114 C    1.355   111 C    1.354   132 H    0.963
   114   6 C    3.928 --   113 C    1.355   118 N    1.225   115 C    1.171
   115   6 C    3.953 --   116 C    1.644   114 C    1.171   133 H    0.972
   116   6 C    3.955 --   115 C    1.644   117 C    1.179   134 H    0.970
   117   6 C    3.916 --   118 N    1.265   119 C    1.248   116 C    1.179
   118   7 N    3.568 --   117 C    1.265   114 C    1.225   103 Ni   0.749
   119   6 C    3.934 --   117 C    1.248   120 C    1.248    79 C    1.186
   120   6 C    3.916 --   124 N    1.265   119 C    1.248   121 C    1.179
   121   6 C    3.955 --   122 C    1.644   120 C    1.179   135 H    0.970
   122   6 C    3.953 --   121 C    1.644   123 C    1.171   136 H    0.972
   123   6 C    3.928 --   125 C    1.355   124 N    1.225   122 C    1.171
   124   7 N    3.568 --   120 C    1.265   123 C    1.225   103 Ni   0.749
   125   6 C    3.930 --   123 C    1.355   126 C    1.354   137 H    0.963
   126   6 C    3.928 --   125 C    1.354   127 N    1.225   104 C    1.171
   127   7 N    3.568 --   106 C    1.265   126 C    1.225   103 Ni   0.749
   128   1 H    0.998 --   104 C    0.972
   129   1 H    0.998 --   105 C    0.970
   130   1 H    0.998 --   109 C    0.970
   131   1 H    0.998 --   110 C    0.972
   132   1 H    0.996 --   113 C    0.963
   133   1 H    0.998 --   115 C    0.972
   134   1 H    0.998 --   116 C    0.970
   135   1 H    0.998 --   121 C    0.970
   136   1 H    0.998 --   122 C    0.972
   137   1 H    0.996 --   125 C    0.963
   138  28 Ni   3.458 --   147 N    0.749   153 N    0.749   162 N    0.749
                           159 N    0.749
   139   6 C    3.953 --   140 C    1.644   161 C    1.171   163 H    0.972
   140   6 C    3.955 --   139 C    1.644   141 C    1.179   164 H    0.970
   141   6 C    3.916 --   162 N    1.265   142 C    1.248   140 C    1.179
   142   6 C    3.934 --   141 C    1.248   143 C    1.248    84 C    1.186
   143   6 C    3.916 --   147 N    1.265   142 C    1.248   144 C    1.179
   144   6 C    3.955 --   145 C    1.644   143 C    1.179   165 H    0.970
   145   6 C    3.953 --   144 C    1.644   146 C    1.171   166 H    0.972
   146   6 C    3.928 --   148 C    1.354   147 N    1.225   145 C    1.171
   147   7 N    3.568 --   143 C    1.265   146 C    1.225   138 Ni   0.749
   148   6 C    3.929 --   149 C    1.355   146 C    1.354   167 H    0.963
   149   6 C    3.928 --   148 C    1.355   153 N    1.225   150 C    1.171
   150   6 C    3.953 --   151 C    1.644   149 C    1.171   168 H    0.972
   151   6 C    3.955 --   150 C    1.644   152 C    1.179   169 H    0.970
   152   6 C    3.916 --   153 N    1.265   154 C    1.248   151 C    1.179
   153   7 N    3.568 --   152 C    1.265   149 C    1.225   138 Ni   0.749
   154   6 C    3.934 --   152 C    1.248   155 C    1.248    85 C    1.186
   155   6 C    3.916 --   159 N    1.265   154 C    1.248   156 C    1.179
   156   6 C    3.955 --   157 C    1.644   155 C    1.179   170 H    0.970
   157   6 C    3.953 --   156 C    1.644   158 C    1.171   171 H    0.972
   158   6 C    3.928 --   160 C    1.355   159 N    1.225   157 C    1.171
   159   7 N    3.568 --   155 C    1.265   158 C    1.225   138 Ni   0.749
   160   6 C    3.929 --   158 C    1.355   161 C    1.354   172 H    0.963
   161   6 C    3.928 --   160 C    1.354   162 N    1.225   139 C    1.171
   162   7 N    3.568 --   141 C    1.265   161 C    1.225   138 Ni   0.749
   163   1 H    0.998 --   139 C    0.972
   164   1 H    0.998 --   140 C    0.970
   165   1 H    0.998 --   144 C    0.970
   166   1 H    0.998 --   145 C    0.972
   167   1 H    0.996 --   148 C    0.963
   168   1 H    0.998 --   150 C    0.972
   169   1 H    0.998 --   151 C    0.970
   170   1 H    0.998 --   156 C    0.970
   171   1 H    0.998 --   157 C    0.972
   172   1 H    0.996 --   160 C    0.963
   173  28 Ni   3.458 --   188 N    0.749   182 N    0.749   194 N    0.749
                           197 N    0.749
   174   6 C    3.953 --   175 C    1.644   196 C    1.171   198 H    0.972
   175   6 C    3.955 --   174 C    1.644   176 C    1.179   199 H    0.970
   176   6 C    3.916 --   197 N    1.265   177 C    1.248   175 C    1.179
   177   6 C    3.934 --   178 C    1.248   176 C    1.248    90 C    1.186
   178   6 C    3.916 --   182 N    1.265   177 C    1.248   179 C    1.179
   179   6 C    3.955 --   180 C    1.644   178 C    1.179   200 H    0.970
   180   6 C    3.953 --   179 C    1.644   181 C    1.171   201 H    0.972
   181   6 C    3.928 --   183 C    1.355   182 N    1.225   180 C    1.171
   182   7 N    3.568 --   178 C    1.265   181 C    1.225   173 Ni   0.749
   183   6 C    3.929 --   181 C    1.355   184 C    1.354   202 H    0.963
   184   6 C    3.928 --   183 C    1.354   188 N    1.225   185 C    1.171
   185   6 C    3.953 --   186 C    1.644   184 C    1.171   203 H    0.972
   186   6 C    3.955 --   185 C    1.644   187 C    1.179   204 H    0.970
   187   6 C    3.916 --   188 N    1.265   189 C    1.248   186 C    1.179
   188   7 N    3.568 --   187 C    1.265   184 C    1.225   173 Ni   0.749
   189   6 C    3.934 --   187 C    1.248   190 C    1.248    91 C    1.186
   190   6 C    3.916 --   194 N    1.265   189 C    1.248   191 C    1.179
   191   6 C    3.955 --   192 C    1.644   190 C    1.179   205 H    0.970
   192   6 C    3.953 --   191 C    1.644   193 C    1.171   206 H    0.972
   193   6 C    3.928 --   195 C    1.354   194 N    1.225   192 C    1.171
   194   7 N    3.568 --   190 C    1.265   193 C    1.225   173 Ni   0.749
   195   6 C    3.929 --   196 C    1.355   193 C    1.354   207 H    0.963
   196   6 C    3.928 --   195 C    1.355   197 N    1.225   174 C    1.171
   197   7 N    3.568 --   176 C    1.265   196 C    1.225   173 Ni   0.749
   198   1 H    0.998 --   174 C    0.972
   199   1 H    0.998 --   175 C    0.970
   200   1 H    0.998 --   179 C    0.970
   201   1 H    0.998 --   180 C    0.972
   202   1 H    0.996 --   183 C    0.963
   203   1 H    0.998 --   185 C    0.972
   204   1 H    0.998 --   186 C    0.970
   205   1 H    0.998 --   191 C    0.970
   206   1 H    0.998 --   192 C    0.972
   207   1 H    0.996 --   195 C    0.963
   208  28 Ni   3.458 --   232 N    0.749   223 N    0.749   217 N    0.749
                           229 N    0.749
   209   6 C    3.953 --   210 C    1.644   231 C    1.171   233 H    0.972
   210   6 C    3.955 --   209 C    1.644   211 C    1.179   234 H    0.970
   211   6 C    3.916 --   232 N    1.265   212 C    1.248   210 C    1.179
   212   6 C    3.935 --   213 C    1.248   211 C    1.248    96 C    1.186
   213   6 C    3.916 --   217 N    1.265   212 C    1.248   214 C    1.179
   214   6 C    3.955 --   215 C    1.644   213 C    1.179   235 H    0.970
   215   6 C    3.953 --   214 C    1.644   216 C    1.171   236 H    0.972
   216   6 C    3.928 --   218 C    1.355   217 N    1.225   215 C    1.171
   217   7 N    3.568 --   213 C    1.265   216 C    1.225   208 Ni   0.749
   218   6 C    3.930 --   216 C    1.355   219 C    1.354   237 H    0.963
   219   6 C    3.928 --   218 C    1.354   223 N    1.225   220 C    1.171
   220   6 C    3.953 --   221 C    1.644   219 C    1.171   238 H    0.972
   221   6 C    3.955 --   220 C    1.644   222 C    1.179   239 H    0.970
   222   6 C    3.916 --   223 N    1.264   224 C    1.249   221 C    1.179
   223   7 N    3.568 --   222 C    1.264   219 C    1.225   208 Ni   0.749
   224   6 C    3.934 --   225 C    1.249   222 C    1.249    97 C    1.185
   225   6 C    3.916 --   229 N    1.264   224 C    1.249   226 C    1.179
   226   6 C    3.955 --   227 C    1.644   225 C    1.179   240 H    0.970
   227   6 C    3.953 --   226 C    1.644   228 C    1.171   241 H    0.972
   228   6 C    3.928 --   230 C    1.354   229 N    1.225   227 C    1.171
   229   7 N    3.568 --   225 C    1.264   228 C    1.225   208 Ni   0.749
   230   6 C    3.930 --   231 C    1.355   228 C    1.354   242 H    0.963
   231   6 C    3.928 --   230 C    1.355   232 N    1.225   209 C    1.171
   232   7 N    3.568 --   211 C    1.265   231 C    1.225   208 Ni   0.749
   233   1 H    0.998 --   209 C    0.972
   234   1 H    0.998 --   210 C    0.970
   235   1 H    0.998 --   214 C    0.970
   236   1 H    0.998 --   215 C    0.972
   237   1 H    0.996 --   218 C    0.963
   238   1 H    0.998 --   220 C    0.972
   239   1 H    0.998 --   221 C    0.970
   240   1 H    0.998 --   226 C    0.970
   241   1 H    0.998 --   227 C    0.972
   242   1 H    0.996 --   230 C    0.963
 ---------------------------------------------------------------------------

Topologies differ in total number of bonds
Writing topology from bond orders to xtbtopo.mol

molecular dipole:
                 x           y           z       tot (Debye)
 q only:       -0.000      -0.001       0.000
   full:       -0.000      -0.001      -0.004       0.011
molecular quadrupole (traceless):
                xx          xy          yy          xz          yz          zz
 q only:      126.480       0.433      -7.919       0.415      -5.451    -118.561
  q+dip:      225.197       0.781      -1.255      -0.839     -10.895    -223.942
   full:      162.778       0.738     -14.740      -0.798      -6.588    -148.039


           -------------------------------------------------
          | TOTAL ENERGY             -451.652112604197 Eh   |
          | GRADIENT NORM               0.000976437358 Eh/α |
          | HOMO-LUMO GAP               0.954931615941 eV   |
           -------------------------------------------------

------------------------------------------------------------------------
 * finished run on 2021/11/21 at 19:16:28.003     
------------------------------------------------------------------------
 total:
 * wall-time:     0 d,  0 h,  0 min,  3.786 sec
 *  cpu-time:     0 d,  0 h,  0 min,  3.786 sec
 * ratio c/w:     1.000 speedup
 SCF:
 * wall-time:     0 d,  0 h,  0 min,  3.646 sec
 *  cpu-time:     0 d,  0 h,  0 min,  3.646 sec
 * ratio c/w:     1.000 speedup

