      -----------------------------------------------------------      
     |                   =====================                   |     
     |                           x T B                           |     
     |                   =====================                   |     
     |                         S. Grimme                         |     
     |          Mulliken Center for Theoretical Chemistry        |     
     |                    University of Bonn                     |     
      -----------------------------------------------------------      

   * xtb version 6.4.1 (bd6e46d) compiled by 'conda@4901f00b25ba' on 2021-06-10

   xtb is free software: you can redistribute it and/or modify it under
   the terms of the GNU Lesser General Public License as published by
   the Free Software Foundation, either version 3 of the License, or
   (at your option) any later version.
   
   xtb is distributed in the hope that it will be useful,
   but WITHOUT ANY WARRANTY; without even the implied warranty of
   MERCHANTABILITY or FITNESS FOR A PARTICULAR PURPOSE.  See the
   GNU Lesser General Public License for more details.
   
   Cite this work as:
   * C. Bannwarth, E. Caldeweyher, S. Ehlert, A. Hansen, P. Pracht,
     J. Seibert, S. Spicher, S. Grimme, WIREs Comput. Mol. Sci., 2020, 11,
     e01493. DOI: 10.1002/wcms.1493
   
   for GFN2-xTB:
   * C. Bannwarth, S. Ehlert and S. Grimme., J. Chem. Theory Comput., 2019,
     15, 1652-1671. DOI: 10.1021/acs.jctc.8b01176
   for GFN1-xTB:
   * S. Grimme, C. Bannwarth, P. Shushkov, J. Chem. Theory Comput., 2017,
     13, 1989-2009. DOI: 10.1021/acs.jctc.7b00118
   for GFN0-xTB:
   * P. Pracht, E. Caldeweyher, S. Ehlert, S. Grimme, ChemRxiv, 2019, preprint.
     DOI: 10.26434/chemrxiv.8326202.v1
   for GFN-FF:
   * S. Spicher and S. Grimme, Angew. Chem. Int. Ed., 2020, 59, 15665-15673.
     DOI: 10.1002/anie.202004239
   
   for DFT-D4:
   * E. Caldeweyher, C. Bannwarth and S. Grimme, J. Chem. Phys., 2017,
     147, 034112. DOI: 10.1063/1.4993215
   * E. Caldeweyher, S. Ehlert, A. Hansen, H. Neugebauer, S. Spicher,
     C. Bannwarth and S. Grimme, J. Chem. Phys., 2019, 150, 154122.
     DOI: 10.1063/1.5090222
   * E. Caldeweyher, J.-M. Mewes, S. Ehlert and S. Grimme, Phys. Chem. Chem. Phys.
     2020, 22, 8499-8512. DOI: 10.1039/D0CP00502A
   
   for sTDA-xTB:
   * S. Grimme and C. Bannwarth, J. Chem. Phys., 2016, 145, 054103.
     DOI: 10.1063/1.4959605
   
   in the mass-spec context:
   * V. Asgeirsson, C. Bauer and S. Grimme, Chem. Sci., 2017, 8, 4879.
     DOI: 10.1039/c7sc00601b
   * J. Koopman and S. Grimme, ACS Omega 2019, 4, 12, 15120-15133.
     DOI: 10.1021/acsomega.9b02011
   
   for metadynamics refer to:
   * S. Grimme, J. Chem. Theory Comput., 2019, 155, 2847-2862
     DOI: 10.1021/acs.jctc.9b00143
   
   for SPH calculations refer to:
   * S. Spicher and S. Grimme, J. Chem. Theory Comput., 2021, 17, 1701-1714
     DOI: 10.1021/acs.jctc.0c01306
   
   with help from (in alphabetical order)
   P. Atkinson, C. Bannwarth, F. Bohle, G. Brandenburg, E. Caldeweyher
   M. Checinski, S. Dohm, S. Ehlert, S. Ehrlich, I. Gerasimov, J. Koopman
   C. Lavigne, S. Lehtola, F. März, M. Müller, F. Musil, H. Neugebauer
   J. Pisarek, C. Plett, P. Pracht, J. Seibert, P. Shushkov, S. Spicher
   M. Stahn, M. Steiner, T. Strunk, J. Stückrath, T. Rose, and J. Unsleber
   
 * started run on 2021/11/20 at 15:56:58.434     

           -------------------------------------------------
          |                Calculation Setup                |
           -------------------------------------------------

          program call               : /home/jeff/miniconda3/bin/xtb /home/jeff/chem/final-year-proejct/Co+2_4_5_outenergy/input_structure.xyz --gfn 2 --parallel 1 --etemp 300 --chrg 0 --uhf 0 -I det_control.in
          coordinate file            : /home/jeff/chem/final-year-proejct/Co+2_4_5_outenergy/input_structure.xyz
          omp threads                :                     1
          number of atoms            :                   193
          number of electrons        :                   661
          charge                     :                     0
          spin                       :                   0.5
          first test random number   :      0.31164823789233

   ID    Z sym.   atoms
    1   27 Co     1, 37, 89, 124, 159
    2    6 C      2-9, 11-15, 17-21, 23, 24, 38-45, 47-51, 53-57, 59, 60,
                  73-88, 90-97, 99-103, 105-109, 111, 112, 125-132, 134-138,
                  140-144, 146, 147, 160-167, 169-173, 175-179, 181, 182
    3    7 N      10, 16, 22, 25, 46, 52, 58, 61, 98, 104, 110, 113, 133,
                  139, 145, 148, 168, 174, 180, 183
    4    1 H      26-36, 62-72, 114-123, 149-158, 184-193

           -------------------------------------------------
          |                 G F N 2 - x T B                 |
           -------------------------------------------------

        Reference                      10.1021/acs.jctc.8b01176
      * Hamiltonian:
        H0-scaling (s, p, d)           1.850000    2.230000    2.230000
        zeta-weighting                 0.500000
      * Dispersion:
        s8                             2.700000
        a1                             0.520000
        a2                             5.000000
        s9                             5.000000
      * Repulsion:
        kExp                           1.500000    1.000000
        rExp                           1.000000
      * Coulomb:
        alpha                          2.000000
        third order                    shell-resolved
        anisotropic                    true
        a3                             3.000000
        a5                             4.000000
        cn-shift                       1.200000
        cn-exp                         4.000000
        max-rad                        5.000000


          ...................................................
          :                      SETUP                      :
          :.................................................:
          :  # basis functions                 646          :
          :  # atomic orbitals                 641          :
          :  # shells                          339          :
          :  # electrons                       661          :
          :  max. iterations                   250          :
          :  Hamiltonian                  GFN2-xTB          :
          :  restarted?                      false          :
          :  GBSA solvation                  false          :
          :  PC potential                    false          :
          :  electronic temp.          300.0000000     K    :
          :  accuracy                    1.0000000          :
          :  -> integral cutoff          0.2500000E+02      :
          :  -> integral neglect         0.1000000E-07      :
          :  -> SCF convergence          0.1000000E-05 Eh   :
          :  -> wf. convergence          0.1000000E-03 e    :
          :  Broyden damping             0.4000000          :
          ...................................................

 iter      E             dE          RMSdq      gap      omega  full diag
   1   -356.6711215 -0.356671E+03  0.768E+00    0.19       0.0  T
   2   -338.2751790  0.183959E+02  0.925E+00    0.01       1.0  T
   3   -342.6104567 -0.433528E+01  0.644E+00    0.01       1.0  T
   4    -70.8565572  0.271754E+03  0.131E+01    0.00       1.0  T
   5   -293.4818508 -0.222625E+03  0.925E+00    0.11       1.0  T
   6   -320.6492168 -0.271674E+02  0.733E+00    0.09       1.0  T
   7   -327.5260643 -0.687685E+01  0.550E+00    0.07       1.0  T
   8   -306.5620293  0.209640E+02  0.769E+00    0.01       1.0  T
   9   -336.2080608 -0.296460E+02  0.608E+00    0.06       1.0  T
  10   -332.2142150  0.399385E+01  0.588E+00    0.16       1.0  T
  11   -346.7536221 -0.145394E+02  0.412E+00    0.06       1.0  T
  12   -343.5146631  0.323896E+01  0.531E+00    0.00       1.0  T
  13   -345.6123701 -0.209771E+01  0.474E+00    0.07       1.0  T
  14   -346.8990534 -0.128668E+01  0.451E+00    0.06       1.0  T
  15   -351.0544870 -0.415543E+01  0.396E+00    0.01       1.0  T
  16   -349.1361605  0.191833E+01  0.420E+00    0.00       1.0  T
  17   -348.7980577  0.338103E+00  0.418E+00    0.04       1.0  T
  18   -350.0870788 -0.128902E+01  0.373E+00    0.01       1.0  T
  19   -351.7363987 -0.164932E+01  0.349E+00    0.01       1.0  T
  20   -351.1258125  0.610586E+00  0.377E+00    0.06       1.0  T
  21   -348.3991629  0.272665E+01  0.381E+00    0.05       1.0  T
  22   -352.0459004 -0.364674E+01  0.302E+00    0.01       1.0  T
  23   -353.2368151 -0.119091E+01  0.294E+00    0.01       1.0  T
  24   -353.3075399 -0.707247E-01  0.300E+00    0.01       1.0  T
  25   -352.7446083  0.562932E+00  0.375E+00    0.06       1.0  T
  26   -351.0032231  0.174139E+01  0.502E+00    0.01       1.0  T
  27   -350.8743116  0.128912E+00  0.520E+00    0.04       1.0  T
  28   -350.7866740  0.876377E-01  0.518E+00    0.00       1.0  T
  29   -350.5919085  0.194765E+00  0.526E+00    0.01       1.0  T
  30   -349.9408368  0.651072E+00  0.544E+00    0.03       1.0  T
  31   -348.2607918  0.168005E+01  0.556E+00    0.01       1.0  T
  32   -345.6638026  0.259699E+01  0.611E+00    0.03       1.0  T
  33   -345.1306760  0.533127E+00  0.622E+00    0.00       1.0  T
  34   -349.1537396 -0.402306E+01  0.543E+00    0.00       1.0  T
  35   -347.2240284  0.192971E+01  0.579E+00    0.03       1.0  T
  36   -346.2131466  0.101088E+01  0.600E+00    0.31       1.0  T
  37   -345.2157275  0.997419E+00  0.607E+00    0.45       1.0  T
  38   -345.2263683 -0.106408E-01  0.605E+00    0.54       1.0  T
  39   -346.7682399 -0.154187E+01  0.589E+00    0.39       1.0  T
  40   -348.2435105 -0.147527E+01  0.546E+00    0.06       1.0  T
  41   -352.6070539 -0.436354E+01  0.418E+00    0.02       1.0  T
  42   -354.5173897 -0.191034E+01  0.353E+00    0.00       1.0  T
  43   -354.2062323  0.311157E+00  0.362E+00    0.00       1.0  T
  44   -351.2884693  0.291776E+01  0.429E+00    0.05       1.0  T
  45   -351.2759045  0.125648E-01  0.424E+00    0.04       1.0  T
  46   -348.7739202  0.250198E+01  0.458E+00    0.05       1.0  T
  47   -348.8210134 -0.470932E-01  0.457E+00    0.05       1.0  T
  48   -349.9618509 -0.114084E+01  0.415E+00    0.03       1.0  T
  49   -355.4567040 -0.549485E+01  0.286E+00    0.01       1.0  T
  50   -356.5151744 -0.105847E+01  0.307E+00    0.02       1.0  T
  51   -356.7911573 -0.275983E+00  0.264E+00    0.01       1.0  T
  52   -356.5095442  0.281613E+00  0.313E+00    0.02       1.0  T
  53   -356.6737674 -0.164223E+00  0.302E+00    0.02       1.0  T
  54   -356.2173462  0.456421E+00  0.339E+00    0.01       1.0  T
  55   -353.7200894  0.249726E+01  0.451E+00    0.01       1.0  T
  56   -353.6294694  0.906201E-01  0.456E+00    0.00       1.0  T
  57   -354.9997148 -0.137025E+01  0.403E+00    0.01       1.0  T
  58   -355.6942825 -0.694568E+00  0.369E+00    0.01       1.0  T
  59   -354.7666559  0.927627E+00  0.407E+00    0.03       1.0  T
  60   -356.2497457 -0.148309E+01  0.341E+00    0.00       1.0  T
  61   -356.2726352 -0.228895E-01  0.341E+00    0.00       1.0  T
  62   -355.8712776  0.401358E+00  0.352E+00    0.01       1.0  T
  63   -356.0601547 -0.188877E+00  0.341E+00    0.01       1.0  T
  64   -356.1122845 -0.521298E-01  0.335E+00    0.01       1.0  T
  65   -355.9736207  0.138664E+00  0.323E+00    0.02       1.0  T
  66   -356.1050395 -0.131419E+00  0.297E+00    0.09       1.0  T
  67   -356.2234548 -0.118415E+00  0.310E+00    0.03       1.0  T
  68   -356.0808395  0.142615E+00  0.303E+00    0.03       1.0  T
  69   -356.3271360 -0.246297E+00  0.284E+00    0.07       1.0  T
  70   -356.7030252 -0.375889E+00  0.270E+00    0.02       1.0  T
  71   -356.7087067 -0.568154E-02  0.272E+00    0.02       1.0  T
  72   -356.9432096 -0.234503E+00  0.252E+00    0.01       1.0  T
  73   -356.9500864 -0.687682E-02  0.259E+00    0.02       1.0  T
  74   -356.9520446 -0.195814E-02  0.271E+00    0.03       1.0  T
  75   -356.8262921  0.125752E+00  0.275E+00    0.04       1.0  T
  76   -356.8902727 -0.639806E-01  0.272E+00    0.02       1.0  T
  77   -356.9075443 -0.172716E-01  0.266E+00    0.04       1.0  T
  78   -356.9532349 -0.456906E-01  0.258E+00    0.01       1.0  T
  79   -356.5778262  0.375409E+00  0.274E+00    0.03       1.0  T
  80   -356.5731853  0.464095E-02  0.274E+00    0.03       1.0  T
  81   -356.9631305 -0.389945E+00  0.257E+00    0.02       1.0  T
  82   -356.9434662  0.196643E-01  0.256E+00    0.02       1.0  T
  83   -356.9384956  0.497063E-02  0.258E+00    0.01       1.0  T
  84   -356.9424735 -0.397791E-02  0.257E+00    0.01       1.0  T
  85   -356.9504643 -0.799082E-02  0.256E+00    0.01       1.0  T
  86   -356.8618798  0.885846E-01  0.262E+00    0.01       1.0  T
  87   -357.0727013 -0.210822E+00  0.249E+00    0.01       1.0  T
  88   -357.1379440 -0.652428E-01  0.245E+00    0.01       1.0  T
  89   -356.7007523  0.437192E+00  0.274E+00    0.02       1.0  T
  90   -356.6338685  0.668838E-01  0.275E+00    0.01       1.0  T
  91   -356.8590223 -0.225154E+00  0.254E+00    0.02       1.0  T
  92   -355.8788897  0.980133E+00  0.316E+00    0.05       1.0  T
  93   -356.0438088 -0.164919E+00  0.307E+00    0.05       1.0  T
  94   -356.2978383 -0.254029E+00  0.289E+00    0.01       1.0  T
  95   -356.4450538 -0.147216E+00  0.280E+00    0.02       1.0  T
  96   -356.4898055 -0.447517E-01  0.277E+00    0.02       1.0  T
  97   -356.7684406 -0.278635E+00  0.259E+00    0.04       1.0  T
  98   -356.4297608  0.338680E+00  0.279E+00    0.02       1.0  T
  99   -356.8204739 -0.390713E+00  0.256E+00    0.04       1.0  T
 100   -356.6475122  0.172962E+00  0.268E+00    0.04       1.0  T
 101   -356.8438346 -0.196322E+00  0.257E+00    0.04       1.0  T
 102   -357.0031807 -0.159346E+00  0.249E+00    0.04       1.0  T
 103   -357.0797903 -0.766096E-01  0.246E+00    0.04       1.0  T
 104   -357.0490778  0.307126E-01  0.250E+00    0.04       1.0  T
 105   -357.0640610 -0.149833E-01  0.249E+00    0.04       1.0  T
 106   -357.3201944 -0.256133E+00  0.235E+00    0.02       1.0  T
 107   -357.4131793 -0.929849E-01  0.229E+00    0.00       1.0  T
 108   -357.1555062  0.257673E+00  0.246E+00    0.04       1.0  T
 109   -356.4993057  0.656200E+00  0.285E+00    0.03       1.0  T
 110   -356.4055781  0.937276E-01  0.290E+00    0.02       1.0  T
 111   -356.4057576 -0.179425E-03  0.290E+00    0.02       1.0  T
 112   -356.1241694  0.281588E+00  0.303E+00    0.00       1.0  T
 113   -356.1460856 -0.219162E-01  0.298E+00    0.01       1.0  T
 114   -357.0380865 -0.892001E+00  0.242E+00    0.03       1.0  T
 115   -357.2197843 -0.181698E+00  0.230E+00    0.02       1.0  T
 116   -357.2078589  0.119254E-01  0.223E+00    0.01       1.0  T
 117   -356.7962112  0.411648E+00  0.250E+00    0.01       1.0  T
 118   -356.2421317  0.554079E+00  0.280E+00    0.03       1.0  T
 119   -355.6441219  0.598010E+00  0.310E+00    0.03       1.0  T
 120   -355.5022338  0.141888E+00  0.317E+00    0.03       1.0  T
 121   -355.4698428  0.323909E-01  0.318E+00    0.03       1.0  T
 122   -355.5822392 -0.112396E+00  0.311E+00    0.03       1.0  T
 123   -356.4721909 -0.889952E+00  0.261E+00    0.03       1.0  T
 124   -356.3935594  0.786314E-01  0.263E+00    0.04       1.0  T
 125   -355.9100398  0.483520E+00  0.291E+00    0.04       1.0  T
 126   -355.8960830  0.139568E-01  0.290E+00    0.04       1.0  T
 127   -355.9791321 -0.830492E-01  0.285E+00    0.03       1.0  T
 128   -356.3317861 -0.352654E+00  0.265E+00    0.03       1.0  T
 129   -356.7857729 -0.453987E+00  0.237E+00    0.02       1.0  T
 130   -356.5979140  0.187859E+00  0.250E+00    0.02       1.0  T
 131   -356.5613265  0.365875E-01  0.252E+00    0.02       1.0  T
 132   -357.0218023 -0.460476E+00  0.221E+00    0.01       1.0  T
 133   -357.1557760 -0.133974E+00  0.210E+00    0.00       1.0  T
 134   -357.1169684  0.388076E-01  0.213E+00    0.01       1.0  T
 135   -357.4379829 -0.321015E+00  0.180E+00    0.01       1.0  T
 136   -357.1820926  0.255890E+00  0.204E+00    0.01       1.0  T
 137   -357.4911339 -0.309041E+00  0.172E+00    0.00       1.0  T
 138   -357.4490551  0.420788E-01  0.177E+00    0.00       1.0  T
 139   -357.5410864 -0.920313E-01  0.160E+00    0.01       1.0  T
 140   -357.4484083  0.926781E-01  0.175E+00    0.00       1.0  T
 141   -357.5025121 -0.541037E-01  0.145E+00    0.00       1.0  T
 142   -357.6606880 -0.158176E+00  0.144E+00    0.02       1.0  T
 143   -357.6118684  0.488196E-01  0.127E+00    0.00       1.0  T
 144   -357.7732806 -0.161412E+00  0.118E+00    0.01       1.0  T
 145   -357.7742797 -0.999146E-03  0.106E+00    0.01       1.0  T
 146   -357.7842902 -0.100105E-01  0.106E+00    0.01       1.0  T
 147   -357.8197288 -0.354386E-01  0.101E+00    0.01       1.0  T
 148   -357.8182795  0.144938E-02  0.977E-01    0.00       1.0  T
 149   -357.7536282  0.646513E-01  0.107E+00    0.00       1.0  T
 150   -357.7850365 -0.314083E-01  0.102E+00    0.00       1.0  T
 151   -357.8119131 -0.268766E-01  0.937E-01    0.00       1.0  T
 152   -358.0162180 -0.204305E+00  0.590E-01    0.00       1.0  T
 153   -358.0148772  0.134083E-02  0.616E-01    0.00       1.0  T
 154   -357.9844437  0.304335E-01  0.759E-01    0.02       1.0  T
 155   -358.0342222 -0.497785E-01  0.586E-01    0.00       1.0  T
 156   -357.5115825  0.522640E+00  0.145E+00    0.00       1.0  T
 157   -357.9843518 -0.472769E+00  0.632E-01    0.01       1.0  T
 158   -357.2162200  0.768132E+00  0.175E+00    0.01       1.0  T
 159   -358.0374495 -0.821229E+00  0.655E-01    0.00       1.0  T
 160   -357.1117102  0.925739E+00  0.184E+00    0.01       1.0  T
 161   -357.9652917 -0.853582E+00  0.836E-01    0.02       1.0  T
 162   -357.8534449  0.111847E+00  0.102E+00    0.04       1.0  T
 163   -357.8681466 -0.147017E-01  0.951E-01    0.01       1.0  T
 164   -357.9450384 -0.768918E-01  0.740E-01    0.01       1.0  T
 165   -358.0068305 -0.617922E-01  0.758E-01    0.01       1.0  T
 166   -357.9776509  0.291796E-01  0.810E-01    0.01       1.0  T
 167   -357.6769187  0.300732E+00  0.128E+00    0.01       1.0  T
 168   -357.9408744 -0.263956E+00  0.900E-01    0.00       1.0  T
 169   -357.6545391  0.286335E+00  0.131E+00    0.00       1.0  T
 170   -357.8568542 -0.202315E+00  0.104E+00    0.00       1.0  T
 171   -357.7414362  0.115418E+00  0.120E+00    0.01       1.0  T
 172   -357.8149470 -0.735107E-01  0.111E+00    0.01       1.0  T
 173   -357.8205768 -0.562978E-02  0.110E+00    0.01       1.0  T
 174   -357.8167833  0.379351E-02  0.110E+00    0.01       1.0  T
 175   -357.6261365  0.190647E+00  0.134E+00    0.00       1.0  T
 176   -357.7613018 -0.135165E+00  0.118E+00    0.01       1.0  T
 177   -357.7217273  0.395745E-01  0.122E+00    0.01       1.0  T
 178   -357.9796842 -0.257957E+00  0.788E-01    0.01       1.0  T
 179   -358.0435884 -0.639042E-01  0.595E-01    0.01       1.0  T
 180   -358.0744117 -0.308233E-01  0.406E-01    0.00       1.0  T
 181   -358.0770089 -0.259729E-02  0.339E-01    0.00       1.0  T
 182   -358.0982799 -0.212709E-01  0.238E-01    0.00       1.0  T
 183   -358.0931937  0.508618E-02  0.222E-01    0.00       1.0  T
 184   -358.0835190  0.967464E-02  0.312E-01    0.00       1.0  T
 185   -358.0956481 -0.121290E-01  0.193E-01    0.00       1.0  T
 186   -358.0852672  0.103808E-01  0.285E-01    0.00       1.0  T
 187   -358.0829304  0.233684E-02  0.290E-01    0.00       1.0  T
 188   -358.0893762 -0.644575E-02  0.252E-01    0.00       1.0  T
 189   -358.0911664 -0.179023E-02  0.237E-01    0.00       1.0  T
 190   -358.0985252 -0.735877E-02  0.167E-01    0.00       1.0  T
 191   -358.0988567 -0.331520E-03  0.162E-01    0.00       1.0  T
 192   -358.1018717 -0.301507E-02  0.114E-01    0.00       1.0  T
 193   -358.1020047 -0.132907E-03  0.112E-01    0.00       1.0  T
 194   -358.1022769 -0.272281E-03  0.957E-02    0.00       1.0  T
 195   -358.1023673 -0.903867E-04  0.979E-02    0.00       1.0  T
 196   -358.1025348 -0.167492E-03  0.905E-02    0.00       1.0  T
 197   -358.1028990 -0.364196E-03  0.802E-02    0.00       1.0  T
 198   -358.1032812 -0.382241E-03  0.674E-02    0.00       1.0  T
 199   -358.1035999 -0.318609E-03  0.546E-02    0.00       1.0  T
 200   -358.1038595 -0.259667E-03  0.441E-02    0.00       1.0  T
 201   -358.1037867  0.728157E-04  0.425E-02    0.00       1.0  T
 202   -358.1035233  0.263427E-03  0.505E-02    0.00       1.0  T
 203   -358.1040332 -0.509940E-03  0.336E-02    0.00       1.0  T
 204   -358.1039554  0.778039E-04  0.373E-02    0.00       1.0  T
 205   -358.1042904 -0.334986E-03  0.226E-02    0.00       1.0  T
 206   -358.1043678 -0.773949E-04  0.174E-02    0.00       1.0  T
 207   -358.1044297 -0.619229E-04  0.113E-02    0.00       1.0  T
 208   -358.1044386 -0.889514E-05  0.938E-03    0.00       1.0  T
 209   -358.1044112  0.273928E-04  0.128E-02    0.00       1.0  T
 210   -358.1044258 -0.145325E-04  0.104E-02    0.00       1.0  T
 211   -358.1044232  0.258877E-05  0.107E-02    0.00       1.0  T
 212   -358.1044098  0.133895E-04  0.122E-02    0.00       1.0  T
 213   -358.1044351 -0.253083E-04  0.821E-03    0.00       1.0  T
 214   -358.1044337  0.134798E-05  0.877E-03    0.00       1.0  T
 215   -358.1044532 -0.194533E-04  0.444E-03    0.00       1.6  T
 216   -358.1044550 -0.180467E-05  0.398E-03    0.00       1.8  T
 217   -358.1044578 -0.277430E-05  0.293E-03    0.00       2.5  T
 218   -358.1044593 -0.157961E-05  0.233E-03    0.00       3.1  T
 219   -358.1044594 -0.407638E-07  0.241E-03    0.00       3.0  T
 220   -358.1044599 -0.483082E-06  0.188E-03    0.00       3.8  T
 221   -358.1044600 -0.122404E-06  0.159E-03    0.00       4.5  T
 222   -358.1044592  0.820484E-06  0.222E-03    0.00       3.2  T
 223   -358.1044607 -0.147551E-05  0.565E-04    0.00      12.7  T
 224   -358.1044605  0.103532E-06  0.785E-04    0.00       9.2  T
 225   -358.1044605  0.417790E-07  0.767E-04    0.00       9.4  T

   *** convergence criteria satisfied after 225 iterations ***

         #    Occupation            Energy/Eh            Energy/eV
      -------------------------------------------------------------
         1        2.0000           -0.6699871             -18.2313
       ...           ...                  ...                  ...
       325        1.8244           -0.3483510              -9.4791
       326        1.8243           -0.3483503              -9.4791
       327        1.8183           -0.3483156              -9.4782
       328        1.8182           -0.3483149              -9.4781
       329        1.4415           -0.3470169              -9.4428
       330        1.4359           -0.3470034              -9.4424
       331        1.4296           -0.3469885              -9.4420 (HOMO)
       332        1.4233           -0.3469736              -9.4416 (LUMO)
       333        1.4223           -0.3469713              -9.4416
       334                         -0.3144696              -8.5572
       335                         -0.3092496              -8.4151
       336                         -0.3025858              -8.2338
       ...                                ...                  ...
       641                          1.6349432              44.4891
      -------------------------------------------------------------
                  HL-Gap            0.0000149 Eh            0.0004 eV
             Fermi-level           -0.3461027 Eh           -9.4179 eV

 SCC (total)                   0 d,  0 h,  0 min, 24.943 sec
 SCC setup                      ...        0 min,  0.007 sec (  0.029%)
 Dispersion                     ...        0 min,  0.014 sec (  0.057%)
 classical contributions        ...        0 min,  0.002 sec (  0.006%)
 integral evaluation            ...        0 min,  0.120 sec (  0.479%)
 iterations                     ...        0 min, 24.463 sec ( 98.076%)
 molecular gradient             ...        0 min,  0.324 sec (  1.299%)
 printout                       ...        0 min,  0.013 sec (  0.054%)

         :::::::::::::::::::::::::::::::::::::::::::::::::::::
         ::                     SUMMARY                     ::
         :::::::::::::::::::::::::::::::::::::::::::::::::::::
         :: total energy            -351.740150491175 Eh    ::
         :: gradient norm              0.000687832285 Eh/a0 ::
         :: HOMO-LUMO gap              0.000404687762 eV    ::
         ::.................................................::
         :: SCC energy              -358.104460505137 Eh    ::
         :: -> isotropic ES            0.081243384717 Eh    ::
         :: -> anisotropic ES          0.040288393915 Eh    ::
         :: -> anisotropic XC          0.196984153635 Eh    ::
         :: -> dispersion             -0.314794973706 Eh    ::
         :: repulsion energy           6.369599263313 Eh    ::
         :: add. restraining           0.000000000000 Eh    ::
         :: total charge               0.000000000003 e     ::
         :::::::::::::::::::::::::::::::::::::::::::::::::::::

           -------------------------------------------------
          |                Property Printout                |
           -------------------------------------------------

    * Orbital Energies and Occupations

         #    Occupation            Energy/Eh            Energy/eV
      -------------------------------------------------------------
         1        2.0000           -0.6699871             -18.2313
       ...           ...                  ...                  ...
       319        1.8736           -0.3486898              -9.4883
       320        1.8634           -0.3486113              -9.4862
       321        1.8581           -0.3485717              -9.4851
       322        1.8547           -0.3485477              -9.4845
       323        1.8540           -0.3485426              -9.4843
       324        1.8248           -0.3483535              -9.4792
       325        1.8244           -0.3483510              -9.4791
       326        1.8243           -0.3483503              -9.4791
       327        1.8183           -0.3483156              -9.4782
       328        1.8182           -0.3483149              -9.4781
       329        1.4415           -0.3470169              -9.4428
       330        1.4359           -0.3470034              -9.4424
       331        1.4296           -0.3469885              -9.4420 (HOMO)
       332        1.4233           -0.3469736              -9.4416 (LUMO)
       333        1.4223           -0.3469713              -9.4416
       334                         -0.3144696              -8.5572
       335                         -0.3092496              -8.4151
       336                         -0.3025858              -8.2338
       337                         -0.2974562              -8.0942
       338                         -0.2974233              -8.0933
       339                         -0.2974153              -8.0931
       340                         -0.2969542              -8.0805
       341                         -0.2969392              -8.0801
       342                         -0.2958990              -8.0518
       ...                                ...                  ...
       641                          1.6349432              44.4891
      -------------------------------------------------------------
                  HL-Gap            0.0000149 Eh            0.0004 eV
             Fermi-level           -0.3461027 Eh           -9.4179 eV

     #   Z          covCN         q      C6AA      α(0)
     1  27 Co       3.054     0.103   140.879    24.318
     2   6 C        3.025    -0.053    29.289     8.877
     3   6 C        3.022    -0.051    29.250     8.871
     4   6 C        3.195     0.073    25.877     8.293
     5   6 C        2.957     0.017    27.620     8.620
     6   6 C        3.195     0.073    25.878     8.294
     7   6 C        3.022    -0.051    29.249     8.871
     8   6 C        3.025    -0.053    29.289     8.877
     9   6 C        3.181     0.072    25.984     8.321
    10   7 N        2.630    -0.131    23.857     7.254
    11   6 C        2.905    -0.050    29.241     8.867
    12   6 C        3.177     0.073    25.980     8.323
    13   6 C        3.021    -0.052    29.269     8.874
    14   6 C        3.022    -0.052    29.271     8.875
    15   6 C        3.177     0.073    25.974     8.322
    16   7 N        2.631    -0.130    23.822     7.249
    17   6 C        2.905    -0.052    29.284     8.873
    18   6 C        3.177     0.073    25.974     8.322
    19   6 C        3.022    -0.052    29.271     8.875
    20   6 C        3.021    -0.052    29.269     8.874
    21   6 C        3.177     0.073    25.980     8.323
    22   7 N        2.631    -0.130    23.821     7.249
    23   6 C        2.905    -0.050    29.241     8.867
    24   6 C        3.181     0.072    25.984     8.321
    25   7 N        2.629    -0.131    23.857     7.254
    26   1 H        0.926     0.034     2.527     2.486
    27   1 H        0.926     0.036     2.499     2.472
    28   1 H        0.926     0.036     2.498     2.472
    29   1 H        0.926     0.034     2.527     2.486
    30   1 H        0.926     0.050     2.322     2.383
    31   1 H        0.926     0.035     2.520     2.482
    32   1 H        0.926     0.035     2.521     2.483
    33   1 H        0.926     0.049     2.329     2.387
    34   1 H        0.926     0.035     2.521     2.483
    35   1 H        0.926     0.035     2.520     2.482
    36   1 H        0.926     0.050     2.322     2.383
    37  27 Co       3.055     0.103   140.879    24.318
    38   6 C        3.025    -0.053    29.289     8.877
    39   6 C        3.022    -0.051    29.249     8.871
    40   6 C        3.195     0.073    25.879     8.294
    41   6 C        2.957     0.017    27.620     8.620
    42   6 C        3.195     0.073    25.878     8.294
    43   6 C        3.022    -0.051    29.249     8.871
    44   6 C        3.025    -0.053    29.289     8.877
    45   6 C        3.181     0.072    25.984     8.321
    46   7 N        2.630    -0.131    23.856     7.254
    47   6 C        2.905    -0.050    29.241     8.867
    48   6 C        3.177     0.073    25.981     8.323
    49   6 C        3.021    -0.052    29.269     8.874
    50   6 C        3.022    -0.052    29.271     8.875
    51   6 C        3.177     0.073    25.974     8.322
    52   7 N        2.631    -0.130    23.822     7.249
    53   6 C        2.905    -0.052    29.284     8.873
    54   6 C        3.177     0.073    25.974     8.322
    55   6 C        3.022    -0.052    29.271     8.875
    56   6 C        3.021    -0.052    29.269     8.874
    57   6 C        3.177     0.073    25.981     8.323
    58   7 N        2.631    -0.130    23.821     7.249
    59   6 C        2.905    -0.050    29.241     8.867
    60   6 C        3.181     0.072    25.984     8.321
    61   7 N        2.630    -0.131    23.857     7.254
    62   1 H        0.926     0.034     2.527     2.486
    63   1 H        0.926     0.036     2.499     2.472
    64   1 H        0.926     0.036     2.498     2.472
    65   1 H        0.926     0.034     2.527     2.486
    66   1 H        0.926     0.050     2.322     2.383
    67   1 H        0.926     0.035     2.520     2.482
    68   1 H        0.926     0.035     2.521     2.483
    69   1 H        0.926     0.049     2.329     2.387
    70   1 H        0.926     0.035     2.521     2.483
    71   1 H        0.926     0.035     2.520     2.482
    72   1 H        0.926     0.050     2.322     2.383
    73   6 C        1.993    -0.021    31.608     9.079
    74   6 C        1.963    -0.010    31.329     9.039
    75   6 C        1.963    -0.010    31.323     9.038
    76   6 C        1.993    -0.021    31.614     9.080
    77   6 C        1.993    -0.021    31.608     9.079
    78   6 C        1.963    -0.010    31.324     9.038
    79   6 C        1.963    -0.010    31.323     9.038
    80   6 C        1.993    -0.021    31.608     9.079
    81   6 C        1.993    -0.021    31.608     9.079
    82   6 C        1.963    -0.010    31.323     9.038
    83   6 C        1.963    -0.010    31.324     9.038
    84   6 C        1.993    -0.021    31.608     9.079
    85   6 C        1.993    -0.021    31.613     9.080
    86   6 C        1.963    -0.010    31.322     9.038
    87   6 C        1.963    -0.010    31.329     9.039
    88   6 C        1.993    -0.021    31.607     9.079
    89  27 Co       3.048     0.103   140.885    24.318
    90   6 C        3.025    -0.053    29.288     8.877
    91   6 C        3.023    -0.051    29.252     8.872
    92   6 C        3.197     0.073    25.861     8.290
    93   6 C        2.957     0.017    27.619     8.620
    94   6 C        3.197     0.073    25.862     8.290
    95   6 C        3.023    -0.051    29.251     8.872
    96   6 C        3.025    -0.053    29.288     8.877
    97   6 C        3.183     0.072    25.978     8.319
    98   7 N        2.629    -0.132    23.871     7.256
    99   6 C        2.905    -0.048    29.191     8.859
   100   6 C        3.183     0.072    25.978     8.319
   101   6 C        3.025    -0.053    29.287     8.877
   102   6 C        3.023    -0.051    29.252     8.872
   103   6 C        3.197     0.073    25.861     8.290
   104   7 N        2.629    -0.132    23.873     7.257
   105   6 C        2.957     0.017    27.621     8.620
   106   6 C        3.197     0.073    25.860     8.289
   107   6 C        3.023    -0.051    29.252     8.872
   108   6 C        3.025    -0.053    29.287     8.877
   109   6 C        3.183     0.072    25.978     8.319
   110   7 N        2.629    -0.132    23.871     7.256
   111   6 C        2.905    -0.048    29.191     8.859
   112   6 C        3.183     0.072    25.978     8.319
   113   7 N        2.629    -0.132    23.870     7.256
   114   1 H        0.926     0.034     2.529     2.487
   115   1 H        0.926     0.036     2.503     2.474
   116   1 H        0.926     0.036     2.502     2.474
   117   1 H        0.926     0.034     2.529     2.487
   118   1 H        0.926     0.050     2.317     2.380
   119   1 H        0.926     0.034     2.529     2.487
   120   1 H        0.926     0.036     2.503     2.474
   121   1 H        0.926     0.036     2.502     2.474
   122   1 H        0.926     0.034     2.528     2.487
   123   1 H        0.926     0.050     2.317     2.380
   124  27 Co       3.048     0.103   140.886    24.318
   125   6 C        3.025    -0.053    29.287     8.877
   126   6 C        3.023    -0.051    29.251     8.872
   127   6 C        3.197     0.073    25.861     8.290
   128   6 C        2.957     0.017    27.619     8.620
   129   6 C        3.197     0.073    25.860     8.289
   130   6 C        3.023    -0.052    29.252     8.872
   131   6 C        3.025    -0.053    29.287     8.877
   132   6 C        3.183     0.072    25.978     8.319
   133   7 N        2.629    -0.132    23.870     7.256
   134   6 C        2.905    -0.048    29.189     8.859
   135   6 C        3.183     0.072    25.978     8.319
   136   6 C        3.025    -0.053    29.287     8.877
   137   6 C        3.023    -0.051    29.251     8.872
   138   6 C        3.197     0.073    25.860     8.290
   139   7 N        2.629    -0.132    23.870     7.256
   140   6 C        2.957     0.017    27.619     8.620
   141   6 C        3.197     0.073    25.861     8.290
   142   6 C        3.023    -0.051    29.252     8.872
   143   6 C        3.025    -0.053    29.287     8.877
   144   6 C        3.183     0.072    25.979     8.319
   145   7 N        2.629    -0.132    23.870     7.256
   146   6 C        2.905    -0.048    29.189     8.859
   147   6 C        3.183     0.072    25.979     8.319
   148   7 N        2.629    -0.132    23.871     7.256
   149   1 H        0.926     0.034     2.528     2.487
   150   1 H        0.926     0.036     2.503     2.474
   151   1 H        0.926     0.036     2.502     2.474
   152   1 H        0.926     0.034     2.528     2.486
   153   1 H        0.926     0.050     2.316     2.380
   154   1 H        0.926     0.034     2.528     2.487
   155   1 H        0.926     0.036     2.502     2.474
   156   1 H        0.926     0.036     2.502     2.474
   157   1 H        0.926     0.034     2.528     2.486
   158   1 H        0.926     0.050     2.316     2.380
   159  27 Co       3.048     0.103   140.885    24.318
   160   6 C        3.025    -0.053    29.287     8.877
   161   6 C        3.023    -0.051    29.251     8.872
   162   6 C        3.197     0.073    25.861     8.290
   163   6 C        2.957     0.017    27.621     8.620
   164   6 C        3.197     0.073    25.861     8.290
   165   6 C        3.023    -0.051    29.252     8.872
   166   6 C        3.025    -0.053    29.287     8.877
   167   6 C        3.183     0.072    25.979     8.319
   168   7 N        2.629    -0.132    23.871     7.256
   169   6 C        2.905    -0.048    29.191     8.859
   170   6 C        3.183     0.072    25.978     8.319
   171   6 C        3.025    -0.053    29.288     8.877
   172   6 C        3.023    -0.051    29.252     8.872
   173   6 C        3.197     0.073    25.861     8.290
   174   7 N        2.629    -0.132    23.871     7.256
   175   6 C        2.957     0.017    27.619     8.620
   176   6 C        3.197     0.073    25.863     8.290
   177   6 C        3.023    -0.051    29.250     8.871
   178   6 C        3.025    -0.053    29.288     8.877
   179   6 C        3.183     0.072    25.978     8.319
   180   7 N        2.629    -0.132    23.872     7.256
   181   6 C        2.905    -0.048    29.191     8.859
   182   6 C        3.183     0.072    25.979     8.319
   183   7 N        2.629    -0.132    23.871     7.256
   184   1 H        0.926     0.034     2.529     2.487
   185   1 H        0.926     0.036     2.503     2.474
   186   1 H        0.926     0.036     2.502     2.474
   187   1 H        0.926     0.034     2.528     2.487
   188   1 H        0.926     0.050     2.317     2.380
   189   1 H        0.926     0.034     2.529     2.487
   190   1 H        0.926     0.036     2.502     2.474
   191   1 H        0.926     0.036     2.502     2.474
   192   1 H        0.926     0.034     2.529     2.487
   193   1 H        0.926     0.050     2.317     2.380

 Mol. C6AA /au·bohr⁶  :     729415.458442
 Mol. C8AA /au·bohr⁸  :   21211518.803227
 Mol. α(0) /au        :       1402.061127


Wiberg/Mayer (AO) data.
largest (>0.10) Wiberg bond orders for each atom

 ---------------------------------------------------------------------------
     #   Z sym  total        # sym  WBO       # sym  WBO       # sym  WBO
 ---------------------------------------------------------------------------
     1  27 Co   3.326 --    22 N    0.724    16 N    0.724    10 N    0.722
                            25 N    0.722
     2   6 C    3.952 --     3 C    1.642    24 C    1.174    26 H    0.972
     3   6 C    3.956 --     2 C    1.642     4 C    1.183    27 H    0.970
     4   6 C    3.916 --    25 N    1.261     5 C    1.258     3 C    1.183
     5   6 C    3.947 --     6 C    1.258     4 C    1.258    73 C    1.178
     6   6 C    3.916 --    10 N    1.261     5 C    1.258     7 C    1.183
     7   6 C    3.956 --     8 C    1.642     6 C    1.183    28 H    0.970
     8   6 C    3.952 --     7 C    1.642     9 C    1.174    29 H    0.972
     9   6 C    3.929 --    11 C    1.359    10 N    1.228     8 C    1.174
    10   7 N    3.514 --     6 C    1.261     9 C    1.228     1 Co   0.722
    11   6 C    3.938 --     9 C    1.359    12 C    1.359    30 H    0.963
    12   6 C    3.934 --    11 C    1.359    16 N    1.239    13 C    1.166
    13   6 C    3.957 --    14 C    1.657    12 C    1.166    31 H    0.972
    14   6 C    3.954 --    13 C    1.657    15 C    1.165    32 H    0.972
    15   6 C    3.936 --    17 C    1.358    16 N    1.242    14 C    1.165
    16   7 N    3.510 --    15 C    1.242    12 C    1.239     1 Co   0.724
    17   6 C    3.935 --    15 C    1.358    18 C    1.358    33 H    0.964
    18   6 C    3.936 --    17 C    1.358    22 N    1.242    19 C    1.165
    19   6 C    3.954 --    20 C    1.657    18 C    1.165    34 H    0.972
    20   6 C    3.957 --    19 C    1.657    21 C    1.166    35 H    0.972
    21   6 C    3.934 --    23 C    1.359    22 N    1.239    20 C    1.166
    22   7 N    3.510 --    18 C    1.242    21 C    1.239     1 Co   0.724
    23   6 C    3.938 --    24 C    1.359    21 C    1.359    36 H    0.963
    24   6 C    3.929 --    23 C    1.359    25 N    1.228     2 C    1.174
    25   7 N    3.514 --     4 C    1.261    24 C    1.228     1 Co   0.722
    26   1 H    0.998 --     2 C    0.972
    27   1 H    0.998 --     3 C    0.970
    28   1 H    0.998 --     7 C    0.970
    29   1 H    0.998 --     8 C    0.972
    30   1 H    0.996 --    11 C    0.963
    31   1 H    0.998 --    13 C    0.972
    32   1 H    0.998 --    14 C    0.972
    33   1 H    0.996 --    17 C    0.964
    34   1 H    0.998 --    19 C    0.972
    35   1 H    0.998 --    20 C    0.972
    36   1 H    0.996 --    23 C    0.963
    37  27 Co   3.327 --    58 N    0.724    52 N    0.724    46 N    0.722
                            61 N    0.722
    38   6 C    3.952 --    39 C    1.642    60 C    1.174    62 H    0.972
    39   6 C    3.956 --    38 C    1.642    40 C    1.183    63 H    0.970
    40   6 C    3.916 --    61 N    1.261    41 C    1.258    39 C    1.183
    41   6 C    3.947 --    42 C    1.258    40 C    1.258    88 C    1.177
    42   6 C    3.916 --    46 N    1.261    41 C    1.258    43 C    1.183
    43   6 C    3.956 --    44 C    1.642    42 C    1.183    64 H    0.970
    44   6 C    3.952 --    43 C    1.642    45 C    1.174    65 H    0.972
    45   6 C    3.929 --    47 C    1.359    46 N    1.228    44 C    1.174
    46   7 N    3.514 --    42 C    1.261    45 C    1.228    37 Co   0.722
    47   6 C    3.938 --    45 C    1.359    48 C    1.359    66 H    0.963
    48   6 C    3.934 --    47 C    1.359    52 N    1.239    49 C    1.166
    49   6 C    3.957 --    50 C    1.657    48 C    1.166    67 H    0.972
    50   6 C    3.954 --    49 C    1.657    51 C    1.165    68 H    0.972
    51   6 C    3.936 --    53 C    1.358    52 N    1.242    50 C    1.165
    52   7 N    3.510 --    51 C    1.242    48 C    1.239    37 Co   0.724
    53   6 C    3.935 --    51 C    1.358    54 C    1.358    69 H    0.964
    54   6 C    3.936 --    53 C    1.358    58 N    1.242    55 C    1.165
    55   6 C    3.954 --    56 C    1.657    54 C    1.165    70 H    0.972
    56   6 C    3.957 --    55 C    1.657    57 C    1.166    71 H    0.972
    57   6 C    3.934 --    59 C    1.359    58 N    1.239    56 C    1.166
    58   7 N    3.510 --    54 C    1.242    57 C    1.239    37 Co   0.724
    59   6 C    3.938 --    60 C    1.359    57 C    1.359    72 H    0.963
    60   6 C    3.929 --    59 C    1.359    61 N    1.228    38 C    1.174
    61   7 N    3.514 --    40 C    1.261    60 C    1.228    37 Co   0.722
    62   1 H    0.998 --    38 C    0.972
    63   1 H    0.998 --    39 C    0.970
    64   1 H    0.998 --    43 C    0.970
    65   1 H    0.998 --    44 C    0.972
    66   1 H    0.996 --    47 C    0.963
    67   1 H    0.998 --    49 C    0.972
    68   1 H    0.998 --    50 C    0.972
    69   1 H    0.996 --    53 C    0.964
    70   1 H    0.998 --    55 C    0.972
    71   1 H    0.998 --    56 C    0.972
    72   1 H    0.996 --    59 C    0.963
    73   6 C    3.919 --    74 C    2.478     5 C    1.178    76 C    0.204
    74   6 C    3.931 --    73 C    2.478    75 C    1.300
    75   6 C    3.928 --    76 C    2.476    74 C    1.300
    76   6 C    3.920 --    75 C    2.476    93 C    1.180    73 C    0.204
    77   6 C    3.919 --    78 C    2.474   105 C    1.181    80 C    0.204
    78   6 C    3.928 --    77 C    2.474    79 C    1.302
    79   6 C    3.928 --    80 C    2.474    78 C    1.302
    80   6 C    3.919 --    79 C    2.474   128 C    1.181    77 C    0.204
    81   6 C    3.919 --    82 C    2.474   140 C    1.181    84 C    0.204
    82   6 C    3.928 --    81 C    2.474    83 C    1.302
    83   6 C    3.928 --    84 C    2.474    82 C    1.302
    84   6 C    3.919 --    83 C    2.474   163 C    1.181    81 C    0.204
    85   6 C    3.920 --    86 C    2.477   175 C    1.179    88 C    0.204
    86   6 C    3.928 --    85 C    2.477    87 C    1.300
    87   6 C    3.931 --    88 C    2.478    86 C    1.300
    88   6 C    3.919 --    87 C    2.478    41 C    1.177    85 C    0.204
    89  27 Co   3.302 --   113 N    0.718    98 N    0.718   110 N    0.718
                           104 N    0.718
    90   6 C    3.953 --    91 C    1.641   112 C    1.175   114 H    0.972
    91   6 C    3.955 --    90 C    1.641    92 C    1.183   115 H    0.970
    92   6 C    3.917 --   113 N    1.264    93 C    1.255    91 C    1.183
    93   6 C    3.937 --    94 C    1.256    92 C    1.255    76 C    1.180
    94   6 C    3.917 --    98 N    1.264    93 C    1.256    95 C    1.183
    95   6 C    3.955 --    96 C    1.641    94 C    1.183   116 H    0.970
    96   6 C    3.953 --    95 C    1.641    97 C    1.175   117 H    0.972
    97   6 C    3.928 --    99 C    1.359    98 N    1.226    96 C    1.175
    98   7 N    3.506 --    94 C    1.264    97 C    1.226    89 Co   0.718
    99   6 C    3.932 --   100 C    1.359    97 C    1.359   118 H    0.963
   100   6 C    3.928 --    99 C    1.359   104 N    1.226   101 C    1.175
   101   6 C    3.953 --   102 C    1.641   100 C    1.175   119 H    0.972
   102   6 C    3.955 --   101 C    1.641   103 C    1.184   120 H    0.970
   103   6 C    3.916 --   104 N    1.264   105 C    1.255   102 C    1.184
   104   7 N    3.505 --   103 C    1.264   100 C    1.226    89 Co   0.718
   105   6 C    3.937 --   103 C    1.255   106 C    1.255    77 C    1.181
   106   6 C    3.916 --   110 N    1.264   105 C    1.255   107 C    1.183
   107   6 C    3.955 --   108 C    1.641   106 C    1.183   121 H    0.970
   108   6 C    3.953 --   107 C    1.641   109 C    1.175   122 H    0.972
   109   6 C    3.928 --   111 C    1.359   110 N    1.226   108 C    1.175
   110   7 N    3.506 --   106 C    1.264   109 C    1.226    89 Co   0.718
   111   6 C    3.932 --   109 C    1.359   112 C    1.359   123 H    0.963
   112   6 C    3.928 --   111 C    1.359   113 N    1.226    90 C    1.175
   113   7 N    3.506 --    92 C    1.264   112 C    1.226    89 Co   0.718
   114   1 H    0.998 --    90 C    0.972
   115   1 H    0.998 --    91 C    0.970
   116   1 H    0.998 --    95 C    0.970
   117   1 H    0.998 --    96 C    0.972
   118   1 H    0.996 --    99 C    0.963
   119   1 H    0.998 --   101 C    0.972
   120   1 H    0.998 --   102 C    0.970
   121   1 H    0.998 --   107 C    0.970
   122   1 H    0.998 --   108 C    0.972
   123   1 H    0.996 --   111 C    0.963
   124  27 Co   3.302 --   145 N    0.718   133 N    0.718   139 N    0.718
                           148 N    0.718
   125   6 C    3.953 --   126 C    1.641   147 C    1.175   149 H    0.972
   126   6 C    3.955 --   125 C    1.641   127 C    1.184   150 H    0.970
   127   6 C    3.917 --   148 N    1.264   128 C    1.255   126 C    1.184
   128   6 C    3.936 --   127 C    1.255   129 C    1.255    80 C    1.181
   129   6 C    3.916 --   133 N    1.264   128 C    1.255   130 C    1.184
   130   6 C    3.955 --   131 C    1.641   129 C    1.184   151 H    0.970
   131   6 C    3.953 --   130 C    1.641   132 C    1.175   152 H    0.972
   132   6 C    3.928 --   134 C    1.359   133 N    1.226   131 C    1.175
   133   7 N    3.505 --   129 C    1.264   132 C    1.226   124 Co   0.718
   134   6 C    3.932 --   132 C    1.359   135 C    1.359   153 H    0.963
   135   6 C    3.928 --   134 C    1.359   139 N    1.226   136 C    1.175
   136   6 C    3.953 --   137 C    1.641   135 C    1.175   154 H    0.972
   137   6 C    3.955 --   136 C    1.641   138 C    1.184   155 H    0.970
   138   6 C    3.916 --   139 N    1.264   140 C    1.255   137 C    1.184
   139   7 N    3.505 --   138 C    1.264   135 C    1.226   124 Co   0.718
   140   6 C    3.936 --   138 C    1.255   141 C    1.255    81 C    1.181
   141   6 C    3.916 --   145 N    1.264   140 C    1.255   142 C    1.184
   142   6 C    3.955 --   143 C    1.641   141 C    1.184   156 H    0.970
   143   6 C    3.953 --   142 C    1.641   144 C    1.175   157 H    0.972
   144   6 C    3.928 --   146 C    1.359   145 N    1.226   143 C    1.175
   145   7 N    3.505 --   141 C    1.264   144 C    1.226   124 Co   0.718
   146   6 C    3.932 --   144 C    1.359   147 C    1.359   158 H    0.963
   147   6 C    3.928 --   146 C    1.359   148 N    1.226   125 C    1.175
   148   7 N    3.505 --   127 C    1.264   147 C    1.226   124 Co   0.718
   149   1 H    0.998 --   125 C    0.972
   150   1 H    0.998 --   126 C    0.970
   151   1 H    0.998 --   130 C    0.970
   152   1 H    0.998 --   131 C    0.972
   153   1 H    0.996 --   134 C    0.963
   154   1 H    0.998 --   136 C    0.972
   155   1 H    0.998 --   137 C    0.970
   156   1 H    0.998 --   142 C    0.970
   157   1 H    0.998 --   143 C    0.972
   158   1 H    0.996 --   146 C    0.963
   159  27 Co   3.303 --   180 N    0.718   168 N    0.718   174 N    0.718
                           183 N    0.718
   160   6 C    3.953 --   161 C    1.641   182 C    1.175   184 H    0.972
   161   6 C    3.955 --   160 C    1.641   162 C    1.183   185 H    0.970
   162   6 C    3.916 --   183 N    1.264   163 C    1.255   161 C    1.183
   163   6 C    3.937 --   162 C    1.255   164 C    1.255    84 C    1.181
   164   6 C    3.916 --   168 N    1.264   163 C    1.255   165 C    1.184
   165   6 C    3.955 --   166 C    1.641   164 C    1.184   186 H    0.970
   166   6 C    3.953 --   165 C    1.641   167 C    1.175   187 H    0.972
   167   6 C    3.928 --   169 C    1.359   168 N    1.226   166 C    1.175
   168   7 N    3.506 --   164 C    1.264   167 C    1.226   159 Co   0.718
   169   6 C    3.932 --   167 C    1.359   170 C    1.359   188 H    0.963
   170   6 C    3.928 --   169 C    1.359   174 N    1.226   171 C    1.175
   171   6 C    3.953 --   172 C    1.641   170 C    1.175   189 H    0.972
   172   6 C    3.955 --   171 C    1.641   173 C    1.183   190 H    0.970
   173   6 C    3.917 --   174 N    1.264   175 C    1.256   172 C    1.183
   174   7 N    3.506 --   173 C    1.264   170 C    1.226   159 Co   0.718
   175   6 C    3.937 --   176 C    1.256   173 C    1.256    85 C    1.179
   176   6 C    3.917 --   180 N    1.264   175 C    1.256   177 C    1.183
   177   6 C    3.955 --   178 C    1.641   176 C    1.183   191 H    0.970
   178   6 C    3.953 --   177 C    1.641   179 C    1.175   192 H    0.972
   179   6 C    3.928 --   181 C    1.359   180 N    1.226   178 C    1.175
   180   7 N    3.506 --   176 C    1.264   179 C    1.226   159 Co   0.718
   181   6 C    3.932 --   182 C    1.359   179 C    1.359   193 H    0.963
   182   6 C    3.928 --   181 C    1.359   183 N    1.226   160 C    1.175
   183   7 N    3.506 --   162 C    1.264   182 C    1.226   159 Co   0.718
   184   1 H    0.998 --   160 C    0.972
   185   1 H    0.998 --   161 C    0.970
   186   1 H    0.998 --   165 C    0.970
   187   1 H    0.998 --   166 C    0.972
   188   1 H    0.996 --   169 C    0.963
   189   1 H    0.998 --   171 C    0.972
   190   1 H    0.998 --   172 C    0.970
   191   1 H    0.998 --   177 C    0.970
   192   1 H    0.998 --   178 C    0.972
   193   1 H    0.996 --   181 C    0.963
 ---------------------------------------------------------------------------

Topologies differ in total number of bonds
Writing topology from bond orders to xtbtopo.mol

molecular dipole:
                 x           y           z       tot (Debye)
 q only:       -0.000      -0.001       0.005
   full:       -0.000      -0.002       0.005       0.014
molecular quadrupole (traceless):
                xx          xy          yy          xz          yz          zz
 q only:       85.536       0.145     -10.844       0.770      -2.202     -74.692
  q+dip:      147.948       0.218       4.474       0.942      -5.410    -152.421
   full:      110.035       0.175      -7.772       0.948      -3.284    -102.263


           -------------------------------------------------
          | TOTAL ENERGY             -351.740150491175 Eh   |
          | GRADIENT NORM               0.000687832285 Eh/α |
          | HOMO-LUMO GAP               0.000404687762 eV   |
           -------------------------------------------------

------------------------------------------------------------------------
 * finished run on 2021/11/20 at 15:57:23.484     
------------------------------------------------------------------------
 total:
 * wall-time:     0 d,  0 h,  0 min, 25.050 sec
 *  cpu-time:     0 d,  0 h,  0 min, 25.050 sec
 * ratio c/w:     1.000 speedup
 SCF:
 * wall-time:     0 d,  0 h,  0 min, 24.945 sec
 *  cpu-time:     0 d,  0 h,  0 min, 24.946 sec
 * ratio c/w:     1.000 speedup

