 Entering Gaussian System
 *********************************************
 Gaussian 98:
 frequency output generated by the xtb code
 *********************************************
                         Standard orientation:
 --------------------------------------------------------------------
  Center     Atomic     Atomic              Coordinates (Angstroms)
  Number     Number      Type              X           Y           Z
 --------------------------------------------------------------------
    1         26             0       33.700468    0.026999   -0.015559
    2          6             0       36.177212   -2.631954    2.109820
    3          6             0       37.174449   -1.894067    1.568388
    4          6             0       36.544289   -0.904176    0.749986
    5          6             0       37.228279    0.051069   -0.006718
    6          6             0       36.534293    0.999202   -0.763024
    7          6             0       37.154810    2.002609   -1.572404
    8          6             0       36.150230    2.729081   -2.115531
    9          6             0       34.921961    2.160622   -1.639824
   10          7             0       35.177552    1.095118   -0.817407
   11          6             0       33.684111    2.663387   -1.989994
   12          6             0       32.452470    2.174255   -1.602002
   13          6             0       31.213609    2.766796   -2.024343
   14          6             0       30.220432    2.026222   -1.483140
   15          6             0       30.855563    0.983511   -0.730828
   16          7             0       32.214215    1.087701   -0.807181
   17          6             0       30.190717   -0.003510   -0.031034
   18          6             0       30.866237   -0.977709    0.676395
   19          6             0       30.242185   -2.030139    1.424563
   20          6             0       31.242868   -2.751397    1.977671
   21          6             0       32.475235   -2.137910    1.566379
   22          7             0       32.225613   -1.057457    0.766310
   23          6             0       33.711359   -2.605162    1.966515
   24          6             0       34.943831   -2.084079    1.623829
   25          7             0       35.188804   -1.018950    0.797921
   26          1             0       36.250226   -3.468215    2.777944
   27          1             0       38.233798   -1.986272    1.705969
   28          1             0       38.213606    2.111320   -1.702004
   29          1             0       36.214774    3.570280   -2.778361
   30          1             0       33.680071    3.527548   -2.639242
   31          1             0       31.138245    3.633087   -2.653146
   32          1             0       29.158947    2.154454   -1.571729
   33          1             0       29.111834   -0.013537   -0.036899
   34          1             0       29.182309   -2.177071    1.502825
   35          1             0       31.176816   -3.617517    2.607749
   36          1             0       33.715942   -3.467337    2.618187
   37         26             0       77.997605    0.035680   -0.012332
   38          6             0       75.553208    2.819747    1.988030
   39          6             0       74.546754    2.080470    1.465772
   40          6             0       75.165724    1.042779    0.699397
   41          6             0       74.470650    0.062076   -0.012430
   42          6             0       75.151517   -0.928025   -0.725223
   43          6             0       74.517331   -1.956018   -1.492296
   44          6             0       75.512681   -2.710782   -2.013554
   45          6             0       76.748502   -2.136082   -1.565888
   46          7             0       76.507048   -1.039527   -0.781072
   47          6             0       77.980262   -2.660205   -1.906536
   48          6             0       79.217839   -2.171787   -1.537407
   49          6             0       80.449299   -2.789369   -1.945794
   50          6             0       81.451681   -2.048653   -1.422241
   51          6             0       80.829682   -0.980536   -0.694769
   52          7             0       79.469907   -1.068367   -0.770209
   53          6             0       81.507209    0.010353   -0.012768
   54          6             0       80.844407    1.010528    0.670198
   55          6             0       81.482025    2.068375    1.399034
   56          6             0       80.490607    2.822703    1.924114
   57          6             0       79.250202    2.224055    1.514796
   58          7             0       79.486090    1.118031    0.746079
   59          6             0       78.019889    2.730910    1.883449
   60          6             0       76.780472    2.226183    1.541110
   61          7             0       76.522791    1.133907    0.755704
   62          1             0       75.490455    3.685075    2.619210
   63          1             0       73.487652    2.201352    1.583294
   64          1             0       73.456690   -2.060366   -1.611351
   65          1             0       75.436984   -3.575151   -2.644622
   66          1             0       77.973580   -3.543648   -2.529183
   67          1             0       80.513405   -3.671581   -2.553390
   68          1             0       82.511456   -2.192359   -1.507571
   69          1             0       82.586127    0.002625   -0.013289
   70          1             0       82.543783    2.196453    1.484580
   71          1             0       80.567696    3.702797    2.533257
   72          1             0       78.026199    3.613680    2.507055
   73          6             0       38.629419    0.056910   -0.006954
   74          6             0       39.842095    0.059703   -0.010987
   75          6             0       49.705886    0.013764   -0.015371
   76          6             0       50.918660    0.003629   -0.013598
   77          6             0       60.780893    0.019707   -0.028142
   78          6             0       61.993888    0.031423   -0.022903
   79          6             0       71.856897    0.071515   -0.010060
   80          6             0       73.069325    0.069322   -0.010919
   81         26             0       44.774296    0.038171   -0.011632
   82          6             0       42.295587   -3.230749    0.926272
   83          6             0       41.298168   -2.362710    0.636442
   84          6             0       41.927752   -1.119598    0.311934
   85          6             0       41.242827    0.055011   -0.012153
   86          6             0       41.938360    1.223140   -0.336753
   87          6             0       41.320478    2.471335   -0.663745
   88          6             0       42.326235    3.330331   -0.952038
   89          6             0       43.552007    2.602759   -0.793341
   90          7             0       43.294182    1.314863   -0.402949
   91          6             0       44.789270    3.164385   -1.039756
   92          6             0       46.021026    2.555526   -0.902365
   93          6             0       47.253423    3.223510   -1.205924
   94          6             0       48.250804    2.351691   -0.927109
   95          6             0       47.621133    1.159256   -0.449017
   96          7             0       46.266564    1.285061   -0.451719
   97          6             0       48.305661    0.019954   -0.015942
   98          6             0       47.610571   -1.112094    0.418818
   99          6             0       48.229149   -2.311066    0.895082
  100          6             0       47.223479   -3.171729    1.178570
  101          6             0       45.997282   -2.490774    0.878535
  102          7             0       46.254769   -1.223521    0.425640
  103          6             0       44.759726   -3.087022    1.018424
  104          6             0       43.528065   -2.513879    0.770739
  105          7             0       43.282590   -1.223618    0.380329
  106          1             0       42.223152   -4.260792    1.217621
  107          1             0       40.239102   -2.529586    0.626230
  108          1             0       40.262782    2.647190   -0.657552
  109          1             0       42.263788    4.360553   -1.245026
  110          1             0       44.793962    4.191281   -1.377265
  111          1             0       47.325950    4.225485   -1.582621
  112          1             0       49.309781    2.479346   -1.036720
  113          1             0       49.287135   -2.450196    0.999961
  114          1             0       47.286564   -4.174184    1.555761
  115          1             0       44.754516   -4.113457    1.357174
  116         26             0       55.849396    0.009883   -0.016494
  117          6             0       53.392097   -3.405097   -0.108992
  118          6             0       52.389141   -2.496094   -0.130039
  119          6             0       53.010706   -1.209263   -0.061074
  120          6             0       52.318850    0.004446   -0.013514
  121          6             0       53.007109    1.220169    0.035225
  122          6             0       52.381878    2.504873    0.109279
  123          6             0       53.382070    3.416912    0.088795
  124          6             0       54.611590    2.682909    0.007665
  125          7             0       54.361881    1.335780   -0.007883
  126          6             0       55.844122    3.299674   -0.077212
  127          6             0       57.078407    2.684008   -0.141416
  128          6             0       58.305163    3.418198   -0.254730
  129          6             0       59.307855    2.508834   -0.246695
  130          6             0       58.687545    1.225878   -0.121058
  131          7             0       57.332641    1.339028   -0.076938
  132          6             0       59.380759    0.015514   -0.024216
  133          6             0       58.692330   -1.197277    0.075511
  134          6             0       59.317233   -2.478404    0.196721
  135          6             0       58.317313   -3.390854    0.209317
  136          6             0       57.087642   -2.660419    0.103140
  137          7             0       57.337482   -1.314682    0.038324
  138          6             0       55.854762   -3.279886    0.046029
  139          6             0       54.619771   -2.667264   -0.033737
  140          7             0       54.365910   -1.320831   -0.020797
  141          1             0       53.326321   -4.475520   -0.141135
  142          1             0       51.331233   -2.658740   -0.194634
  143          1             0       51.323774    2.664110    0.177912
  144          1             0       53.313260    4.487010    0.124803
  145          1             0       55.842499    4.380406   -0.096656
  146          1             0       58.370688    4.486412   -0.330478
  147          1             0       60.364791    2.668771   -0.327457
  148          1             0       60.375154   -2.635308    0.271204
  149          1             0       58.386503   -4.458966    0.283311
  150          1             0       55.856629   -4.360618    0.066417
  151         26             0       66.926038    0.054175   -0.022655
  152          6             0       64.477858   -3.267326   -0.853508
  153          6             0       63.472563   -2.377575   -0.679728
  154          6             0       64.089964   -1.134209   -0.334061
  155          6             0       63.394062    0.038479   -0.025434
  156          6             0       64.079297    1.217803    0.281907
  157          6             0       63.450549    2.456096    0.625010
  158          6             0       64.447664    3.355185    0.798021
  159          6             0       65.679513    2.657971    0.567435
  160          7             0       65.433775    1.344104    0.266202
  161          6             0       66.911067    3.279882    0.627643
  162          6             0       68.148198    2.693185    0.448859
  163          6             0       69.374554    3.433992    0.520180
  164          6             0       70.380421    2.545616    0.342731
  165          6             0       69.761634    1.267248    0.168355
  166          7             0       68.405784    1.367263    0.218635
  167          6             0       70.456021    0.067965   -0.011143
  168          6             0       69.771553   -1.136636   -0.194334
  169          6             0       70.401204   -2.410436   -0.363539
  170          6             0       69.403500   -3.306289   -0.549157
  171          6             0       68.171191   -2.574685   -0.487508
  172          7             0       68.416910   -1.246968   -0.254862
  173          6             0       66.940072   -3.171175   -0.675230
  174          6             0       65.703191   -2.559675   -0.619647
  175          7             0       65.445461   -1.248364   -0.317261
  176          1             0       64.414760   -4.305826   -1.115593
  177          1             0       62.415538   -2.525014   -0.781060
  178          1             0       62.392207    2.594384    0.725325
  179          1             0       64.375005    4.393429    1.058546
  180          1             0       66.906224    4.339691    0.840173
  181          1             0       69.437142    4.492391    0.684587
  182          1             0       71.438611    2.718309    0.320082
  183          1             0       71.460303   -2.575476   -0.330959
  184          1             0       69.475315   -4.364246   -0.712583
  185          1             0       66.945129   -4.230651   -0.889339
 --------------------------------------------------------------------
     1 basis functions        1 primitive gaussians
     1 alpha electrons        1 beta electrons

 Harmonic frequencies (cm**-1), IR intensities (km*mol⁻¹),
 Raman scattering activities (A**4/amu), Raman depolarization ratios,
 reduced masses (AMU), force constants (mDyne/A) and normal coordinates:
                      1                      2                      3
                        a                      a                      a 
 Frequencies --     1.3711                 2.0161                 3.4211
 Red. masses --    17.7720                17.5388                17.0100
 Frc consts  --     0.0000                 0.0000                 0.0000
 IR Inten    --    31.2947                43.5500                 2.7707
 Raman Activ --     0.0000                 0.0000                 0.0000
 Depolar     --     0.0000                 0.0000                 0.0000
 Atom AN      X      Y      Z        X      Y      Z        X      Y      Z
   1  26     0.00   0.04   0.19     0.00   0.18   0.02     0.00   0.06  -0.11
   2   6     0.02   0.01   0.05    -0.02   0.05  -0.01    -0.06   0.02  -0.01
   3   6     0.02   0.01   0.04    -0.02   0.03  -0.02    -0.04   0.01   0.01
   4   6     0.01   0.01   0.05    -0.01   0.04  -0.01    -0.02   0.01   0.00
   5   6     0.00   0.01   0.04     0.00   0.04  -0.01     0.00   0.01   0.02
   6   6    -0.01   0.01   0.05     0.01   0.05  -0.01     0.02   0.01   0.00
   7   6    -0.02   0.01   0.05     0.02   0.04  -0.01     0.04   0.01   0.01
   8   6    -0.02   0.02   0.06     0.02   0.05  -0.01     0.06   0.01  -0.01
   9   6    -0.02   0.02   0.08     0.02   0.07   0.00     0.04   0.02  -0.03
  10   7    -0.01   0.02   0.08     0.01   0.07  -0.00     0.02   0.02  -0.03
  11   6    -0.02   0.02   0.10     0.02   0.08   0.01     0.05   0.03  -0.06
  12   6    -0.02   0.03   0.11     0.02   0.10   0.02     0.04   0.03  -0.08
  13   6    -0.02   0.03   0.13     0.02   0.12   0.03     0.05   0.04  -0.10
  14   6    -0.01   0.03   0.14     0.02   0.13   0.03     0.04   0.05  -0.12
  15   6    -0.01   0.03   0.13     0.01   0.12   0.03     0.02   0.04  -0.11
  16   7    -0.01   0.03   0.12     0.01   0.11   0.02     0.02   0.04  -0.09
  17   6    -0.00   0.03   0.14    -0.00   0.13   0.03     0.00   0.05  -0.12
  18   6     0.01   0.02   0.13    -0.01   0.12   0.03    -0.02   0.05  -0.11
  19   6     0.01   0.02   0.13    -0.02   0.13   0.03    -0.04   0.05  -0.12
  20   6     0.02   0.02   0.12    -0.02   0.11   0.02    -0.05   0.04  -0.10
  21   6     0.02   0.02   0.10    -0.02   0.10   0.01    -0.04   0.04  -0.08
  22   7     0.01   0.02   0.12    -0.01   0.11   0.02    -0.02   0.04  -0.09
  23   6     0.02   0.01   0.08    -0.02   0.08   0.00    -0.05   0.03  -0.05
  24   6     0.02   0.01   0.07    -0.02   0.06  -0.00    -0.04   0.02  -0.03
  25   7     0.01   0.01   0.07    -0.01   0.07  -0.00    -0.02   0.02  -0.03
  26   1     0.01   0.00   0.01    -0.01   0.01  -0.00    -0.02   0.00  -0.00
  27   1     0.01   0.00   0.01    -0.00   0.01  -0.01    -0.01   0.00   0.01
  28   1    -0.01   0.00   0.01     0.00   0.01  -0.01     0.01   0.00   0.01
  29   1    -0.01   0.01   0.02     0.01   0.01  -0.00     0.02   0.00  -0.00
  30   1    -0.01   0.01   0.03     0.01   0.02   0.00     0.02   0.01  -0.02
  31   1    -0.01   0.01   0.04     0.01   0.03   0.01     0.02   0.01  -0.03
  32   1    -0.00   0.01   0.05     0.01   0.04   0.01     0.01   0.02  -0.04
  33   1    -0.00   0.01   0.04    -0.00   0.04   0.01     0.00   0.02  -0.04
  34   1     0.00   0.01   0.04    -0.01   0.04   0.01    -0.01   0.02  -0.04
  35   1     0.01   0.01   0.03    -0.01   0.03   0.01    -0.02   0.01  -0.03
  36   1     0.01   0.00   0.02    -0.01   0.02   0.00    -0.02   0.01  -0.02
  37  26    -0.00   0.03   0.20     0.00   0.17  -0.08    -0.00   0.08   0.08
  38   6    -0.04   0.01   0.05    -0.01   0.05  -0.01    -0.05   0.01   0.00
  39   6    -0.03   0.01   0.03    -0.01   0.04  -0.00    -0.04   0.01  -0.01
  40   6    -0.01   0.01   0.05    -0.01   0.05  -0.01    -0.02   0.01  -0.00
  41   6    -0.00   0.00   0.04    -0.00   0.04  -0.00    -0.00   0.01  -0.02
  42   6     0.01   0.00   0.05     0.00   0.05  -0.01     0.02   0.01  -0.01
  43   6     0.03   0.00   0.04     0.01   0.04   0.00     0.04   0.01  -0.02
  44   6     0.04   0.00   0.06     0.01   0.05  -0.01     0.05   0.02  -0.00
  45   6     0.03   0.01   0.08     0.01   0.06  -0.02     0.04   0.03   0.02
  46   7     0.01   0.01   0.08     0.01   0.07  -0.02     0.02   0.03   0.01
  47   6     0.03   0.01   0.10     0.01   0.08  -0.03     0.05   0.04   0.03
  48   6     0.03   0.01   0.12     0.01   0.09  -0.04     0.04   0.05   0.05
  49   6     0.04   0.01   0.14     0.01   0.11  -0.06     0.05   0.06   0.07
  50   6     0.03   0.02   0.15     0.01   0.12  -0.07     0.04   0.06   0.08
  51   6     0.01   0.02   0.14     0.01   0.11  -0.06     0.02   0.06   0.07
  52   7     0.02   0.01   0.13     0.01   0.10  -0.05     0.02   0.05   0.06
  53   6    -0.00   0.02   0.15     0.00   0.12  -0.07     0.00   0.06   0.08
  54   6    -0.01   0.02   0.13    -0.00   0.12  -0.07    -0.02   0.06   0.08
  55   6    -0.03   0.02   0.14    -0.01   0.12  -0.07    -0.04   0.06   0.09
  56   6    -0.04   0.02   0.12    -0.01   0.11  -0.06    -0.05   0.05   0.07
  57   6    -0.03   0.02   0.11    -0.01   0.10  -0.05    -0.04   0.04   0.06
  58   7    -0.02   0.02   0.12    -0.01   0.11  -0.06    -0.02   0.05   0.06
  59   6    -0.04   0.02   0.09    -0.01   0.08  -0.04    -0.05   0.03   0.04
  60   6    -0.03   0.01   0.07    -0.01   0.07  -0.02    -0.04   0.02   0.02
  61   7    -0.02   0.01   0.07    -0.01   0.07  -0.02    -0.02   0.03   0.02
  62   1    -0.01   0.00   0.01    -0.01   0.01  -0.00    -0.02   0.00   0.00
  63   1    -0.01   0.00   0.01    -0.00   0.01   0.00    -0.01  -0.00  -0.01
  64   1     0.01  -0.00   0.01     0.00   0.01   0.00     0.01   0.00  -0.01
  65   1     0.01   0.00   0.02     0.00   0.01  -0.00     0.02   0.01  -0.00
  66   1     0.01   0.00   0.03     0.01   0.02  -0.01     0.02   0.01   0.01
  67   1     0.01   0.00   0.04     0.01   0.03  -0.02     0.02   0.02   0.02
  68   1     0.01   0.01   0.05     0.00   0.04  -0.02     0.01   0.02   0.03
  69   1    -0.00   0.01   0.05     0.00   0.04  -0.02     0.00   0.02   0.03
  70   1    -0.01   0.01   0.05    -0.00   0.04  -0.02    -0.01   0.02   0.03
  71   1    -0.01   0.01   0.04    -0.01   0.03  -0.02    -0.02   0.02   0.02
  72   1    -0.01   0.00   0.02    -0.01   0.02  -0.01    -0.02   0.01   0.01
  73   6     0.00   0.01   0.02     0.00   0.02  -0.02     0.00   0.00   0.04
  74   6     0.00   0.00   0.01     0.00   0.01  -0.02     0.00   0.00   0.06
  75   6     0.00  -0.02  -0.07     0.00  -0.08  -0.02     0.00  -0.03   0.08
  76   6     0.00  -0.02  -0.08     0.00  -0.08  -0.01     0.00  -0.03   0.07
  77   6    -0.00  -0.01  -0.07    -0.00  -0.08   0.04    -0.00  -0.04  -0.07
  78   6    -0.00  -0.01  -0.07    -0.00  -0.07   0.04    -0.00  -0.04  -0.07
  79   6    -0.00   0.00  -0.00    -0.00   0.01   0.02    -0.00  -0.01  -0.05
  80   6    -0.00   0.00   0.02    -0.00   0.02   0.01    -0.00  -0.00  -0.04
  81  26     0.00  -0.02  -0.10     0.00  -0.09  -0.08     0.00  -0.01   0.22
  82   6     0.00  -0.01  -0.03    -0.03  -0.02  -0.04    -0.01   0.00   0.11
  83   6     0.00  -0.00  -0.02    -0.02  -0.01  -0.03    -0.01   0.00   0.10
  84   6     0.00  -0.00  -0.02    -0.01  -0.02  -0.03    -0.00   0.00   0.09
  85   6     0.00  -0.00  -0.01     0.00  -0.01  -0.03     0.00   0.00   0.08
  86   6     0.00  -0.00  -0.02     0.01  -0.02  -0.03     0.00   0.00   0.09
  87   6     0.00  -0.00  -0.01     0.02  -0.01  -0.03     0.01   0.00   0.09
  88   6    -0.00  -0.01  -0.02     0.03  -0.02  -0.04     0.01   0.00   0.10
  89   6    -0.00  -0.01  -0.03     0.02  -0.03  -0.04     0.01   0.00   0.11
  90   7    -0.00  -0.01  -0.03     0.01  -0.03  -0.04     0.00  -0.00   0.11
  91   6    -0.00  -0.01  -0.04     0.03  -0.04  -0.04     0.01  -0.00   0.11
  92   6    -0.00  -0.01  -0.05     0.02  -0.05  -0.04     0.01  -0.01   0.11
  93   6    -0.00  -0.02  -0.06     0.03  -0.06  -0.04     0.01  -0.01   0.10
  94   6    -0.00  -0.02  -0.07     0.02  -0.07  -0.03     0.01  -0.02   0.09
  95   6    -0.00  -0.02  -0.06     0.01  -0.07  -0.03     0.00  -0.02   0.09
  96   7    -0.00  -0.01  -0.06     0.01  -0.06  -0.04     0.00  -0.01   0.11
  97   6     0.00  -0.02  -0.07     0.00  -0.07  -0.03     0.00  -0.02   0.09
  98   6     0.00  -0.02  -0.07    -0.01  -0.07  -0.03    -0.00  -0.02   0.10
  99   6     0.00  -0.02  -0.07    -0.02  -0.07  -0.03    -0.01  -0.02   0.10
 100   6     0.00  -0.02  -0.07    -0.03  -0.06  -0.04    -0.01  -0.01   0.11
 101   6     0.00  -0.02  -0.06    -0.02  -0.05  -0.04    -0.01  -0.01   0.11
 102   7     0.00  -0.02  -0.06    -0.01  -0.06  -0.04    -0.00  -0.01   0.11
 103   6     0.00  -0.01  -0.05    -0.03  -0.04  -0.04    -0.01   0.00   0.12
 104   6     0.00  -0.01  -0.04    -0.02  -0.03  -0.04    -0.01   0.00   0.11
 105   7     0.00  -0.01  -0.04    -0.01  -0.03  -0.04    -0.00  -0.00   0.11
 106   1     0.00  -0.00  -0.01    -0.01  -0.01  -0.01    -0.00   0.00   0.03
 107   1    -0.00  -0.00  -0.00    -0.01   0.00  -0.01    -0.00   0.00   0.03
 108   1     0.00   0.00   0.00     0.01   0.00  -0.01     0.00   0.00   0.02
 109   1    -0.00  -0.00  -0.01     0.01  -0.01  -0.01     0.00   0.00   0.03
 110   1    -0.00  -0.00  -0.01     0.01  -0.01  -0.01     0.00  -0.00   0.03
 111   1    -0.00  -0.00  -0.02     0.01  -0.02  -0.01     0.00  -0.00   0.03
 112   1    -0.00  -0.01  -0.02     0.01  -0.02  -0.01     0.00  -0.01   0.03
 113   1     0.00  -0.01  -0.02    -0.01  -0.02  -0.01    -0.00  -0.01   0.03
 114   1     0.00  -0.01  -0.02    -0.01  -0.02  -0.01    -0.00  -0.00   0.03
 115   1     0.00  -0.00  -0.02    -0.01  -0.01  -0.01    -0.00   0.00   0.04
 116  26     0.00  -0.03  -0.18    -0.00  -0.17   0.03    -0.00  -0.08  -0.00
 117   6     0.00  -0.02  -0.09     0.00  -0.08   0.00    -0.00  -0.04   0.04
 118   6     0.00  -0.02  -0.08     0.00  -0.08  -0.00    -0.00  -0.03   0.05
 119   6     0.00  -0.02  -0.08     0.00  -0.08   0.00    -0.00  -0.03   0.04
 120   6     0.00  -0.02  -0.08    -0.00  -0.08  -0.00     0.00  -0.03   0.05
 121   6    -0.00  -0.02  -0.08    -0.00  -0.08   0.00     0.00  -0.03   0.04
 122   6    -0.00  -0.02  -0.08    -0.00  -0.08   0.00     0.00  -0.03   0.05
 123   6    -0.00  -0.02  -0.08    -0.00  -0.08   0.01     0.00  -0.04   0.04
 124   6    -0.00  -0.02  -0.08    -0.00  -0.08   0.01     0.00  -0.04   0.02
 125   7    -0.00  -0.02  -0.09    -0.00  -0.09   0.01     0.00  -0.04   0.02
 126   6    -0.00  -0.02  -0.08    -0.00  -0.08   0.01     0.00  -0.04  -0.00
 127   6    -0.00  -0.01  -0.08    -0.00  -0.08   0.02    -0.00  -0.04  -0.02
 128   6    -0.00  -0.01  -0.08    -0.00  -0.08   0.02    -0.00  -0.04  -0.04
 129   6    -0.00  -0.01  -0.08    -0.00  -0.08   0.03    -0.00  -0.04  -0.06
 130   6    -0.00  -0.01  -0.08    -0.00  -0.08   0.03    -0.00  -0.04  -0.04
 131   7    -0.00  -0.02  -0.09    -0.00  -0.09   0.02    -0.00  -0.04  -0.03
 132   6    -0.00  -0.01  -0.08    -0.00  -0.08   0.03    -0.00  -0.04  -0.05
 133   6     0.00  -0.01  -0.08     0.00  -0.08   0.03     0.00  -0.04  -0.04
 134   6     0.00  -0.01  -0.08     0.00  -0.08   0.03     0.00  -0.04  -0.05
 135   6     0.00  -0.01  -0.08     0.00  -0.08   0.02     0.00  -0.04  -0.04
 136   6     0.00  -0.01  -0.08     0.00  -0.08   0.02     0.00  -0.04  -0.02
 137   7     0.00  -0.02  -0.09     0.00  -0.08   0.02     0.00  -0.04  -0.03
 138   6     0.00  -0.02  -0.09     0.00  -0.08   0.01    -0.00  -0.04  -0.00
 139   6     0.00  -0.02  -0.09     0.00  -0.08   0.01    -0.00  -0.04   0.02
 140   7     0.00  -0.02  -0.09     0.00  -0.09   0.01    -0.00  -0.04   0.02
 141   1     0.00  -0.00  -0.03     0.00  -0.02   0.00    -0.00  -0.01   0.01
 142   1     0.00  -0.00  -0.02     0.00  -0.02  -0.00    -0.00  -0.01   0.02
 143   1    -0.00  -0.00  -0.02    -0.00  -0.02  -0.00     0.00  -0.01   0.02
 144   1    -0.00  -0.00  -0.02    -0.00  -0.02   0.00     0.00  -0.01   0.01
 145   1    -0.00  -0.00  -0.02    -0.00  -0.02   0.00     0.00  -0.01  -0.00
 146   1    -0.00  -0.00  -0.02    -0.00  -0.02   0.01    -0.00  -0.01  -0.01
 147   1    -0.00  -0.00  -0.02    -0.00  -0.02   0.01    -0.00  -0.01  -0.02
 148   1     0.00  -0.00  -0.02     0.00  -0.02   0.01     0.00  -0.01  -0.02
 149   1     0.00  -0.00  -0.02     0.00  -0.02   0.01     0.00  -0.01  -0.01
 150   1     0.00  -0.00  -0.03     0.00  -0.02   0.00    -0.00  -0.01  -0.00
 151  26    -0.00  -0.01  -0.11    -0.00  -0.07   0.11    -0.00  -0.04  -0.18
 152   6     0.01  -0.01  -0.06     0.03  -0.06   0.06     0.01  -0.02  -0.09
 153   6     0.01  -0.01  -0.07     0.02  -0.06   0.06     0.01  -0.03  -0.09
 154   6     0.00  -0.01  -0.06     0.01  -0.06   0.05     0.00  -0.03  -0.08
 155   6    -0.00  -0.01  -0.06    -0.00  -0.06   0.05    -0.00  -0.03  -0.08
 156   6    -0.00  -0.01  -0.06    -0.01  -0.06   0.05    -0.00  -0.03  -0.08
 157   6    -0.01  -0.01  -0.07    -0.02  -0.06   0.06    -0.01  -0.03  -0.08
 158   6    -0.01  -0.00  -0.07    -0.03  -0.06   0.06    -0.01  -0.02  -0.09
 159   6    -0.01  -0.00  -0.06    -0.02  -0.05   0.06    -0.01  -0.02  -0.09
 160   7    -0.00  -0.00  -0.06    -0.01  -0.05   0.06    -0.00  -0.02  -0.09
 161   6    -0.01  -0.00  -0.06    -0.03  -0.04   0.05    -0.01  -0.02  -0.09
 162   6    -0.01   0.00  -0.05    -0.02  -0.02   0.05    -0.01  -0.01  -0.08
 163   6    -0.01   0.00  -0.05    -0.03  -0.01   0.04    -0.01  -0.01  -0.08
 164   6    -0.01   0.00  -0.03    -0.02  -0.00   0.03    -0.01  -0.01  -0.07
 165   6    -0.00  -0.00  -0.03    -0.01  -0.01   0.04    -0.00  -0.01  -0.07
 166   7    -0.00  -0.00  -0.05    -0.01  -0.02   0.05    -0.00  -0.02  -0.08
 167   6    -0.00  -0.00  -0.02    -0.00  -0.00   0.03    -0.00  -0.01  -0.07
 168   6     0.00  -0.00  -0.02     0.01  -0.01   0.04     0.00  -0.01  -0.07
 169   6     0.00  -0.00  -0.02     0.02  -0.00   0.04     0.01  -0.01  -0.08
 170   6     0.01  -0.00  -0.03     0.03  -0.01   0.04     0.01  -0.01  -0.09
 171   6     0.01  -0.00  -0.04     0.02  -0.02   0.05     0.01  -0.01  -0.09
 172   7     0.00  -0.00  -0.04     0.01  -0.02   0.05     0.00  -0.01  -0.09
 173   6     0.01  -0.00  -0.05     0.02  -0.04   0.06     0.01  -0.02  -0.09
 174   6     0.01  -0.00  -0.06     0.02  -0.05   0.06     0.01  -0.02  -0.09
 175   7     0.00  -0.01  -0.06     0.01  -0.05   0.06     0.00  -0.02  -0.09
 176   1     0.00  -0.00  -0.02     0.01  -0.02   0.02     0.00  -0.01  -0.03
 177   1     0.00  -0.00  -0.02     0.01  -0.02   0.02     0.00  -0.01  -0.02
 178   1    -0.00  -0.00  -0.02    -0.01  -0.02   0.02    -0.00  -0.01  -0.02
 179   1    -0.00  -0.00  -0.02    -0.01  -0.02   0.02    -0.00  -0.01  -0.03
 180   1    -0.00   0.00  -0.02    -0.01  -0.01   0.02    -0.00  -0.00  -0.03
 181   1    -0.00   0.00  -0.01    -0.01  -0.00   0.01    -0.00  -0.00  -0.02
 182   1    -0.00   0.00  -0.01    -0.01   0.00   0.01    -0.00  -0.00  -0.02
 183   1     0.00  -0.00  -0.00     0.01   0.00   0.01     0.00  -0.00  -0.02
 184   1     0.00  -0.00  -0.01     0.01  -0.00   0.01     0.00  -0.00  -0.03
 185   1     0.00  -0.00  -0.01     0.01  -0.01   0.02     0.00  -0.00  -0.03
                      4                      5                      6
                        a                      a                      a 
 Frequencies --     5.0550                 6.3996                 7.9594
 Red. masses --    16.4426                11.5100                15.6754
 Frc consts  --     0.0000                 0.0000                 0.0000
 IR Inten    --    35.3836               490.3888                 3.0615
 Raman Activ --     0.0000                 0.0000                 0.0000
 Depolar     --     0.0000                 0.0000                 0.0000
 Atom AN      X      Y      Z        X      Y      Z        X      Y      Z
   1  26    -0.00  -0.07  -0.00     0.00  -0.02   0.01     0.00   0.04  -0.02
   2   6     0.02  -0.01   0.00     0.02   0.11   0.13    -0.07  -0.02   0.03
   3   6     0.01   0.01   0.02     0.01   0.09   0.10    -0.05  -0.03   0.04
   4   6     0.01   0.00   0.02     0.01   0.04   0.05    -0.02  -0.02   0.03
   5   6    -0.00   0.02   0.03     0.00   0.01   0.01     0.00  -0.04   0.04
   6   6    -0.01   0.02   0.04    -0.01  -0.03  -0.04     0.02  -0.03   0.02
   7   6    -0.02   0.04   0.06    -0.01  -0.06  -0.08     0.05  -0.05   0.02
   8   6    -0.02   0.03   0.06    -0.01  -0.09  -0.11     0.07  -0.04  -0.00
   9   6    -0.02   0.01   0.04    -0.01  -0.08  -0.09     0.05  -0.02  -0.01
  10   7    -0.01  -0.00   0.03    -0.01  -0.04  -0.04     0.03  -0.01   0.00
  11   6    -0.02  -0.01   0.03    -0.01  -0.10  -0.12     0.07   0.00  -0.03
  12   6    -0.02  -0.04   0.01    -0.01  -0.09  -0.10     0.05   0.03  -0.04
  13   6    -0.02  -0.06  -0.00    -0.01  -0.12  -0.13     0.07   0.05  -0.05
  14   6    -0.02  -0.08  -0.02    -0.01  -0.11  -0.10     0.05   0.07  -0.05
  15   6    -0.01  -0.08  -0.03    -0.00  -0.06  -0.05     0.02   0.06  -0.04
  16   7    -0.01  -0.06  -0.01    -0.00  -0.06  -0.05     0.03   0.04  -0.03
  17   6     0.00  -0.10  -0.05     0.00  -0.03   0.00    -0.00   0.08  -0.04
  18   6     0.01  -0.09  -0.05     0.01   0.01   0.05    -0.02   0.07  -0.03
  19   6     0.02  -0.11  -0.07     0.01   0.04   0.10    -0.05   0.09  -0.03
  20   6     0.02  -0.10  -0.06     0.02   0.07   0.14    -0.07   0.07  -0.02
  21   6     0.02  -0.07  -0.04     0.01   0.06   0.11    -0.05   0.04  -0.01
  22   7     0.01  -0.07  -0.03     0.01   0.02   0.06    -0.03   0.05  -0.02
  23   6     0.02  -0.05  -0.02     0.02   0.09   0.13    -0.06   0.02   0.00
  24   6     0.02  -0.03  -0.00     0.01   0.08   0.11    -0.05   0.00   0.01
  25   7     0.01  -0.02   0.01     0.01   0.04   0.06    -0.03  -0.00   0.01
  26   1     0.01  -0.00  -0.00     0.01   0.04   0.05    -0.03  -0.01   0.01
  27   1     0.00   0.01   0.01     0.00   0.03   0.03    -0.02  -0.01   0.01
  28   1    -0.00   0.02   0.02    -0.00  -0.02  -0.02     0.02  -0.02   0.01
  29   1    -0.01   0.01   0.02    -0.01  -0.03  -0.04     0.03  -0.01  -0.00
  30   1    -0.01  -0.00   0.01    -0.01  -0.04  -0.05     0.03  -0.00  -0.01
  31   1    -0.01  -0.01   0.00    -0.01  -0.04  -0.05     0.03   0.01  -0.02
  32   1    -0.01  -0.03  -0.01    -0.00  -0.03  -0.03     0.02   0.03  -0.02
  33   1     0.00  -0.03  -0.02     0.00  -0.01  -0.00    -0.00   0.03  -0.01
  34   1     0.01  -0.04  -0.02     0.00   0.01   0.03    -0.02   0.03  -0.01
  35   1     0.01  -0.03  -0.02     0.01   0.03   0.05    -0.03   0.02  -0.01
  36   1     0.01  -0.02  -0.01     0.01   0.03   0.05    -0.03   0.01   0.00
  37  26     0.00   0.07  -0.02    -0.00   0.03   0.00    -0.00  -0.05  -0.02
  38   6    -0.02   0.01  -0.01    -0.02  -0.09   0.13     0.08   0.03   0.01
  39   6    -0.01  -0.01   0.01    -0.01  -0.07   0.09     0.05   0.05   0.02
  40   6    -0.01  -0.00   0.01    -0.01  -0.03   0.04     0.03   0.04   0.01
  41   6    -0.00  -0.02   0.03    -0.00  -0.00  -0.00    -0.00   0.06   0.02
  42   6     0.01  -0.02   0.03     0.00   0.03  -0.05    -0.03   0.05   0.00
  43   6     0.01  -0.04   0.05     0.01   0.06  -0.09    -0.06   0.07  -0.01
  44   6     0.02  -0.03   0.05     0.01   0.10  -0.13    -0.08   0.06  -0.02
  45   6     0.02  -0.01   0.03     0.01   0.08  -0.11    -0.06   0.02  -0.03
  46   7     0.01   0.00   0.02     0.01   0.05  -0.06    -0.03   0.02  -0.01
  47   6     0.02   0.01   0.02     0.01   0.11  -0.13    -0.08   0.00  -0.04
  48   6     0.02   0.04   0.00     0.01   0.10  -0.11    -0.06  -0.04  -0.04
  49   6     0.02   0.05  -0.01     0.01   0.13  -0.14    -0.08  -0.06  -0.05
  50   6     0.02   0.08  -0.03     0.01   0.10  -0.11    -0.06  -0.10  -0.04
  51   6     0.01   0.08  -0.04     0.00   0.06  -0.05    -0.03  -0.09  -0.02
  52   7     0.01   0.05  -0.02     0.01   0.06  -0.06    -0.03  -0.06  -0.03
  53   6     0.00   0.10  -0.06    -0.00   0.03   0.01    -0.00  -0.12  -0.01
  54   6    -0.01   0.09  -0.06    -0.01  -0.01   0.06     0.03  -0.10  -0.01
  55   6    -0.02   0.11  -0.08    -0.01  -0.05   0.12     0.05  -0.13   0.00
  56   6    -0.02   0.10  -0.07    -0.02  -0.08   0.15     0.08  -0.10   0.01
  57   6    -0.02   0.07  -0.05    -0.01  -0.06   0.12     0.06  -0.06   0.00
  58   7    -0.01   0.07  -0.04    -0.01  -0.02   0.06     0.03  -0.07  -0.01
  59   6    -0.02   0.05  -0.03    -0.02  -0.08   0.14     0.07  -0.03   0.00
  60   6    -0.02   0.03  -0.01    -0.01  -0.07   0.11     0.06   0.00   0.01
  61   7    -0.01   0.02  -0.00    -0.01  -0.03   0.06     0.03   0.01   0.01
  62   1    -0.01   0.01  -0.00    -0.01  -0.04   0.05     0.03   0.01   0.00
  63   1    -0.00  -0.01   0.01    -0.00  -0.02   0.03     0.02   0.02   0.01
  64   1     0.00  -0.02   0.02     0.00   0.02  -0.03    -0.02   0.03   0.00
  65   1     0.01  -0.01   0.02     0.01   0.04  -0.05    -0.03   0.02  -0.01
  66   1     0.01   0.00   0.01     0.01   0.04  -0.05    -0.03   0.00  -0.02
  67   1     0.01   0.01   0.00     0.01   0.05  -0.06    -0.03  -0.02  -0.02
  68   1     0.01   0.03  -0.01     0.00   0.03  -0.03    -0.02  -0.04  -0.01
  69   1     0.00   0.03  -0.02    -0.00   0.01   0.00    -0.00  -0.04  -0.00
  70   1    -0.00   0.04  -0.03    -0.00  -0.01   0.04     0.02  -0.05   0.00
  71   1    -0.01   0.03  -0.02    -0.01  -0.03   0.06     0.03  -0.03   0.00
  72   1    -0.01   0.02  -0.01    -0.01  -0.03   0.05     0.03  -0.01   0.00
  73   6    -0.00   0.04   0.04     0.00   0.02   0.00     0.00  -0.05   0.06
  74   6    -0.00   0.05   0.04     0.00   0.02   0.00     0.00  -0.05   0.08
  75   6    -0.00   0.07  -0.03    -0.00   0.02  -0.01     0.00  -0.04  -0.04
  76   6    -0.00   0.06  -0.05    -0.00   0.02  -0.01     0.00  -0.03  -0.06
  77   6     0.00  -0.07  -0.02    -0.00  -0.02   0.01     0.00   0.01  -0.02
  78   6     0.00  -0.08   0.01    -0.00  -0.03   0.02     0.00   0.02   0.00
  79   6    -0.00  -0.05   0.04    -0.00  -0.01  -0.01    -0.00   0.08   0.05
  80   6    -0.00  -0.04   0.04    -0.00  -0.01  -0.00    -0.00   0.08   0.04
  81  26    -0.00   0.16   0.08     0.00   0.05  -0.01     0.00  -0.08   0.11
  82   6     0.02   0.06   0.03     0.00   0.05   0.11     0.02  -0.03   0.11
  83   6     0.01   0.06   0.03     0.00   0.04   0.08     0.01  -0.04   0.11
  84   6     0.01   0.06   0.04     0.00   0.03   0.04     0.01  -0.04   0.09
  85   6    -0.00   0.06   0.05     0.00   0.02  -0.00     0.00  -0.05   0.08
  86   6    -0.01   0.06   0.06    -0.00   0.01  -0.04    -0.01  -0.05   0.08
  87   6    -0.01   0.07   0.07    -0.00  -0.00  -0.08    -0.01  -0.05   0.09
  88   6    -0.02   0.07   0.08    -0.00  -0.01  -0.11    -0.02  -0.04   0.08
  89   6    -0.01   0.08   0.07    -0.00  -0.00  -0.08    -0.01  -0.04   0.07
  90   7    -0.01   0.08   0.06    -0.00   0.01  -0.05    -0.01  -0.04   0.07
  91   6    -0.02   0.08   0.07    -0.00  -0.01  -0.09    -0.02  -0.04   0.05
  92   6    -0.01   0.08   0.05    -0.00  -0.00  -0.07    -0.02  -0.04   0.03
  93   6    -0.02   0.09   0.04    -0.00  -0.01  -0.09    -0.02  -0.04   0.01
  94   6    -0.01   0.09   0.02     0.00   0.00  -0.06    -0.02  -0.04  -0.02
  95   6    -0.01   0.08   0.01    -0.00   0.01  -0.03    -0.01  -0.04  -0.01
  96   7    -0.01   0.08   0.03    -0.00   0.01  -0.04    -0.01  -0.04   0.02
  97   6    -0.00   0.08  -0.01    -0.00   0.02  -0.01     0.00  -0.04  -0.02
  98   6     0.01   0.07   0.00     0.00   0.03   0.02     0.01  -0.04   0.00
  99   6     0.01   0.08  -0.01     0.00   0.04   0.05     0.02  -0.03  -0.00
 100   6     0.02   0.07   0.00     0.00   0.05   0.07     0.02  -0.03   0.03
 101   6     0.01   0.07   0.02     0.00   0.04   0.06     0.02  -0.03   0.05
 102   7     0.01   0.08   0.02     0.00   0.03   0.03     0.01  -0.04   0.03
 103   6     0.02   0.07   0.03     0.00   0.05   0.09     0.02  -0.03   0.08
 104   6     0.01   0.07   0.03     0.00   0.05   0.08     0.02  -0.03   0.09
 105   7     0.01   0.07   0.04     0.00   0.04   0.04     0.01  -0.04   0.08
 106   1     0.01   0.02   0.01     0.00   0.02   0.04     0.01  -0.01   0.04
 107   1     0.00   0.01   0.01     0.00   0.01   0.03     0.00  -0.01   0.04
 108   1    -0.00   0.02   0.02    -0.00  -0.00  -0.03    -0.00  -0.01   0.03
 109   1    -0.01   0.02   0.03    -0.00  -0.01  -0.04    -0.01  -0.01   0.03
 110   1    -0.01   0.03   0.02    -0.00  -0.00  -0.04    -0.01  -0.01   0.02
 111   1    -0.01   0.03   0.02     0.00  -0.00  -0.03    -0.01  -0.01   0.00
 112   1    -0.00   0.03   0.00     0.00  -0.00  -0.02    -0.01  -0.01  -0.01
 113   1     0.00   0.02  -0.01     0.00   0.01   0.01     0.01  -0.01  -0.01
 114   1     0.01   0.02   0.00     0.00   0.02   0.03     0.01  -0.01   0.01
 115   1     0.01   0.02   0.01     0.00   0.02   0.03     0.01  -0.01   0.03
 116  26    -0.00  -0.01  -0.17    -0.00  -0.01  -0.02     0.00  -0.02  -0.20
 117   6    -0.05   0.03  -0.10    -0.02   0.01  -0.01     0.01  -0.02  -0.11
 118   6    -0.03   0.05  -0.09    -0.01   0.01  -0.01     0.01  -0.02  -0.10
 119   6    -0.02   0.04  -0.08    -0.01   0.01  -0.01     0.01  -0.02  -0.09
 120   6    -0.00   0.05  -0.07    -0.00   0.01  -0.01     0.00  -0.02  -0.08
 121   6     0.02   0.04  -0.07     0.00   0.01  -0.02    -0.00  -0.02  -0.09
 122   6     0.03   0.05  -0.08     0.01   0.01  -0.03    -0.01  -0.02  -0.10
 123   6     0.05   0.03  -0.09     0.01   0.01  -0.03    -0.01  -0.02  -0.11
 124   6     0.04   0.01  -0.09     0.01   0.00  -0.02    -0.01  -0.01  -0.11
 125   7     0.02   0.02  -0.09     0.01   0.00  -0.02    -0.01  -0.02  -0.11
 126   6     0.04  -0.00  -0.10     0.01  -0.00  -0.01    -0.01  -0.01  -0.11
 127   6     0.04  -0.02  -0.09     0.01  -0.01   0.00    -0.01  -0.00  -0.09
 128   6     0.05  -0.04  -0.08     0.02  -0.01   0.02    -0.01   0.00  -0.08
 129   6     0.04  -0.05  -0.06     0.01  -0.02   0.02    -0.01   0.01  -0.06
 130   6     0.02  -0.04  -0.06     0.01  -0.01   0.01    -0.00   0.00  -0.06
 131   7     0.02  -0.03  -0.08     0.01  -0.01   0.00    -0.00  -0.00  -0.09
 132   6     0.00  -0.05  -0.04    -0.00  -0.02   0.01     0.00   0.01  -0.05
 133   6    -0.02  -0.04  -0.06    -0.00  -0.02  -0.01     0.00   0.00  -0.06
 134   6    -0.04  -0.05  -0.06    -0.01  -0.02  -0.02     0.01   0.00  -0.07
 135   6    -0.05  -0.04  -0.08    -0.01  -0.02  -0.02     0.01  -0.00  -0.09
 136   6    -0.04  -0.02  -0.09    -0.01  -0.01  -0.02     0.01  -0.01  -0.10
 137   7    -0.02  -0.02  -0.08    -0.01  -0.01  -0.01     0.01  -0.00  -0.09
 138   6    -0.04  -0.00  -0.10    -0.01  -0.01  -0.02     0.01  -0.01  -0.12
 139   6    -0.04   0.01  -0.10    -0.01  -0.00  -0.01     0.01  -0.01  -0.11
 140   7    -0.02   0.02  -0.09    -0.01   0.00  -0.01     0.01  -0.02  -0.11
 141   1    -0.02   0.01  -0.03    -0.01   0.00  -0.00     0.01  -0.01  -0.04
 142   1    -0.01   0.02  -0.02    -0.00   0.00  -0.00     0.00  -0.01  -0.03
 143   1     0.01   0.02  -0.02     0.00   0.00  -0.01    -0.00  -0.01  -0.03
 144   1     0.02   0.01  -0.03     0.00   0.00  -0.01    -0.01  -0.01  -0.03
 145   1     0.02  -0.00  -0.03     0.01  -0.00  -0.00    -0.01  -0.00  -0.03
 146   1     0.02  -0.01  -0.03     0.01  -0.00   0.01    -0.00   0.00  -0.03
 147   1     0.01  -0.02  -0.02     0.00  -0.01   0.01    -0.00   0.00  -0.01
 148   1    -0.01  -0.02  -0.01    -0.00  -0.01  -0.01     0.00   0.00  -0.02
 149   1    -0.02  -0.01  -0.03    -0.01  -0.01  -0.01     0.00  -0.00  -0.03
 150   1    -0.02  -0.00  -0.03    -0.01  -0.00  -0.01     0.01  -0.00  -0.04
 151  26     0.00  -0.15   0.12    -0.00  -0.05   0.01    -0.00   0.11   0.12
 152   6     0.01  -0.08   0.07     0.00  -0.01  -0.06     0.03   0.03   0.04
 153   6     0.01  -0.08   0.05     0.00  -0.01  -0.03     0.02   0.03   0.02
 154   6     0.01  -0.08   0.04     0.00  -0.02  -0.01     0.01   0.03   0.03
 155   6     0.00  -0.08   0.03    -0.00  -0.03   0.02     0.00   0.03   0.02
 156   6    -0.00  -0.08   0.03    -0.00  -0.03   0.04    -0.01   0.03   0.04
 157   6    -0.01  -0.08   0.03    -0.00  -0.04   0.07    -0.02   0.03   0.04
 158   6    -0.01  -0.08   0.04    -0.00  -0.04   0.09    -0.03   0.03   0.05
 159   6    -0.01  -0.07   0.04    -0.00  -0.04   0.07    -0.02   0.04   0.05
 160   7    -0.01  -0.08   0.05    -0.00  -0.03   0.04    -0.01   0.04   0.05
 161   6    -0.01  -0.07   0.04    -0.00  -0.04   0.08    -0.02   0.05   0.06
 162   6    -0.01  -0.06   0.04    -0.00  -0.03   0.07    -0.02   0.06   0.06
 163   6    -0.01  -0.06   0.03    -0.00  -0.03   0.09    -0.03   0.07   0.06
 164   6    -0.01  -0.05   0.03    -0.00  -0.03   0.06    -0.02   0.08   0.06
 165   6    -0.01  -0.06   0.04    -0.00  -0.02   0.03    -0.01   0.07   0.06
 166   7    -0.01  -0.07   0.05    -0.00  -0.03   0.04    -0.01   0.07   0.06
 167   6    -0.00  -0.05   0.05    -0.00  -0.02  -0.00    -0.00   0.08   0.06
 168   6     0.00  -0.06   0.06     0.00  -0.01  -0.04     0.01   0.07   0.07
 169   6     0.01  -0.06   0.08     0.00  -0.01  -0.08     0.02   0.07   0.08
 170   6     0.01  -0.07   0.09     0.00  -0.00  -0.10     0.02   0.06   0.09
 171   6     0.01  -0.07   0.08     0.00  -0.01  -0.07     0.02   0.06   0.08
 172   7     0.01  -0.07   0.07     0.00  -0.01  -0.04     0.01   0.06   0.07
 173   6     0.01  -0.08   0.09     0.00  -0.01  -0.08     0.02   0.05   0.07
 174   6     0.01  -0.08   0.07     0.00  -0.01  -0.05     0.02   0.04   0.05
 175   7     0.01  -0.08   0.06     0.00  -0.02  -0.02     0.01   0.04   0.05
 176   1     0.01  -0.03   0.02     0.00  -0.00  -0.02     0.01   0.01   0.01
 177   1     0.00  -0.03   0.01     0.00  -0.00  -0.01     0.01   0.01   0.00
 178   1    -0.00  -0.02   0.01    -0.00  -0.01   0.02    -0.01   0.01   0.01
 179   1    -0.01  -0.02   0.01    -0.00  -0.01   0.03    -0.01   0.01   0.02
 180   1    -0.00  -0.02   0.01    -0.00  -0.01   0.03    -0.01   0.01   0.02
 181   1    -0.01  -0.02   0.01    -0.00  -0.01   0.03    -0.01   0.02   0.02
 182   1    -0.00  -0.01   0.01    -0.00  -0.01   0.02    -0.01   0.02   0.02
 183   1     0.00  -0.02   0.02     0.00  -0.00  -0.03     0.01   0.02   0.03
 184   1     0.01  -0.02   0.03     0.00   0.00  -0.04     0.01   0.02   0.03
 185   1     0.00  -0.02   0.03     0.00   0.00  -0.03     0.01   0.01   0.02
                      7                      8                      9
                        a                      a                      a 
 Frequencies --     9.9803                10.3325                12.6325
 Red. masses --    11.2347                12.6574                11.8985
 Frc consts  --     0.0000                 0.0000                 0.0000
 IR Inten    --     2.1344                 2.2020               213.8932
 Raman Activ --     0.0000                 0.0000                 0.0000
 Depolar     --     0.0000                 0.0000                 0.0000
 Atom AN      X      Y      Z        X      Y      Z        X      Y      Z
   1  26    -0.00  -0.00   0.00     0.00   0.01   0.02    -0.00  -0.03  -0.03
   2   6     0.01  -0.07  -0.10     0.05   0.12   0.09     0.01  -0.08  -0.10
   3   6     0.00  -0.04  -0.06     0.04   0.13   0.09     0.01  -0.07  -0.10
   4   6     0.00  -0.02  -0.03     0.02   0.10   0.06     0.00  -0.06  -0.08
   5   6     0.00   0.01   0.01     0.00   0.11   0.06    -0.00  -0.06  -0.08
   6   6    -0.00   0.04   0.04    -0.02   0.10   0.06    -0.00  -0.05  -0.07
   7   6    -0.01   0.07   0.08    -0.04   0.12   0.08    -0.01  -0.07  -0.10
   8   6    -0.01   0.10   0.12    -0.05   0.10   0.07    -0.01  -0.06  -0.08
   9   6    -0.01   0.08   0.10    -0.04   0.06   0.05    -0.01  -0.04  -0.05
  10   7    -0.00   0.04   0.06    -0.02   0.06   0.04    -0.01  -0.04  -0.05
  11   6    -0.01   0.10   0.13    -0.05   0.01   0.02    -0.01  -0.02  -0.02
  12   6    -0.01   0.08   0.11    -0.04  -0.04  -0.02    -0.01   0.01   0.03
  13   6    -0.01   0.10   0.15    -0.06  -0.10  -0.06    -0.01   0.04   0.08
  14   6    -0.01   0.06   0.11    -0.04  -0.15  -0.10    -0.01   0.07   0.12
  15   6    -0.00   0.02   0.05    -0.02  -0.13  -0.08    -0.00   0.06   0.10
  16   7    -0.00   0.04   0.06    -0.02  -0.07  -0.04    -0.00   0.02   0.05
  17   6     0.00  -0.02  -0.01     0.00  -0.16  -0.11    -0.00   0.07   0.12
  18   6     0.00  -0.06  -0.07     0.02  -0.12  -0.07     0.00   0.04   0.08
  19   6     0.01  -0.10  -0.13     0.05  -0.13  -0.08     0.00   0.05   0.09
  20   6     0.01  -0.12  -0.16     0.06  -0.08  -0.03     0.01   0.01   0.03
  21   6     0.01  -0.09  -0.11     0.05  -0.03   0.00     0.01  -0.01  -0.00
  22   7     0.00  -0.05  -0.06     0.03  -0.06  -0.03     0.00   0.01   0.03
  23   6     0.01  -0.09  -0.12     0.05   0.03   0.05     0.01  -0.04  -0.05
  24   6     0.01  -0.06  -0.09     0.04   0.07   0.06     0.01  -0.06  -0.07
  25   7     0.00  -0.03  -0.04     0.02   0.07   0.05     0.00  -0.05  -0.06
  26   1     0.00  -0.03  -0.04     0.02   0.04   0.03     0.00  -0.03  -0.03
  27   1     0.00  -0.01  -0.02     0.01   0.05   0.03     0.00  -0.02  -0.04
  28   1    -0.00   0.02   0.02    -0.01   0.05   0.03    -0.00  -0.02  -0.03
  29   1    -0.00   0.04   0.04    -0.02   0.03   0.03    -0.00  -0.02  -0.03
  30   1    -0.00   0.04   0.05    -0.02   0.01   0.01    -0.00  -0.01  -0.01
  31   1    -0.00   0.04   0.06    -0.02  -0.03  -0.02    -0.00   0.01   0.02
  32   1    -0.00   0.02   0.03    -0.01  -0.06  -0.04    -0.00   0.03   0.05
  33   1     0.00  -0.01  -0.00     0.00  -0.06  -0.04    -0.00   0.03   0.05
  34   1     0.00  -0.03  -0.04     0.01  -0.05  -0.03     0.00   0.02   0.04
  35   1     0.00  -0.05  -0.06     0.02  -0.02  -0.00     0.00   0.00   0.01
  36   1     0.00  -0.04  -0.05     0.02   0.01   0.02     0.00  -0.02  -0.02
  37  26    -0.00   0.00  -0.00    -0.00   0.00  -0.01     0.00   0.03  -0.03
  38   6     0.00  -0.05   0.07     0.04   0.09  -0.08     0.01   0.11  -0.13
  39   6     0.00  -0.03   0.05     0.03   0.10  -0.08     0.00   0.10  -0.13
  40   6     0.00  -0.01   0.02     0.01   0.07  -0.05     0.00   0.08  -0.09
  41   6    -0.00   0.01  -0.01    -0.00   0.08  -0.05     0.00   0.07  -0.09
  42   6    -0.00   0.03  -0.04    -0.01   0.06  -0.04    -0.00   0.07  -0.08
  43   6    -0.00   0.06  -0.07    -0.03   0.08  -0.05    -0.00   0.08  -0.10
  44   6    -0.00   0.08  -0.10    -0.04   0.06  -0.04    -0.00   0.07  -0.08
  45   6    -0.00   0.06  -0.08    -0.03   0.03  -0.02    -0.00   0.04  -0.05
  46   7    -0.00   0.04  -0.05    -0.02   0.04  -0.03    -0.00   0.05  -0.05
  47   6    -0.00   0.07  -0.10    -0.04  -0.00  -0.00    -0.01   0.01  -0.00
  48   6    -0.00   0.06  -0.08    -0.03  -0.04   0.03    -0.01  -0.03   0.05
  49   6    -0.00   0.07  -0.11    -0.04  -0.08   0.06    -0.01  -0.08   0.11
  50   6    -0.00   0.05  -0.07    -0.03  -0.12   0.09    -0.01  -0.11   0.16
  51   6    -0.00   0.02  -0.03    -0.02  -0.09   0.07    -0.00  -0.08   0.12
  52   7    -0.00   0.03  -0.04    -0.02  -0.05   0.04    -0.00  -0.04   0.06
  53   6    -0.00  -0.02   0.02    -0.00  -0.11   0.08    -0.00  -0.10   0.14
  54   6     0.00  -0.04   0.06     0.01  -0.08   0.05     0.00  -0.06   0.09
  55   6     0.00  -0.08   0.10     0.03  -0.09   0.05     0.01  -0.06   0.08
  56   6     0.00  -0.09   0.12     0.04  -0.05   0.01     0.01  -0.01   0.02
  57   6     0.00  -0.06   0.09     0.03  -0.01  -0.01     0.01   0.02  -0.02
  58   7     0.00  -0.04   0.05     0.01  -0.04   0.02     0.00  -0.01   0.02
  59   6     0.00  -0.07   0.09     0.04   0.03  -0.05     0.01   0.06  -0.08
  60   6     0.00  -0.04   0.07     0.03   0.05  -0.06     0.00   0.08  -0.10
  61   7     0.00  -0.02   0.03     0.01   0.05  -0.04     0.00   0.07  -0.08
  62   1     0.00  -0.02   0.03     0.01   0.03  -0.03     0.00   0.04  -0.05
  63   1     0.00  -0.01   0.01     0.01   0.04  -0.03     0.00   0.04  -0.04
  64   1    -0.00   0.02  -0.02    -0.01   0.03  -0.02    -0.00   0.03  -0.04
  65   1    -0.00   0.03  -0.04    -0.01   0.02  -0.01    -0.00   0.02  -0.03
  66   1    -0.00   0.03  -0.04    -0.01  -0.00  -0.00    -0.00   0.00  -0.00
  67   1    -0.00   0.03  -0.04    -0.02  -0.02   0.02    -0.00  -0.02   0.03
  68   1    -0.00   0.01  -0.02    -0.01  -0.04   0.04    -0.00  -0.04   0.06
  69   1    -0.00  -0.01   0.01    -0.00  -0.04   0.03    -0.00  -0.04   0.05
  70   1     0.00  -0.03   0.03     0.01  -0.04   0.02     0.00  -0.03   0.04
  71   1     0.00  -0.03   0.05     0.01  -0.01  -0.00     0.00   0.00  -0.00
  72   1     0.00  -0.03   0.04     0.01   0.01  -0.02     0.00   0.02  -0.03
  73   6     0.00   0.02   0.00     0.00   0.12   0.05    -0.00  -0.05  -0.09
  74   6     0.00   0.01   0.00     0.00   0.12   0.03    -0.00  -0.04  -0.08
  75   6     0.00  -0.00  -0.00    -0.00  -0.05  -0.01     0.00   0.07   0.05
  76   6     0.00  -0.00   0.00    -0.00  -0.07  -0.00     0.00   0.06   0.04
  77   6    -0.00  -0.01   0.01    -0.00  -0.05   0.01     0.00  -0.08   0.01
  78   6    -0.00  -0.01   0.01    -0.00  -0.03   0.01     0.00  -0.08   0.03
  79   6    -0.00   0.01  -0.01    -0.00   0.09  -0.04     0.00   0.06  -0.08
  80   6    -0.00   0.01  -0.01    -0.00   0.09  -0.04     0.00   0.08  -0.09
  81  26     0.00   0.01  -0.01     0.00   0.06  -0.04     0.00   0.06   0.03
  82   6    -0.00   0.03   0.06    -0.05   0.07  -0.03     0.03   0.00   0.00
  83   6    -0.00   0.02   0.03    -0.04   0.09  -0.01     0.02  -0.02  -0.03
  84   6    -0.00   0.02   0.02    -0.02   0.08   0.00     0.01  -0.01  -0.04
  85   6     0.00   0.01  -0.00     0.00   0.10   0.02    -0.00  -0.02  -0.06
  86   6     0.00   0.01  -0.02     0.02   0.08   0.01    -0.01  -0.02  -0.06
  87   6     0.01   0.00  -0.04     0.04   0.09   0.02    -0.02  -0.03  -0.08
  88   6     0.01  -0.01  -0.07     0.06   0.07   0.01    -0.03  -0.01  -0.06
  89   6     0.01  -0.01  -0.06     0.04   0.05  -0.00    -0.02   0.00  -0.03
  90   7     0.00   0.00  -0.03     0.02   0.06   0.00    -0.01   0.00  -0.03
  91   6     0.01  -0.02  -0.09     0.05   0.03  -0.01    -0.02   0.02  -0.01
  92   6     0.00  -0.02  -0.08     0.04   0.01  -0.02    -0.02   0.04   0.02
  93   6     0.01  -0.04  -0.11     0.05  -0.02  -0.02    -0.02   0.05   0.03
  94   6     0.00  -0.03  -0.09     0.04  -0.03  -0.02    -0.02   0.07   0.05
  95   6     0.00  -0.01  -0.04     0.02  -0.02  -0.02    -0.01   0.06   0.04
  96   7     0.00  -0.01  -0.05     0.02   0.00  -0.02    -0.01   0.05   0.03
  97   6     0.00   0.00  -0.00    -0.00  -0.03  -0.02     0.00   0.07   0.05
  98   6    -0.00   0.02   0.04    -0.02  -0.03  -0.03     0.01   0.07   0.07
  99   6    -0.00   0.03   0.08    -0.04  -0.04  -0.05     0.02   0.08   0.09
 100   6    -0.01   0.04   0.10    -0.05  -0.03  -0.06     0.02   0.08   0.10
 101   6    -0.00   0.03   0.07    -0.04  -0.01  -0.05     0.02   0.06   0.07
 102   7    -0.00   0.02   0.04    -0.02  -0.00  -0.03     0.01   0.06   0.06
 103   6    -0.00   0.03   0.08    -0.05   0.02  -0.05     0.02   0.04   0.06
 104   6    -0.00   0.02   0.05    -0.04   0.04  -0.03     0.02   0.02   0.02
 105   7    -0.00   0.02   0.03    -0.02   0.06  -0.02     0.01   0.01  -0.00
 106   1    -0.00   0.01   0.02    -0.02   0.02  -0.01     0.01   0.00   0.00
 107   1    -0.00   0.01   0.01    -0.01   0.03   0.00     0.01  -0.01  -0.02
 108   1     0.00   0.00  -0.01     0.01   0.03   0.01    -0.01  -0.01  -0.03
 109   1     0.00  -0.00  -0.03     0.02   0.02   0.00    -0.01  -0.01  -0.02
 110   1     0.00  -0.01  -0.03     0.02   0.01  -0.00    -0.01   0.01  -0.00
 111   1     0.00  -0.02  -0.04     0.02  -0.00  -0.00    -0.01   0.02   0.01
 112   1     0.00  -0.01  -0.03     0.01  -0.01  -0.01    -0.00   0.02   0.02
 113   1    -0.00   0.01   0.03    -0.01  -0.02  -0.02     0.00   0.03   0.03
 114   1    -0.00   0.02   0.04    -0.02  -0.01  -0.02     0.01   0.03   0.03
 115   1    -0.00   0.01   0.03    -0.02   0.00  -0.02     0.01   0.01   0.02
 116  26     0.00  -0.02   0.01    -0.00  -0.13   0.03     0.00  -0.02   0.00
 117   6    -0.00  -0.01   0.16     0.01  -0.07   0.00    -0.05   0.03   0.00
 118   6    -0.00  -0.01   0.12     0.00  -0.07  -0.00    -0.04   0.05   0.02
 119   6    -0.00  -0.01   0.06     0.00  -0.07   0.00    -0.02   0.04   0.02
 120   6     0.00  -0.01   0.00    -0.00  -0.07   0.01     0.00   0.05   0.03
 121   6     0.00  -0.00  -0.05    -0.00  -0.07   0.02     0.02   0.04   0.02
 122   6     0.00   0.00  -0.11    -0.01  -0.07   0.03     0.04   0.05   0.01
 123   6     0.00  -0.00  -0.15    -0.01  -0.07   0.04     0.05   0.03   0.00
 124   6     0.00  -0.01  -0.12    -0.01  -0.06   0.03     0.04   0.01  -0.00
 125   7     0.00  -0.01  -0.06    -0.00  -0.07   0.02     0.02   0.02   0.01
 126   6     0.00  -0.01  -0.14    -0.01  -0.06   0.04     0.05  -0.01  -0.01
 127   6     0.00  -0.01  -0.11    -0.01  -0.06   0.03     0.04  -0.03  -0.00
 128   6     0.00  -0.02  -0.14    -0.01  -0.05   0.03     0.05  -0.05  -0.00
 129   6     0.00  -0.02  -0.10    -0.01  -0.05   0.02     0.04  -0.06   0.00
 130   6     0.00  -0.01  -0.05    -0.00  -0.05   0.02     0.02  -0.05   0.00
 131   7     0.00  -0.01  -0.06    -0.00  -0.06   0.02     0.02  -0.03  -0.00
 132   6    -0.00  -0.01   0.01    -0.00  -0.05   0.01     0.00  -0.06   0.00
 133   6    -0.00  -0.01   0.06     0.00  -0.06   0.00    -0.02  -0.05  -0.01
 134   6    -0.00  -0.00   0.11     0.01  -0.05  -0.00    -0.04  -0.06  -0.03
 135   6    -0.00   0.00   0.15     0.01  -0.06  -0.00    -0.05  -0.05  -0.04
 136   6    -0.00  -0.00   0.12     0.01  -0.06   0.00    -0.04  -0.03  -0.03
 137   7    -0.00  -0.01   0.07     0.00  -0.06   0.01    -0.02  -0.04  -0.01
 138   6    -0.00  -0.01   0.15     0.01  -0.06   0.00    -0.05  -0.01  -0.02
 139   6    -0.00  -0.01   0.12     0.01  -0.06   0.00    -0.04   0.01  -0.00
 140   7    -0.00  -0.01   0.07     0.00  -0.07   0.01    -0.02   0.02   0.01
 141   1    -0.00  -0.00   0.06     0.00  -0.02  -0.00    -0.02   0.01  -0.00
 142   1    -0.00  -0.00   0.04     0.00  -0.02  -0.00    -0.01   0.02   0.01
 143   1     0.00   0.00  -0.03    -0.00  -0.02   0.01     0.01   0.02   0.01
 144   1     0.00   0.00  -0.06    -0.00  -0.02   0.01     0.02   0.01  -0.00
 145   1     0.00  -0.00  -0.06    -0.00  -0.02   0.01     0.02  -0.00  -0.00
 146   1     0.00  -0.01  -0.06    -0.00  -0.02   0.01     0.02  -0.01  -0.00
 147   1     0.00  -0.01  -0.03    -0.00  -0.01   0.00     0.01  -0.02   0.00
 148   1    -0.00   0.00   0.03     0.00  -0.02  -0.00    -0.01  -0.02  -0.01
 149   1    -0.00   0.00   0.06     0.00  -0.02  -0.00    -0.02  -0.01  -0.02
 150   1    -0.00  -0.00   0.06     0.00  -0.02  -0.00    -0.02  -0.00  -0.01
 151  26    -0.00   0.00  -0.00    -0.00   0.06  -0.00     0.00  -0.04   0.03
 152   6     0.01  -0.02   0.07     0.04  -0.01   0.01     0.04  -0.05   0.01
 153   6     0.00  -0.02   0.06     0.03  -0.02   0.01     0.03  -0.07   0.02
 154   6     0.00  -0.01   0.03     0.01  -0.01   0.01     0.01  -0.06   0.02
 155   6    -0.00  -0.01   0.01    -0.00  -0.02   0.01     0.00  -0.07   0.04
 156   6    -0.00   0.00  -0.02    -0.01  -0.01   0.01    -0.01  -0.07   0.06
 157   6    -0.01   0.01  -0.05    -0.03  -0.02   0.02    -0.03  -0.09   0.10
 158   6    -0.01   0.01  -0.06    -0.04  -0.01   0.02    -0.04  -0.08   0.12
 159   6    -0.01   0.01  -0.04    -0.03   0.01   0.01    -0.03  -0.05   0.09
 160   7    -0.00   0.00  -0.02    -0.02   0.01   0.01    -0.02  -0.05   0.06
 161   6    -0.01   0.01  -0.04    -0.04   0.02   0.01    -0.04  -0.03   0.09
 162   6    -0.01   0.01  -0.03    -0.03   0.04   0.00    -0.04  -0.01   0.05
 163   6    -0.01   0.01  -0.03    -0.04   0.06  -0.00    -0.05   0.01   0.04
 164   6    -0.00   0.01  -0.02    -0.03   0.07  -0.02    -0.04   0.04  -0.01
 165   6    -0.00   0.01  -0.01    -0.02   0.07  -0.02    -0.02   0.03  -0.02
 166   7    -0.00   0.01  -0.02    -0.02   0.05  -0.01    -0.02   0.00   0.01
 167   6    -0.00   0.01  -0.01    -0.00   0.08  -0.03     0.00   0.04  -0.06
 168   6     0.00   0.01  -0.00     0.01   0.07  -0.02     0.02   0.03  -0.06
 169   6     0.01   0.01   0.00     0.03   0.07  -0.02     0.04   0.05  -0.08
 170   6     0.01   0.00   0.02     0.04   0.06  -0.01     0.05   0.03  -0.07
 171   6     0.01   0.00   0.02     0.03   0.04  -0.01     0.04   0.01  -0.04
 172   7     0.00   0.00   0.01     0.02   0.05  -0.01     0.02   0.01  -0.03
 173   6     0.01  -0.01   0.04     0.04   0.03   0.00     0.04  -0.01  -0.02
 174   6     0.00  -0.01   0.05     0.03   0.01   0.01     0.03  -0.03   0.00
 175   7     0.00  -0.01   0.03     0.02   0.01   0.00     0.02  -0.04   0.02
 176   1     0.00  -0.01   0.03     0.01  -0.00   0.00     0.02  -0.01   0.00
 177   1     0.00  -0.01   0.02     0.01  -0.01   0.01     0.01  -0.02   0.01
 178   1    -0.00   0.00  -0.01    -0.01  -0.01   0.01    -0.01  -0.03   0.03
 179   1    -0.00   0.00  -0.02    -0.02  -0.00   0.01    -0.02  -0.02   0.04
 180   1    -0.00   0.00  -0.02    -0.02   0.01   0.01    -0.02  -0.01   0.03
 181   1    -0.00   0.00  -0.01    -0.02   0.02   0.00    -0.02   0.00   0.02
 182   1    -0.00   0.00  -0.00    -0.01   0.03  -0.01    -0.01   0.02  -0.01
 183   1     0.00   0.00  -0.00     0.01   0.03  -0.01     0.01   0.02  -0.03
 184   1     0.00   0.00   0.01     0.02   0.02  -0.00     0.02   0.01  -0.02
 185   1     0.00  -0.00   0.02     0.01   0.01   0.00     0.02  -0.00  -0.01
                     10                     11                     12
                        a                      a                      a 
 Frequencies --    12.7092                15.1134                16.7010
 Red. masses --    11.2803                11.8520                11.4502
 Frc consts  --     0.0000                 0.0000                 0.0000
 IR Inten    --  2740.4012                 9.3999                11.2713
 Raman Activ --     0.0000                 0.0000                 0.0000
 Depolar     --     0.0000                 0.0000                 0.0000
 Atom AN      X      Y      Z        X      Y      Z        X      Y      Z
   1  26    -0.00  -0.01  -0.01    -0.00   0.00   0.01    -0.01  -0.00   0.00
   2   6     0.01   0.01  -0.00    -0.05  -0.01   0.05    -0.02  -0.01   0.01
   3   6     0.01  -0.01  -0.03    -0.04  -0.02   0.06    -0.02  -0.01   0.03
   4   6     0.01  -0.01  -0.02    -0.02  -0.02   0.05    -0.01  -0.01   0.02
   5   6    -0.00  -0.01  -0.03    -0.00  -0.02   0.07    -0.00  -0.01   0.02
   6   6    -0.00  -0.02  -0.04     0.02  -0.01   0.06     0.00  -0.01   0.02
   7   6    -0.01  -0.03  -0.05     0.04  -0.02   0.07     0.01  -0.01   0.02
   8   6    -0.01  -0.04  -0.07     0.05  -0.01   0.05     0.02  -0.00   0.02
   9   6    -0.01  -0.04  -0.06     0.04  -0.01   0.02     0.01   0.00   0.02
  10   7    -0.00  -0.02  -0.04     0.02  -0.01   0.03     0.01  -0.00   0.02
  11   6    -0.01  -0.05  -0.07     0.05  -0.01  -0.01     0.02   0.02   0.03
  12   6    -0.01  -0.04  -0.05     0.04  -0.00  -0.04     0.01   0.02   0.02
  13   6    -0.01  -0.06  -0.06     0.05  -0.00  -0.07     0.02   0.03   0.02
  14   6    -0.01  -0.03  -0.03     0.04   0.00  -0.09     0.01   0.03   0.01
  15   6    -0.01  -0.01   0.00     0.02   0.01  -0.06     0.00   0.02  -0.00
  16   7    -0.01  -0.02  -0.02     0.02   0.00  -0.04     0.01   0.01   0.00
  17   6    -0.00   0.02   0.05    -0.00   0.02  -0.07    -0.00   0.01  -0.03
  18   6     0.00   0.04   0.07    -0.02   0.02  -0.04    -0.01  -0.01  -0.04
  19   6     0.01   0.06   0.11    -0.04   0.03  -0.04    -0.02  -0.02  -0.06
  20   6     0.01   0.07   0.11    -0.05   0.03  -0.01    -0.02  -0.02  -0.06
  21   6     0.01   0.04   0.07    -0.04   0.02   0.00    -0.02  -0.02  -0.03
  22   7     0.00   0.03   0.05    -0.02   0.02  -0.02    -0.01  -0.01  -0.02
  23   6     0.01   0.03   0.05    -0.05   0.01   0.02    -0.02  -0.02  -0.02
  24   6     0.01   0.01   0.01    -0.04   0.00   0.04    -0.02  -0.01   0.00
  25   7     0.01   0.00  -0.00    -0.02  -0.00   0.04    -0.01  -0.01   0.01
  26   1     0.01   0.00   0.00    -0.02  -0.00   0.02    -0.01  -0.00   0.00
  27   1     0.00  -0.00  -0.01    -0.01  -0.01   0.02    -0.01  -0.00   0.01
  28   1    -0.00  -0.01  -0.02     0.01  -0.01   0.03     0.00  -0.01   0.01
  29   1    -0.00  -0.02  -0.02     0.02  -0.00   0.01     0.01  -0.00   0.01
  30   1    -0.00  -0.02  -0.03     0.02  -0.00  -0.00     0.01   0.01   0.01
  31   1    -0.00  -0.02  -0.03     0.02  -0.00  -0.02     0.01   0.01   0.01
  32   1    -0.00  -0.01  -0.01     0.01   0.00  -0.03     0.00   0.01   0.00
  33   1    -0.00   0.01   0.02    -0.00   0.01  -0.03    -0.00   0.00  -0.01
  34   1     0.00   0.02   0.04    -0.01   0.01  -0.02    -0.00  -0.01  -0.02
  35   1     0.00   0.02   0.04    -0.02   0.01  -0.00    -0.01  -0.01  -0.02
  36   1     0.00   0.01   0.02    -0.02   0.01   0.01    -0.01  -0.01  -0.01
  37  26     0.00   0.01  -0.00     0.00   0.01  -0.03     0.01   0.01  -0.02
  38   6     0.01  -0.02   0.04    -0.06   0.00  -0.09    -0.03   0.00  -0.05
  39   6     0.01   0.00   0.02    -0.04  -0.01  -0.10    -0.02   0.00  -0.07
  40   6     0.00   0.01   0.00    -0.02  -0.01  -0.08    -0.01   0.00  -0.05
  41   6     0.00   0.02  -0.01     0.00  -0.02  -0.10     0.00  -0.00  -0.06
  42   6    -0.00   0.04  -0.03     0.02  -0.01  -0.08     0.01   0.00  -0.05
  43   6    -0.01   0.06  -0.05     0.05  -0.01  -0.10     0.03   0.00  -0.06
  44   6    -0.01   0.07  -0.08     0.07  -0.00  -0.08     0.04   0.02  -0.07
  45   6    -0.01   0.06  -0.07     0.05   0.00  -0.05     0.03   0.02  -0.06
  46   7    -0.00   0.04  -0.04     0.03  -0.00  -0.06     0.02   0.01  -0.05
  47   6    -0.01   0.07  -0.09     0.06   0.00  -0.01     0.04   0.04  -0.06
  48   6    -0.01   0.05  -0.07     0.05   0.00   0.03     0.03   0.03  -0.03
  49   6    -0.01   0.06  -0.09     0.06  -0.00   0.08     0.04   0.04  -0.02
  50   6    -0.01   0.03  -0.06     0.05  -0.01   0.11     0.03   0.03   0.02
  51   6    -0.00   0.01  -0.02     0.02  -0.00   0.09     0.01   0.01   0.03
  52   7    -0.00   0.02  -0.03     0.03   0.00   0.04     0.02   0.02  -0.00
  53   6    -0.00  -0.03   0.03     0.00   0.00   0.10     0.00  -0.01   0.07
  54   6     0.00  -0.05   0.06    -0.02   0.01   0.07    -0.01  -0.02   0.08
  55   6     0.01  -0.08   0.10    -0.04   0.02   0.08    -0.02  -0.04   0.11
  56   6     0.01  -0.08   0.11    -0.06   0.03   0.03    -0.03  -0.03   0.09
  57   6     0.01  -0.05   0.08    -0.05   0.02   0.00    -0.02  -0.02   0.05
  58   7     0.00  -0.04   0.05    -0.02   0.01   0.02    -0.01  -0.01   0.04
  59   6     0.01  -0.05   0.07    -0.06   0.02  -0.04    -0.03  -0.01   0.01
  60   6     0.01  -0.02   0.04    -0.05   0.01  -0.06    -0.02   0.00  -0.02
  61   7     0.00  -0.00   0.02    -0.02   0.00  -0.06    -0.01   0.00  -0.03
  62   1     0.00  -0.01   0.02    -0.02   0.00  -0.03    -0.01   0.00  -0.02
  63   1     0.00   0.00   0.00    -0.01  -0.01  -0.03    -0.01   0.00  -0.03
  64   1    -0.00   0.02  -0.01     0.02  -0.01  -0.04     0.01  -0.00  -0.02
  65   1    -0.00   0.02  -0.03     0.03  -0.00  -0.03     0.01   0.01  -0.02
  66   1    -0.00   0.03  -0.03     0.02   0.00  -0.00     0.01   0.01  -0.02
  67   1    -0.00   0.02  -0.04     0.02  -0.00   0.02     0.01   0.02  -0.01
  68   1    -0.00   0.01  -0.02     0.01  -0.00   0.04     0.01   0.01   0.01
  69   1    -0.00  -0.01   0.01     0.00  -0.00   0.04     0.00  -0.00   0.03
  70   1     0.00  -0.03   0.03    -0.01   0.01   0.03    -0.01  -0.01   0.04
  71   1     0.00  -0.03   0.04    -0.02   0.01   0.01    -0.01  -0.01   0.03
  72   1     0.00  -0.02   0.03    -0.02   0.01  -0.01    -0.01  -0.00   0.01
  73   6    -0.00  -0.01  -0.04    -0.00  -0.03   0.08    -0.00  -0.01   0.03
  74   6    -0.00  -0.01  -0.04    -0.00  -0.03   0.09    -0.00  -0.01   0.03
  75   6    -0.00   0.02   0.03    -0.00   0.01  -0.11    -0.00   0.01  -0.04
  76   6    -0.00   0.02   0.03    -0.00   0.02  -0.11    -0.00   0.01  -0.04
  77   6     0.00  -0.03  -0.02    -0.00   0.03   0.11    -0.00   0.01   0.03
  78   6     0.00  -0.03  -0.01    -0.00   0.01   0.10    -0.00   0.00   0.03
  79   6     0.00   0.02  -0.01     0.00  -0.03  -0.11     0.00  -0.02  -0.06
  80   6     0.00   0.03  -0.01     0.00  -0.03  -0.11     0.00  -0.01  -0.07
  81  26    -0.00   0.02   0.01    -0.00  -0.03  -0.03    -0.00  -0.01  -0.02
  82   6     0.00  -0.04  -0.18     0.03  -0.04  -0.02     0.01   0.02   0.12
  83   6     0.00  -0.03  -0.15     0.02  -0.03   0.03     0.01   0.01   0.11
  84   6    -0.00  -0.02  -0.08     0.01  -0.03   0.04     0.00   0.00   0.06
  85   6    -0.00  -0.00  -0.03    -0.00  -0.02   0.07    -0.00  -0.01   0.02
  86   6    -0.00   0.02   0.03    -0.01  -0.01   0.09    -0.01  -0.02  -0.02
  87   6    -0.00   0.03   0.08    -0.02  -0.00   0.14    -0.01  -0.03  -0.06
  88   6    -0.00   0.05   0.14    -0.03   0.00   0.13    -0.02  -0.04  -0.09
  89   6    -0.00   0.05   0.12    -0.03   0.00   0.08    -0.01  -0.03  -0.07
  90   7    -0.00   0.03   0.06    -0.01  -0.01   0.06    -0.01  -0.02  -0.03
  91   6    -0.00   0.06   0.17    -0.03   0.01   0.05    -0.02  -0.03  -0.09
  92   6    -0.00   0.06   0.15    -0.03   0.00   0.00    -0.01  -0.02  -0.07
  93   6    -0.00   0.08   0.19    -0.04   0.01  -0.02    -0.01  -0.02  -0.08
  94   6    -0.00   0.07   0.15    -0.03   0.01  -0.06    -0.01  -0.01  -0.06
  95   6    -0.00   0.04   0.08    -0.02   0.00  -0.07    -0.01  -0.00  -0.05
  96   7    -0.00   0.04   0.09    -0.02  -0.00  -0.03    -0.01  -0.01  -0.05
  97   6    -0.00   0.02   0.03    -0.00  -0.00  -0.10    -0.00   0.00  -0.04
  98   6    -0.00  -0.00  -0.03     0.01  -0.01  -0.10     0.01   0.01  -0.02
  99   6    -0.00  -0.02  -0.08     0.03  -0.02  -0.14     0.01   0.01  -0.01
 100   6    -0.00  -0.04  -0.13     0.03  -0.03  -0.14     0.02   0.02   0.02
 101   6    -0.00  -0.03  -0.11     0.03  -0.03  -0.10     0.01   0.01   0.03
 102   7    -0.00  -0.01  -0.05     0.01  -0.02  -0.08     0.01   0.01   0.00
 103   6    -0.00  -0.04  -0.15     0.03  -0.03  -0.08     0.01   0.02   0.07
 104   6    -0.00  -0.03  -0.14     0.02  -0.03  -0.03     0.01   0.02   0.08
 105   7    -0.00  -0.02  -0.08     0.01  -0.03  -0.00     0.00   0.00   0.05
 106   1     0.00  -0.02  -0.07     0.01  -0.01  -0.01     0.00   0.01   0.04
 107   1     0.00  -0.01  -0.05     0.01  -0.01   0.02     0.00   0.00   0.04
 108   1    -0.00   0.01   0.02    -0.01  -0.00   0.05    -0.00  -0.01  -0.02
 109   1    -0.00   0.02   0.06    -0.01   0.00   0.05    -0.01  -0.01  -0.03
 110   1    -0.00   0.02   0.06    -0.01   0.00   0.02    -0.01  -0.01  -0.03
 111   1    -0.00   0.03   0.07    -0.02   0.01  -0.00    -0.01  -0.01  -0.03
 112   1    -0.00   0.02   0.05    -0.01   0.00  -0.03    -0.00  -0.00  -0.02
 113   1    -0.00  -0.01  -0.02     0.01  -0.00  -0.05     0.00   0.00  -0.01
 114   1    -0.00  -0.02  -0.05     0.01  -0.01  -0.05     0.01   0.01   0.01
 115   1     0.00  -0.02  -0.06     0.01  -0.01  -0.03     0.01   0.01   0.03
 116  26     0.00  -0.01   0.01    -0.00   0.06   0.02    -0.00   0.03   0.03
 117   6    -0.01   0.00   0.04     0.01   0.02   0.01    -0.00   0.02  -0.19
 118   6    -0.01   0.01   0.03     0.01   0.02  -0.04    -0.00   0.02  -0.16
 119   6    -0.01   0.01   0.02     0.00   0.02  -0.05    -0.00   0.02  -0.08
 120   6    -0.00   0.01   0.03    -0.00   0.02  -0.09    -0.00   0.01  -0.03
 121   6     0.01   0.01   0.02    -0.00   0.02  -0.10    -0.00   0.01   0.04
 122   6     0.01   0.01   0.03    -0.01   0.03  -0.15    -0.00   0.01   0.11
 123   6     0.02   0.01   0.00    -0.01   0.03  -0.14    -0.00   0.01   0.17
 124   6     0.01  -0.00  -0.02    -0.00   0.03  -0.09    -0.00   0.01   0.15
 125   7     0.01  -0.00   0.00    -0.00   0.03  -0.07    -0.00   0.01   0.07
 126   6     0.01  -0.01  -0.05    -0.00   0.03  -0.06    -0.00   0.02   0.19
 127   6     0.01  -0.02  -0.07     0.00   0.03  -0.01    -0.00   0.02   0.16
 128   6     0.01  -0.02  -0.10     0.00   0.02   0.01    -0.00   0.02   0.20
 129   6     0.01  -0.03  -0.09     0.00   0.03   0.05    -0.00   0.02   0.15
 130   6     0.00  -0.02  -0.05     0.00   0.03   0.06    -0.00   0.02   0.08
 131   7     0.01  -0.02  -0.04     0.00   0.03   0.02    -0.00   0.02   0.10
 132   6     0.00  -0.02  -0.02    -0.00   0.03   0.10    -0.00   0.01   0.03
 133   6    -0.00  -0.02   0.02    -0.00   0.03   0.12    -0.00   0.01  -0.02
 134   6    -0.01  -0.02   0.05    -0.00   0.04   0.17    -0.01   0.00  -0.06
 135   6    -0.02  -0.01   0.07    -0.00   0.04   0.18    -0.01   0.00  -0.11
 136   6    -0.01  -0.01   0.05    -0.00   0.03   0.12    -0.01   0.01  -0.10
 137   7    -0.01  -0.01   0.02    -0.00   0.03   0.09    -0.00   0.01  -0.04
 138   6    -0.01  -0.00   0.05     0.00   0.03   0.10    -0.00   0.01  -0.15
 139   6    -0.01   0.00   0.04     0.00   0.02   0.04    -0.00   0.02  -0.14
 140   7    -0.01   0.00   0.03     0.00   0.03  -0.01    -0.00   0.02  -0.08
 141   1    -0.01   0.00   0.01     0.00   0.01   0.01    -0.00   0.01  -0.07
 142   1    -0.00   0.00   0.01     0.00   0.00  -0.02    -0.00   0.01  -0.05
 143   1     0.00   0.00   0.01    -0.00   0.01  -0.05    -0.00   0.00   0.03
 144   1     0.01   0.00  -0.00    -0.00   0.01  -0.05    -0.00   0.00   0.07
 145   1     0.01  -0.00  -0.02    -0.00   0.01  -0.03     0.00   0.00   0.07
 146   1     0.00  -0.01  -0.04     0.00   0.01  -0.00    -0.00   0.01   0.07
 147   1     0.00  -0.01  -0.03     0.00   0.01   0.02    -0.00   0.01   0.04
 148   1    -0.00  -0.01   0.02    -0.00   0.01   0.06    -0.00   0.00  -0.02
 149   1    -0.01  -0.00   0.03    -0.00   0.01   0.06    -0.00   0.00  -0.05
 150   1    -0.01  -0.00   0.02     0.00   0.01   0.04    -0.00   0.00  -0.06
 151  26     0.00  -0.01   0.00     0.00  -0.04   0.03     0.01  -0.03   0.02
 152   6     0.02  -0.06   0.16    -0.04  -0.00   0.06    -0.01  -0.05   0.20
 153   6     0.01  -0.06   0.12    -0.03   0.00   0.09    -0.01  -0.04   0.15
 154   6     0.01  -0.03   0.05    -0.01  -0.00   0.08    -0.00  -0.02   0.08
 155   6     0.00  -0.02  -0.01     0.00   0.00   0.09    -0.00  -0.00   0.02
 156   6    -0.01  -0.00  -0.06     0.01  -0.00   0.08     0.01   0.01  -0.03
 157   6    -0.01   0.01  -0.12     0.03   0.00   0.10     0.01   0.03  -0.09
 158   6    -0.02   0.02  -0.16     0.03  -0.01   0.10     0.02   0.03  -0.12
 159   6    -0.01   0.01  -0.12     0.03  -0.02   0.08     0.01   0.01  -0.09
 160   7    -0.01   0.00  -0.06     0.01  -0.01   0.07     0.01   0.00  -0.04
 161   6    -0.02   0.02  -0.13     0.03  -0.03   0.07     0.02   0.01  -0.12
 162   6    -0.01   0.02  -0.10     0.02  -0.03   0.03     0.01   0.00  -0.11
 163   6    -0.02   0.03  -0.12     0.03  -0.04   0.02     0.01   0.00  -0.16
 164   6    -0.01   0.03  -0.08     0.02  -0.04  -0.03     0.01  -0.00  -0.14
 165   6    -0.01   0.02  -0.04     0.01  -0.03  -0.05     0.01  -0.01  -0.08
 166   7    -0.01   0.01  -0.05     0.01  -0.03  -0.00     0.01  -0.01  -0.07
 167   6     0.00   0.02  -0.00     0.00  -0.03  -0.09     0.00  -0.02  -0.05
 168   6     0.01   0.01   0.04    -0.01  -0.02  -0.10     0.00  -0.02   0.02
 169   6     0.02   0.00   0.08    -0.02  -0.02  -0.14    -0.00  -0.03   0.06
 170   6     0.02  -0.01   0.13    -0.03  -0.02  -0.12    -0.01  -0.04   0.13
 171   6     0.02  -0.02   0.11    -0.02  -0.01  -0.06    -0.01  -0.04   0.12
 172   7     0.01  -0.01   0.06    -0.01  -0.02  -0.06    -0.00  -0.03   0.05
 173   6     0.02  -0.03   0.14    -0.03  -0.01  -0.02    -0.01  -0.05   0.18
 174   6     0.01  -0.04   0.12    -0.03  -0.01   0.03    -0.01  -0.04   0.15
 175   7     0.01  -0.03   0.06    -0.01  -0.01   0.04    -0.00  -0.03   0.09
 176   1     0.01  -0.02   0.06    -0.01  -0.00   0.02    -0.00  -0.02   0.07
 177   1     0.00  -0.02   0.04    -0.01   0.00   0.03    -0.00  -0.01   0.05
 178   1    -0.00   0.00  -0.04     0.01   0.00   0.03     0.00   0.01  -0.03
 179   1    -0.01   0.01  -0.06     0.01  -0.00   0.03     0.01   0.01  -0.05
 180   1    -0.01   0.01  -0.05     0.01  -0.01   0.03     0.01   0.01  -0.05
 181   1    -0.01   0.01  -0.04     0.01  -0.01   0.01     0.01   0.00  -0.06
 182   1    -0.00   0.01  -0.02     0.01  -0.01  -0.02     0.00  -0.00  -0.05
 183   1     0.01   0.00   0.02    -0.00  -0.01  -0.05    -0.00  -0.01   0.01
 184   1     0.01  -0.00   0.05    -0.01  -0.00  -0.04    -0.00  -0.01   0.05
 185   1     0.01  -0.01   0.06    -0.01  -0.00  -0.01    -0.00  -0.02   0.07
                     13                     14                     15
                        a                      a                      a 
 Frequencies --    23.5361                24.2192                29.6648
 Red. masses --    13.7341                13.9532                12.3628
 Frc consts  --     0.0000                 0.0000                 0.0000
 IR Inten    --     3.5238                12.1244               102.8299
 Raman Activ --     0.0000                 0.0000                 0.0000
 Depolar     --     0.0000                 0.0000                 0.0000
 Atom AN      X      Y      Z        X      Y      Z        X      Y      Z
   1  26    -0.00  -0.03   0.03     0.00   0.05   0.07    -0.03   0.04   0.03
   2   6    -0.06  -0.05   0.04    -0.04   0.05   0.12    -0.02   0.07   0.08
   3   6    -0.04  -0.06   0.06    -0.03   0.02   0.10    -0.02   0.03   0.04
   4   6    -0.02  -0.04   0.05    -0.01   0.01   0.07    -0.01   0.01   0.01
   5   6    -0.00  -0.05   0.07     0.00  -0.01   0.06    -0.01  -0.01  -0.02
   6   6     0.02  -0.04   0.05     0.02   0.01   0.07    -0.01   0.00  -0.00
   7   6     0.04  -0.05   0.06     0.03   0.02   0.10    -0.01   0.01   0.00
   8   6     0.06  -0.04   0.04     0.04   0.06   0.13    -0.01   0.04   0.04
   9   6     0.05  -0.03   0.03     0.03   0.06   0.10    -0.01   0.04   0.05
  10   7     0.02  -0.03   0.04     0.02   0.03   0.08    -0.01   0.02   0.02
  11   6     0.06  -0.01   0.01     0.04   0.06   0.08    -0.01   0.06   0.07
  12   6     0.05   0.00  -0.01     0.03   0.03   0.02    -0.01   0.04   0.04
  13   6     0.06   0.02  -0.03     0.04   0.01  -0.04    -0.01   0.03   0.03
  14   6     0.04   0.03  -0.04     0.03  -0.03  -0.12    -0.01  -0.01  -0.03
  15   6     0.02   0.02  -0.03     0.02  -0.03  -0.10    -0.01  -0.02  -0.05
  16   7     0.02   0.01  -0.01     0.02   0.01  -0.03    -0.02   0.01  -0.00
  17   6    -0.00   0.03  -0.04     0.00  -0.05  -0.15    -0.01  -0.05  -0.09
  18   6    -0.02   0.02  -0.03    -0.01  -0.03  -0.10    -0.01  -0.04  -0.06
  19   6    -0.04   0.03  -0.04    -0.03  -0.02  -0.10    -0.01  -0.04  -0.07
  20   6    -0.06   0.02  -0.03    -0.04   0.02  -0.02    -0.02   0.00  -0.01
  21   6    -0.05   0.00  -0.01    -0.03   0.04   0.03    -0.02   0.02   0.02
  22   7    -0.03   0.01  -0.01    -0.02   0.01  -0.02    -0.02   0.00  -0.01
  23   6    -0.06  -0.02   0.01    -0.04   0.07   0.09    -0.02   0.06   0.07
  24   6    -0.05  -0.03   0.02    -0.03   0.06   0.10    -0.02   0.06   0.06
  25   7    -0.02  -0.03   0.03    -0.02   0.03   0.08    -0.02   0.03   0.03
  26   1    -0.02  -0.01   0.01    -0.02   0.02   0.04    -0.01   0.03   0.03
  27   1    -0.01  -0.02   0.02    -0.01   0.00   0.03    -0.00   0.01   0.01
  28   1     0.01  -0.02   0.02     0.01   0.00   0.03    -0.00  -0.00  -0.01
  29   1     0.02  -0.01   0.01     0.02   0.02   0.04    -0.00   0.02   0.02
  30   1     0.02  -0.00   0.00     0.02   0.02   0.03    -0.00   0.02   0.03
  31   1     0.02   0.00  -0.01     0.02   0.01  -0.01    -0.00   0.01   0.02
  32   1     0.01   0.01  -0.01     0.01  -0.02  -0.05    -0.00  -0.01  -0.02
  33   1    -0.00   0.01  -0.01     0.00  -0.02  -0.06    -0.00  -0.02  -0.04
  34   1    -0.01   0.01  -0.01    -0.01  -0.01  -0.05    -0.00  -0.02  -0.03
  35   1    -0.02   0.00  -0.01    -0.02   0.01   0.00    -0.00   0.00   0.00
  36   1    -0.02  -0.01   0.00    -0.02   0.03   0.03    -0.01   0.02   0.03
  37  26    -0.00   0.02   0.05    -0.00   0.03  -0.03     0.03  -0.06   0.06
  38   6     0.07   0.03   0.08    -0.01   0.04  -0.06     0.02  -0.11   0.14
  39   6     0.05   0.05   0.08    -0.01   0.03  -0.04     0.01  -0.07   0.09
  40   6     0.02   0.04   0.07    -0.00   0.02  -0.03     0.02  -0.03   0.03
  41   6     0.00   0.06   0.08    -0.00   0.01  -0.01     0.01   0.01  -0.03
  42   6    -0.02   0.05   0.07    -0.00   0.01  -0.02     0.02   0.00  -0.02
  43   6    -0.05   0.05   0.08     0.00   0.02  -0.03     0.02   0.01  -0.02
  44   6    -0.07   0.03   0.07     0.00   0.03  -0.04     0.02  -0.04   0.04
  45   6    -0.05   0.02   0.05     0.00   0.03  -0.04     0.02  -0.06   0.07
  46   7    -0.03   0.03   0.05    -0.00   0.02  -0.03     0.02  -0.03   0.03
  47   6    -0.07  -0.00   0.03     0.00   0.03  -0.04     0.02  -0.09   0.11
  48   6    -0.05  -0.01   0.00     0.00   0.02  -0.02     0.02  -0.06   0.08
  49   6    -0.07  -0.02  -0.02     0.00   0.01  -0.00     0.02  -0.06   0.07
  50   6    -0.05  -0.02  -0.06     0.00  -0.01   0.03     0.02   0.00  -0.02
  51   6    -0.02  -0.02  -0.05    -0.00  -0.02   0.04     0.02   0.03  -0.05
  52   7    -0.03  -0.01  -0.01    -0.00   0.00   0.00     0.02  -0.02   0.01
  53   6    -0.00  -0.02  -0.07    -0.00  -0.03   0.06     0.02   0.08  -0.13
  54   6     0.02  -0.01  -0.05    -0.00  -0.02   0.05     0.02   0.06  -0.10
  55   6     0.05  -0.02  -0.07    -0.00  -0.03   0.05     0.01   0.08  -0.13
  56   6     0.07  -0.02  -0.03    -0.01  -0.00   0.02     0.01   0.02  -0.04
  57   6     0.05  -0.01  -0.00    -0.01   0.01  -0.01     0.02  -0.03   0.02
  58   7     0.03  -0.01  -0.01    -0.00  -0.00   0.01     0.02   0.00  -0.02
  59   6     0.07  -0.00   0.03    -0.01   0.03  -0.04     0.02  -0.08   0.10
  60   6     0.05   0.01   0.05    -0.01   0.04  -0.05     0.02  -0.09   0.11
  61   7     0.03   0.02   0.06    -0.00   0.02  -0.03     0.02  -0.05   0.05
  62   1     0.03   0.01   0.02    -0.00   0.02  -0.02     0.00  -0.04   0.06
  63   1     0.02   0.02   0.03    -0.00   0.01  -0.01     0.00  -0.02   0.02
[...]
 124   6    -0.00  -0.00   0.00    -0.00  -0.00   0.00    -0.00  -0.00   0.00
 125   7    -0.00   0.00   0.00    -0.00   0.00  -0.00    -0.00   0.00   0.00
 126   6     0.00  -0.00  -0.00     0.00   0.00  -0.00     0.00  -0.00  -0.00
 127   6    -0.00   0.00   0.00    -0.00   0.00   0.00     0.00   0.00  -0.00
 128   6    -0.00   0.00  -0.00    -0.00   0.03  -0.00    -0.00  -0.00   0.00
 129   6     0.02   0.00  -0.00     0.06   0.01  -0.00    -0.01  -0.00   0.00
 130   6     0.00  -0.00   0.00     0.00  -0.00   0.00    -0.00   0.00  -0.00
 131   7    -0.00  -0.00   0.00    -0.00  -0.00   0.00     0.00   0.00  -0.00
 132   6     0.00  -0.00   0.00    -0.00   0.00  -0.00     0.00  -0.00   0.00
 133   6     0.00   0.00  -0.00    -0.00  -0.01   0.00     0.00   0.00  -0.00
 134   6     0.02  -0.00   0.00    -0.18   0.02  -0.01     0.01  -0.00   0.00
 135   6    -0.00  -0.01   0.00     0.00   0.09  -0.01    -0.00  -0.00   0.00
 136   6    -0.00  -0.00  -0.00     0.00   0.00   0.00    -0.00  -0.00  -0.00
 137   7    -0.00   0.00  -0.00     0.00  -0.00   0.00    -0.00   0.00  -0.00
 138   6     0.00   0.00   0.00    -0.00   0.00  -0.00     0.00  -0.00   0.00
 139   6    -0.00   0.00  -0.00    -0.00  -0.00  -0.00    -0.00   0.00  -0.00
 140   7    -0.00  -0.00  -0.00    -0.00  -0.00  -0.00    -0.00  -0.00  -0.00
 141   1    -0.01  -0.11  -0.00    -0.00  -0.04  -0.00    -0.00  -0.02  -0.00
 142   1    -0.24  -0.04  -0.01    -0.06  -0.01  -0.00    -0.04  -0.01  -0.00
 143   1    -0.61   0.09   0.04    -0.01   0.00   0.00    -0.08   0.01   0.00
 144   1    -0.02   0.26   0.01    -0.00   0.00   0.00    -0.00   0.03   0.00
 145   1     0.00   0.00  -0.00     0.00  -0.00   0.00    -0.00   0.00  -0.00
 146   1    -0.00  -0.01   0.00    -0.01  -0.09   0.01     0.00   0.01  -0.00
 147   1    -0.05  -0.01   0.00    -0.21  -0.03   0.02     0.02   0.00  -0.00
 148   1    -0.07   0.01  -0.00     0.61  -0.09   0.04    -0.04   0.01  -0.00
 149   1    -0.00   0.03  -0.00     0.02  -0.27   0.02    -0.00   0.01  -0.00
 150   1     0.00  -0.00   0.00    -0.00  -0.01   0.00     0.00   0.00   0.00
 151  26    -0.00   0.00   0.00    -0.00  -0.00  -0.00    -0.00   0.00  -0.00
 152   6     0.00  -0.00  -0.00    -0.00   0.07   0.02    -0.00   0.00   0.00
 153   6    -0.01  -0.00  -0.00     0.15   0.02   0.01     0.01   0.00   0.00
 154   6    -0.00   0.00   0.00     0.00  -0.00  -0.00     0.00  -0.00  -0.00
 155   6    -0.00  -0.00  -0.00     0.00   0.00   0.00     0.00  -0.00  -0.00
 156   6    -0.00  -0.00  -0.00    -0.00  -0.00  -0.00     0.00   0.00   0.00
 157   6    -0.00   0.00   0.00    -0.08   0.01   0.01     0.02  -0.00  -0.00
 158   6    -0.00   0.00   0.00     0.00   0.03   0.01    -0.00  -0.01  -0.00
 159   6     0.00  -0.00  -0.00     0.00   0.00  -0.00    -0.00  -0.00   0.00
 160   7     0.00  -0.00   0.00     0.00  -0.00  -0.00    -0.00   0.00   0.00
 161   6     0.00  -0.00  -0.00    -0.00   0.00   0.00     0.00   0.00   0.00
 162   6    -0.00   0.00  -0.00    -0.00  -0.00  -0.00     0.00   0.00   0.00
 163   6     0.00  -0.00  -0.00    -0.00   0.00   0.00     0.00  -0.00  -0.00
 164   6    -0.00  -0.00   0.00     0.00   0.00  -0.00    -0.00  -0.00   0.00
 165   6    -0.00   0.00   0.00     0.00  -0.00  -0.00    -0.00   0.00   0.00
 166   7     0.00  -0.00   0.00    -0.00  -0.00  -0.00     0.00   0.00   0.00
 167   6     0.00   0.00   0.00     0.00   0.00   0.00    -0.00  -0.00  -0.00
 168   6    -0.00  -0.00  -0.00    -0.00  -0.00  -0.00    -0.00  -0.00  -0.00
 169   6    -0.00   0.00  -0.00    -0.01   0.00  -0.00    -0.00   0.00  -0.00
 170   6     0.00   0.00   0.00    -0.00   0.01   0.00     0.00   0.00   0.00
 171   6    -0.00  -0.00   0.00     0.00  -0.00  -0.00     0.00  -0.00  -0.00
 172   7     0.00   0.00  -0.00     0.00  -0.00  -0.00     0.00  -0.00  -0.00
 173   6    -0.00  -0.00  -0.00     0.00   0.00   0.00     0.00  -0.00  -0.00
 174   6     0.00   0.00   0.00    -0.00   0.00  -0.00    -0.00  -0.00  -0.00
 175   7     0.00   0.00   0.00    -0.00  -0.00  -0.00    -0.00  -0.00  -0.00
 176   1     0.00   0.01   0.00    -0.01  -0.21  -0.05    -0.00  -0.01  -0.00
 177   1     0.02   0.00   0.00    -0.51  -0.07  -0.05    -0.03  -0.00  -0.00
 178   1     0.01  -0.00  -0.00     0.25  -0.03  -0.02    -0.08   0.01   0.01
 179   1     0.00  -0.01  -0.00     0.01  -0.10  -0.03    -0.00   0.03   0.01
 180   1     0.00   0.00   0.00    -0.00  -0.00  -0.00     0.00  -0.00  -0.00
 181   1     0.00  -0.00   0.00    -0.00  -0.01  -0.00     0.00   0.00   0.00
 182   1     0.01   0.00  -0.00    -0.01  -0.00   0.00     0.01   0.00  -0.00
 183   1     0.01  -0.00   0.00     0.02  -0.00   0.00     0.01  -0.00   0.00
 184   1     0.00  -0.00  -0.00     0.00  -0.02  -0.00     0.00  -0.00  -0.00
 185   1     0.00   0.00  -0.00     0.00  -0.00  -0.00    -0.00   0.00   0.00
                    547                    548                    549
                        a                      a                      a 
 Frequencies --  3170.5016              3170.9022              3171.5373
 Red. masses --     1.9446                 1.9476                 1.9479
 Frc consts  --     0.0000                 0.0000                 0.0000
 IR Inten    --  6065.0860               618.8907                94.5017
 Raman Activ --     0.0000                 0.0000                 0.0000
 Depolar     --     0.0000                 0.0000                 0.0000
 Atom AN      X      Y      Z        X      Y      Z        X      Y      Z
   1  26     0.00  -0.00  -0.00    -0.00  -0.00   0.00     0.00  -0.00   0.00
   2   6    -0.00   0.00  -0.00     0.00   0.00  -0.00    -0.00  -0.00   0.00
   3   6    -0.01   0.00  -0.00    -0.01   0.00  -0.00     0.01  -0.00   0.00
   4   6    -0.00  -0.00   0.00    -0.00  -0.00   0.00     0.00   0.00  -0.00
   5   6    -0.00   0.00  -0.00    -0.00   0.00  -0.00    -0.00  -0.00   0.00
   6   6    -0.00   0.00  -0.00    -0.00   0.00  -0.00     0.00  -0.00   0.00
   7   6    -0.01  -0.00   0.00    -0.01  -0.00   0.00     0.01   0.00  -0.00
   8   6     0.00  -0.00   0.00     0.00  -0.00   0.00    -0.00   0.00  -0.00
   9   6     0.00  -0.00   0.00     0.00  -0.00   0.00    -0.00   0.00  -0.00
  10   7     0.00  -0.00   0.00     0.00  -0.00   0.00     0.00   0.00  -0.00
  11   6    -0.00  -0.00   0.00    -0.00  -0.00   0.00     0.00   0.00  -0.00
  12   6     0.00  -0.00   0.00    -0.00  -0.00   0.00     0.00   0.00  -0.00
  13   6     0.00   0.00  -0.00     0.00  -0.00   0.00    -0.00   0.00  -0.00
  14   6    -0.00   0.00  -0.00     0.00  -0.00   0.00    -0.00   0.00  -0.00
  15   6     0.00  -0.00   0.00     0.00   0.00  -0.00    -0.00  -0.00   0.00
  16   7     0.00  -0.00   0.00     0.00  -0.00   0.00    -0.00   0.00  -0.00
  17   6    -0.00  -0.00  -0.00     0.00   0.00   0.00    -0.00  -0.00  -0.00
  18   6     0.00   0.00  -0.00     0.00  -0.00   0.00    -0.00   0.00  -0.00
  19   6    -0.00  -0.00   0.00     0.00   0.00  -0.00    -0.00  -0.00   0.00
  20   6     0.00  -0.00   0.00     0.00   0.00  -0.00    -0.00  -0.00   0.00
  21   6     0.00   0.00  -0.00    -0.00   0.00  -0.00     0.00  -0.00   0.00
  22   7     0.00   0.00  -0.00     0.00   0.00  -0.00    -0.00  -0.00   0.00
  23   6    -0.00   0.00  -0.00    -0.00   0.00  -0.00     0.00  -0.00   0.00
  24   6     0.00   0.00  -0.00     0.00   0.00  -0.00    -0.00  -0.00   0.00
  25   7     0.00  -0.00   0.00     0.00   0.00  -0.00     0.00  -0.00   0.00
  26   1     0.00  -0.01   0.01     0.00  -0.01   0.01    -0.00   0.01  -0.01
  27   1     0.04  -0.00   0.00     0.03  -0.00   0.00    -0.02   0.00  -0.00
  28   1     0.02   0.00  -0.00     0.02   0.00  -0.00    -0.02  -0.00   0.00
  29   1     0.00   0.01  -0.01     0.00   0.01  -0.01    -0.00  -0.01   0.00
  30   1    -0.00   0.00  -0.00    -0.00   0.00  -0.00     0.00  -0.00   0.00
  31   1    -0.00  -0.00   0.00    -0.00   0.00  -0.00     0.00  -0.00   0.00
  32   1     0.00  -0.00   0.00    -0.00   0.00  -0.00     0.00  -0.00   0.00
  33   1     0.00   0.00   0.00    -0.00  -0.00  -0.00     0.00   0.00   0.00
  34   1     0.00   0.00  -0.00    -0.00  -0.00   0.00     0.00   0.00  -0.00
  35   1    -0.00  -0.00  -0.00    -0.00  -0.00   0.00     0.00   0.00  -0.00
  36   1    -0.00  -0.00   0.00    -0.00  -0.00   0.00     0.00   0.00  -0.00
  37  26    -0.00  -0.00  -0.00    -0.00   0.00   0.00     0.00   0.00  -0.00
  38   6    -0.00   0.00   0.00    -0.00   0.00   0.00     0.00  -0.00  -0.00
  39   6    -0.01   0.00   0.00    -0.00   0.00   0.00     0.00  -0.00  -0.00
  40   6    -0.00  -0.00  -0.00    -0.00  -0.00  -0.00    -0.00   0.00   0.00
  41   6     0.00  -0.00  -0.00     0.00  -0.00  -0.00    -0.00   0.00   0.00
  42   6    -0.00   0.00   0.00    -0.00   0.00   0.00    -0.00   0.00  -0.00
  43   6    -0.01  -0.00  -0.00    -0.00  -0.00  -0.00     0.00   0.00   0.00
  44   6    -0.00  -0.00  -0.00    -0.00  -0.00  -0.00     0.00   0.00   0.00
  45   6     0.00  -0.00  -0.00     0.00  -0.00  -0.00    -0.00  -0.00   0.00
  46   7    -0.00  -0.00  -0.00     0.00   0.00   0.00    -0.00  -0.00  -0.00
  47   6    -0.00  -0.00  -0.00    -0.00  -0.00  -0.00     0.00  -0.00  -0.00
  48   6    -0.00  -0.00  -0.00    -0.00   0.00   0.00    -0.00  -0.00  -0.00
  49   6     0.00  -0.00  -0.00     0.00  -0.00  -0.00    -0.00  -0.00  -0.00
  50   6     0.00  -0.00  -0.00     0.00  -0.00  -0.00     0.00  -0.00  -0.00
  51   6     0.00   0.00   0.00     0.00   0.00   0.00     0.00   0.00   0.00
  52   7     0.00  -0.00  -0.00    -0.00  -0.00  -0.00     0.00  -0.00   0.00
  53   6     0.00  -0.00   0.00     0.00  -0.00  -0.00    -0.00  -0.00  -0.00
  54   6     0.00  -0.00  -0.00     0.00  -0.00  -0.00    -0.00  -0.00  -0.00
  55   6     0.00   0.00   0.00     0.00   0.00   0.00     0.00   0.00   0.00
  56   6     0.00   0.00   0.00     0.00   0.00   0.00    -0.00   0.00   0.00
  57   6    -0.00   0.00   0.00    -0.00  -0.00  -0.00    -0.00   0.00   0.00
  58   7     0.00   0.00   0.00    -0.00   0.00   0.00     0.00   0.00   0.00
  59   6    -0.00   0.00   0.00    -0.00  -0.00  -0.00     0.00   0.00   0.00
  60   6     0.00   0.00   0.00     0.00  -0.00   0.00    -0.00   0.00  -0.00
  61   7    -0.00   0.00   0.00     0.00   0.00   0.00    -0.00   0.00   0.00
  62   1     0.00  -0.01  -0.01     0.00  -0.00  -0.00    -0.00   0.00   0.00
  63   1     0.02  -0.00  -0.00     0.00  -0.00  -0.00    -0.00   0.00   0.00
  64   1     0.02   0.00   0.00     0.01   0.00   0.00    -0.00  -0.00  -0.00
  65   1     0.00   0.01   0.01     0.00   0.00   0.00    -0.00  -0.00  -0.00
  66   1    -0.00   0.00   0.00    -0.00   0.00   0.00     0.00   0.00   0.00
  67   1    -0.00   0.00   0.00    -0.00   0.00   0.00    -0.00   0.00   0.00
  68   1    -0.01   0.00   0.00    -0.00   0.00   0.00    -0.00   0.00   0.00
  69   1    -0.00   0.00  -0.00    -0.00   0.00   0.00     0.00  -0.00   0.00
  70   1    -0.01  -0.00  -0.00    -0.00  -0.00  -0.00    -0.00  -0.00  -0.00
  71   1    -0.00  -0.00  -0.00    -0.00  -0.00  -0.00    -0.00   0.00   0.00
  72   1    -0.00  -0.00  -0.00    -0.00   0.00   0.00    -0.00  -0.00  -0.00
  73   6    -0.00   0.00  -0.00    -0.00   0.00  -0.00     0.00  -0.00   0.00
  74   6    -0.00  -0.00   0.00    -0.00  -0.00   0.00     0.00   0.00  -0.00
  75   6    -0.00  -0.00  -0.00     0.00  -0.00  -0.00    -0.00  -0.00  -0.00
  76   6     0.00   0.00  -0.00    -0.00   0.00   0.00     0.00   0.00   0.00
  77   6    -0.00  -0.00  -0.00    -0.00   0.00   0.00     0.00   0.00   0.00
  78   6     0.00   0.00   0.00     0.00  -0.00   0.00     0.00  -0.00   0.00
  79   6     0.00   0.00   0.00    -0.00  -0.00   0.00     0.00  -0.00   0.00
  80   6    -0.00  -0.00   0.00     0.00   0.00  -0.00    -0.00   0.00  -0.00
  81  26     0.00   0.00  -0.00     0.00   0.00   0.00    -0.00  -0.00   0.00
  82   6     0.00  -0.01   0.00     0.00  -0.00   0.00    -0.00   0.00  -0.00
  83   6    -0.01  -0.00  -0.00    -0.01  -0.00  -0.00     0.01   0.00   0.00
  84   6    -0.00   0.00  -0.00    -0.00   0.00  -0.00     0.00  -0.00   0.00
  85   6    -0.00  -0.00   0.00    -0.00  -0.00   0.00    -0.00   0.00  -0.00
  86   6    -0.00  -0.00   0.00    -0.00  -0.00   0.00     0.00   0.00  -0.00
  87   6    -0.01   0.00   0.00    -0.01   0.00   0.00     0.00  -0.00  -0.00
  88   6     0.00   0.00  -0.00     0.00   0.00  -0.00    -0.00  -0.00   0.00
  89   6     0.00  -0.00  -0.00     0.00   0.00  -0.00    -0.00  -0.00   0.00
  90   7     0.00  -0.00   0.00     0.00  -0.00   0.00     0.00  -0.00   0.00
  91   6    -0.00   0.00  -0.00    -0.00   0.00  -0.00     0.00  -0.00   0.00
  92   6     0.00  -0.00  -0.00    -0.00   0.00   0.00     0.00  -0.00  -0.00
  93   6     0.00  -0.00   0.00     0.00   0.00  -0.00     0.00  -0.00   0.00
  94   6    -0.00  -0.00   0.00     0.00   0.00  -0.00    -0.01  -0.00   0.00
  95   6    -0.00   0.00  -0.00     0.00  -0.00   0.00    -0.00   0.00  -0.00
  96   7     0.00  -0.00   0.00    -0.00  -0.00   0.00    -0.00  -0.00   0.00
  97   6    -0.00  -0.00   0.00     0.00  -0.00   0.00    -0.00   0.00  -0.00
  98   6    -0.00  -0.00   0.00     0.00   0.00  -0.00    -0.00  -0.00   0.00
  99   6    -0.00   0.00  -0.00     0.00  -0.00   0.00    -0.01   0.00  -0.00
 100   6     0.00   0.00  -0.00    -0.00  -0.00   0.00     0.00   0.00  -0.00
 101   6     0.00   0.00  -0.00    -0.00  -0.00  -0.00     0.00   0.00   0.00
 102   7    -0.00   0.00  -0.00    -0.00   0.00  -0.00    -0.00   0.00  -0.00
 103   6    -0.00  -0.00   0.00    -0.00  -0.00   0.00     0.00   0.00  -0.00
 104   6     0.00  -0.00   0.00     0.00  -0.00   0.00    -0.00   0.00  -0.00
 105   7     0.00   0.00  -0.00     0.00   0.00  -0.00     0.00   0.00  -0.00
 106   1     0.00   0.02  -0.01     0.00   0.01  -0.00    -0.00  -0.01   0.00
 107   1     0.04   0.01   0.00     0.03   0.00   0.00    -0.03  -0.00  -0.00
 108   1     0.02  -0.00  -0.00     0.02  -0.00  -0.00    -0.02   0.00   0.00
 109   1     0.00  -0.01   0.00     0.00  -0.01   0.00    -0.00   0.01  -0.00
 110   1    -0.00  -0.00   0.00    -0.00  -0.00   0.00     0.00   0.00  -0.00
 111   1     0.00   0.00  -0.00    -0.00  -0.01   0.00     0.00   0.01  -0.00
 112   1     0.02   0.00  -0.00    -0.01  -0.00   0.00     0.02   0.00  -0.00
 113   1     0.01  -0.00   0.00    -0.01   0.00  -0.00     0.02  -0.00   0.00
 114   1     0.00  -0.00   0.00    -0.00   0.01  -0.00     0.00  -0.01   0.00
 115   1    -0.00   0.00  -0.00    -0.00   0.00  -0.00     0.00  -0.00   0.00
 116  26    -0.00  -0.00   0.00     0.00  -0.00   0.00    -0.00  -0.00   0.00
 117   6     0.00  -0.00  -0.00    -0.00   0.00   0.00    -0.00  -0.00  -0.00
 118   6    -0.01  -0.00  -0.00     0.00   0.00   0.00    -0.00  -0.00  -0.00
 119   6    -0.00   0.00   0.00     0.00  -0.00  -0.00     0.00   0.00   0.00
 120   6     0.00   0.00   0.00     0.00   0.00   0.00    -0.00   0.00   0.00
 121   6    -0.00  -0.00  -0.00    -0.00  -0.00  -0.00    -0.00  -0.00  -0.00
 122   6    -0.02   0.00   0.00    -0.00   0.00   0.00    -0.01   0.00   0.00
 123   6    -0.00   0.01   0.00     0.00   0.00   0.00    -0.00   0.00   0.00
 124   6     0.00  -0.00  -0.00     0.00  -0.00  -0.00     0.00  -0.00  -0.00
 125   7     0.00  -0.00  -0.00     0.00  -0.00  -0.00     0.00  -0.00   0.00
 126   6     0.00   0.00  -0.00     0.00   0.00  -0.00     0.00   0.00  -0.00
 127   6    -0.00   0.00   0.00    -0.00   0.00   0.00    -0.00   0.00   0.00
 128   6    -0.00   0.06  -0.00    -0.00   0.04  -0.00    -0.00   0.09  -0.01
 129   6     0.13   0.02  -0.01     0.10   0.01  -0.01     0.20   0.02  -0.01
 130   6     0.00  -0.00   0.00     0.00  -0.00   0.00     0.00  -0.01   0.00
 131   7    -0.00  -0.00   0.00    -0.00  -0.00   0.00    -0.00  -0.00   0.00
 132   6     0.00   0.00  -0.00     0.00   0.00  -0.00     0.00   0.00  -0.00
 133   6     0.00   0.00  -0.00    -0.00  -0.00   0.00     0.00   0.00  -0.00
 134   6     0.11  -0.01   0.01    -0.14   0.02  -0.01     0.06  -0.01   0.00
 135   6    -0.00  -0.05   0.00     0.00   0.06  -0.00    -0.00  -0.03   0.00
 136   6    -0.00  -0.00  -0.00     0.00   0.00   0.00    -0.00  -0.00  -0.00
 137   7    -0.00   0.00  -0.00     0.00  -0.00   0.00    -0.00   0.00  -0.00
 138   6     0.00  -0.00   0.00    -0.00   0.00  -0.00     0.00  -0.00   0.00
 139   6     0.00   0.00   0.00    -0.00  -0.00  -0.00     0.00   0.00   0.00
 140   7     0.00   0.00  -0.00    -0.00  -0.00  -0.00     0.00   0.00  -0.00
 141   1     0.00   0.01   0.00    -0.00  -0.01  -0.00     0.00   0.01   0.00
 142   1     0.03   0.00   0.00    -0.01  -0.00  -0.00     0.01   0.00   0.00
 143   1     0.06  -0.01  -0.00     0.01  -0.00  -0.00     0.03  -0.00  -0.00
 144   1     0.00  -0.03  -0.00     0.00  -0.01  -0.00     0.00  -0.01  -0.00
 145   1     0.00  -0.00   0.00     0.00  -0.00   0.00     0.00  -0.00   0.00
 146   1    -0.01  -0.18   0.01    -0.01  -0.13   0.01    -0.02  -0.26   0.02
 147   1    -0.43  -0.06   0.03    -0.33  -0.05   0.02    -0.65  -0.10   0.05
 148   1    -0.35   0.05  -0.02     0.46  -0.07   0.03    -0.20   0.03  -0.01
 149   1    -0.01   0.15  -0.01     0.01  -0.18   0.01    -0.01   0.08  -0.01
 150   1     0.00   0.00  -0.00    -0.00  -0.00   0.00     0.00   0.00  -0.00
 151  26     0.00  -0.00  -0.00     0.00   0.00   0.00    -0.00   0.00   0.00
 152   6     0.00  -0.01  -0.00     0.00  -0.09  -0.02    -0.00   0.03   0.01
 153   6    -0.02  -0.00  -0.00    -0.20  -0.02  -0.02     0.07   0.01   0.01
 154   6    -0.00   0.00   0.00    -0.00   0.01   0.00     0.00  -0.00  -0.00
 155   6    -0.00   0.00   0.00    -0.00  -0.00  -0.00     0.00  -0.00  -0.00
 156   6    -0.00  -0.01  -0.00     0.00   0.00   0.00     0.00   0.00   0.00
 157   6    -0.20   0.02   0.02     0.02  -0.00  -0.00     0.15  -0.02  -0.01
 158   6     0.00   0.09   0.02    -0.00  -0.01  -0.00    -0.00  -0.06  -0.02
 159   6     0.00   0.00  -0.00    -0.00   0.00   0.00    -0.00  -0.00   0.00
 160   7     0.00  -0.00  -0.00     0.00   0.00   0.00    -0.00   0.00   0.00
 161   6    -0.00   0.00   0.00     0.00  -0.00  -0.00     0.00  -0.00  -0.00
 162   6    -0.00  -0.00  -0.00    -0.00   0.00  -0.00    -0.00   0.00   0.00
 163   6     0.00   0.00   0.00     0.00  -0.00  -0.00    -0.00  -0.00  -0.00
 164   6     0.00   0.00  -0.00    -0.00  -0.00   0.00    -0.00  -0.00   0.00
 165   6     0.00  -0.00  -0.00    -0.00   0.00   0.00    -0.00   0.00   0.00
 166   7    -0.00   0.00  -0.00     0.00  -0.00   0.00     0.00   0.00  -0.00
 167   6    -0.00   0.00   0.00    -0.00  -0.00  -0.00    -0.00  -0.00  -0.00
 168   6    -0.00  -0.00  -0.00     0.00   0.00   0.00     0.00  -0.00   0.00
 169   6    -0.00   0.00  -0.00     0.00  -0.00   0.00    -0.00   0.00  -0.00
 170   6     0.00   0.00   0.00     0.00  -0.00  -0.00    -0.00   0.00   0.00
 171   6     0.00  -0.00   0.00    -0.00   0.00   0.00     0.00  -0.00  -0.00
 172   7     0.00  -0.00  -0.00    -0.00   0.00  -0.00     0.00  -0.00   0.00
 173   6    -0.00  -0.00  -0.00    -0.00  -0.00  -0.00     0.00   0.00   0.00
 174   6     0.00  -0.00  -0.00     0.00  -0.00   0.00    -0.00   0.00  -0.00
 175   7     0.00   0.00   0.00     0.00   0.00   0.00    -0.00  -0.00  -0.00
 176   1     0.00   0.03   0.01     0.02   0.26   0.06    -0.01  -0.09  -0.02
 177   1     0.07   0.01   0.01     0.67   0.09   0.06    -0.23  -0.03  -0.02
 178   1     0.66  -0.09  -0.06    -0.06   0.01   0.01    -0.51   0.07   0.05
 179   1     0.02  -0.27  -0.07    -0.00   0.02   0.00    -0.01   0.19   0.05
 180   1    -0.00  -0.01  -0.00     0.00   0.00   0.00     0.00   0.00   0.00
 181   1    -0.00  -0.01  -0.00    -0.00  -0.00  -0.00     0.00   0.01   0.00
 182   1    -0.01  -0.00   0.00     0.00   0.00  -0.00     0.01   0.00  -0.00
 183   1     0.01  -0.00   0.00    -0.01   0.00  -0.00     0.00  -0.00   0.00
 184   1    -0.00  -0.00  -0.00    -0.00   0.01   0.00     0.00  -0.00  -0.00
 185   1    -0.00   0.00   0.00    -0.00   0.00   0.00     0.00  -0.00  -0.00
