      -----------------------------------------------------------      
     |                   =====================                   |     
     |                           x T B                           |     
     |                   =====================                   |     
     |                         S. Grimme                         |     
     |          Mulliken Center for Theoretical Chemistry        |     
     |                    University of Bonn                     |     
      -----------------------------------------------------------      

   * xtb version 6.4.1 (bd6e46d) compiled by 'conda@4901f00b25ba' on 2021-06-10

   xtb is free software: you can redistribute it and/or modify it under
   the terms of the GNU Lesser General Public License as published by
   the Free Software Foundation, either version 3 of the License, or
   (at your option) any later version.
   
   xtb is distributed in the hope that it will be useful,
   but WITHOUT ANY WARRANTY; without even the implied warranty of
   MERCHANTABILITY or FITNESS FOR A PARTICULAR PURPOSE.  See the
   GNU Lesser General Public License for more details.
   
   Cite this work as:
   * C. Bannwarth, E. Caldeweyher, S. Ehlert, A. Hansen, P. Pracht,
     J. Seibert, S. Spicher, S. Grimme, WIREs Comput. Mol. Sci., 2020, 11,
     e01493. DOI: 10.1002/wcms.1493
   
   for GFN2-xTB:
   * C. Bannwarth, S. Ehlert and S. Grimme., J. Chem. Theory Comput., 2019,
     15, 1652-1671. DOI: 10.1021/acs.jctc.8b01176
   for GFN1-xTB:
   * S. Grimme, C. Bannwarth, P. Shushkov, J. Chem. Theory Comput., 2017,
     13, 1989-2009. DOI: 10.1021/acs.jctc.7b00118
   for GFN0-xTB:
   * P. Pracht, E. Caldeweyher, S. Ehlert, S. Grimme, ChemRxiv, 2019, preprint.
     DOI: 10.26434/chemrxiv.8326202.v1
   for GFN-FF:
   * S. Spicher and S. Grimme, Angew. Chem. Int. Ed., 2020, 59, 15665-15673.
     DOI: 10.1002/anie.202004239
   
   for DFT-D4:
   * E. Caldeweyher, C. Bannwarth and S. Grimme, J. Chem. Phys., 2017,
     147, 034112. DOI: 10.1063/1.4993215
   * E. Caldeweyher, S. Ehlert, A. Hansen, H. Neugebauer, S. Spicher,
     C. Bannwarth and S. Grimme, J. Chem. Phys., 2019, 150, 154122.
     DOI: 10.1063/1.5090222
   * E. Caldeweyher, J.-M. Mewes, S. Ehlert and S. Grimme, Phys. Chem. Chem. Phys.
     2020, 22, 8499-8512. DOI: 10.1039/D0CP00502A
   
   for sTDA-xTB:
   * S. Grimme and C. Bannwarth, J. Chem. Phys., 2016, 145, 054103.
     DOI: 10.1063/1.4959605
   
   in the mass-spec context:
   * V. Asgeirsson, C. Bauer and S. Grimme, Chem. Sci., 2017, 8, 4879.
     DOI: 10.1039/c7sc00601b
   * J. Koopman and S. Grimme, ACS Omega 2019, 4, 12, 15120-15133.
     DOI: 10.1021/acsomega.9b02011
   
   for metadynamics refer to:
   * S. Grimme, J. Chem. Theory Comput., 2019, 155, 2847-2862
     DOI: 10.1021/acs.jctc.9b00143
   
   for SPH calculations refer to:
   * S. Spicher and S. Grimme, J. Chem. Theory Comput., 2021, 17, 1701-1714
     DOI: 10.1021/acs.jctc.0c01306
   
   with help from (in alphabetical order)
   P. Atkinson, C. Bannwarth, F. Bohle, G. Brandenburg, E. Caldeweyher
   M. Checinski, S. Dohm, S. Ehlert, S. Ehrlich, I. Gerasimov, J. Koopman
   C. Lavigne, S. Lehtola, F. März, M. Müller, F. Musil, H. Neugebauer
   J. Pisarek, C. Plett, P. Pracht, J. Seibert, P. Shushkov, S. Spicher
   M. Stahn, M. Steiner, T. Strunk, J. Stückrath, T. Rose, and J. Unsleber
   
 * started run on 2021/11/19 at 14:58:31.039     

           -------------------------------------------------
          |                Calculation Setup                |
           -------------------------------------------------

          program call               : /home/jeff/miniconda3/bin/xtb input_structure_1.xyz --gfn 2 --ohess normal --parallel 1 --etemp 300 --chrg 0 --uhf 0 -I det_control.in
          hostname                   : jelfscompute1
          coordinate file            : input_structure_1.xyz
          omp threads                :                     1
          number of atoms            :                   185
          number of electrons        :                   624
          charge                     :                     0
          spin                       :                   0.0
          first test random number   :      0.09761332546632

   ID    Z sym.   atoms
    1   26 Fe     1, 37, 81, 116, 151
    2    6 C      2-9, 11-15, 17-21, 23, 24, 38-45, 47-51, 53-57, 59, 60,
                  73-80, 82-89, 91-95, 97-101, 103, 104, 117-124, 126-130,
                  132-136, 138, 139, 152-159, 161-165, 167-171, 173, 174
    3    7 N      10, 16, 22, 25, 46, 52, 58, 61, 90, 96, 102, 105, 125, 131,
                  137, 140, 160, 166, 172, 175
    4    1 H      26-36, 62-72, 106-115, 141-150, 176-185

molecular fragmentation (1/2 indicates fragments):
111111111111111111111111111111111111222222222222222222222222222222222222
222222222222222222222222222222222222222222222222222222222222222222222222
22222222222222222222222222222222222222222
# atoms in fragment 1/2:    36   149
 fragment masses (1/2) :      363.17     1545.76
CMA distance (Bohr)    :  53.455
constraining FC (au)   :  0.0500

           -------------------------------------------------
          |                 G F N 2 - x T B                 |
           -------------------------------------------------

        Reference                      10.1021/acs.jctc.8b01176
      * Hamiltonian:
        H0-scaling (s, p, d)           1.850000    2.230000    2.230000
        zeta-weighting                 0.500000
      * Dispersion:
        s8                             2.700000
        a1                             0.520000
        a2                             5.000000
        s9                             5.000000
      * Repulsion:
        kExp                           1.500000    1.000000
        rExp                           1.000000
      * Coulomb:
        alpha                          2.000000
        third order                    shell-resolved
        anisotropic                    true
        a3                             3.000000
        a5                             4.000000
        cn-shift                       1.200000
        cn-exp                         4.000000
        max-rad                        5.000000


          ...................................................
          :                      SETUP                      :
          :.................................................:
          :  # basis functions                 614          :
          :  # atomic orbitals                 609          :
          :  # shells                          323          :
          :  # electrons                       624          :
          :  max. iterations                   250          :
          :  Hamiltonian                  GFN2-xTB          :
          :  restarted?                      false          :
          :  GBSA solvation                  false          :
          :  PC potential                    false          :
          :  electronic temp.          300.0000000     K    :
          :  accuracy                    1.0000000          :
          :  -> integral cutoff          0.2500000E+02      :
          :  -> integral neglect         0.1000000E-07      :
          :  -> SCF convergence          0.1000000E-05 Eh   :
          :  -> wf. convergence          0.1000000E-03 e    :
          :  Broyden damping             0.4000000          :
          ...................................................

 iter      E             dE          RMSdq      gap      omega  full diag
   1   -332.1739457 -0.332174E+03  0.825E+00    0.14       0.0  T
   2   -310.0838796  0.220901E+02  0.120E+01    0.02       1.0  T
   3   -315.7161945 -0.563231E+01  0.793E+00    0.04       1.0  T
   4   -269.2575917  0.464586E+02  0.911E+00    0.04       1.0  T
   5   -301.2036477 -0.319461E+02  0.924E+00    0.18       1.0  T
   6   -314.3008282 -0.130972E+02  0.736E+00    0.01       1.0  T
   7   -326.5297709 -0.122289E+02  0.577E+00    0.01       1.0  T
   8   -330.5590256 -0.402925E+01  0.499E+00    0.02       1.0  T
   9   -332.5353906 -0.197637E+01  0.470E+00    0.06       1.0  T
  10   -325.8186429  0.671675E+01  0.548E+00    0.12       1.0  T
  11   -328.0848199 -0.226618E+01  0.516E+00    0.04       1.0  T
  12   -326.1974303  0.188739E+01  0.620E+00    0.40       1.0  T
  13   -313.2250248  0.129724E+02  0.614E+00    0.02       1.0  T
  14   -328.2643496 -0.150393E+02  0.641E+00    0.01       1.0  T
  15   -323.9407748  0.432357E+01  0.643E+00    0.02       1.0  T
  16   -323.8512285  0.895463E-01  0.628E+00    0.04       1.0  T
  17   -327.9268448 -0.407562E+01  0.586E+00    0.02       1.0  T
  18   -329.1452619 -0.121842E+01  0.630E+00    0.10       1.0  T
  19   -329.1442250  0.103687E-02  0.629E+00    0.09       1.0  T
  20   -329.8822964 -0.738071E+00  0.594E+00    0.06       1.0  T
  21   -332.8977872 -0.301549E+01  0.386E+00    0.02       1.0  T
  22   -328.7148619  0.418293E+01  0.595E+00    0.03       1.0  T
  23   -332.7564148 -0.404155E+01  0.427E+00    0.01       1.0  T
  24   -334.5188829 -0.176247E+01  0.295E+00    0.01       1.0  T
  25   -334.3960249  0.122858E+00  0.294E+00    0.03       1.0  T
  26   -332.8755851  0.152044E+01  0.392E+00    0.01       1.0  T
  27   -331.1972341  0.167835E+01  0.444E+00    0.01       1.0  T
  28   -331.8864789 -0.689245E+00  0.417E+00    0.01       1.0  T
  29   -333.6348843 -0.174841E+01  0.331E+00    0.02       1.0  T
  30   -333.8981538 -0.263270E+00  0.315E+00    0.02       1.0  T
  31   -333.7761420  0.122012E+00  0.321E+00    0.02       1.0  T
  32   -334.0475211 -0.271379E+00  0.304E+00    0.01       1.0  T
  33   -334.4218605 -0.374339E+00  0.278E+00    0.01       1.0  T
  34   -334.7918716 -0.370011E+00  0.298E+00    0.00       1.0  T
  35   -334.7927361 -0.864496E-03  0.298E+00    0.01       1.0  T
  36   -334.0043983  0.788338E+00  0.331E+00    0.00       1.0  T
  37   -334.0199893 -0.155910E-01  0.318E+00    0.01       1.0  T
  38   -334.5243167 -0.504327E+00  0.299E+00    0.01       1.0  T
  39   -334.3881288  0.136188E+00  0.334E+00    0.01       1.0  T
  40   -334.6083833 -0.220254E+00  0.337E+00    0.01       1.0  T
  41   -334.7209373 -0.112554E+00  0.334E+00    0.02       1.0  T
  42   -333.7390287  0.981909E+00  0.385E+00    0.00       1.0  T
  43   -333.7968772 -0.578485E-01  0.384E+00    0.01       1.0  T
  44   -334.2252890 -0.428412E+00  0.367E+00    0.01       1.0  T
  45   -334.6412369 -0.415948E+00  0.363E+00    0.03       1.0  T
  46   -335.2893397 -0.648103E+00  0.335E+00    0.02       1.0  T
  47   -334.7586750  0.530665E+00  0.343E+00    0.02       1.0  T
  48   -334.1461871  0.612488E+00  0.365E+00    0.02       1.0  T
  49   -334.3946686 -0.248481E+00  0.356E+00    0.00       1.0  T
  50   -334.7218790 -0.327210E+00  0.327E+00    0.01       1.0  T
  51   -334.7637254 -0.418464E-01  0.328E+00    0.01       1.0  T
  52   -334.9070379 -0.143313E+00  0.317E+00    0.00       1.0  T
  53   -334.9038851  0.315284E-02  0.313E+00    0.00       1.0  T
  54   -335.2429262 -0.339041E+00  0.313E+00    0.02       1.0  T
  55   -335.2428452  0.810586E-04  0.290E+00    0.01       1.0  T
  56   -335.4111326 -0.168287E+00  0.285E+00    0.01       1.0  T
  57   -335.1862293  0.224903E+00  0.290E+00    0.01       1.0  T
  58   -335.5527344 -0.366505E+00  0.270E+00    0.00       1.0  T
  59   -335.5252746  0.274599E-01  0.285E+00    0.01       1.0  T
  60   -335.5477862 -0.225116E-01  0.295E+00    0.01       1.0  T
  61   -335.7248710 -0.177085E+00  0.295E+00    0.00       1.0  T
  62   -335.6430284  0.818425E-01  0.281E+00    0.01       1.0  T
  63   -335.5689994  0.740291E-01  0.273E+00    0.01       1.0  T
  64   -335.7570941 -0.188095E+00  0.275E+00    0.01       1.0  T
  65   -335.7654519 -0.835787E-02  0.259E+00    0.01       1.0  T
  66   -336.1239994 -0.358547E+00  0.254E+00    0.01       1.0  T
  67   -336.1187197  0.527970E-02  0.254E+00    0.01       1.0  T
  68   -335.9842287  0.134491E+00  0.259E+00    0.00       1.0  T
  69   -335.8253532  0.158875E+00  0.246E+00    0.01       1.0  T
  70   -335.8267143 -0.136108E-02  0.245E+00    0.01       1.0  T
  71   -335.8328144 -0.610003E-02  0.236E+00    0.01       1.0  T
  72   -336.3500812 -0.517267E+00  0.156E+00    0.00       1.0  T
  73   -336.3474052  0.267604E-02  0.117E+00    0.01       1.0  T
  74   -336.0488638  0.298541E+00  0.176E+00    0.01       1.0  T
  75   -336.4801472 -0.431283E+00  0.116E+00    0.00       1.0  T
  76   -336.4432858  0.368613E-01  0.109E+00    0.00       1.0  T
  77   -336.6299374 -0.186652E+00  0.507E-01    0.00       1.0  T
  78   -336.6064837  0.234537E-01  0.728E-01    0.00       1.0  T
  79   -336.6058059  0.677736E-03  0.762E-01    0.00       1.0  T
  80   -336.6113309 -0.552501E-02  0.627E-01    0.00       1.0  T
  81   -336.6402936 -0.289627E-01  0.497E-01    0.00       1.0  T
  82   -336.6555155 -0.152219E-01  0.254E-01    0.00       1.0  T
  83   -336.6586680 -0.315249E-02  0.190E-01    0.00       1.0  T
  84   -336.6543876  0.428045E-02  0.223E-01    0.00       1.0  T
  85   -336.6537032  0.684327E-03  0.242E-01    0.00       1.0  T
  86   -336.6615845 -0.788125E-02  0.161E-01    0.00       1.0  T
  87   -336.6651341 -0.354959E-02  0.105E-01    0.00       1.0  T
  88   -336.6655334 -0.399324E-03  0.910E-02    0.00       1.0  T
  89   -336.6669420 -0.140857E-02  0.636E-02    0.00       1.0  T
  90   -336.6675475 -0.605522E-03  0.343E-02    0.00       1.0  T
  91   -336.6675421  0.542097E-05  0.331E-02    0.00       1.0  T
  92   -336.6677127 -0.170662E-03  0.237E-02    0.00       1.0  T
  93   -336.6677524 -0.396314E-04  0.181E-02    0.00       1.0  T
  94   -336.6677616 -0.920143E-05  0.124E-02    0.00       1.0  T
  95   -336.6677805 -0.189425E-04  0.985E-03    0.00       1.0  T
  96   -336.6677902 -0.966952E-05  0.693E-03    0.00       1.1  T
  97   -336.6677900  0.198325E-06  0.741E-03    0.00       1.0  T
  98   -336.6677958 -0.577141E-05  0.487E-03    0.00       1.5  T
  99   -336.6677987 -0.295446E-05  0.246E-03    0.00       3.0  T
 100   -336.6677991 -0.426920E-06  0.213E-03    0.00       3.5  T
 101   -336.6677992 -0.213899E-07  0.135E-03    0.00       5.4  T
 102   -336.6677993 -0.191973E-06  0.110E-03    0.00       6.7  T
 103   -336.6677996 -0.266680E-06  0.444E-04    0.00      16.5  T
 104   -336.6677996  0.407562E-08  0.522E-04    0.00      14.1  T

   *** convergence criteria satisfied after 104 iterations ***

         #    Occupation            Energy/Eh            Energy/eV
      -------------------------------------------------------------
         1        2.0000           -0.6786487             -18.4670
       ...           ...                  ...                  ...
       306        1.8741           -0.3329627              -9.0604
       307        1.8731           -0.3329542              -9.0601
       308        1.4850           -0.3314029              -9.0179
       309        1.4716           -0.3313700              -9.0170
       310        1.1392           -0.3306631              -8.9978
       311        1.0944           -0.3305768              -8.9955
       312        1.0331           -0.3304598              -8.9923 (HOMO)
       313        0.9840           -0.3303665              -8.9897 (LUMO)
       314        0.9636           -0.3303277              -8.9887
       315        0.9036           -0.3302132              -8.9856
       316        0.8129           -0.3300371              -8.9808
       317        0.7610           -0.3299338              -8.9780
       ...           ...                  ...                  ...
       609                          1.4376921              39.1216
      -------------------------------------------------------------
                  HL-Gap            0.0000932 Eh            0.0025 eV
             Fermi-level           -0.3303969 Eh           -8.9906 eV

 SCC (total)                   0 d,  0 h,  0 min,  9.784 sec
 SCC setup                      ...        0 min,  0.006 sec (  0.064%)
 Dispersion                     ...        0 min,  0.013 sec (  0.137%)
 classical contributions        ...        0 min,  0.002 sec (  0.016%)
 integral evaluation            ...        0 min,  0.112 sec (  1.146%)
 iterations                     ...        0 min,  9.323 sec ( 95.289%)
 molecular gradient             ...        0 min,  0.316 sec (  3.234%)
 printout                       ...        0 min,  0.011 sec (  0.113%)

         :::::::::::::::::::::::::::::::::::::::::::::::::::::
         ::                     SUMMARY                     ::
         :::::::::::::::::::::::::::::::::::::::::::::::::::::
         :: total energy            -330.847550665210 Eh    ::
         :: gradient norm              0.797650180306 Eh/a0 ::
         :: HOMO-LUMO gap              0.002537351956 eV    ::
         ::.................................................::
         :: SCC energy              -336.667799609559 Eh    ::
         :: -> isotropic ES            0.015160819523 Eh    ::
         :: -> anisotropic ES          0.046007211352 Eh    ::
         :: -> anisotropic XC          0.206942407011 Eh    ::
         :: -> dispersion             -0.257881700610 Eh    ::
         :: repulsion energy           5.819006178762 Eh    ::
         :: add. restraining           0.000000000000 Eh    ::
         :: total charge               0.000000000178 e     ::
         :::::::::::::::::::::::::::::::::::::::::::::::::::::

      ----------------------------------------------------------- 
     |                   =====================                   |
     |                        A N C O P T                        |
     |                   =====================                   |
     |               Approximate Normal Coordinate               |
     |                Rational Function Optimizer                |
      ----------------------------------------------------------- 

          ...................................................
          :                      SETUP                      :
          :.................................................:
          :   optimization level            normal          :
          :   max. optcycles                   555          :
          :   ANC micro-cycles                  20          :
          :   degrees of freedom               549          :
          :.................................................:
          :   RF solver                   davidson          :
          :   write xtbopt.log                true          :
          :   linear?                        false          :
          :   energy convergence         0.5000000E-05 Eh   :
          :   grad. convergence          0.1000000E-02 Eh/α :
          :   maximium RF displ.         1.0000000          :
          :   Hlow (freq-cutoff)         0.1000000E-01      :
          :   Hmax (freq-cutoff)         5.0000000          :
          :   S6 in model hess.         20.0000000          :
          ...................................................

generating ANC from model Hessian ...
Using Lindh-Hessian (1995)
 Shifting diagonal of input Hessian by    1.0025756514957714E-002
 Lowest  eigenvalues of input Hessian
    0.010000    0.010001    0.010003    0.010004    0.010010    0.010011
    0.010016    0.010017    0.010020    0.010023    0.000000    0.000000
    0.000000    0.000000    0.000000    0.000000    0.010027    0.010035
 Highest eigenvalues
    2.210448    2.211512    2.393221    2.512585    2.732929    2.732929


........................................................................
.............................. CYCLE    1 ..............................
........................................................................
   1   -336.6677996 -0.336668E+03  0.442E-04    0.00       0.0  T
   2   -336.6675828  0.216842E-03  0.269E-02    0.00       1.0  T
   3   -336.6677766 -0.193768E-03  0.856E-03    0.00       1.0  T
   4   -336.6674692  0.307333E-03  0.321E-02    0.00       1.0  T
   5   -336.6677919 -0.322712E-03  0.509E-03    0.00       1.4  T
   6   -336.6673799  0.412030E-03  0.376E-02    0.00       1.0  T
   7   -336.6677892 -0.409294E-03  0.578E-03    0.00       1.3  T
   8   -336.6677847  0.451185E-05  0.716E-03    0.00       1.0  T
   9   -336.6677873 -0.262795E-05  0.617E-03    0.00       1.2  T
  10   -336.6677985 -0.111749E-04  0.184E-03    0.00       4.0  T
  11   -336.6677992 -0.746753E-06  0.114E-03    0.00       6.4  T
  12   -336.6677996 -0.339101E-06  0.454E-04    0.00      16.2  T
  13   -336.6677996 -0.244366E-07  0.357E-04    0.00      20.6  T
     SCC iter.                  ...        0 min,  1.162 sec
     gradient                   ...        0 min,  0.342 sec
 * total energy  :  -330.8475507 Eh     change       -0.1846274E-08 Eh
   gradient norm :     0.7976500 Eh/α   predicted     0.0000000E+00 (-100.00%)
   displ. norm   :     0.5528019 α      lambda       -0.3519221E+00
   maximum displ.:     0.1498279 α      in ANC's #537, #189, #188, ...

........................................................................
.............................. CYCLE    2 ..............................
........................................................................
   1   -336.6258065 -0.336626E+03  0.600E-01    0.00       0.0  T
   2   -331.1096694  0.551614E+01  0.433E+00    0.01       1.0  T
   3   -331.8046993 -0.695030E+00  0.428E+00    0.04       1.0  T
   4   -328.8355979  0.296910E+01  0.564E+00    0.02       1.0  T
   5   -334.1671411 -0.533154E+01  0.303E+00    0.03       1.0  T
   6   -329.7703696  0.439677E+01  0.535E+00    0.06       1.0  T
   7   -333.0886438 -0.331827E+01  0.370E+00    0.01       1.0  T
   8   -330.8489332  0.223971E+01  0.427E+00    0.02       1.0  T
   9   -334.1610637 -0.331213E+01  0.275E+00    0.03       1.0  T
  10   -332.8884362  0.127263E+01  0.374E+00    0.03       1.0  T
  11   -334.0009003 -0.111246E+01  0.304E+00    0.00       1.0  T
  12   -334.5685164 -0.567616E+00  0.263E+00    0.02       1.0  T
  13   -335.7799442 -0.121143E+01  0.175E+00    0.01       1.0  T
  14   -335.7392199  0.407243E-01  0.175E+00    0.00       1.0  T
  15   -333.3603562  0.237886E+01  0.348E+00    0.02       1.0  T
  16   -333.7596708 -0.399315E+00  0.332E+00    0.00       1.0  T
  17   -333.6061926  0.153478E+00  0.335E+00    0.01       1.0  T
  18   -336.3768848 -0.277069E+01  0.105E+00    0.00       1.0  T
  19   -335.9738852  0.403000E+00  0.150E+00    0.02       1.0  T
  20   -336.0640349 -0.901497E-01  0.142E+00    0.00       1.0  T
  21   -336.1819455 -0.117911E+00  0.122E+00    0.01       1.0  T
  22   -336.5990338 -0.417088E+00  0.590E-01    0.00       1.0  T
  23   -336.4893894  0.109644E+00  0.831E-01    0.00       1.0  T
  24   -336.5315362 -0.421468E-01  0.725E-01    0.00       1.0  T
  25   -336.4934414  0.380948E-01  0.797E-01    0.00       1.0  T
  26   -336.5717909 -0.783496E-01  0.598E-01    0.00       1.0  T
  27   -336.6033421 -0.315512E-01  0.473E-01    0.00       1.0  T
  28   -336.6224769 -0.191347E-01  0.383E-01    0.00       1.0  T
  29   -336.6277952 -0.531832E-02  0.345E-01    0.00       1.0  T
  30   -336.6268489  0.946281E-03  0.332E-01    0.00       1.0  T
  31   -336.6404591 -0.136102E-01  0.212E-01    0.00       1.0  T
  32   -336.6382114  0.224765E-02  0.215E-01    0.00       1.0  T
  33   -336.6477980 -0.958661E-02  0.107E-01    0.00       1.0  T
  34   -336.6459343  0.186372E-02  0.127E-01    0.00       1.0  T
  35   -336.6489715 -0.303719E-02  0.676E-02    0.00       1.0  T
  36   -336.6495347 -0.563192E-03  0.446E-02    0.00       1.0  T
  37   -336.6493159  0.218812E-03  0.480E-02    0.00       1.0  T
  38   -336.6495544 -0.238496E-03  0.380E-02    0.00       1.0  T
  39   -336.6500021 -0.447708E-03  0.101E-02    0.00       1.0  T
  40   -336.6500120 -0.994467E-05  0.716E-03    0.00       1.0  T
  41   -336.6500101  0.189718E-05  0.696E-03    0.00       1.1  T
  42   -336.6500131 -0.299780E-05  0.622E-03    0.00       1.2  T
  43   -336.6500222 -0.906547E-05  0.254E-03    0.00       2.9  T
  44   -336.6500239 -0.168384E-05  0.505E-04    0.00      14.6  T
  45   -336.6500235  0.410251E-06  0.125E-03    0.00       5.9  T
  46   -336.6500237 -0.263686E-06  0.812E-04    0.00       9.1  T
  47   -336.6500238 -0.954730E-07  0.584E-04    0.00      12.6  T
     SCC iter.                  ...        0 min,  4.224 sec
     gradient                   ...        0 min,  0.316 sec
 * total energy  :  -331.1249629 Eh     change       -0.2774122E+00 Eh
   gradient norm :     0.4411139 Eh/α   predicted    -0.2297759E+00 ( -17.17%)
   displ. norm   :     0.6403498 α      lambda       -0.2233555E+00
   maximum displ.:     0.1961317 α      in ANC's #189, #188, #537, ...

........................................................................
.............................. CYCLE    3 ..............................
........................................................................
   1   -336.6639452 -0.336664E+03  0.123E+00    0.02       0.0  T
   2   -332.8805225  0.378342E+01  0.421E+00    0.01       1.0  T
   3   -316.1913698  0.166892E+02  0.760E+00    0.01       1.0  T
   4   -327.8407147 -0.116493E+02  0.607E+00    0.07       1.0  T
   5   -326.9552064  0.885508E+00  0.573E+00    0.08       1.0  T
   6   -329.9779196 -0.302271E+01  0.495E+00    0.03       1.0  T
   7   -332.5471243 -0.256920E+01  0.353E+00    0.05       1.0  T
   8   -329.5496459  0.299748E+01  0.547E+00    0.04       1.0  T
   9   -332.0896798 -0.254003E+01  0.423E+00    0.00       1.0  T
  10   -333.4352350 -0.134556E+01  0.326E+00    0.02       1.0  T
  11   -335.1748434 -0.173961E+01  0.237E+00    0.00       1.0  T
  12   -335.6205827 -0.445739E+00  0.198E+00    0.01       1.0  T
  13   -334.9763484  0.644234E+00  0.246E+00    0.01       1.0  T
  14   -333.3262990  0.165005E+01  0.352E+00    0.02       1.0  T
  15   -335.4322872 -0.210599E+01  0.216E+00    0.01       1.0  T
  16   -335.6036046 -0.171317E+00  0.188E+00    0.00       1.0  T
  17   -335.4395474  0.164057E+00  0.214E+00    0.01       1.0  T
  18   -334.7293845  0.710163E+00  0.265E+00    0.00       1.0  T
  19   -332.9002699  0.182911E+01  0.367E+00    0.03       1.0  T
  20   -333.5297364 -0.629466E+00  0.329E+00    0.02       1.0  T
  21   -334.5908424 -0.106111E+01  0.268E+00    0.03       1.0  T
  22   -334.2696256  0.321217E+00  0.292E+00    0.01       1.0  T
  23   -334.3872941 -0.117669E+00  0.295E+00    0.02       1.0  T
  24   -333.1336301  0.125366E+01  0.369E+00    0.02       1.0  T
  25   -332.6509165  0.482714E+00  0.386E+00    0.02       1.0  T
  26   -332.1849850  0.465932E+00  0.410E+00    0.04       1.0  T
  27   -333.5250435 -0.134006E+01  0.348E+00    0.00       1.0  T
  28   -335.7458226 -0.222078E+01  0.194E+00    0.01       1.0  T
  29   -335.3015520  0.444271E+00  0.230E+00    0.00       1.0  T
  30   -336.5031300 -0.120158E+01  0.951E-01    0.01       1.0  T
  31   -336.3943330  0.108797E+00  0.116E+00    0.00       1.0  T
  32   -336.2625335  0.131799E+00  0.132E+00    0.01       1.0  T
  33   -336.1668599  0.956736E-01  0.142E+00    0.00       1.0  T
  34   -336.5265771 -0.359717E+00  0.925E-01    0.01       1.0  T
  35   -336.4744020  0.521750E-01  0.972E-01    0.01       1.0  T
  36   -336.5571456 -0.827435E-01  0.930E-01    0.01       1.0  T
  37   -336.5505379  0.660763E-02  0.937E-01    0.01       1.0  T
  38   -336.5556858 -0.514789E-02  0.973E-01    0.00       1.0  T
  39   -336.5510663  0.461948E-02  0.976E-01    0.01       1.0  T
  40   -336.5696190 -0.185526E-01  0.894E-01    0.01       1.0  T
  41   -336.5924975 -0.228785E-01  0.813E-01    0.00       1.0  T
  42   -336.5503587  0.421388E-01  0.844E-01    0.00       1.0  T
  43   -336.5901519 -0.397932E-01  0.717E-01    0.00       1.0  T
  44   -336.6574980 -0.673461E-01  0.451E-01    0.00       1.0  T
  45   -336.5759612  0.815368E-01  0.655E-01    0.00       1.0  T
  46   -336.5838207 -0.785957E-02  0.632E-01    0.00       1.0  T
  47   -336.6483805 -0.645598E-01  0.408E-01    0.00       1.0  T
  48   -336.6663731 -0.179926E-01  0.305E-01    0.00       1.0  T
  49   -336.6853525 -0.189794E-01  0.155E-01    0.00       1.0  T
  50   -336.6856384 -0.285862E-03  0.148E-01    0.00       1.0  T
  51   -336.6896574 -0.401907E-02  0.950E-02    0.00       1.0  T
  52   -336.6879055  0.175197E-02  0.120E-01    0.00       1.0  T
  53   -336.6917224 -0.381694E-02  0.401E-02    0.00       1.0  T
  54   -336.6920247 -0.302297E-03  0.351E-02    0.00       1.0  T
  55   -336.6920867 -0.619922E-04  0.233E-02    0.00       1.0  T
  56   -336.6920401  0.465868E-04  0.236E-02    0.00       1.0  T
  57   -336.6921413 -0.101156E-03  0.146E-02    0.00       1.0  T
  58   -336.6921503 -0.907171E-05  0.124E-02    0.00       1.0  T
  59   -336.6921906 -0.402057E-04  0.501E-03    0.00       1.5  T
  60   -336.6921790  0.115967E-04  0.764E-03    0.00       1.0  T
  61   -336.6921832 -0.421508E-05  0.649E-03    0.00       1.1  T
  62   -336.6921944 -0.112315E-04  0.275E-03    0.00       2.7  T
  63   -336.6921951 -0.697640E-06  0.230E-03    0.00       3.2  T
  64   -336.6921960 -0.858940E-06  0.154E-03    0.00       4.8  T
  65   -336.6921966 -0.658330E-06  0.647E-04    0.00      11.4  T
  66   -336.6921966  0.445452E-07  0.698E-04    0.00      10.5  T
     SCC iter.                  ...        0 min,  5.900 sec
     gradient                   ...        0 min,  0.317 sec
 * total energy  :  -331.2900088 Eh     change       -0.1650459E+00 Eh
   gradient norm :     0.1799578 Eh/α   predicted    -0.1574710E+00 (  -4.59%)
   displ. norm   :     0.7344104 α      lambda       -0.1090701E+00
   maximum displ.:     0.2356011 α      in ANC's #189, #188, #183, ...

........................................................................
.............................. CYCLE    4 ..............................
........................................................................
   1   -336.7390845 -0.336739E+03  0.195E+00    0.04       0.0  T
   2   -335.3204026  0.141868E+01  0.579E+00    0.06       1.0  T
   3   -327.6869822  0.763342E+01  0.574E+00    0.01       1.0  T
   4   -329.5844009 -0.189742E+01  0.561E+00    0.04       1.0  T
   5   -327.2670336  0.231737E+01  0.582E+00    0.10       1.0  T
   6   -329.0460655 -0.177903E+01  0.567E+00    0.05       1.0  T
   7   -329.6390763 -0.593011E+00  0.541E+00    0.01       1.0  T
   8   -335.0690251 -0.542995E+01  0.246E+00    0.01       1.0  T
   9   -334.6177484  0.451277E+00  0.291E+00    0.00       1.0  T
  10   -335.6381350 -0.102039E+01  0.216E+00    0.02       1.0  T
  11   -335.3107650  0.327370E+00  0.230E+00    0.00       1.0  T
  12   -336.1561736 -0.845409E+00  0.144E+00    0.02       1.0  T
  13   -335.7638409  0.392333E+00  0.203E+00    0.01       1.0  T
  14   -335.4903415  0.273499E+00  0.219E+00    0.00       1.0  T
  15   -334.9042466  0.586095E+00  0.266E+00    0.01       1.0  T
  16   -334.8584334  0.458133E-01  0.267E+00    0.01       1.0  T
  17   -336.5132650 -0.165483E+01  0.134E+00    0.00       1.0  T
  18   -334.0179650  0.249530E+01  0.328E+00    0.01       1.0  T
  19   -335.1454534 -0.112749E+01  0.244E+00    0.01       1.0  T
  20   -336.0986976 -0.953244E+00  0.153E+00    0.00       1.0  T
  21   -336.0461814  0.525161E-01  0.166E+00    0.02       1.0  T
  22   -336.6705349 -0.624353E+00  0.953E-01    0.00       1.0  T
  23   -336.4569799  0.213555E+00  0.113E+00    0.00       1.0  T
  24   -336.4898944 -0.329145E-01  0.101E+00    0.00       1.0  T
  25   -336.4593246  0.305698E-01  0.103E+00    0.01       1.0  T
  26   -336.7181936 -0.258869E+00  0.509E-01    0.01       1.0  T
  27   -336.5000682  0.218125E+00  0.921E-01    0.02       1.0  T
  28   -336.6746313 -0.174563E+00  0.582E-01    0.01       1.0  T
  29   -336.6719234  0.270791E-02  0.579E-01    0.00       1.0  T
  30   -336.7359838 -0.640604E-01  0.394E-01    0.01       1.0  T
  31   -336.7397095 -0.372568E-02  0.359E-01    0.01       1.0  T
  32   -336.7120275  0.276819E-01  0.439E-01    0.00       1.0  T
  33   -336.7350077 -0.229802E-01  0.347E-01    0.00       1.0  T
  34   -336.7671197 -0.321120E-01  0.104E-01    0.01       1.0  T
  35   -336.7671227 -0.305606E-05  0.807E-02    0.01       1.0  T
  36   -336.7668115  0.311225E-03  0.801E-02    0.01       1.0  T
  37   -336.7657726  0.103891E-02  0.931E-02    0.01       1.0  T
  38   -336.7653596  0.412959E-03  0.993E-02    0.01       1.0  T
  39   -336.7672783 -0.191867E-02  0.534E-02    0.01       1.0  T
  40   -336.7660456  0.123269E-02  0.832E-02    0.01       1.0  T
  41   -336.7675861 -0.154050E-02  0.319E-02    0.01       1.0  T
  42   -336.7677074 -0.121247E-03  0.202E-02    0.01       1.0  T
  43   -336.7677858 -0.784435E-04  0.102E-02    0.01       1.0  T
  44   -336.7677844  0.135078E-05  0.834E-03    0.01       1.0  T
  45   -336.7677857 -0.122988E-05  0.667E-03    0.01       1.1  T
  46   -336.7677985 -0.127814E-04  0.302E-03    0.01       2.4  T
  47   -336.7677991 -0.690337E-06  0.238E-03    0.01       3.1  T
  48   -336.7678009 -0.173781E-05  0.455E-04    0.01      16.2  T
  49   -336.7678009  0.335315E-07  0.526E-04    0.01      14.0  T
  50   -336.7678009 -0.174005E-07  0.455E-04    0.01      16.2  T
     SCC iter.                  ...        0 min,  4.462 sec
     gradient                   ...        0 min,  0.316 sec
 * total energy  :  -331.3796858 Eh     change       -0.8967704E-01 Eh
   gradient norm :     0.1068800 Eh/α   predicted    -0.8394909E-01 (  -6.39%)
   displ. norm   :     0.8251444 α      lambda       -0.8081336E-01
   maximum displ.:     0.2380725 α      in ANC's #189, #188, #93, ...

........................................................................
.............................. CYCLE    5 ..............................
........................................................................
   1   -336.8049017 -0.336805E+03  0.228E+00    0.06       0.0  T
   2   -332.1962537  0.460865E+01  0.521E+00    0.02       1.0  T
   3   -310.9485643  0.212477E+02  0.928E+00    0.11       1.0  T
   4   -334.1075061 -0.231589E+02  0.392E+00    0.01       1.0  T
   5   -328.0808715  0.602663E+01  0.599E+00    0.03       1.0  T
   6   -335.1133204 -0.703245E+01  0.334E+00    0.02       1.0  T
   7   -331.6281561  0.348516E+01  0.473E+00    0.01       1.0  T
   8   -335.0321751 -0.340402E+01  0.294E+00    0.00       1.0  T
   9   -334.1769348  0.855240E+00  0.339E+00    0.02       1.0  T
  10   -335.2782929 -0.110136E+01  0.274E+00    0.01       1.0  T
  11   -335.8269852 -0.548692E+00  0.228E+00    0.02       1.0  T
  12   -334.8300048  0.996980E+00  0.281E+00    0.02       1.0  T
  13   -335.7250641 -0.895059E+00  0.215E+00    0.02       1.0  T
  14   -335.6383754  0.866887E-01  0.210E+00    0.02       1.0  T
  15   -335.9766024 -0.338227E+00  0.180E+00    0.00       1.0  T
  16   -334.8936628  0.108294E+01  0.281E+00    0.02       1.0  T
  17   -335.6888741 -0.795211E+00  0.222E+00    0.01       1.0  T
  18   -335.8960010 -0.207127E+00  0.191E+00    0.01       1.0  T
  19   -336.4363020 -0.540301E+00  0.164E+00    0.02       1.0  T
  20   -336.0137249  0.422577E+00  0.210E+00    0.03       1.0  T
  21   -335.8301889  0.183536E+00  0.214E+00    0.02       1.0  T
  22   -335.0316777  0.798511E+00  0.269E+00    0.02       1.0  T
  23   -335.6804086 -0.648731E+00  0.221E+00    0.02       1.0  T
  24   -336.1758458 -0.495437E+00  0.193E+00    0.03       1.0  T
  25   -336.3058061 -0.129960E+00  0.170E+00    0.00       1.0  T
  26   -336.5267201 -0.220914E+00  0.164E+00    0.01       1.0  T
  27   -336.4895357  0.371844E-01  0.171E+00    0.00       1.0  T
  28   -336.4707317  0.188040E-01  0.172E+00    0.00       1.0  T
  29   -336.5201297 -0.493980E-01  0.151E+00    0.01       1.0  T
  30   -336.7821919 -0.262062E+00  0.115E+00    0.01       1.0  T
  31   -336.8058342 -0.236423E-01  0.977E-01    0.01       1.0  T
  32   -336.7514074  0.544268E-01  0.740E-01    0.00       1.0  T
  33   -336.8232916 -0.718842E-01  0.484E-01    0.01       1.0  T
  34   -336.8122641  0.110275E-01  0.385E-01    0.01       1.0  T
  35   -336.8194427 -0.717857E-02  0.303E-01    0.01       1.0  T
  36   -336.8350195 -0.155768E-01  0.214E-01    0.01       1.0  T
  37   -336.8217265  0.132929E-01  0.212E-01    0.01       1.0  T
  38   -336.8342948 -0.125683E-01  0.100E-01    0.02       1.0  T
  39   -336.8351855 -0.890723E-03  0.846E-02    0.02       1.0  T
  40   -336.8365030 -0.131750E-02  0.567E-02    0.02       1.0  T
  41   -336.8371359 -0.632892E-03  0.402E-02    0.02       1.0  T
  42   -336.8373540 -0.218126E-03  0.190E-02    0.02       1.0  T
  43   -336.8374407 -0.866992E-04  0.974E-03    0.02       1.0  T
  44   -336.8374567 -0.159441E-04  0.644E-03    0.02       1.1  T
  45   -336.8374472  0.948905E-05  0.763E-03    0.02       1.0  T
  46   -336.8374587 -0.115097E-04  0.445E-03    0.02       1.7  T
  47   -336.8374630 -0.433569E-05  0.167E-03    0.02       4.4  T
  48   -336.8374636 -0.545806E-06  0.103E-03    0.02       7.1  T
  49   -336.8374637 -0.874887E-07  0.683E-04    0.02      10.8  T
  50   -336.8374636  0.407188E-07  0.770E-04    0.02       9.5  T
     SCC iter.                  ...        0 min,  4.463 sec
     gradient                   ...        0 min,  0.316 sec
 * total energy  :  -331.4516657 Eh     change       -0.7197991E-01 Eh
   gradient norm :     0.0976615 Eh/α   predicted    -0.6791902E-01 (  -5.64%)
   displ. norm   :     0.8827170 α      lambda       -0.7094095E-01
   maximum displ.:     0.2661591 α      in ANC's #93, #95, #189, ...

........................................................................
.............................. CYCLE    6 ..............................
........................................................................
   1   -336.8723226 -0.336872E+03  0.217E+00    0.09       0.0  T
   2   -332.1543306  0.471799E+01  0.572E+00    0.01       1.0  T
   3   -314.7388473  0.174155E+02  0.890E+00    0.19       1.0  T
   4   -334.9779053 -0.202391E+02  0.350E+00    0.01       1.0  T
   5   -333.5414284  0.143648E+01  0.391E+00    0.02       1.0  T
   6   -335.3826083 -0.184118E+01  0.295E+00    0.00       1.0  T
   7   -334.0035379  0.137907E+01  0.363E+00    0.02       1.0  T
   8   -335.2598825 -0.125634E+01  0.279E+00    0.03       1.0  T
   9   -335.9028667 -0.642984E+00  0.211E+00    0.01       1.0  T
  10   -335.1873304  0.715536E+00  0.258E+00    0.01       1.0  T
  11   -335.6727064 -0.485376E+00  0.210E+00    0.01       1.0  T
  12   -336.1623504 -0.489644E+00  0.197E+00    0.02       1.0  T
  13   -335.4811944  0.681156E+00  0.229E+00    0.06       1.0  T
  14   -334.7914819  0.689712E+00  0.282E+00    0.04       1.0  T
  15   -335.5772511 -0.785769E+00  0.244E+00    0.01       1.0  T
  16   -335.3079357  0.269315E+00  0.222E+00    0.02       1.0  T
  17   -335.5893352 -0.281399E+00  0.244E+00    0.00       1.0  T
  18   -336.0562112 -0.466876E+00  0.193E+00    0.01       1.0  T
  19   -336.5576573 -0.501446E+00  0.121E+00    0.00       1.0  T
  20   -336.6078409 -0.501836E-01  0.112E+00    0.00       1.0  T
  21   -336.7483996 -0.140559E+00  0.885E-01    0.02       1.0  T
  22   -336.7862001 -0.378005E-01  0.796E-01    0.01       1.0  T
  23   -336.7231561  0.630440E-01  0.921E-01    0.01       1.0  T
  24   -336.7756275 -0.524714E-01  0.858E-01    0.01       1.0  T
  25   -336.7779559 -0.232841E-02  0.853E-01    0.01       1.0  T
  26   -336.7722994  0.565645E-02  0.861E-01    0.01       1.0  T
  27   -336.8588709 -0.865714E-01  0.676E-01    0.02       1.0  T
  28   -336.8554403  0.343058E-02  0.581E-01    0.02       1.0  T
  29   -336.8638775 -0.843716E-02  0.427E-01    0.03       1.0  T
  30   -336.8810182 -0.171408E-01  0.306E-01    0.03       1.0  T
  31   -336.8928089 -0.117906E-01  0.193E-01    0.03       1.0  T
  32   -336.9031748 -0.103659E-01  0.146E-01    0.04       1.0  T
  33   -336.9021796  0.995149E-03  0.124E-01    0.04       1.0  T
  34   -336.9036559 -0.147625E-02  0.750E-02    0.03       1.0  T
  35   -336.9036202  0.357062E-04  0.582E-02    0.03       1.0  T
  36   -336.9034780  0.142119E-03  0.633E-02    0.03       1.0  T
  37   -336.9042159 -0.737829E-03  0.273E-02    0.03       1.0  T
  38   -336.9042487 -0.328679E-04  0.197E-02    0.03       1.0  T
  39   -336.9043397 -0.909424E-04  0.115E-02    0.04       1.0  T
  40   -336.9043510 -0.113428E-04  0.600E-03    0.04       1.2  T
  41   -336.9043495  0.151303E-05  0.708E-03    0.04       1.0  T
  42   -336.9043531 -0.356222E-05  0.474E-03    0.04       1.6  T
  43   -336.9043543 -0.118495E-05  0.248E-03    0.04       3.0  T
  44   -336.9043547 -0.481326E-06  0.210E-03    0.04       3.5  T
  45   -336.9043547  0.354724E-07  0.147E-03    0.04       5.0  T
  46   -336.9043548 -0.868312E-07  0.982E-04    0.04       7.5  T
  47   -336.9043548 -0.559385E-07  0.764E-04    0.04       9.6  T
     SCC iter.                  ...        0 min,  4.198 sec
     gradient                   ...        0 min,  0.317 sec
 * total energy  :  -331.5172007 Eh     change       -0.6553491E-01 Eh
   gradient norm :     0.0885501 Eh/α   predicted    -0.6310992E-01 (  -3.70%)
   displ. norm   :     0.9216912 α      lambda       -0.6549802E-01
   maximum displ.:     0.2855876 α      in ANC's #93, #59, #21, ...

........................................................................
.............................. CYCLE    7 ..............................
........................................................................
   1   -336.9483805 -0.336948E+03  0.159E+00    0.10       0.0  T
   2   -332.2111257  0.473725E+01  0.603E+00    0.02       1.0  T
   3   -323.6010167  0.861011E+01  0.722E+00    0.03       1.0  T
   4   -329.8964041 -0.629539E+01  0.571E+00    0.06       1.0  T
   5   -330.4224076 -0.526004E+00  0.559E+00    0.07       1.0  T
   6   -330.0185082  0.403899E+00  0.542E+00    0.09       1.0  T
   7   -335.3354351 -0.531693E+01  0.275E+00    0.05       1.0  T
   8   -334.9134353  0.422000E+00  0.325E+00    0.02       1.0  T
   9   -334.2658521  0.647583E+00  0.361E+00    0.00       1.0  T
  10   -335.3045857 -0.103873E+01  0.280E+00    0.01       1.0  T
  11   -335.0049054  0.299680E+00  0.299E+00    0.04       1.0  T
  12   -335.6709715 -0.666066E+00  0.249E+00    0.04       1.0  T
  13   -335.5427021  0.128269E+00  0.264E+00    0.01       1.0  T
  14   -335.7853873 -0.242685E+00  0.241E+00    0.03       1.0  T
  15   -335.2230267  0.562361E+00  0.276E+00    0.01       1.0  T
  16   -335.1738985  0.491282E-01  0.298E+00    0.02       1.0  T
  17   -335.9963272 -0.822429E+00  0.218E+00    0.05       1.0  T
  18   -336.0525904 -0.562632E-01  0.336E+00    0.04       1.0  T
  19   -336.1296221 -0.770318E-01  0.322E+00    0.03       1.0  T
  20   -336.0855596  0.440626E-01  0.310E+00    0.05       1.0  T
  21   -336.1834216 -0.978620E-01  0.257E+00    0.02       1.0  T
  22   -336.5823155 -0.398894E+00  0.264E+00    0.00       1.0  T
  23   -336.6109158 -0.286003E-01  0.232E+00    0.00       1.0  T
  24   -336.8827769 -0.271861E+00  0.175E+00    0.04       1.0  T
  25   -336.8903036 -0.752674E-02  0.160E+00    0.04       1.0  T
  26   -336.5982788  0.292025E+00  0.135E+00    0.00       1.0  T
  27   -336.6925800 -0.943012E-01  0.118E+00    0.02       1.0  T
  28   -336.9206223 -0.228042E+00  0.120E+00    0.04       1.0  T
  29   -336.8870272  0.335950E-01  0.125E+00    0.03       1.0  T
  30   -336.8114528  0.755744E-01  0.995E-01    0.04       1.0  T
  31   -336.7933696  0.180832E-01  0.905E-01    0.03       1.0  T
  32   -336.9180602 -0.124691E+00  0.616E-01    0.05       1.0  T
  33   -336.9407149 -0.226547E-01  0.463E-01    0.05       1.0  T
  34   -336.8732183  0.674966E-01  0.658E-01    0.03       1.0  T
  35   -336.9417101 -0.684918E-01  0.446E-01    0.04       1.0  T
  36   -336.8761966  0.655135E-01  0.567E-01    0.04       1.0  T
  37   -336.9690800 -0.928834E-01  0.204E-01    0.05       1.0  T
  38   -336.9665906  0.248942E-02  0.215E-01    0.05       1.0  T
  39   -336.9681004 -0.150973E-02  0.183E-01    0.05       1.0  T
  40   -336.9641981  0.390227E-02  0.204E-01    0.05       1.0  T
  41   -336.9678241 -0.362605E-02  0.150E-01    0.05       1.0  T
  42   -336.9694596 -0.163549E-02  0.119E-01    0.05       1.0  T
  43   -336.9688805  0.579119E-03  0.115E-01    0.05       1.0  T
  44   -336.9702639 -0.138339E-02  0.819E-02    0.06       1.0  T
  45   -336.9711140 -0.850094E-03  0.614E-02    0.06       1.0  T
  46   -336.9711410 -0.270273E-04  0.451E-02    0.06       1.0  T
  47   -336.9711357  0.528403E-05  0.306E-02    0.06       1.0  T
  48   -336.9711219  0.138657E-04  0.191E-02    0.06       1.0  T
  49   -336.9711490 -0.271790E-04  0.116E-02    0.06       1.0  T
  50   -336.9711387  0.102832E-04  0.973E-03    0.06       1.0  T
  51   -336.9711559 -0.171515E-04  0.521E-03    0.06       1.4  T
  52   -336.9711566 -0.677179E-06  0.270E-03    0.06       2.7  T
  53   -336.9711573 -0.755916E-06  0.169E-03    0.06       4.3  T
  54   -336.9711575 -0.124660E-06  0.972E-04    0.06       7.6  T
  55   -336.9711575 -0.105194E-07  0.630E-04    0.06      11.7  T
     SCC iter.                  ...        0 min,  4.911 sec
     gradient                   ...        0 min,  0.317 sec
 * total energy  :  -331.5797815 Eh     change       -0.6258080E-01 Eh
   gradient norm :     0.0802116 Eh/α   predicted    -0.6056976E-01 (  -3.21%)
   displ. norm   :     0.9608873 α      lambda       -0.6494035E-01
   maximum displ.:     0.3457623 α      in ANC's #59, #21, #93, ...

........................................................................
.............................. CYCLE    8 ..............................
........................................................................
   1   -337.0226795 -0.337023E+03  0.889E-01    0.11       0.0  T
   2   -334.2187016  0.280398E+01  0.559E+00    0.06       1.0  T
   3   -331.2520762  0.296663E+01  0.582E+00    0.04       1.0  T
   4   -331.2574027 -0.532641E-02  0.496E+00    0.02       1.0  T
   5   -333.7647791 -0.250738E+01  0.373E+00    0.00       1.0  T
   6   -334.9743619 -0.120958E+01  0.330E+00    0.01       1.0  T
   7   -334.2388072  0.735555E+00  0.403E+00    0.16       1.0  T
   8   -334.5063719 -0.267565E+00  0.377E+00    0.05       1.0  T
   9   -335.0980972 -0.591725E+00  0.341E+00    0.02       1.0  T
  10   -336.2439674 -0.114587E+01  0.209E+00    0.01       1.0  T
  11   -334.5591969  0.168477E+01  0.410E+00    0.01       1.0  T
  12   -335.3773882 -0.818191E+00  0.358E+00    0.06       1.0  T
  13   -333.2160804  0.216131E+01  0.494E+00    0.04       1.0  T
  14   -333.0165570  0.199523E+00  0.497E+00    0.03       1.0  T
  15   -335.7875684 -0.277101E+01  0.252E+00    0.03       1.0  T
  16   -335.7630098  0.245586E-01  0.251E+00    0.01       1.0  T
  17   -335.5905764  0.172433E+00  0.292E+00    0.05       1.0  T
  18   -335.8648280 -0.274252E+00  0.277E+00    0.06       1.0  T
  19   -335.9672544 -0.102426E+00  0.283E+00    0.05       1.0  T
  20   -336.0711942 -0.103940E+00  0.252E+00    0.02       1.0  T
  21   -336.1114040 -0.402098E-01  0.249E+00    0.03       1.0  T
  22   -336.0255846  0.858194E-01  0.278E+00    0.04       1.0  T
  23   -336.9720441 -0.946459E+00  0.187E+00    0.07       1.0  T
  24   -336.2444597  0.727584E+00  0.163E+00    0.02       1.0  T
  25   -336.8264387 -0.581979E+00  0.124E+00    0.02       1.0  T
  26   -337.0073865 -0.180948E+00  0.821E-01    0.08       1.0  T
  27   -337.0198962 -0.125097E-01  0.608E-01    0.08       1.0  T
  28   -337.0256067 -0.571050E-02  0.637E-01    0.06       1.0  T
  29   -337.0180109  0.759581E-02  0.605E-01    0.05       1.0  T
  30   -337.0034824  0.145285E-01  0.520E-01    0.06       1.0  T
  31   -337.0082280 -0.474561E-02  0.455E-01    0.07       1.0  T
  32   -337.0112286 -0.300054E-02  0.414E-01    0.07       1.0  T
  33   -337.0161847 -0.495609E-02  0.411E-01    0.08       1.0  T
  34   -337.0061030  0.100816E-01  0.432E-01    0.08       1.0  T
  35   -337.0214335 -0.153305E-01  0.393E-01    0.07       1.0  T
  36   -337.0227938 -0.136027E-02  0.394E-01    0.07       1.0  T
  37   -337.0266606 -0.386682E-02  0.366E-01    0.07       1.0  T
  38   -337.0279358 -0.127517E-02  0.354E-01    0.07       1.0  T
  39   -337.0282538 -0.318039E-03  0.345E-01    0.07       1.0  T
  40   -337.0286109 -0.357027E-03  0.326E-01    0.07       1.0  T
  41   -337.0296337 -0.102286E-02  0.292E-01    0.07       1.0  T
  42   -337.0315383 -0.190460E-02  0.255E-01    0.07       1.0  T
  43   -337.0321651 -0.626815E-03  0.233E-01    0.07       1.0  T
  44   -337.0324597 -0.294588E-03  0.194E-01    0.07       1.0  T
  45   -337.0334816 -0.102188E-02  0.130E-01    0.07       1.0  T
  46   -337.0336092 -0.127596E-03  0.954E-02    0.07       1.0  T
  47   -337.0335888  0.204385E-04  0.747E-02    0.07       1.0  T
  48   -337.0336819 -0.930935E-04  0.465E-02    0.07       1.0  T
  49   -337.0336667  0.151148E-04  0.305E-02    0.07       1.0  T
  50   -337.0337233 -0.565852E-04  0.209E-02    0.07       1.0  T
  51   -337.0337325 -0.914479E-05  0.177E-02    0.07       1.0  T
  52   -337.0337519 -0.194784E-04  0.126E-02    0.07       1.0  T
  53   -337.0337564 -0.444302E-05  0.994E-03    0.07       1.0  T
  54   -337.0337553  0.113903E-05  0.932E-03    0.07       1.0  T
  55   -337.0337565 -0.120533E-05  0.780E-03    0.07       1.0  T
  56   -337.0337585 -0.201019E-05  0.590E-03    0.07       1.2  T
  57   -337.0337585 -0.218468E-07  0.479E-03    0.07       1.5  T
  58   -337.0337588 -0.292618E-06  0.362E-03    0.07       2.0  T
  59   -337.0337591 -0.366179E-06  0.214E-03    0.07       3.4  T
  60   -337.0337593 -0.145825E-06  0.115E-03    0.07       6.4  T
  61   -337.0337593 -0.291346E-07  0.612E-04    0.07      12.0  T
  62   -337.0337593 -0.198166E-07  0.305E-04    0.07      24.1  T
     SCC iter.                  ...        0 min,  5.615 sec
     gradient                   ...        0 min,  0.317 sec
 * total energy  :  -331.6442450 Eh     change       -0.6446350E-01 Eh
   gradient norm :     0.0807001 Eh/α   predicted    -0.6245003E-01 (  -3.12%)
   displ. norm   :     0.9777066 α      lambda       -0.6798751E-01
   maximum displ.:     0.3832504 α      in ANC's #59, #21, #93, ...

........................................................................
.............................. CYCLE    9 ..............................
........................................................................
   1   -337.0861038 -0.337086E+03  0.821E-01    0.11       0.0  T
   2   -336.9928420  0.932618E-01  0.208E+00    0.01       1.0  T
   3   -333.7275666  0.326528E+01  0.443E+00    0.04       1.0  T
   4   -334.5388135 -0.811247E+00  0.385E+00    0.01       1.0  T
   5   -334.8098718 -0.271058E+00  0.357E+00    0.01       1.0  T
   6   -334.4658573  0.344015E+00  0.390E+00    0.02       1.0  T
   7   -335.1283288 -0.662472E+00  0.368E+00    0.00       1.0  T
   8   -333.7888629  0.133947E+01  0.468E+00    0.18       1.0  T
   9   -334.3045970 -0.515734E+00  0.445E+00    0.10       1.0  T
  10   -334.6661182 -0.361521E+00  0.415E+00    0.09       1.0  T
  11   -334.3679744  0.298144E+00  0.435E+00    0.12       1.0  T
  12   -335.5962614 -0.122829E+01  0.311E+00    0.08       1.0  T
  13   -335.8782504 -0.281989E+00  0.336E+00    0.09       1.0  T
  14   -335.7160699  0.162180E+00  0.329E+00    0.15       1.0  T
  15   -335.7627550 -0.466851E-01  0.331E+00    0.13       1.0  T
  16   -336.0673496 -0.304595E+00  0.325E+00    0.03       1.0  T
  17   -335.9667042  0.100645E+00  0.331E+00    0.04       1.0  T
  18   -336.7304474 -0.763743E+00  0.282E+00    0.00       1.0  T
  19   -336.5272742  0.203173E+00  0.289E+00    0.03       1.0  T
  20   -336.7790326 -0.251758E+00  0.248E+00    0.01       1.0  T
  21   -336.9428259 -0.163793E+00  0.222E+00    0.03       1.0  T
  22   -337.0051868 -0.623609E-01  0.177E+00    0.04       1.0  T
  23   -336.9012595  0.103927E+00  0.169E+00    0.03       1.0  T
  24   -336.9797796 -0.785201E-01  0.141E+00    0.05       1.0  T
  25   -336.9726911  0.708848E-02  0.127E+00    0.05       1.0  T
  26   -337.0731904 -0.100499E+00  0.963E-01    0.10       1.0  T
  27   -337.0791352 -0.594477E-02  0.875E-01    0.11       1.0  T
  28   -337.0787244  0.410758E-03  0.845E-01    0.11       1.0  T
  29   -337.0815278 -0.280333E-02  0.765E-01    0.12       1.0  T
  30   -337.0868918 -0.536405E-02  0.623E-01    0.12       1.0  T
  31   -337.0856334  0.125838E-02  0.458E-01    0.12       1.0  T
  32   -337.0557089  0.299245E-01  0.469E-01    0.08       1.0  T
  33   -337.0867013 -0.309923E-01  0.350E-01    0.10       1.0  T
  34   -337.0859334  0.767876E-03  0.327E-01    0.10       1.0  T
  35   -337.0862582 -0.324819E-03  0.291E-01    0.09       1.0  T
  36   -337.0897861 -0.352786E-02  0.252E-01    0.09       1.0  T
  37   -337.0907287 -0.942601E-03  0.239E-01    0.09       1.0  T
  38   -337.0913925 -0.663864E-03  0.207E-01    0.09       1.0  T
  39   -337.0916180 -0.225473E-03  0.198E-01    0.09       1.0  T
  40   -337.0918147 -0.196680E-03  0.189E-01    0.09       1.0  T
  41   -337.0919759 -0.161255E-03  0.176E-01    0.09       1.0  T
  42   -337.0922788 -0.302846E-03  0.152E-01    0.09       1.0  T
  43   -337.0924702 -0.191378E-03  0.130E-01    0.09       1.0  T
  44   -337.0925384 -0.681825E-04  0.107E-01    0.09       1.0  T
  45   -337.0926528 -0.114436E-03  0.910E-02    0.09       1.0  T
  46   -337.0927783 -0.125506E-03  0.791E-02    0.09       1.0  T
  47   -337.0928412 -0.629152E-04  0.663E-02    0.09       1.0  T
  48   -337.0928328  0.841551E-05  0.543E-02    0.09       1.0  T
  49   -337.0928575 -0.246563E-04  0.435E-02    0.09       1.0  T
  50   -337.0928908 -0.333527E-04  0.348E-02    0.09       1.0  T
  51   -337.0929172 -0.263891E-04  0.271E-02    0.09       1.0  T
  52   -337.0929424 -0.251805E-04  0.236E-02    0.09       1.0  T
  53   -337.0929584 -0.160141E-04  0.213E-02    0.09       1.0  T
  54   -337.0929769 -0.185442E-04  0.180E-02    0.09       1.0  T
  55   -337.0929970 -0.200283E-04  0.133E-02    0.09       1.0  T
  56   -337.0930081 -0.111640E-04  0.945E-03    0.09       1.0  T
  57   -337.0930128 -0.469246E-05  0.671E-03    0.09       1.1  T
  58   -337.0930149 -0.206952E-05  0.566E-03    0.09       1.3  T
  59   -337.0930160 -0.106860E-05  0.500E-03    0.09       1.5  T
  60   -337.0930169 -0.896035E-06  0.416E-03    0.09       1.8  T
  61   -337.0930179 -0.107688E-05  0.249E-03    0.09       2.9  T
  62   -337.0930184 -0.462134E-06  0.133E-03    0.09       5.5  T
  63   -337.0930185 -0.104350E-06  0.612E-04    0.09      12.0  T
  64   -337.0930185 -0.260970E-07  0.323E-04    0.09      22.7  T
     SCC iter.                  ...        0 min,  5.714 sec
     gradient                   ...        0 min,  0.318 sec
 * total energy  :  -331.7096389 Eh     change       -0.6539399E-01 Eh
   gradient norm :     0.0872688 Eh/α   predicted    -0.6648872E-01 (   1.67%)
   displ. norm   :     0.9389724 α      lambda       -0.6401298E-01
   maximum displ.:     0.3790254 α      in ANC's #59, #21, #15, ...

........................................................................
.............................. CYCLE   10 ..............................
........................................................................
   1   -337.1429377 -0.337143E+03  0.762E-01    0.12       0.0  T
   2   -337.1336052  0.933253E-02  0.991E-01    0.08       1.0  T
   3   -336.6781826  0.455423E+00  0.153E+00    0.01       1.0  T
   4   -337.1152709 -0.437088E+00  0.438E-01    0.10       1.0  T
   5   -337.0783550  0.369159E-01  0.668E-01    0.08       1.0  T
   6   -336.9945623  0.837928E-01  0.841E-01    0.05       1.0  T
   7   -337.1456647 -0.151102E+00  0.232E-01    0.11       1.0  T
   8   -337.1467603 -0.109558E-02  0.227E-01    0.12       1.0  T
   9   -337.1459379  0.822359E-03  0.188E-01    0.12       1.0  T
  10   -337.1469604 -0.102248E-02  0.180E-01    0.11       1.0  T
  11   -337.1466892  0.271226E-03  0.146E-01    0.11       1.0  T
  12   -337.1464303  0.258859E-03  0.125E-01    0.11       1.0  T
  13   -337.1463269  0.103484E-03  0.109E-01    0.11       1.0  T
  14   -337.1463923 -0.654973E-04  0.107E-01    0.11       1.0  T
  15   -337.1463254  0.669535E-04  0.100E-01    0.11       1.0  T
  16   -337.1464330 -0.107605E-03  0.904E-02    0.11       1.0  T
  17   -337.1465140 -0.810339E-04  0.836E-02    0.11       1.0  T
  18   -337.1466739 -0.159827E-03  0.712E-02    0.11       1.0  T
  19   -337.1467289 -0.550384E-04  0.686E-02    0.11       1.0  T
  20   -337.1468376 -0.108696E-03  0.603E-02    0.11       1.0  T
  21   -337.1469699 -0.132334E-03  0.465E-02    0.11       1.0  T
  22   -337.1470707 -0.100783E-03  0.359E-02    0.11       1.0  T
  23   -337.1471061 -0.353569E-04  0.315E-02    0.11       1.0  T
  24   -337.1471284 -0.223453E-04  0.272E-02    0.11       1.0  T
  25   -337.1471500 -0.215686E-04  0.225E-02    0.11       1.0  T
  26   -337.1471601 -0.101596E-04  0.212E-02    0.11       1.0  T
  27   -337.1471791 -0.189579E-04  0.151E-02    0.10       1.0  T
  28   -337.1471915 -0.124179E-04  0.980E-03    0.10       1.0  T
  29   -337.1471988 -0.723861E-05  0.674E-03    0.10       1.1  T
  30   -337.1472038 -0.505011E-05  0.239E-03    0.10       3.1  T
  31   -337.1472046 -0.780620E-06  0.171E-03    0.10       4.3  T
  32   -337.1472047 -0.121316E-06  0.127E-03    0.10       5.8  T
  33   -337.1472047 -0.350896E-07  0.705E-04    0.10      10.4  T
  34   -337.1472048 -0.786766E-07  0.486E-04    0.10      15.1  T
     SCC iter.                  ...        0 min,  3.031 sec
     gradient                   ...        0 min,  0.318 sec
 * total energy  :  -331.7691885 Eh     change       -0.5954955E-01 Eh
   gradient norm :     0.1001978 Eh/α   predicted    -0.6022587E-01 (   1.14%)
   displ. norm   :     0.9193122 α      lambda       -0.5844193E-01
   maximum displ.:     0.4189287 α      in ANC's #21, #59, #15, ...

........................................................................
.............................. CYCLE   11 ..............................
........................................................................
   1   -337.1602964 -0.337160E+03  0.605E-01    0.14       0.0  T
   2   -337.1562533  0.404310E-02  0.641E-01    0.14       1.0  T
   3   -337.1624930 -0.623973E-02  0.289E-01    0.11       1.0  T
   4   -337.1638385 -0.134549E-02  0.153E-01    0.14       1.0  T
   5   -337.1628662  0.972329E-03  0.885E-02    0.14       1.0  T
   6   -337.1626634  0.202798E-03  0.862E-02    0.13       1.0  T
   7   -337.1638377 -0.117434E-02  0.240E-02    0.13       1.0  T
   8   -337.1639145 -0.767713E-04  0.121E-02    0.13       1.0  T
   9   -337.1639396 -0.251560E-04  0.452E-03    0.13       1.6  T
  10   -337.1639421 -0.245119E-05  0.248E-03    0.13       3.0  T
  11   -337.1639423 -0.170197E-06  0.200E-03    0.13       3.7  T
  12   -337.1639426 -0.382017E-06  0.711E-04    0.13      10.3  T
  13   -337.1639426 -0.143104E-07  0.421E-04    0.13      17.5  T
     SCC iter.                  ...        0 min,  1.170 sec
     gradient                   ...        0 min,  0.319 sec
 * total energy  :  -331.8202697 Eh     change       -0.5108122E-01 Eh
   gradient norm :     0.0842616 Eh/α   predicted    -0.5391663E-01 (   5.55%)
   displ. norm   :     0.8526916 α      lambda       -0.5211241E-01
   maximum displ.:     0.4334303 α      in ANC's #21, #59, #15, ...

........................................................................
.............................. CYCLE   12 ..............................
........................................................................
   1   -337.2615113 -0.337262E+03  0.646E-01    0.16       0.0  T
   2   -337.2527240  0.878724E-02  0.866E-01    0.19       1.0  T
   3   -337.2646361 -0.119121E-01  0.152E-01    0.16       1.0  T
   4   -337.2635506  0.108546E-02  0.141E-01    0.18       1.0  T
   5   -337.2642970 -0.746330E-03  0.102E-01    0.16       1.0  T
   6   -337.2659869 -0.168995E-02  0.334E-02    0.17       1.0  T
   7   -337.2661274 -0.140473E-03  0.209E-02    0.17       1.0  T
   8   -337.2661855 -0.581588E-04  0.914E-03    0.17       1.0  T
   9   -337.2661876 -0.203699E-05  0.513E-03    0.17       1.4  T
  10   -337.2661883 -0.766107E-06  0.274E-03    0.17       2.7  T
  11   -337.2661882  0.171301E-06  0.174E-03    0.17       4.2  T
  12   -337.2661885 -0.315737E-06  0.101E-03    0.17       7.3  T
  13   -337.2661886 -0.114104E-06  0.427E-04    0.17      17.2  T
  14   -337.2661886 -0.306790E-08  0.359E-04    0.17      20.5  T
     SCC iter.                  ...        0 min,  1.258 sec
     gradient                   ...        0 min,  0.319 sec
 * total energy  :  -331.8554665 Eh     change       -0.3519677E-01 Eh
   gradient norm :     0.1063469 Eh/α   predicted    -0.4500124E-01 (  27.86%)
   displ. norm   :     0.7617942 α      lambda       -0.4982500E-01
   maximum displ.:     0.3940301 α      in ANC's #21, #15, #59, ...

........................................................................
.............................. CYCLE   13 ..............................
........................................................................
   1   -337.2826947 -0.337283E+03  0.442E-01    0.20       0.0  T
   2   -337.2806689  0.202581E-02  0.539E-01    0.24       1.0  T
   3   -337.2852826 -0.461374E-02  0.154E-01    0.20       1.0  T
   4   -337.2853628 -0.801885E-04  0.104E-01    0.21       1.0  T
   5   -337.2853229  0.399212E-04  0.484E-02    0.21       1.0  T
   6   -337.2853977 -0.747638E-04  0.173E-02    0.21       1.0  T
   7   -337.2854328 -0.351186E-04  0.682E-03    0.21       1.1  T
   8   -337.2854363 -0.349272E-05  0.384E-03    0.21       1.9  T
   9   -337.2854379 -0.165394E-05  0.169E-03    0.21       4.3  T
  10   -337.2854382 -0.224671E-06  0.701E-04    0.21      10.5  T
  11   -337.2854382 -0.384734E-07  0.278E-04    0.21      26.4  T
     SCC iter.                  ...        0 min,  0.991 sec
     gradient                   ...        0 min,  0.320 sec
 * total energy  :  -331.8879701 Eh     change       -0.3250363E-01 Eh
   gradient norm :     0.0760029 Eh/α   predicted    -0.3937000E-01 (  21.12%)
   displ. norm   :     0.7940680 α      lambda       -0.3222879E-01
   maximum displ.:     0.5190060 α      in ANC's #21, #15, #25, ...

........................................................................
.............................. CYCLE   14 ..............................
........................................................................
   1   -337.3425226 -0.337343E+03  0.406E-01    0.25       0.0  T
   2   -337.3416401  0.882497E-03  0.545E-01    0.30       1.0  T
   3   -337.3434852 -0.184510E-02  0.671E-02    0.27       1.0  T
   4   -337.3434764  0.885698E-05  0.456E-02    0.27       1.0  T
   5   -337.3434252  0.511927E-04  0.323E-02    0.26       1.0  T
   6   -337.3435022 -0.769893E-04  0.103E-02    0.26       1.0  T
   7   -337.3435087 -0.650806E-05  0.394E-03    0.26       1.9  T
   8   -337.3435088 -0.156963E-06  0.180E-03    0.26       4.1  T
   9   -337.3435090 -0.191961E-06  0.946E-04    0.26       7.8  T
  10   -337.3435091 -0.752743E-07  0.336E-04    0.26      21.9  T
     SCC iter.                  ...        0 min,  0.902 sec
     gradient                   ...        0 min,  0.319 sec
 * total energy  :  -331.9159225 Eh     change       -0.2795242E-01 Eh
   gradient norm :     0.0554248 Eh/α   predicted    -0.2627523E-01 (  -6.00%)
   displ. norm   :     0.8617662 α      lambda       -0.3010980E-01
   maximum displ.:     0.5512066 α      in ANC's #21, #15, #25, ...

........................................................................
.............................. CYCLE   15 ..............................
........................................................................
   1   -337.4208903 -0.337421E+03  0.341E-01    0.30       0.0  T
   2   -337.4194714  0.141892E-02  0.421E-01    0.34       1.0  T
   3   -337.4220604 -0.258902E-02  0.628E-02    0.31       1.0  T
   4   -337.4219335  0.126872E-03  0.532E-02    0.31       1.0  T
   5   -337.4220524 -0.118873E-03  0.258E-02    0.31       1.0  T
   6   -337.4221304 -0.780510E-04  0.716E-03    0.31       1.0  T
   7   -337.4221331 -0.271488E-05  0.256E-03    0.31       2.9  T
   8   -337.4221328  0.293794E-06  0.213E-03    0.31       3.5  T
   9   -337.4221332 -0.344644E-06  0.902E-04    0.31       8.2  T
  10   -337.4221332 -0.357669E-07  0.319E-04    0.31      23.1  T
     SCC iter.                  ...        0 min,  0.903 sec
     gradient                   ...        0 min,  0.320 sec
 * total energy  :  -331.9421081 Eh     change       -0.2618553E-01 Eh
   gradient norm :     0.0479980 Eh/α   predicted    -0.2623530E-01 (   0.19%)
   displ. norm   :     0.8993638 α      lambda       -0.2606178E-01
   maximum displ.:     0.5751341 α      in ANC's #21, #15, #25, ...

........................................................................
.............................. CYCLE   16 ..............................
........................................................................
   1   -337.4758916 -0.337476E+03  0.240E-01    0.34       0.0  T
   2   -337.4754729  0.418682E-03  0.275E-01    0.37       1.0  T
   3   -337.4763229 -0.849979E-03  0.536E-02    0.36       1.0  T
   4   -337.4762226  0.100357E-03  0.377E-02    0.35       1.0  T
   5   -337.4762898 -0.672310E-04  0.204E-02    0.36       1.0  T
   6   -337.4763515 -0.616837E-04  0.346E-03    0.36       2.1  T
   7   -337.4763518 -0.348306E-06  0.143E-03    0.36       5.1  T
   8   -337.4763518  0.686627E-07  0.121E-03    0.36       6.1  T
   9   -337.4763518 -0.852430E-07  0.550E-04    0.36      13.4  T
  10   -337.4763519 -0.273848E-07  0.190E-04    0.36      38.6  T
     SCC iter.                  ...        0 min,  0.906 sec
     gradient                   ...        0 min,  0.321 sec
 * total energy  :  -331.9652531 Eh     change       -0.2314504E-01 Eh
   gradient norm :     0.0416811 Eh/α   predicted    -0.2357101E-01 (   1.84%)
   displ. norm   :     0.9196636 α      lambda       -0.2396334E-01
   maximum displ.:     0.5737320 α      in ANC's #21, #15, #25, ...

........................................................................
.............................. CYCLE   17 ..............................
........................................................................
   1   -337.4985326 -0.337499E+03  0.186E-01    0.38       0.0  T
   2   -337.4983702  0.162346E-03  0.188E-01    0.40       1.0  T
   3   -337.4987653 -0.395096E-03  0.584E-02    0.39       1.0  T
   4   -337.4987128  0.525048E-04  0.306E-02    0.39       1.0  T
   5   -337.4987518 -0.390164E-04  0.144E-02    0.39       1.0  T
   6   -337.4987880 -0.361721E-04  0.259E-03    0.39       2.8  T
   7   -337.4987884 -0.415010E-06  0.118E-03    0.39       6.2  T
   8   -337.4987884  0.456206E-07  0.715E-04    0.39      10.3  T
   9   -337.4987884 -0.655953E-07  0.354E-04    0.39      20.8  T
     SCC iter.                  ...        0 min,  0.816 sec
     gradient                   ...        0 min,  0.321 sec
 * total energy  :  -331.9856921 Eh     change       -0.2043896E-01 Eh
   gradient norm :     0.0383003 Eh/α   predicted    -0.2211555E-01 (   8.20%)
   displ. norm   :     0.9023861 α      lambda       -0.2094673E-01
   maximum displ.:     0.5236190 α      in ANC's #21, #15, #25, ...

........................................................................
.............................. CYCLE   18 ..............................
........................................................................
   1   -337.5317634 -0.337532E+03  0.192E-01    0.39       0.0  T
   2   -337.5316381  0.125269E-03  0.162E-01    0.42       1.0  T
   3   -337.5319511 -0.313037E-03  0.587E-02    0.41       1.0  T
   4   -337.5318042  0.146894E-03  0.386E-02    0.41       1.0  T
   5   -337.5319706 -0.166338E-03  0.164E-02    0.41       1.0  T
   6   -337.5320036 -0.330639E-04  0.400E-03    0.42       1.8  T
   7   -337.5320039 -0.248649E-06  0.119E-03    0.42       6.2  T
   8   -337.5320039  0.268320E-07  0.684E-04    0.42      10.8  T
   9   -337.5320039 -0.241003E-07  0.352E-04    0.42      20.9  T
     SCC iter.                  ...        0 min,  0.808 sec
     gradient                   ...        0 min,  0.320 sec
 * total energy  :  -332.0037594 Eh     change       -0.1806736E-01 Eh
   gradient norm :     0.0373155 Eh/α   predicted    -0.1900186E-01 (   5.17%)
   displ. norm   :     0.9084007 α      lambda       -0.1938324E-01
   maximum displ.:     0.4958731 α      in ANC's #21, #15, #25, ...

........................................................................
.............................. CYCLE   19 ..............................
........................................................................
   1   -337.5732803 -0.337573E+03  0.217E-01    0.40       0.0  T
   2   -337.5731561  0.124212E-03  0.180E-01    0.44       1.0  T
   3   -337.5735628 -0.406749E-03  0.624E-02    0.42       1.0  T
   4   -337.5734193  0.143513E-03  0.421E-02    0.43       1.0  T
   5   -337.5735830 -0.163681E-03  0.212E-02    0.42       1.0  T
   6   -337.5736306 -0.476684E-04  0.396E-03    0.43       1.9  T
   7   -337.5736308 -0.170763E-06  0.161E-03    0.43       4.6  T
   8   -337.5736308 -0.158018E-07  0.927E-04    0.43       7.9  T
   9   -337.5736308 -0.671059E-08  0.366E-04    0.43      20.1  T
     SCC iter.                  ...        0 min,  0.807 sec
     gradient                   ...        0 min,  0.320 sec
 * total energy  :  -332.0198472 Eh     change       -0.1608779E-01 Eh
   gradient norm :     0.0420360 Eh/α   predicted    -0.1768908E-01 (   9.95%)
   displ. norm   :     0.8832484 α      lambda       -0.1837065E-01
   maximum displ.:     0.4687427 α      in ANC's #21, #15, #25, ...

........................................................................
.............................. CYCLE   20 ..............................
........................................................................
   1   -337.5954433 -0.337595E+03  0.195E-01    0.41       0.0  T
   2   -337.5952744  0.168840E-03  0.158E-01    0.46       1.0  T
   3   -337.5957173 -0.442878E-03  0.573E-02    0.43       1.0  T
   4   -337.5955095  0.207790E-03  0.477E-02    0.46       1.0  T
   5   -337.5957929 -0.283440E-03  0.138E-02    0.44       1.0  T
   6   -337.5958025 -0.958603E-05  0.282E-03    0.45       2.6  T
   7   -337.5958031 -0.610230E-06  0.158E-03    0.45       4.7  T
   8   -337.5958032 -0.700977E-07  0.835E-04    0.45       8.8  T
   9   -337.5958033 -0.393873E-07  0.320E-04    0.45      23.0  T
     SCC iter.                  ...        0 min,  0.807 sec
     gradient                   ...        0 min,  0.320 sec
 * total energy  :  -332.0347912 Eh     change       -0.1494404E-01 Eh
   gradient norm :     0.0371795 Eh/α   predicted    -0.1635107E-01 (   9.42%)
   displ. norm   :     0.8777094 α      lambda       -0.1625451E-01
   maximum displ.:     0.4314522 α      in ANC's #15, #21, #25, ...
 * RMSD in coord.:     0.9572652 α      energy gain  -0.1187241E+01 Eh

generating ANC from model Hessian ...
Using Lindh-Hessian (1995)
 Shifting diagonal of input Hessian by    1.0004908275485870E-002
 Lowest  eigenvalues of input Hessian
    0.010000    0.010003    0.000000    0.000000    0.000000    0.000000
    0.000000    0.000000    0.010005    0.010007    0.010011    0.010018
    0.010023    0.010027    0.010027    0.010030    0.010033    0.010044
 Highest eigenvalues
    2.123059    2.126474    2.545371    2.548885    2.614305    2.618680


........................................................................
.............................. CYCLE   21 ..............................
........................................................................
   1   -337.6154647 -0.337615E+03  0.226E-01    0.43       0.0  T
   2   -337.6155093 -0.445792E-04  0.179E-01    0.47       1.0  T
   3   -337.6157302 -0.220902E-03  0.550E-02    0.44       1.0  T
   4   -337.6156781  0.520688E-04  0.331E-02    0.47       1.0  T
   5   -337.6157258 -0.477079E-04  0.170E-02    0.44       1.0  T
   6   -337.6157557 -0.299181E-04  0.340E-03    0.45       2.2  T
   7   -337.6157562 -0.439191E-06  0.163E-03    0.45       4.5  T
   8   -337.6157561  0.378757E-07  0.881E-04    0.45       8.3  T
   9   -337.6157562 -0.512449E-07  0.266E-04    0.45      27.7  T
     SCC iter.                  ...        0 min,  0.808 sec
     gradient                   ...        0 min,  0.319 sec
 * total energy  :  -332.0485234 Eh     change       -0.1373220E-01 Eh
   gradient norm :     0.0261418 Eh/α   predicted     0.0000000E+00 (-100.00%)
   displ. norm   :     0.6418882 α      lambda       -0.1012628E-01
   maximum displ.:     0.3972085 α      in ANC's #26, #38, #25, ...

........................................................................
.............................. CYCLE   22 ..............................
........................................................................
   1   -337.6411066 -0.337641E+03  0.143E-01    0.45       0.0  T
   2   -337.6410980  0.863068E-05  0.117E-01    0.45       1.0  T
   3   -337.6412004 -0.102400E-03  0.418E-02    0.45       1.0  T
   4   -337.6411857  0.147026E-04  0.257E-02    0.45       1.0  T
   5   -337.6412039 -0.182848E-04  0.919E-03    0.45       1.0  T
   6   -337.6412139 -0.993736E-05  0.153E-03    0.45       4.8  T
   7   -337.6412139 -0.424706E-07  0.673E-04    0.45      10.9  T
   8   -337.6412139  0.307375E-08  0.469E-04    0.45      15.7  T
     SCC iter.                  ...        0 min,  0.719 sec
     gradient                   ...        0 min,  0.319 sec
 * total energy  :  -332.0579954 Eh     change       -0.9472011E-02 Eh
   gradient norm :     0.0163286 Eh/α   predicted    -0.7149273E-02 ( -24.52%)
   displ. norm   :     0.8998916 α      lambda       -0.1241026E-01
   maximum displ.:     0.5462818 α      in ANC's #26, #38, #25, ...

........................................................................
.............................. CYCLE   23 ..............................
........................................................................
   1   -337.6682759 -0.337668E+03  0.195E-01    0.44       0.0  T
   2   -337.6682555  0.203461E-04  0.167E-01    0.46       1.0  T
   3   -337.6684512 -0.195637E-03  0.566E-02    0.44       1.0  T
   4   -337.6684400  0.111409E-04  0.345E-02    0.45       1.0  T
   5   -337.6684590 -0.189581E-04  0.120E-02    0.44       1.0  T
   6   -337.6684717 -0.127512E-04  0.243E-03    0.45       3.0  T
   7   -337.6684720 -0.245836E-06  0.844E-04    0.45       8.7  T
   8   -337.6684720  0.241783E-08  0.598E-04    0.45      12.3  T
     SCC iter.                  ...        0 min,  0.720 sec
     gradient                   ...        0 min,  0.320 sec
 * total energy  :  -332.0695921 Eh     change       -0.1159664E-01 Eh
   gradient norm :     0.0139491 Eh/α   predicted    -0.1123008E-01 (  -3.16%)
   displ. norm   :     0.9171592 α      lambda       -0.1117489E-01
   maximum displ.:     0.5723998 α      in ANC's #26, #38, #25, ...

........................................................................
.............................. CYCLE   24 ..............................
........................................................................
   1   -337.6895749 -0.337690E+03  0.185E-01    0.43       0.0  T
   2   -337.6895478  0.271073E-04  0.163E-01    0.44       1.0  T
   3   -337.6897175 -0.169740E-03  0.572E-02    0.44       1.0  T
   4   -337.6897129  0.459600E-05  0.340E-02    0.44       1.0  T
   5   -337.6897265 -0.135476E-04  0.108E-02    0.44       1.0  T
   6   -337.6897338 -0.732074E-05  0.263E-03    0.44       2.8  T
   7   -337.6897341 -0.340425E-06  0.805E-04    0.44       9.1  T
   8   -337.6897341  0.487717E-10  0.563E-04    0.44      13.0  T
     SCC iter.                  ...        0 min,  0.718 sec
     gradient                   ...        0 min,  0.320 sec
 * total energy  :  -332.0801334 Eh     change       -0.1054131E-01 Eh
   gradient norm :     0.0143974 Eh/α   predicted    -0.1028764E-01 (  -2.41%)
   displ. norm   :     0.9171972 α      lambda       -0.1009041E-01
   maximum displ.:     0.5885290 α      in ANC's #26, #25, #38, ...

........................................................................
.............................. CYCLE   25 ..............................
........................................................................
   1   -337.7097057 -0.337710E+03  0.171E-01    0.42       0.0  T
   2   -337.7096613  0.444231E-04  0.159E-01    0.41       1.0  T
   3   -337.7098210 -0.159751E-03  0.570E-02    0.42       1.0  T
   4   -337.7098203  0.732778E-06  0.327E-02    0.42       1.0  T
   5   -337.7098307 -0.104507E-04  0.972E-03    0.42       1.0  T
   6   -337.7098349 -0.419076E-05  0.261E-03    0.42       2.8  T
   7   -337.7098352 -0.311783E-06  0.782E-04    0.42       9.4  T
   8   -337.7098352 -0.725322E-10  0.575E-04    0.42      12.8  T
     SCC iter.                  ...        0 min,  0.718 sec
     gradient                   ...        0 min,  0.365 sec
 * total energy  :  -332.0896603 Eh     change       -0.9526856E-02 Eh
   gradient norm :     0.0125267 Eh/α   predicted    -0.9289559E-02 (  -2.49%)
   displ. norm   :     0.9156951 α      lambda       -0.9090059E-02
   maximum displ.:     0.6021633 α      in ANC's #26, #25, #23, ...

........................................................................
.............................. CYCLE   26 ..............................
........................................................................
   1   -337.7292698 -0.337729E+03  0.160E-01    0.40       0.0  T
   2   -337.7292059  0.638924E-04  0.159E-01    0.39       1.0  T
   3   -337.7293668 -0.160943E-03  0.568E-02    0.40       1.0  T
   4   -337.7293690 -0.217643E-05  0.306E-02    0.40       1.0  T
   5   -337.7293766 -0.759747E-05  0.933E-03    0.39       1.0  T
   6   -337.7293788 -0.221250E-05  0.229E-03    0.39       3.2  T
   7   -337.7293790 -0.158620E-06  0.690E-04    0.39      10.7  T
   8   -337.7293790  0.950092E-08  0.569E-04    0.39      12.9  T
     SCC iter.                  ...        0 min,  0.720 sec
     gradient                   ...        0 min,  0.320 sec
 * total energy  :  -332.0982423 Eh     change       -0.8582062E-02 Eh
   gradient norm :     0.0102904 Eh/α   predicted    -0.8356044E-02 (  -2.63%)
   displ. norm   :     0.9147392 α      lambda       -0.8207167E-02
   maximum displ.:     0.6119581 α      in ANC's #26, #25, #23, ...

........................................................................
.............................. CYCLE   27 ..............................
........................................................................
   1   -337.7485188 -0.337749E+03  0.154E-01    0.38       0.0  T
   2   -337.7484356  0.832013E-04  0.162E-01    0.37       1.0  T
   3   -337.7486081 -0.172449E-03  0.571E-02    0.37       1.0  T
   4   -337.7486125 -0.443695E-05  0.291E-02    0.37       1.0  T
   5   -337.7486174 -0.490577E-05  0.106E-02    0.37       1.0  T
   6   -337.7486185 -0.106136E-05  0.200E-03    0.37       3.7  T
   7   -337.7486185 -0.391288E-07  0.659E-04    0.37      11.1  T
   8   -337.7486185  0.161293E-07  0.595E-04    0.37      12.3  T
     SCC iter.                  ...        0 min,  0.719 sec
     gradient                   ...        0 min,  0.320 sec
 * total energy  :  -332.1059915 Eh     change       -0.7749177E-02 Eh
   gradient norm :     0.0092533 Eh/α   predicted    -0.7537252E-02 (  -2.73%)
   displ. norm   :     0.9150387 α      lambda       -0.7467818E-02
   maximum displ.:     0.6191009 α      in ANC's #26, #25, #23, ...

[...]
 369: 12.91 370:  1.98 371:****** 372: 37.02 373:  0.59 374:  0.72 375: 49.37 376:  2.58
 377:****** 378:878.36 379:****** 380:  8.48 381:  3.22 382:  4.42 383: 48.92 384: 34.20
 385: 22.96 386:****** 387:130.10 388:****** 389:173.87 390: 96.85 391:  0.65 392:  0.20
 393:  0.05 394: 30.38 395:  7.52 396: 68.18 397:  3.67 398:  1.31 399:  5.62 400: 32.06
 401: 43.83 402: 24.77 403:****** 404:375.94 405:  1.85 406:507.21 407:  5.92 408:  1.47
 409: 17.58 410:  4.36 411:  2.40 412:  2.49 413: 39.55 414:****** 415:753.96 416:******
 417:  1.46 418: 37.13 419:315.69 420:****** 421: 52.06 422: 22.99 423:904.93 424:248.62
 425:465.69 426:  0.11 427:  0.25 428:  0.38 429:****** 430:  0.03 431:****** 432:105.87
 433: 25.79 434: 42.41 435:657.57 436: 55.53 437:499.50 438:331.29 439:  4.01 440:  1.68
 441:  3.52 442: 48.43 443: 33.91 444: 37.64 445: 90.54 446: 76.27 447: 23.84 448:674.44
 449: 25.86 450:607.05 451:212.50 452:413.66 453:****** 454:  3.68 455:256.52 456: 46.31
 457: 25.41 458: 16.67 459:  2.90 460: 18.65 461:830.80 462:338.38 463:111.51 464:450.47
 465:  1.40 466:  2.82 467: 52.42 468:  0.33 469: 22.97 470: 54.96 471: 12.43 472:  1.84
 473:  0.91 474:112.39 475: 16.73 476:151.55 477: 18.10 478: 18.65 479: 33.45 480:248.95
 481:  0.40 482:279.14 483:****** 484: 12.17 485:335.57 486:207.08 487: 14.34 488:  6.16
 489:  7.23 490:107.75 491:105.87 492:174.02 493:333.03 494:423.25 495:  2.76 496:  4.33
 497:  0.95 498:  7.25 499:  8.59 500: 13.74 501: 49.14 502: 24.27 503: 65.95 504:******
 505:****** 506:****** 507:****** 508:****** 509: 47.95 510:421.41 511:338.09 512:******
 513:****** 514: 58.98 515:****** 516:  9.98 517:  2.79 518:550.90 519:  9.08 520:305.42
 521:****** 522:339.90 523:  1.77 524:****** 525: 67.50 526:  3.21 527:****** 528:372.32
 529: 33.63 530:****** 531: 59.89 532:244.69 533:****** 534:945.79 535:****** 536: 46.21
 537: 38.79 538:****** 539:264.26 540:146.14 541:545.49 542:****** 543: 35.68 544:******
 545:****** 546:****** 547: 63.93 548:****** 549:****** 550:****** 551:457.77 552:******
 553:****** 554:618.89 555: 94.50
 Raman intensities (amu)
   1:  0.00   2:  0.00   3:  0.00   4:  0.00   5:  0.00   6:  0.00   7:  0.00   8:  0.00
   9:  0.00  10:  0.00  11:  0.00  12:  0.00  13:  0.00  14:  0.00  15:  0.00  16:  0.00
  17:  0.00  18:  0.00  19:  0.00  20:  0.00  21:  0.00  22:  0.00  23:  0.00  24:  0.00
  25:  0.00  26:  0.00  27:  0.00  28:  0.00  29:  0.00  30:  0.00  31:  0.00  32:  0.00
  33:  0.00  34:  0.00  35:  0.00  36:  0.00  37:  0.00  38:  0.00  39:  0.00  40:  0.00
  41:  0.00  42:  0.00  43:  0.00  44:  0.00  45:  0.00  46:  0.00  47:  0.00  48:  0.00
  49:  0.00  50:  0.00  51:  0.00  52:  0.00  53:  0.00  54:  0.00  55:  0.00  56:  0.00
  57:  0.00  58:  0.00  59:  0.00  60:  0.00  61:  0.00  62:  0.00  63:  0.00  64:  0.00
  65:  0.00  66:  0.00  67:  0.00  68:  0.00  69:  0.00  70:  0.00  71:  0.00  72:  0.00
  73:  0.00  74:  0.00  75:  0.00  76:  0.00  77:  0.00  78:  0.00  79:  0.00  80:  0.00
  81:  0.00  82:  0.00  83:  0.00  84:  0.00  85:  0.00  86:  0.00  87:  0.00  88:  0.00
  89:  0.00  90:  0.00  91:  0.00  92:  0.00  93:  0.00  94:  0.00  95:  0.00  96:  0.00
  97:  0.00  98:  0.00  99:  0.00 100:  0.00 101:  0.00 102:  0.00 103:  0.00 104:  0.00
 105:  0.00 106:  0.00 107:  0.00 108:  0.00 109:  0.00 110:  0.00 111:  0.00 112:  0.00
 113:  0.00 114:  0.00 115:  0.00 116:  0.00 117:  0.00 118:  0.00 119:  0.00 120:  0.00
 121:  0.00 122:  0.00 123:  0.00 124:  0.00 125:  0.00 126:  0.00 127:  0.00 128:  0.00
 129:  0.00 130:  0.00 131:  0.00 132:  0.00 133:  0.00 134:  0.00 135:  0.00 136:  0.00
 137:  0.00 138:  0.00 139:  0.00 140:  0.00 141:  0.00 142:  0.00 143:  0.00 144:  0.00
 145:  0.00 146:  0.00 147:  0.00 148:  0.00 149:  0.00 150:  0.00 151:  0.00 152:  0.00
 153:  0.00 154:  0.00 155:  0.00 156:  0.00 157:  0.00 158:  0.00 159:  0.00 160:  0.00
 161:  0.00 162:  0.00 163:  0.00 164:  0.00 165:  0.00 166:  0.00 167:  0.00 168:  0.00
 169:  0.00 170:  0.00 171:  0.00 172:  0.00 173:  0.00 174:  0.00 175:  0.00 176:  0.00
 177:  0.00 178:  0.00 179:  0.00 180:  0.00 181:  0.00 182:  0.00 183:  0.00 184:  0.00
 185:  0.00 186:  0.00 187:  0.00 188:  0.00 189:  0.00 190:  0.00 191:  0.00 192:  0.00
 193:  0.00 194:  0.00 195:  0.00 196:  0.00 197:  0.00 198:  0.00 199:  0.00 200:  0.00
 201:  0.00 202:  0.00 203:  0.00 204:  0.00 205:  0.00 206:  0.00 207:  0.00 208:  0.00
 209:  0.00 210:  0.00 211:  0.00 212:  0.00 213:  0.00 214:  0.00 215:  0.00 216:  0.00
 217:  0.00 218:  0.00 219:  0.00 220:  0.00 221:  0.00 222:  0.00 223:  0.00 224:  0.00
 225:  0.00 226:  0.00 227:  0.00 228:  0.00 229:  0.00 230:  0.00 231:  0.00 232:  0.00
 233:  0.00 234:  0.00 235:  0.00 236:  0.00 237:  0.00 238:  0.00 239:  0.00 240:  0.00
 241:  0.00 242:  0.00 243:  0.00 244:  0.00 245:  0.00 246:  0.00 247:  0.00 248:  0.00
 249:  0.00 250:  0.00 251:  0.00 252:  0.00 253:  0.00 254:  0.00 255:  0.00 256:  0.00
 257:  0.00 258:  0.00 259:  0.00 260:  0.00 261:  0.00 262:  0.00 263:  0.00 264:  0.00
 265:  0.00 266:  0.00 267:  0.00 268:  0.00 269:  0.00 270:  0.00 271:  0.00 272:  0.00
 273:  0.00 274:  0.00 275:  0.00 276:  0.00 277:  0.00 278:  0.00 279:  0.00 280:  0.00
 281:  0.00 282:  0.00 283:  0.00 284:  0.00 285:  0.00 286:  0.00 287:  0.00 288:  0.00
 289:  0.00 290:  0.00 291:  0.00 292:  0.00 293:  0.00 294:  0.00 295:  0.00 296:  0.00
 297:  0.00 298:  0.00 299:  0.00 300:  0.00 301:  0.00 302:  0.00 303:  0.00 304:  0.00
 305:  0.00 306:  0.00 307:  0.00 308:  0.00 309:  0.00 310:  0.00 311:  0.00 312:  0.00
 313:  0.00 314:  0.00 315:  0.00 316:  0.00 317:  0.00 318:  0.00 319:  0.00 320:  0.00
 321:  0.00 322:  0.00 323:  0.00 324:  0.00 325:  0.00 326:  0.00 327:  0.00 328:  0.00
 329:  0.00 330:  0.00 331:  0.00 332:  0.00 333:  0.00 334:  0.00 335:  0.00 336:  0.00
 337:  0.00 338:  0.00 339:  0.00 340:  0.00 341:  0.00 342:  0.00 343:  0.00 344:  0.00
 345:  0.00 346:  0.00 347:  0.00 348:  0.00 349:  0.00 350:  0.00 351:  0.00 352:  0.00
 353:  0.00 354:  0.00 355:  0.00 356:  0.00 357:  0.00 358:  0.00 359:  0.00 360:  0.00
 361:  0.00 362:  0.00 363:  0.00 364:  0.00 365:  0.00 366:  0.00 367:  0.00 368:  0.00
 369:  0.00 370:  0.00 371:  0.00 372:  0.00 373:  0.00 374:  0.00 375:  0.00 376:  0.00
 377:  0.00 378:  0.00 379:  0.00 380:  0.00 381:  0.00 382:  0.00 383:  0.00 384:  0.00
 385:  0.00 386:  0.00 387:  0.00 388:  0.00 389:  0.00 390:  0.00 391:  0.00 392:  0.00
 393:  0.00 394:  0.00 395:  0.00 396:  0.00 397:  0.00 398:  0.00 399:  0.00 400:  0.00
 401:  0.00 402:  0.00 403:  0.00 404:  0.00 405:  0.00 406:  0.00 407:  0.00 408:  0.00
 409:  0.00 410:  0.00 411:  0.00 412:  0.00 413:  0.00 414:  0.00 415:  0.00 416:  0.00
 417:  0.00 418:  0.00 419:  0.00 420:  0.00 421:  0.00 422:  0.00 423:  0.00 424:  0.00
 425:  0.00 426:  0.00 427:  0.00 428:  0.00 429:  0.00 430:  0.00 431:  0.00 432:  0.00
 433:  0.00 434:  0.00 435:  0.00 436:  0.00 437:  0.00 438:  0.00 439:  0.00 440:  0.00
 441:  0.00 442:  0.00 443:  0.00 444:  0.00 445:  0.00 446:  0.00 447:  0.00 448:  0.00
 449:  0.00 450:  0.00 451:  0.00 452:  0.00 453:  0.00 454:  0.00 455:  0.00 456:  0.00
 457:  0.00 458:  0.00 459:  0.00 460:  0.00 461:  0.00 462:  0.00 463:  0.00 464:  0.00
 465:  0.00 466:  0.00 467:  0.00 468:  0.00 469:  0.00 470:  0.00 471:  0.00 472:  0.00
 473:  0.00 474:  0.00 475:  0.00 476:  0.00 477:  0.00 478:  0.00 479:  0.00 480:  0.00
 481:  0.00 482:  0.00 483:  0.00 484:  0.00 485:  0.00 486:  0.00 487:  0.00 488:  0.00
 489:  0.00 490:  0.00 491:  0.00 492:  0.00 493:  0.00 494:  0.00 495:  0.00 496:  0.00
 497:  0.00 498:  0.00 499:  0.00 500:  0.00 501:  0.00 502:  0.00 503:  0.00 504:  0.00
 505:  0.00 506:  0.00 507:  0.00 508:  0.00 509:  0.00 510:  0.00 511:  0.00 512:  0.00
 513:  0.00 514:  0.00 515:  0.00 516:  0.00 517:  0.00 518:  0.00 519:  0.00 520:  0.00
 521:  0.00 522:  0.00 523:  0.00 524:  0.00 525:  0.00 526:  0.00 527:  0.00 528:  0.00
 529:  0.00 530:  0.00 531:  0.00 532:  0.00 533:  0.00 534:  0.00 535:  0.00 536:  0.00
 537:  0.00 538:  0.00 539:  0.00 540:  0.00 541:  0.00 542:  0.00 543:  0.00 544:  0.00
 545:  0.00 546:  0.00 547:  0.00 548:  0.00 549:  0.00 550:  0.00 551:  0.00 552:  0.00
 553:  0.00 554:  0.00 555:  0.00
 output can be read by thermo (or use thermo option).
 writing <g98.out> molden fake output.
 recommended (thermochemical) frequency scaling factor: 1.0
Refinement of some symmetry elements was terminated before convergence was reached.
Some symmetry elements may remain unidentified.
Molecule has no symmetry elements
It seems to be the C1 point group
           -------------------------------------------------
          |             Thermodynamic Functions             |
           -------------------------------------------------

c1  symmetry found (for desy threshold:  0.10E+00) used in thermo

          ...................................................
          :                      SETUP                      :
          :.................................................:
          :  # frequencies                         549      :
          :  # imaginary freq.                       0      :
          :  linear?                             false      :
          :  only rotor calc.                    false      :
          :  symmetry                               c1      :
          :  rotational number                       1      :
          :  scaling factor                  1.0000000      :
          :  rotor cutoff                   50.0000000 cm⁻¹ :
          :  imag. cutoff                  -20.0000000 cm⁻¹ :
          :.................................................:

    mode    ω/cm⁻¹     T·S(HO)/kcal·mol⁻¹    T·S(FR)/kcal·mol⁻¹   T·S(vib)
   ------------------------------------------------------------------------
       1      1.37    -3.56570 (  0.00%)    -2.12196 (100.00%)    -2.12196
       2      2.02    -3.33725 (  0.00%)    -2.00773 (100.00%)    -2.00774
       3      3.42    -3.02395 (  0.00%)    -1.85109 (100.00%)    -1.85111
       4      5.05    -2.79265 (  0.01%)    -1.73543 ( 99.99%)    -1.73554
       5      6.40    -2.65291 (  0.03%)    -1.66556 ( 99.97%)    -1.66582
       6      7.96    -2.52370 (  0.06%)    -1.60094 ( 99.94%)    -1.60154
       7      9.98    -2.38966 (  0.16%)    -1.53392 ( 99.84%)    -1.53527
       8     10.33    -2.36911 (  0.18%)    -1.52364 ( 99.82%)    -1.52518
       9     12.63    -2.25007 (  0.41%)    -1.46410 ( 99.59%)    -1.46729
      10     12.71    -2.24648 (  0.42%)    -1.46231 ( 99.58%)    -1.46557
      11     15.11    -2.14387 (  0.83%)    -1.41099 ( 99.17%)    -1.41705
      12     16.70    -2.08472 (  1.23%)    -1.38140 ( 98.77%)    -1.39004
      13     23.54    -1.88162 (  4.68%)    -1.27977 ( 95.32%)    -1.30793
      14     24.22    -1.86468 (  5.22%)    -1.27129 ( 94.78%)    -1.30225
      15     29.66    -1.74469 ( 11.02%)    -1.21121 ( 88.98%)    -1.27002
      16     31.20    -1.71493 ( 13.16%)    -1.19630 ( 86.84%)    -1.26455
      17     31.81    -1.70337 ( 14.08%)    -1.19051 ( 85.92%)    -1.26271
      18     33.36    -1.67529 ( 16.54%)    -1.17644 ( 83.46%)    -1.25893
      19     35.41    -1.64008 ( 20.09%)    -1.15880 ( 79.91%)    -1.25549
      20     36.34    -1.62464 ( 21.82%)    -1.15106 ( 78.18%)    -1.25440
      21     39.67    -1.57284 ( 28.39%)    -1.12509 ( 71.61%)    -1.25219
      22     43.04    -1.52479 ( 35.44%)    -1.10098 ( 64.56%)    -1.25116
      23     44.61    -1.50354 ( 38.79%)    -1.09032 ( 61.21%)    -1.25063
      24     47.31    -1.46895 ( 44.49%)    -1.07295 ( 55.51%)    -1.24912
      25     54.06    -1.39032 ( 57.74%)    -1.03344 ( 42.26%)    -1.23950
      26     58.74    -1.34144 ( 65.57%)    -1.00885 ( 34.43%)    -1.22692
      27     64.69    -1.28463 ( 73.70%)    -0.98023 ( 26.30%)    -1.20458
      28     66.74    -1.26635 ( 76.04%)    -0.97101 ( 23.96%)    -1.19559
      29     67.60    -1.25884 ( 76.96%)    -0.96723 ( 23.04%)    -1.19165
      30     69.88    -1.23930 ( 79.24%)    -0.95737 ( 20.76%)    -1.18076
      31     77.00    -1.18245 ( 84.90%)    -0.92864 ( 15.10%)    -1.14413
      32     83.14    -1.13756 ( 88.43%)    -0.90592 ( 11.57%)    -1.11076
      33     93.24    -1.07062 ( 92.36%)    -0.87194 (  7.64%)    -1.05545
      34     93.94    -1.06627 ( 92.57%)    -0.86973 (  7.43%)    -1.05167
      35     95.32    -1.05780 ( 92.96%)    -0.86542 (  7.04%)    -1.04426
      36     98.37    -1.03944 ( 93.74%)    -0.85607 (  6.26%)    -1.02797
      37     99.24    -1.03431 ( 93.95%)    -0.85346 (  6.05%)    -1.02336
      38    105.15    -1.00077 ( 95.14%)    -0.83634 (  4.86%)    -0.99277
      39    112.70    -0.96060 ( 96.27%)    -0.81579 (  3.73%)    -0.95520
      40    122.15    -0.91416 ( 97.27%)    -0.79195 (  2.73%)    -0.91082
      41    125.48    -0.89870 ( 97.54%)    -0.78398 (  2.46%)    -0.89588
      42    126.62    -0.89350 ( 97.63%)    -0.78130 (  2.37%)    -0.89083
      43    127.63    -0.88891 ( 97.70%)    -0.77893 (  2.30%)    -0.88638
      44    128.23    -0.88624 ( 97.74%)    -0.77755 (  2.26%)    -0.88378
      45    130.90    -0.87440 ( 97.92%)    -0.77144 (  2.08%)    -0.87226
      46    132.64    -0.86685 ( 98.02%)    -0.76754 (  1.98%)    -0.86488
      47    138.28    -0.84305 ( 98.32%)    -0.75521 (  1.68%)    -0.84157
      48    143.14    -0.82332 ( 98.53%)    -0.74496 (  1.47%)    -0.82217
      49    143.71    -0.82107 ( 98.56%)    -0.74379 (  1.44%)    -0.81996
      50    178.20    -0.69983 ( 99.38%)    -0.68007 (  0.62%)    -0.69970
      51    185.16    -0.67851 ( 99.47%)    -0.66871 (  0.53%)    -0.67846
      52    185.19    -0.67842 ( 99.47%)    -0.66866 (  0.53%)    -0.67836
      53    185.52    -0.67743 ( 99.48%)    -0.66814 (  0.52%)    -0.67739
      54    185.81    -0.67658 ( 99.48%)    -0.66768 (  0.52%)    -0.67653
      55    186.44    -0.67470 ( 99.49%)    -0.66667 (  0.51%)    -0.67466
      56    198.89    -0.63903 ( 99.60%)    -0.64752 (  0.40%)    -0.63906
      57    204.67    -0.62334 ( 99.65%)    -0.63903 (  0.35%)    -0.62340
      58    205.76    -0.62043 ( 99.65%)    -0.63745 (  0.35%)    -0.62049
      59    206.97    -0.61723 ( 99.66%)    -0.63572 (  0.34%)    -0.61730
      60    208.55    -0.61310 ( 99.67%)    -0.63347 (  0.33%)    -0.61317
      61    208.79    -0.61247 ( 99.67%)    -0.63313 (  0.33%)    -0.61254
      62    209.06    -0.61176 ( 99.67%)    -0.63275 (  0.33%)    -0.61183
      63    209.50    -0.61063 ( 99.68%)    -0.63213 (  0.32%)    -0.61070
      64    209.87    -0.60964 ( 99.68%)    -0.63159 (  0.32%)    -0.60972
      65    212.03    -0.60408 ( 99.69%)    -0.62856 (  0.31%)    -0.60415
      66    223.84    -0.57477 ( 99.75%)    -0.61251 (  0.25%)    -0.57487
      67    224.05    -0.57428 ( 99.75%)    -0.61224 (  0.25%)    -0.57437
      68    224.39    -0.57344 ( 99.75%)    -0.61178 (  0.25%)    -0.57354
      69    224.72    -0.57266 ( 99.76%)    -0.61134 (  0.24%)    -0.57275
      70    224.96    -0.57209 ( 99.76%)    -0.61103 (  0.24%)    -0.57219
      71    225.59    -0.57058 ( 99.76%)    -0.61020 (  0.24%)    -0.57067
      72    226.18    -0.56919 ( 99.76%)    -0.60943 (  0.24%)    -0.56928
      73    226.30    -0.56890 ( 99.76%)    -0.60927 (  0.24%)    -0.56900
      74    226.57    -0.56827 ( 99.76%)    -0.60892 (  0.24%)    -0.56836
      75    227.97    -0.56496 ( 99.77%)    -0.60710 (  0.23%)    -0.56506
      76    229.73    -0.56084 ( 99.78%)    -0.60482 (  0.22%)    -0.56094
      77    235.04    -0.54862 ( 99.80%)    -0.59804 (  0.20%)    -0.54872
      78    246.25    -0.52393 ( 99.83%)    -0.58425 (  0.17%)    -0.52404
      79    247.19    -0.52191 ( 99.83%)    -0.58311 (  0.17%)    -0.52201
      80    247.87    -0.52048 ( 99.83%)    -0.58230 (  0.17%)    -0.52058
      81    248.41    -0.51934 ( 99.84%)    -0.58166 (  0.16%)    -0.51944
      82    249.07    -0.51792 ( 99.84%)    -0.58087 (  0.16%)    -0.51802
      83    249.76    -0.51647 ( 99.84%)    -0.58005 (  0.16%)    -0.51657
      84    252.58    -0.51058 ( 99.85%)    -0.57673 (  0.15%)    -0.51069
      85    254.62    -0.50636 ( 99.85%)    -0.57434 (  0.15%)    -0.50646
      86    255.13    -0.50533 ( 99.85%)    -0.57375 (  0.15%)    -0.50543
      87    255.53    -0.50450 ( 99.85%)    -0.57328 (  0.15%)    -0.50460
      88    256.36    -0.50280 ( 99.86%)    -0.57232 (  0.14%)    -0.50290
      89    256.40    -0.50273 ( 99.86%)    -0.57228 (  0.14%)    -0.50283
      90    256.55    -0.50242 ( 99.86%)    -0.57211 (  0.14%)    -0.50252
      91    268.58    -0.47863 ( 99.88%)    -0.55853 (  0.12%)    -0.47873
      92    270.70    -0.47457 ( 99.88%)    -0.55620 (  0.12%)    -0.47466
      93    275.45    -0.46563 ( 99.89%)    -0.55104 (  0.11%)    -0.46573
      94    280.60    -0.45617 ( 99.90%)    -0.54556 (  0.10%)    -0.45626
      95    281.78    -0.45404 ( 99.90%)    -0.54432 (  0.10%)    -0.45413
      96    282.10    -0.45345 ( 99.90%)    -0.54398 (  0.10%)    -0.45354
      97    283.61    -0.45074 ( 99.90%)    -0.54240 (  0.10%)    -0.45082
      98    284.97    -0.44832 ( 99.91%)    -0.54099 (  0.09%)    -0.44841
   ------------------------------------------------------------------------

   temp. (K)  partition function   enthalpy   heat capacity  entropy
                                   cal/mol     cal/K/mol   cal/K/mol   J/K/mol
 298.15  VIB  0.485E+54            64016.408    417.336    403.225
         ROT  0.342E+10              888.752      2.981     46.607
         INT  0.166E+64            64905.161    420.317    449.831
         TR   0.807E+29             1481.254      4.968     48.487
         TOT                       66386.4145   425.2854   498.3180  2084.9623

       T/K    H(0)-H(T)+PV         H(T)/Eh          T*S/Eh         G(T)/Eh
   ------------------------------------------------------------------------
    298.15    0.105793E+00    0.138968E+01    0.236767E+00    0.115291E+01
   ------------------------------------------------------------------------

         :::::::::::::::::::::::::::::::::::::::::::::::::::::
         ::                  THERMODYNAMIC                  ::
         :::::::::::::::::::::::::::::::::::::::::::::::::::::
         :: total free energy        -331.006853945825 Eh   ::
         ::.................................................::
         :: total energy             -332.159762333880 Eh   ::
         :: zero point energy           1.283881844425 Eh   ::
         :: G(RRHO) w/o ZPVE           -0.130973456369 Eh   ::
         :: G(RRHO) contrib.            1.152908388055 Eh   ::
         :::::::::::::::::::::::::::::::::::::::::::::::::::::

optimized geometry written to: xtbopt.xyz


           -------------------------------------------------
          | TOTAL ENERGY             -332.159762333880 Eh   |
          | TOTAL ENTHALPY           -330.770087003892 Eh   |
          | TOTAL FREE ENERGY        -331.006853945825 Eh   |
          | GRADIENT NORM               0.000920912162 Eh/α |
          | HOMO-LUMO GAP               0.242492199481 eV   |
           -------------------------------------------------

------------------------------------------------------------------------
 * finished run on 2021/11/19 at 15:23:25.394     
------------------------------------------------------------------------
 total:
 * wall-time:     0 d,  0 h, 24 min, 54.355 sec
 *  cpu-time:     0 d,  0 h, 24 min, 54.346 sec
 * ratio c/w:     1.000 speedup
 SCF:
 * wall-time:     0 d,  0 h,  0 min,  9.786 sec
 *  cpu-time:     0 d,  0 h,  0 min,  9.786 sec
 * ratio c/w:     1.000 speedup
 ANC optimizer:
 * wall-time:     0 d,  0 h,  4 min, 18.062 sec
 *  cpu-time:     0 d,  0 h,  4 min, 18.039 sec
 * ratio c/w:     1.000 speedup
 analytical hessian:
 * wall-time:     0 d,  0 h, 20 min,  3.529 sec
 *  cpu-time:     0 d,  0 h, 20 min,  3.542 sec
 * ratio c/w:     1.000 speedup

