185
 energy: -330.847550667057 gnorm: 0.797649981459 xtb: 6.4.1 (bd6e46d)
Fe       32.94370100000000    0.04460800000000   -0.01411300000000
C        35.27269200000000   -3.10218500000000    1.30857600000000
C        36.18879900000000   -2.15797800000000    1.25829400000000
C        35.77762000000000   -1.10407400000000    0.33700200000000
C        36.39649000000000    0.02027200000000   -0.00940800000000
C        35.69244800000000    1.24022000000000   -0.37351300000000
C        36.02055900000001    2.20027500000000   -1.22098700000000
C        34.98577900000000    3.21656100000000   -1.23788400000000
C        34.04951100000000    2.84009900000000   -0.39099300000000
N        34.45150100000000    1.60708800000000    0.17282400000000
C        32.78843700000000    3.48509800000000   -0.01184100000000
C        31.69321900000000    2.85031600000000    0.33891900000000
C        30.61959400000000    3.16827200000000    1.30794700000000
C        29.78203100000000    2.17151800000000    1.23078100000000
C        30.22032800000000    1.16783500000000    0.25032900000000
N        31.32526700000000    1.60668800000000   -0.23396300000000
C        29.60949400000000   -0.08543600000000   -0.16321900000000
C        30.27365400000000   -1.18994300000000   -0.41764300000000
C        29.89980600000000   -2.25288400000000   -1.37517100000000
C        30.84855300000000   -3.14664000000000   -1.28615100000000
C        31.83427700000000   -2.70919000000000   -0.30327400000000
N        31.48123100000000   -1.56338500000000    0.19352300000000
C        33.06516400000000   -3.36526100000000    0.14244700000000
C        34.18820600000000   -2.71939900000000    0.40956800000000
N        34.51680600000000   -1.47195800000000   -0.18883500000000
H        35.33295400000000   -4.01196600000000    1.92612300000000
H        37.10512700000000   -2.19792700000000    1.83634200000000
H        36.94792400000000    2.21707100000000   -1.82213000000000
H        35.00267800000000    4.12124900000000   -1.85050600000000
H        32.74071400000000    4.57990100000000   -0.01561800000000
H        30.56677200000000    4.04699700000000    1.93294000000000
H        28.87040100000000    2.13584800000000    1.84810500000000
H        28.51124300000000   -0.08252600000000   -0.26249000000000
H        29.03095000000000   -2.30534900000000   -2.02412100000000
H        30.84570700000000   -4.06294800000000   -1.88491100000000
H        33.02968200000000   -4.46106200000000    0.25437200000000
Fe       78.73524700000000   -0.00276800000000   -0.01854600000000
C        76.40625600000000    2.84402400000000    1.86495900000000
C        75.49014900000000    1.92553400000000    1.64038600000000
C        75.90132800000001    1.06083700000000    0.53957100000000
C        75.28245800000001    0.02027200000000   -0.00940800000000
C        75.98650000000001   -1.11095300000000   -0.59351100000000
C        75.65838900000000   -1.89712400000000   -1.60437700000000
C        76.69316900000000   -2.89263400000000   -1.80951800000000
C        77.62943700000000   -2.67981700000000   -0.90748700000000
N        77.22744700000001   -1.57280500000000   -0.12471600000000
C        78.89051200000000   -3.38395800000000   -0.65457400000000
C        79.98572900000001   -2.82526600000000   -0.19214100000000
C        81.05935400000000   -3.31747100000000    0.70108100000000
C        81.89691700000000   -2.32370400000000    0.81016600000000
C        81.45862000000000   -1.15555500000000    0.03293100000000
N        80.35368200000001   -1.49694700000000   -0.52436800000000
C        82.06945399999999    0.15268000000000   -0.14093900000000
C        81.40529400000000    1.28521300000000   -0.18604500000000
C        81.77914300000002    2.50733900000000   -0.92976000000000
C        80.83039500000001    3.36906600000000   -0.67648100000000
C        79.84467200000000    2.75687200000000    0.20818200000000
N        80.19771700000000    1.53879300000000    0.48379200000000
C        78.61378400000001    3.31886600000000    0.76787700000000
C        77.49074200000000    2.63466200000000    0.91054400000000
N        77.16214200000000    1.51988700000000    0.09111000000000
H        76.34599400000000    3.62344800000000    2.64056300000000
H        74.57382100000000    1.85755400000000    2.21581100000000
H        74.73102400000002   -1.80210700000000   -2.19820200000000
H        76.67627000000000   -3.66796800000000   -2.57933800000000
H        78.93823400000001   -4.45905600000000   -0.86138800000000
H        81.11217600000002   -4.29688800000000    1.15220800000000
H        82.80854800000000   -2.40317600000000    1.42339200000000
H        83.16770500000000    0.16823600000000   -0.23902600000000
H        82.64799800000000    2.67928300000000   -1.55771200000000
H        80.83324100000000    4.38054800000000   -1.09485900000000
H        78.64926600000001    4.37488300000000    1.08114600000000
C        39.01093900000000    0.02027200000000   -0.00940800000000
C        40.22714400000000    0.02027200000000   -0.00940800000000
C        49.82456000000000    0.02027200000000   -0.00940800000000
C        51.04076600000000    0.02027200000000   -0.00940800000000
C        60.63818200000000    0.02027200000000   -0.00940800000000
C        61.85438800000001    0.02027200000000   -0.00940800000000
C        71.45180400000001    0.02027200000000   -0.00940800000000
C        72.66801000000000    0.02027200000000   -0.00940800000000
Fe       45.05734800000000    0.03307400000000    0.00407800000000
C        42.77753700000000   -3.22837400000000   -0.90558800000000
C        41.82132800000001   -2.32902300000000   -1.00761400000000
C        42.21370200000000   -1.16671800000000   -0.20509800000000
C        41.57858600000000   -0.01544600000000    0.00716800000000
C        42.26404300000001    1.25915400000000    0.23339700000000
C        41.92875300000000    2.33775400000000    0.93763700000000
C        42.95329400000000    3.35707100000000    0.84705600000000
C        43.90389100000000    2.86014600000000    0.07369100000000
N        43.52689700000000    1.54354100000000   -0.34245200000000
C        45.15103100000001    3.47184700000000   -0.34317400000000
C        46.25258200000000    2.80459000000000   -0.67494600000000
C        47.24612900000000    3.05657500000000   -1.70911600000000
C        48.14001200000001    2.09571600000000   -1.60763200000000
C        47.76031400000000    1.18383200000000   -0.50365500000000
N        46.66539900000000    1.63315100000000    0.00371200000000
C        48.41752100000000   -0.01544600000000    0.00716800000000
C        47.79410900000000   -1.08462800000000    0.46868500000000
C        48.17282200000000   -2.01674300000000    1.54416000000000
C        47.23215300000000   -2.93088900000000    1.63002600000000
C        46.22385200000000   -2.63511000000000    0.63259900000000
N        46.56162700000001   -1.58173300000000   -0.01669600000000
C        44.97145900000000   -3.34211800000000    0.30140600000000
C        43.85758200000000   -2.74542100000000   -0.04593600000000
N        43.47547000000000   -1.46266400000000    0.37174700000000
H        42.77788200000000   -4.21944700000000   -1.39682200000000
H        40.91279400000000   -2.45071700000000   -1.58876200000000
H        41.00390100000000    2.45610500000000    1.51456300000000
H        42.98058900000000    4.34623500000000    1.30370600000000
H        45.23697100000000    4.56922500000000   -0.40519700000000
H        47.27880100000000    3.86279100000000   -2.43594000000000
H        49.03307400000000    1.98274700000000   -2.24140600000000
H        49.08757200000000   -1.94233700000000    2.15433000000000
H        47.25120000000000   -3.74449700000000    2.33829300000000
H        45.00994300000000   -4.44207700000000    0.36044200000000
Fe       55.87097000000000    0.03307400000000    0.00407800000000
C        53.59115900000000   -3.22837400000000   -0.90558800000000
C        52.63495000000000   -2.32902300000000   -1.00761400000000
C        53.02732400000001   -1.16671800000000   -0.20509800000000
C        52.39220800000000   -0.01544600000000    0.00716800000000
C        53.07766500000001    1.25915400000000    0.23339700000000
C        52.74237400000000    2.33775400000000    0.93763700000000
C        53.76691600000000    3.35707100000000    0.84705600000000
C        54.71751300000000    2.86014600000000    0.07369100000000
N        54.34051900000000    1.54354100000000   -0.34245200000000
C        55.96465300000000    3.47184700000000   -0.34317400000000
C        57.06620400000000    2.80459000000000   -0.67494600000000
C        58.05975100000000    3.05657500000000   -1.70911600000000
C        58.95363400000001    2.09571600000000   -1.60763200000000
C        58.57393600000001    1.18383200000000   -0.50365500000000
N        57.47902100000000    1.63315100000000    0.00371200000000
C        59.23114300000000   -0.01544600000000    0.00716800000000
C        58.60773100000000   -1.08462800000000    0.46868500000000
C        58.98644400000001   -2.01674300000000    1.54416000000000
C        58.04577500000000   -2.93088900000000    1.63002600000000
C        57.03747400000000   -2.63511000000000    0.63259900000000
N        57.37524900000000   -1.58173300000000   -0.01669600000000
C        55.78508100000001   -3.34211800000000    0.30140600000000
C        54.67120400000000   -2.74542100000000   -0.04593600000000
N        54.28909200000000   -1.46266400000000    0.37174700000000
H        53.59150400000000   -4.21944700000000   -1.39682200000000
H        51.72641600000000   -2.45071700000000   -1.58876200000000
H        51.81752200000000    2.45610500000000    1.51456300000000
H        53.79421100000000    4.34623500000000    1.30370600000000
H        56.05059300000001    4.56922500000000   -0.40519700000000
H        58.09242300000000    3.86279100000000   -2.43594000000000
H        59.84669500000000    1.98274700000000   -2.24140600000000
H        59.90119400000000   -1.94233700000000    2.15433000000000
H        58.06482200000000   -3.74449700000000    2.33829300000000
H        55.82356500000000   -4.44207700000000    0.36044200000000
Fe       66.68459199999999    0.03307400000000    0.00407800000000
C        64.40478100000000   -3.22837400000000   -0.90558800000000
C        63.44857200000000   -2.32902300000000   -1.00761400000000
C        63.84094600000000   -1.16671800000000   -0.20509800000000
C        63.20583000000000   -0.01544600000000    0.00716800000000
C        63.89128700000000    1.25915400000000    0.23339700000000
C        63.55599600000000    2.33775400000000    0.93763700000000
C        64.58053800000000    3.35707100000000    0.84705600000000
C        65.53113500000001    2.86014600000000    0.07369100000000
N        65.15414100000000    1.54354100000000   -0.34245200000000
C        66.77827499999999    3.47184700000000   -0.34317400000000
C        67.87982599999999    2.80459000000000   -0.67494600000000
C        68.87337300000000    3.05657500000000   -1.70911600000000
C        69.76725600000000    2.09571600000000   -1.60763200000000
C        69.38755800000000    1.18383200000000   -0.50365500000000
N        68.29264200000000    1.63315100000000    0.00371200000000
C        70.04476500000001   -0.01544600000000    0.00716800000000
C        69.42135300000000   -1.08462800000000    0.46868500000000
C        69.80006600000000   -2.01674300000000    1.54416000000000
C        68.85939700000000   -2.93088900000000    1.63002600000000
C        67.85109600000000   -2.63511000000000    0.63259900000000
N        68.18887100000002   -1.58173300000000   -0.01669600000000
C        66.59870300000000   -3.34211800000000    0.30140600000000
C        65.48482600000000   -2.74542100000000   -0.04593600000000
N        65.10271400000001   -1.46266400000000    0.37174700000000
H        64.40512600000000   -4.21944700000000   -1.39682200000000
H        62.54003800000000   -2.45071700000000   -1.58876200000000
H        62.63114400000000    2.45610500000000    1.51456300000000
H        64.60783200000000    4.34623500000000    1.30370600000000
H        66.86421400000000    4.56922500000000   -0.40519700000000
H        68.90604500000001    3.86279100000000   -2.43594000000000
H        70.66031700000001    1.98274700000000   -2.24140600000000
H        70.71481600000000   -1.94233700000000    2.15433000000000
H        68.87844400000002   -3.74449700000000    2.33829300000000
H        66.63718700000000   -4.44207700000000    0.36044200000000
185
 energy: -331.124962865520 gnorm: 0.441113941624 xtb: 6.4.1 (bd6e46d)
Fe       32.95484176791641    0.04248448620592   -0.01381586239343
C        35.27416110683294   -3.11150082587614    1.30062174891529
C        36.20570668593601   -2.15857346654627    1.25473445324430
C        35.77837944207401   -1.10770167880000    0.34244434059007
C        36.38680987603954    0.04278503906743   -0.00714152171193
C        35.68199234092367    1.23662784854172   -0.36567517960444
C        36.03378331847482    2.22943711169159   -1.24027584224568
C        35.01761916656356    3.21943033080919   -1.25235158538091
C        34.04437262690914    2.81607316384012   -0.38416545571912
N        34.42892917977936    1.58558041880804    0.17507461598294
C        32.80916917822747    3.48335188016646   -0.01218350198112
C        31.68199983207007    2.83482986128094    0.33994318181906
C        30.61965774438133    3.17657657410444    1.29098151954475
C        29.75428598207019    2.16460737300569    1.23443582898272
C        30.21327925913999    1.16928904982845    0.26770850097727
N        31.35903199227423    1.58761027058830   -0.21547957942950
C        29.59654729609847   -0.06246554725377   -0.15569710668383
C        30.27688815913079   -1.19385605840791   -0.42365139595354
C        29.89111595378996   -2.25338210519855   -1.36138603849493
C        30.85563988947340   -3.16988920241539   -1.28372761307627
C        31.84365287992076   -2.72132953216647   -0.31240828134542
N        31.49141545200801   -1.54174405429405    0.16829145388896
C        33.04697300251672   -3.37206489782610    0.13387536792567
C        34.19514238204845   -2.70350107315514    0.41319159344435
N        34.51135077615822   -1.46566467294413   -0.15885209561450
H        35.32404533809909   -4.00668441927733    1.91781897298255
H        37.11109628931433   -2.18820916253401    1.83394403460137
H        36.94629051212972    2.22705699339329   -1.82480562651331
H        35.01056197141262    4.11815330162611   -1.85252812632254
H        32.75849321819727    4.57497655706917   -0.00863047928493
H        30.57413420374719    4.04565270058695    1.92623135420397
H        28.86453285165888    2.12621849260166    1.84757861735225
H        28.51226142497899   -0.07327582798148   -0.26789648962099
H        29.03269549057788   -2.29548637773249   -2.01598621614279
H        30.85715924167405   -4.06830734046274   -1.88168486972313
H        33.02470802337867   -4.45682677798604    0.25413965202535
Fe       78.72409204848262   -0.00067994517792   -0.01790618171192
C        76.40480107891823    2.85465032997139    1.85887539124941
C        75.47333060524660    1.92675097914315    1.63702152229601
C        75.90086192697062    1.06335741312096    0.54569682239017
C        75.29334223269346   -0.00252525773582   -0.01089084870780
C        75.99722325620057   -1.10882536842308   -0.58507621395070
C        75.64524954847354   -1.92219156316019   -1.62872543179312
C        76.66126780684660   -2.89272644259499   -1.82426292768415
C        77.63462241268196   -2.65742286982870   -0.89629777388365
N        77.25017902661783   -1.55223174767487   -0.11839578457142
C        78.86978745772993   -3.38218492498961   -0.65461282831599
C        79.99694865361320   -2.81021574433557   -0.18827661056149
C        81.05928468829342   -3.32246747086842    0.68288974733341
C        81.92467645152948   -2.31760052115130    0.81500485454799
C        81.46564894714952   -1.16018830036773    0.04971830372757
N        80.31989408128071   -1.48165275000611   -0.50270005683843
C        82.08238149978122    0.12869953206048   -0.13780091778762
C        81.40202686609031    1.29017860976437   -0.19122919940613
C        81.78782829844077    2.50526700837679   -0.91613515247669
C        80.82329592116686    3.39145709899516   -0.66981868174783
C        79.83529803640567    2.77048589280204    0.20143817052726
N        80.18754919090136    1.52223778829501    0.45502641148130
C        78.63196546393755    3.32715725984553    0.76072044276517
C        77.48383241160575    2.61836673224711    0.91113585421848
N        77.16783574260219    1.50811219045280    0.11934997751148
H        76.35489637821550    3.61981016443232    2.63141592761503
H        74.56788924482788    1.84845867740761    2.21162958718733
H        74.73268755981032   -1.81140694300295   -2.20269483089865
H        76.66837796501311   -3.66453307619003   -2.58077872685910
H        78.92045711768090   -4.45552012829367   -0.85363802161919
H        81.10482297250825   -4.29432700086191    1.14585658771264
H        82.81441941624517   -2.39361586513271    1.42465150523235
H        83.16667585564274    0.16014477262401   -0.24605233229095
H        82.64625550826493    2.66808161787491   -1.55155528788563
H        80.82179163564942    4.38522138636397   -1.09070260345755
H        78.65422914706016    4.37077478547482    1.08013113596029
C        38.97606105405823    0.01920096852298   -0.01008868553851
C        40.19814472187681    0.02952954574784   -0.01241562125727
C        49.82165067956490    0.02803705947740   -0.00763769868997
C        51.03436943802078    0.02906695340494   -0.01140959248504
C        60.63510578291861    0.02809107539226   -0.00722022285658
C        61.84803108434828    0.02908272557634   -0.01135392250686
C        71.47537588680849    0.02792098379915   -0.00514156429221
C        72.69609583060866    0.01998098271818   -0.00965812113609
Fe       45.04887173786341    0.03539801818956    0.00199047376652
C        42.77768234414761   -3.24726578428864   -0.89901163424604
C        41.81363084009386   -2.32927208372371   -0.99859581771067
C        42.23466895522674   -1.17967641667549   -0.20890074054553
C        41.58566451735457    0.00526141437771    0.00459323335115
C        42.29076328622369    1.26237026296313    0.23058935754374
C        41.91826090181013    2.36570799419196    0.95040254381156
C        42.92703881786710    3.35913874500543    0.85542599242404
C        43.91385823051930    2.83887301004333    0.06954225149578
N        43.54999168141275    1.52969476193612   -0.33108635277367
C        45.13546998144491    3.47078487080446   -0.34494727939178
C        46.26220656443638    2.79266727932888   -0.67606051124841
C        47.25426167403604    3.06465349544127   -1.69610759645201
C        48.16257070568205    2.08410248506597   -1.60694347263728
C        47.76407173442545    1.18362447801654   -0.52053150918376
N        46.63284144828297    1.61576043008617   -0.01355683940356
C        48.42743475617473    0.00318823663184   -0.00234569949871
C        47.78142170791629   -1.09732677013063    0.47661280406170
C        48.18578014212978   -2.01629529962922    1.53393179212768
C        47.22874684485842   -2.94877413813626    1.62949241521597
C        46.21321147059104   -2.64428003501766    0.64275684804089
N        46.54752421944816   -1.54808534939243   -0.00499921549520
C        44.99258494538609   -3.34933829288361    0.31213541669780
C        43.84460779246928   -2.73254654931587   -0.05403833030184
N        43.48714162785343   -1.45044601102613    0.34035197743872
H        42.78316349194790   -4.21647169857819   -1.39298464859150
H        40.91301795848761   -2.44007380887323   -1.58387613215662
H        41.00242398124334    2.46142062663573    1.51633933605128
H        42.96835553134832    4.34050386838175    1.30660236175752
H        45.21772958686708    4.56231389404285   -0.41153027872066
H        47.27131996336485    3.86124503752379   -2.42726453945254
H        49.03478977370337    1.97558650530214   -2.23840621783433
H        49.08221645381559   -1.93680537985732    2.14537754956899
H        47.24340689339521   -3.75166819423360    2.33934691773132
H        45.01658314555401   -4.43918500333009    0.35824568581636
Fe       55.86262070755278    0.03523855023119    0.00251591379801
C        53.59077262437403   -3.24795996213064   -0.89902178480563
C        52.62747853195750   -2.33008161578177   -0.99826320137613
C        53.05131484446644   -1.18167671769980   -0.20679626746672
C        52.40582467621210    0.00471483347554    0.00509756894851
C        53.10694192831983    1.26428030708179    0.22982672453206
C        52.73237967565431    2.36582891718109    0.95026134163493
C        53.74071640318663    3.35968351677609    0.85526136105691
C        54.72768055234715    2.83955792434470    0.06935889900091
N        54.36444412236904    1.53052506923821   -0.33094850243198
C        55.94909451678231    3.47087008562246   -0.34467868569726
C        57.07608815180336    2.79266676382015   -0.67602461827978
C        58.06783430715669    3.06470610298816   -1.69621738685026
C        58.97620634553931    2.08410168756907   -1.60711398874508
C        58.57740836977880    1.18395487480211   -0.52079129329972
N        57.44665627805227    1.61578274351045   -0.01398955463383
C        59.24116504497556    0.00286720500500   -0.00211052106311
C        58.59542845255232   -1.09755001159572    0.47643175686666
C        58.99974790574387   -2.01641740958143    1.53392027283633
C        58.04240808306918   -2.94847695961680    1.62983733403286
C        57.02726788823401   -2.64349145550012    0.64303881904803
N        57.36123599710319   -1.54856945372785   -0.00495278331589
C        55.80563738452771   -3.34952819345919    0.31144595139095
C        54.65892452137155   -2.73325679399536   -0.05382613908415
N        54.30161465222429   -1.45097689970827    0.34025408251174
H        53.59657144202500   -4.21673388875128   -1.39316019948886
H        51.72680844140490   -2.44010359261308   -1.58395246599286
H        51.81623808117208    2.46125740931917    1.51639840356990
H        53.78192568669382    4.34073711665941    1.30665461252166
H        56.03142041475397    4.56238583246586   -0.41145870495291
H        58.08495987286305    3.86129867980887   -2.42728100988864
H        59.84842716208816    1.97559029010613   -2.23842221289450
H        59.89596928219200   -1.93685335132384    2.14540163259720
H        58.05700473566360   -3.75158222122755    2.33940756038332
H        55.83029391703904   -4.43928603898016    0.35753226822601
Fe       66.67616412856412    0.03550379200564    0.00212168490223
C        64.40415525856675   -3.24811183450446   -0.89882667309479
C        63.44124048154425   -2.33023582384329   -0.99827768260291
C        63.86506840414343   -1.18149768287836   -0.20667357928192
C        63.21933815307077    0.00465828821508    0.00500009735816
C        63.92039089144242    1.26438349509162    0.22982208787333
C        63.54602787123443    2.36572511676087    0.95023944992980
C        64.55444263916823    3.35964611198052    0.85527290482227
C        65.54144431442813    2.83962016587892    0.06937417871662
N        65.17797704117054    1.53059390410413   -0.33108568942336
C        66.76285872237777    3.47057542176297   -0.34443487684025
C        67.89017535672923    2.79201324712682   -0.67561290370679
C        68.88149601945693    3.06430819098654   -1.69617707155095
C        69.79009232264774    2.08391803680302   -1.60756517633411
C        69.39301185097810    1.18156725119236   -0.52233162110737
N        68.26191346244417    1.61478978848216   -0.01356993221267
C        70.06108783119166    0.00231733848619   -0.00220515266993
C        69.41246159750867   -1.09514096868446    0.47658515341398
C        69.81388205263946   -2.01622543576148    1.53400873120600
C        68.85612733256052   -2.94760158815041    1.62993954434651
C        67.84163655686187   -2.64211687202875    0.64297722538285
N        68.17535452360916   -1.54772869246958   -0.00469576295854
C        66.61889196007861   -3.34945289447055    0.31087032679944
C        65.47279803294946   -2.73358239401934   -0.05346438127833
N        65.11523356872138   -1.45067906011789    0.34049520392812
H        64.41014645862677   -4.21676598022782   -1.39317433246437
H        62.54050212955055   -2.44011495781088   -1.58401680007158
H        62.62986652131084    2.46124223150334    1.51641312354940
H        64.59553096036632    4.34077837098148    1.30658966266487
H        66.84513324502215    4.56221966761664   -0.41149295239414
H        68.89851252289689    3.86120385536473   -2.42716345934745
H        70.66220872829814    1.97563942694795   -2.23854537390332
H        70.70982883109208   -1.93703046586874    2.14541074146619
H        68.87052984273265   -3.75127928064037    2.33926663367392
H        66.64409188867528   -4.43923375945718    0.35685257747962
185
 energy: -331.290008795967 gnorm: 0.179957817711 xtb: 6.4.1 (bd6e46d)
Fe       32.96487703706703    0.04273785807720   -0.01112003593467
C        35.27377326041412   -3.11680489404856    1.29005313992356
C        36.22146250113805   -2.15865621908963    1.24854765165145
C        35.77697598237829   -1.10998518415566    0.35134866050931
C        36.37295391410571    0.06562088047821   -0.01192839527240
C        35.67371821243138    1.22964846950069   -0.36084532595864
C        36.04282799747259    2.25999255350468   -1.25150607789507
C        35.05206914754040    3.21746837455603   -1.25595307341701
C        34.03931889664243    2.78861139090495   -0.37507297101653
N        34.40682528985258    1.56147384405172    0.15917046456963
C        32.83391834089873    3.47358942858538   -0.01261175236837
C        31.67910150848108    2.81064446736758    0.34728845928875
C        30.62487968450588    3.17831169079069    1.26808704435941
C        29.72974506762982    2.16162705108129    1.22838828740650
C        30.20665510319840    1.16892998160748    0.28724858031376
N        31.39955997982186    1.56403323562604   -0.18368669513047
C        29.59020460441755   -0.04004141197878   -0.14620792108523
C        30.28556698282972   -1.19252701644880   -0.43664962548052
C        29.88800865438036   -2.25162270303794   -1.34387394876259
C        30.85841872566018   -3.19039442903344   -1.27371170782380
C        31.85348479850988   -2.73093512206473   -0.32325323646052
N        31.50504316019074   -1.51007911047022    0.12968334118638
C        33.03028969025077   -3.37195025064358    0.12410672389448
C        34.19816630233727   -2.68107790625553    0.42048677468936
N        34.50301439711687   -1.45697277940590   -0.12081184800043
H        35.31361739611934   -4.00129655513379    1.90543849347225
H        37.12040528092049   -2.17720751940850    1.82792041875820
H        36.94514059066955    2.23600759753066   -1.82524500462887
H        35.01532317996121    4.11304487281820   -1.84927607410694
H        32.77809161574824    4.56243771847320   -0.00786961593624
H        30.58189871792979    4.04097601702243    1.91326095799658
H        28.85739834252994    2.11588522502135    1.84280948304410
H        28.51544371271346   -0.06681383599154   -0.26693456714044
H        29.03632432686364   -2.28508658443711   -2.00322668779625
H        30.86896112453242   -4.07541641792484   -1.87450749768050
H        33.02498754425470   -4.44931035186687    0.24851372263612
Fe       78.71399935120600   -0.00148412427470   -0.01529279987780
C        76.40522928203498    2.86179338955974    1.84947971860264
C        75.45772088454906    1.92783636862333    1.63093778633640
C        75.90261523257229    1.06404775794683    0.55461874686409
C        75.30835493349346   -0.02358550884693   -0.02130529062824
C        76.00582228629942   -1.10280068472549   -0.57928001139783
C        75.63636235719375   -1.95015874527505   -1.64551648015666
C        76.62687085625372   -2.89018525465822   -1.82743624700540
C        77.63975524536652   -2.63224280294771   -0.88223015882800
N        77.27247327906200   -1.52576596909456   -0.12953940800333
C        78.84507799323042   -3.37258745255145   -0.65322381639084
C        79.99985529350953   -2.78782274116133   -0.17655342158243
C        81.05406481153905   -3.31991945231329    0.66009040004515
C        81.94921973562388   -2.31353648844581    0.80962624266090
C        81.47229723102161   -1.16345379373041    0.06898175749410
N        80.27937412113972   -1.46439997655877   -0.46708522604204
C        82.08873080849052    0.10489817909657   -0.13263508067645
C        81.39335298616044    1.29128421603531   -0.20425655029702
C        81.79093550016647    2.50027985314879   -0.89926578441017
C        80.82052195962547    3.40975253356606   -0.65618889281650
C        79.82548440609899    2.78197790029301    0.19257220172261
N        80.17391357873792    1.49829063566763    0.41119493768570
C        78.64873130481159    3.32895185438248    0.75113822061199
C        77.48090707866589    2.59509602812987    0.91417139737086
N        77.17649486668809    1.49278019745645    0.15509153057006
H        76.36530754547238    3.61682307361426    2.61821631078137
H        74.55863922316101    1.83874474206805    2.20355356185880
H        74.73395342096944   -1.82010881280105   -2.20476602411280
H        76.66364816475182   -3.66015385115625   -2.57661535546490
H        78.90089405380012   -4.44338575709637   -0.85057583815306
H        81.09705904375116   -4.28732020912165    1.13399593618056
H        82.82155709275129   -2.38256480501877    1.42188753380591
H        83.16349593619418    0.15361915453318   -0.24628932711844
H        82.64262572912237    2.65548339619186   -1.54095960184665
H        80.80999052491291    4.39087295228620   -1.08234907338793
H        78.65398386013865    4.36450145636434    1.07320742298893
C        38.94405996167104    0.02482491115833   -0.00678262819071
C        40.16852295981997    0.03927848157851   -0.01177731673016