185
 energy: -332.159762334793 gnorm: 0.000920904639 xtb: 6.4.1 (bd6e46d)
Fe       33.70046780402134    0.02699928533337   -0.01555867799886
C        36.17721221862931   -2.63195411763804    2.10982032857723
C        37.17444944159925   -1.89406739702531    1.56838815440827
C        36.54428872038097   -0.90417620139789    0.74998556319001
C        37.22827897986848    0.05106913033208   -0.00671774417977
C        36.53429294216797    0.99920237191129   -0.76302432483211
C        37.15480999076502    2.00260902304211   -1.57240362759811
C        36.15023049839267    2.72908128226385   -2.11553099384184
C        34.92196110833729    2.16062244023755   -1.63982436275845
N        35.17755249565646    1.09511784017712   -0.81740743970037
C        33.68411124238026    2.66338663661631   -1.98999446485069
C        32.45247022110395    2.17425466729184   -1.60200198786931
C        31.21360894892775    2.76679623502269   -2.02434262864900
C        30.22043242864963    2.02622165185791   -1.48314010883066
C        30.85556287150286    0.98351070450966   -0.73082821036393
N        32.21421467029194    1.08770073694615   -0.80718052823462
C        30.19071717153903   -0.00350950993076   -0.03103358808496
C        30.86623720975470   -0.97770906275009    0.67639526657317
C        30.24218485431076   -2.03013942038288    1.42456263827071
C        31.24286785811230   -2.75139693068462    1.97767123172836
C        32.47523548545296   -2.13790958254875    1.56637856118032
N        32.22561295348044   -1.05745725480063    0.76631020735643
C        33.71135892672974   -2.60516234608579    1.96651536853438
C        34.94383135731513   -2.08407916522686    1.62382914220010
N        35.18880401592319   -1.01894981209102    0.79792091808227
H        36.25022564726025   -3.46821544958325    2.77794448641880
H        38.23379781936674   -1.98627201269959    1.70596940046029
H        38.21360562771930    2.11132006461921   -1.70200379897277
H        36.21477414129558    3.57028047920153   -2.77836124745032
H        33.68007098599429    3.52754760594181   -2.63924248041694
H        31.13824549582365    3.63308688690649   -2.65314567096950
H        29.15894741563232    2.15445407289821   -1.57172877886591
H        29.11183388404925   -0.01353700744851   -0.03689896259760
H        29.18230877104187   -2.17707126802784    1.50282489321770
H        31.17681586768385   -3.61751701025834    2.60774862927170
H        33.71594222181001   -3.46733730220080    2.61818654106980
Fe       77.99760497687745    0.03567983109466   -0.01233215730386
C        75.55320835324480    2.81974669701226    1.98802971769464
C        74.54675398354776    2.08047011069240    1.46577187302212
C        75.16572363578015    1.04277908691205    0.69939732193996
C        74.47064974723347    0.06207611461579   -0.01243046474615
C        75.15151728585650   -0.92802464539220   -0.72522299960008
C        74.51733144595799   -1.95601756241412   -1.49229599883438
C        75.51268057581503   -2.71078235151967   -2.01355377156516
C        76.74850225610565   -2.13608184605671   -1.56588772937814
N        76.50704805533913   -1.03952661103459   -0.78107225370275
C        77.98026160885054   -2.66020500142748   -1.90653577590538
C        79.21783922503758   -2.17178744757147   -1.53740698646297
C        80.44929934880101   -2.78936902861877   -1.94579366947400
C        81.45168062168224   -2.04865301521301   -1.42224114765795
C        80.82968168096943   -0.98053579115108   -0.69476868965184
N        79.46990723076665   -1.06836675884001   -0.77020878503997
C        81.50720942193414    0.01035330300262   -0.01276810149749
C        80.84440684317480    1.01052836186334    0.67019762427060
C        81.48202492955227    2.06837463118091    1.39903429222696
C        80.49060724368056    2.82270258120115    1.92411368548414
C        79.25020172601177    2.22405537614689    1.51479618831459
N        79.48609029895795    1.11803097224103    0.74607856570178
C        78.01988869265065    2.73091047881244    1.88344935480760
C        76.78047232670615    2.22618327826338    1.54110987385970
N        76.52279074639827    1.13390742159040    0.75570408941619
H        75.49045513142978    3.68507498753094    2.61921001885543
H        73.48765241065171    2.20135152730312    1.58329360278684
H        73.45668958479305   -2.06036610436380   -1.61135109275323
H        75.43698443142125   -3.57515087347317   -2.64462161558418
H        77.97358049801984   -3.54364814511442   -2.52918337981922
H        80.51340490455469   -3.67158069019548   -2.55338997062974
H        82.51145632650250   -2.19235867846251   -1.50757107590963
H        82.58612683152407    0.00262477161990   -0.01328880864327
H        82.54378257415347    2.19645332596375    1.48458002979555
H        80.56769584042611    3.70279695633583    2.53325688068355
H        78.02619889973816    3.61367988193020    2.50705456752255
C        38.62941943798459    0.05690984549849   -0.00695356019284
C        39.84209507222180    0.05970272724389   -0.01098660138528
C        49.70588589414326    0.01376388467952   -0.01537138135101
C        50.91866026262673    0.00362864616670   -0.01359772599477
C        60.78089282875497    0.01970694173045   -0.02814195726404
C        61.99388849587118    0.03142342700063   -0.02290322088822
C        71.85689721588838    0.07151468778055   -0.01005950164331
C        73.06932539412412    0.06932151450369   -0.01091905598619
Fe       44.77429572461232    0.03817103894778   -0.01163199591630
C        42.29558725451942   -3.23074885649452    0.92627154559842
C        41.29816770274992   -2.36271022142361    0.63644186093111
C        41.92775150261510   -1.11959841779858    0.31193409308810
C        41.24282704451004    0.05501080817348   -0.01215322537113
C        41.93836029120818    1.22314015454051   -0.33675330513823
C        41.32047791348182    2.47133481107783   -0.66374520067528
C        42.32623495104432    3.33033055320030   -0.95203811985309
C        43.55200748677490    2.60275925643574   -0.79334068536015
N        43.29418219553885    1.31486321022365   -0.40294928187109
C        44.78927005363782    3.16438517337699   -1.03975639524761
C        46.02102621663381    2.55552559877688   -0.90236531871095
C        47.25342311725032    3.22351029569082   -1.20592387958694
C        48.25080415402918    2.35169078481655   -0.92710858822003
C        47.62113280121817    1.15925649364212   -0.44901669896917
N        46.26656432791415    1.28506103261328   -0.45171888088521
C        48.30566101029557    0.01995376417681   -0.01594171645289
C        47.61057105729353   -1.11209361564514    0.41881832986239
C        48.22914896257557   -2.31106634059597    0.89508182827547
C        47.22347904145026   -3.17172932786600    1.17857026434903
C        45.99728153748670   -2.49077417325229    0.87853545710926
N        46.25476911538227   -1.22352068293367    0.42564044398791
C        44.75972607657783   -3.08702167827186    1.01842409533558
C        43.52806536231694   -2.51387879350529    0.77073851496499
N        43.28258953212195   -1.22361824643539    0.38032883125160
H        42.22315213150237   -4.26079211210009    1.21762072579584
H        40.23910246308739   -2.52958645454883    0.62623022585551
H        40.26278208672217    2.64719031744520   -0.65755210256446
H        42.26378779035377    4.36055269160204   -1.24502607412749
H        44.79396216953985    4.19128085911044   -1.37726459480846
H        47.32595047551303    4.22548518066419   -1.58262147818593
H        49.30978144054659    2.47934644051991   -1.03672014481013
H        49.28713507664387   -2.45019557259419    0.99996051305847
H        47.28656433114786   -4.17418397565252    1.55576097130006
H        44.75451644516065   -4.11345704385719    1.35717360369153
Fe       55.84939606946886    0.00988280519824   -0.01649402912823
C        53.39209674978590   -3.40509746406468   -0.10899177814445
C        52.38914087272497   -2.49609372156655   -0.13003920192709
C        53.01070583006470   -1.20926349967876   -0.06107406486021
C        52.31885000761547    0.00444649055342   -0.01351420400730
C        53.00710893645513    1.22016885059627    0.03522504414443
C        52.38187751242972    2.50487269424472    0.10927885531897
C        53.38207049160505    3.41691187377817    0.08879546598288
C        54.61158973656158    2.68290931625599    0.00766474393039
N        54.36188099114004    1.33577992405342   -0.00788346753461
C        55.84412240388541    3.29967381500647   -0.07721176646898
C        57.07840682137176    2.68400832558952   -0.14141588170734
C        58.30516293261912    3.41819792669768   -0.25472965383180
C        59.30785475750733    2.50883441041134   -0.24669517559864
C        58.68754533869262    1.22587836176804   -0.12105794922090
N        57.33264051161817    1.33902750609224   -0.07693757098187
C        59.38075930330803    0.01551359836764   -0.02421646083203
C        58.69232968580185   -1.19727714317649    0.07551116964023
C        59.31723337017073   -2.47840445084203    0.19672072264435
C        58.31731291153118   -3.39085448671445    0.20931734004373
C        57.08764195976750   -2.66041922742496    0.10313984586871
N        57.33748245915177   -1.31468226561930    0.03832432069610
C        55.85476237055412   -3.27988638500595    0.04602850210772
C        54.61977088704369   -2.66726393008143   -0.03373734801824
N        54.36590983203365   -1.32083113784403   -0.02079664837967
H        53.32632097989941   -4.47552000426178   -0.14113506031374
H        51.33123258891009   -2.65873971930145   -0.19463364221427
H        51.32377418656144    2.66410951381147    0.17791196817368
H        53.31325966227526    4.48701021810092    0.12480309667678
H        55.84249927946654    4.38040562306601   -0.09665594991408
H        58.37068776042224    4.48641163844499   -0.33047785099083
H        60.36479086033032    2.66877139435328   -0.32745667181161
H        60.37515389231514   -2.63530830615665    0.27120378672601
H        58.38650302300109   -4.45896628549578    0.28331121817345
H        55.85662941095196   -4.36061820547076    0.06641739104407
Fe       66.92603849897615    0.05417544323860   -0.02265541986758
C        64.47785785645169   -3.26732612907972   -0.85350789655812
C        63.47256271538550   -2.37757480094457   -0.67972817617984
C        64.08996350959006   -1.13420946393634   -0.33406111154239
C        63.39406157456547    0.03847894736022   -0.02543389959504
C        64.07929654831953    1.21780289412068    0.28190722517981
C        63.45054914822885    2.45609633180139    0.62501006052304
C        64.44766361012712    3.35518468298189    0.79802084043833
C        65.67951307615776    2.65797112166420    0.56743465871393
N        65.43377504947144    1.34410439105231    0.26620158183747
C        66.91106726227969    3.27988231467975    0.62764268531435
C        68.14819753055328    2.69318515992153    0.44885863912990
C        69.37455443170171    3.43399150575667    0.52018001492849
C        70.38042080391010    2.54561645303572    0.34273068737117
C        69.76163354007605    1.26724753297166    0.16835543335560
N        68.40578365119009    1.36726344170214    0.21863485181691
C        70.45602067545444    0.06796469607473   -0.01114271352107
C        69.77155298240783   -1.13663593687544   -0.19433389889801
C        70.40120376244467   -2.41043632013314   -0.36353945681195
C        69.40350034816213   -3.30628853046212   -0.54915653612964
C        68.17119099268236   -2.57468513744941   -0.48750777068014
N        68.41690983729428   -1.24696808285143   -0.25486191372158
C        66.94007157945865   -3.17117523434194   -0.67523015400271
C        65.70319112392204   -2.55967525920073   -0.61964667373212
N        65.44546120434759   -1.24836404606911   -0.31726053821525
H        64.41475961276220   -4.30582599474570   -1.11559307096288
H        62.41553752403048   -2.52501409331064   -0.78105983393061
H        62.39220693040526    2.59438413277080    0.72532483710022
H        64.37500488800276    4.39342902976815    1.05854606598610
H        66.90622396701822    4.33969090700373    0.84017286061747
H        69.43714159055911    4.49239148145103    0.68458662653839
H        71.43861105975938    2.71830902596184    0.32008189914365
H        71.46030272045338   -2.57547648615773   -0.33095933693221
H        69.47531474024284   -4.36424572415311   -0.71258271336398
H        66.94512876837270   -4.23065130597010   -0.88933916560441
