      -----------------------------------------------------------      
     |                   =====================                   |     
     |                           x T B                           |     
     |                   =====================                   |     
     |                         S. Grimme                         |     
     |          Mulliken Center for Theoretical Chemistry        |     
     |                    University of Bonn                     |     
      -----------------------------------------------------------      

   * xtb version 6.4.1 (bd6e46d) compiled by 'conda@4901f00b25ba' on 2021-06-10

   xtb is free software: you can redistribute it and/or modify it under
   the terms of the GNU Lesser General Public License as published by
   the Free Software Foundation, either version 3 of the License, or
   (at your option) any later version.
   
   xtb is distributed in the hope that it will be useful,
   but WITHOUT ANY WARRANTY; without even the implied warranty of
   MERCHANTABILITY or FITNESS FOR A PARTICULAR PURPOSE.  See the
   GNU Lesser General Public License for more details.
   
   Cite this work as:
   * C. Bannwarth, E. Caldeweyher, S. Ehlert, A. Hansen, P. Pracht,
     J. Seibert, S. Spicher, S. Grimme, WIREs Comput. Mol. Sci., 2020, 11,
     e01493. DOI: 10.1002/wcms.1493
   
   for GFN2-xTB:
   * C. Bannwarth, S. Ehlert and S. Grimme., J. Chem. Theory Comput., 2019,
     15, 1652-1671. DOI: 10.1021/acs.jctc.8b01176
   for GFN1-xTB:
   * S. Grimme, C. Bannwarth, P. Shushkov, J. Chem. Theory Comput., 2017,
     13, 1989-2009. DOI: 10.1021/acs.jctc.7b00118
   for GFN0-xTB:
   * P. Pracht, E. Caldeweyher, S. Ehlert, S. Grimme, ChemRxiv, 2019, preprint.
     DOI: 10.26434/chemrxiv.8326202.v1
   for GFN-FF:
   * S. Spicher and S. Grimme, Angew. Chem. Int. Ed., 2020, 59, 15665-15673.
     DOI: 10.1002/anie.202004239
   
   for DFT-D4:
   * E. Caldeweyher, C. Bannwarth and S. Grimme, J. Chem. Phys., 2017,
     147, 034112. DOI: 10.1063/1.4993215
   * E. Caldeweyher, S. Ehlert, A. Hansen, H. Neugebauer, S. Spicher,
     C. Bannwarth and S. Grimme, J. Chem. Phys., 2019, 150, 154122.
     DOI: 10.1063/1.5090222
   * E. Caldeweyher, J.-M. Mewes, S. Ehlert and S. Grimme, Phys. Chem. Chem. Phys.
     2020, 22, 8499-8512. DOI: 10.1039/D0CP00502A
   
   for sTDA-xTB:
   * S. Grimme and C. Bannwarth, J. Chem. Phys., 2016, 145, 054103.
     DOI: 10.1063/1.4959605
   
   in the mass-spec context:
   * V. Asgeirsson, C. Bauer and S. Grimme, Chem. Sci., 2017, 8, 4879.
     DOI: 10.1039/c7sc00601b
   * J. Koopman and S. Grimme, ACS Omega 2019, 4, 12, 15120-15133.
     DOI: 10.1021/acsomega.9b02011
   
   for metadynamics refer to:
   * S. Grimme, J. Chem. Theory Comput., 2019, 155, 2847-2862
     DOI: 10.1021/acs.jctc.9b00143
   
   for SPH calculations refer to:
   * S. Spicher and S. Grimme, J. Chem. Theory Comput., 2021, 17, 1701-1714
     DOI: 10.1021/acs.jctc.0c01306
   
   with help from (in alphabetical order)
   P. Atkinson, C. Bannwarth, F. Bohle, G. Brandenburg, E. Caldeweyher
   M. Checinski, S. Dohm, S. Ehlert, S. Ehrlich, I. Gerasimov, J. Koopman
   C. Lavigne, S. Lehtola, F. März, M. Müller, F. Musil, H. Neugebauer
   J. Pisarek, C. Plett, P. Pracht, J. Seibert, P. Shushkov, S. Spicher
   M. Stahn, M. Steiner, T. Strunk, J. Stückrath, T. Rose, and J. Unsleber
   
 * started run on 2021/11/21 at 19:26:06.830     

           -------------------------------------------------
          |                Calculation Setup                |
           -------------------------------------------------

          program call               : /home/jeff/miniconda3/bin/xtb /home/jeff/chem/final-year-proejct/free_base/_6_9_outenergy/input_structure.xyz --gfn 2 --parallel 1 --etemp 300 --chrg 0 --uhf 0 -I det_control.in
          coordinate file            : /home/jeff/chem/final-year-proejct/free_base/_6_9_outenergy/input_structure.xyz
          omp threads                :                     1
          number of atoms            :                   374
          number of electrons        :                  1202
          charge                     :                     0
          spin                       :                   0.0
          first test random number   :      0.72744140415640

   ID    Z sym.   atoms
    1    6 C      1-8, 10-14, 16-20, 22, 23, 38-45, 47-51, 53-57, 59, 60,
                  75-130, 132-136, 138-142, 144, 145, 159-166, 168-172,
                  174-178, 180, 181, 195-202, 204-208, 210-214, 216, 217,
                  231-238, 240-244, 246-250, 252, 253, 267-274, 276-280,
                  282-286, 288, 289, 303-310, 312-316, 318-322, 324, 325,
                  339-346, 348-352, 354-358, 360, 361
    2    7 N      9, 15, 21, 24, 46, 52, 58, 61, 131, 137, 143, 146, 167,
                  173, 179, 182, 203, 209, 215, 218, 239, 245, 251, 254, 275,
                  281, 287, 290, 311, 317, 323, 326, 347, 353, 359, 362
    3    1 H      25-37, 62-74, 147-158, 183-194, 219-230, 255-266, 291-302,
                  327-338, 363-374

           -------------------------------------------------
          |                 G F N 2 - x T B                 |
           -------------------------------------------------

        Reference                      10.1021/acs.jctc.8b01176
      * Hamiltonian:
        H0-scaling (s, p, d)           1.850000    2.230000    2.230000
        zeta-weighting                 0.500000
      * Dispersion:
        s8                             2.700000
        a1                             0.520000
        a2                             5.000000
        s9                             5.000000
      * Repulsion:
        kExp                           1.500000    1.000000
        rExp                           1.000000
      * Coulomb:
        alpha                          2.000000
        third order                    shell-resolved
        anisotropic                    true
        a3                             3.000000
        a5                             4.000000
        cn-shift                       1.200000
        cn-exp                         4.000000
        max-rad                        5.000000


          ...................................................
          :                      SETUP                      :
          :.................................................:
          :  # basis functions                1166          :
          :  # atomic orbitals                1166          :
          :  # shells                          638          :
          :  # electrons                      1202          :
          :  max. iterations                   250          :
          :  Hamiltonian                  GFN2-xTB          :
          :  restarted?                      false          :
          :  GBSA solvation                  false          :
          :  PC potential                    false          :
          :  electronic temp.          300.0000000     K    :
          :  accuracy                    1.0000000          :
          :  -> integral cutoff          0.2500000E+02      :
          :  -> integral neglect         0.1000000E-07      :
          :  -> SCF convergence          0.1000000E-05 Eh   :
          :  -> wf. convergence          0.1000000E-03 e    :
          :  Broyden damping             0.4000000          :
          ...................................................

 iter      E             dE          RMSdq      gap      omega  full diag
   1   -660.0848950 -0.660085E+03  0.624E+00    0.51       0.0  T
   2   -660.9946438 -0.909749E+00  0.395E+00    0.75       1.0  T
   3   -660.6440741  0.350570E+00  0.157E+00    0.57       1.0  T
   4   -661.0323727 -0.388299E+00  0.565E-01    0.75       1.0  T
   5   -661.1726168 -0.140244E+00  0.185E-01    0.73       1.0  T
   6   -661.1864423 -0.138255E-01  0.861E-02    0.73       1.0  T
   7   -661.1875969 -0.115463E-02  0.594E-02    0.73       1.0  T
   8   -661.1888851 -0.128820E-02  0.228E-02    0.73       1.0  T
   9   -661.1890163 -0.131179E-03  0.120E-02    0.73       1.0  T
  10   -661.1890366 -0.202284E-04  0.692E-03    0.73       1.0  T
  11   -661.1890603 -0.237388E-04  0.197E-03    0.73       2.6  T
  12   -661.1890619 -0.156430E-05  0.103E-03    0.73       5.0  T
  13   -661.1890622 -0.362900E-06  0.482E-04    0.73      10.7  T
  14   -661.1890622 -0.311275E-07  0.294E-04    0.73      17.6  T

   *** convergence criteria satisfied after 14 iterations ***

         #    Occupation            Energy/Eh            Energy/eV
      -------------------------------------------------------------
         1        2.0000           -0.6865949             -18.6832
       ...           ...                  ...                  ...
       595        2.0000           -0.3610408              -9.8244
       596        2.0000           -0.3581907              -9.7469
       597        2.0000           -0.3550817              -9.6623
       598        2.0000           -0.3519655              -9.5775
       599        2.0000           -0.3490836              -9.4990
       600        2.0000           -0.3467212              -9.4348
       601        2.0000           -0.3453290              -9.3969 (HOMO)
       602        0.0000           -0.3183762              -8.6635 (LUMO)
       603        0.0000           -0.3163893              -8.6094
       604                         -0.3137206              -8.5368
       605                         -0.3106252              -8.4525
       606                         -0.3073372              -8.3631
       ...                                ...                  ...
      1166                          1.7164072              46.7058
      -------------------------------------------------------------
                  HL-Gap            0.0269529 Eh            0.7334 eV
             Fermi-level           -0.3318047 Eh           -9.0289 eV

 SCC (total)                   0 d,  0 h,  0 min,  8.580 sec
 SCC setup                      ...        0 min,  0.024 sec (  0.278%)
 Dispersion                     ...        0 min,  0.047 sec (  0.549%)
 classical contributions        ...        0 min,  0.003 sec (  0.038%)
 integral evaluation            ...        0 min,  0.334 sec (  3.890%)
 iterations                     ...        0 min,  7.339 sec ( 85.536%)
 molecular gradient             ...        0 min,  0.761 sec (  8.875%)
 printout                       ...        0 min,  0.072 sec (  0.834%)

         :::::::::::::::::::::::::::::::::::::::::::::::::::::
         ::                     SUMMARY                     ::
         :::::::::::::::::::::::::::::::::::::::::::::::::::::
         :: total energy            -648.217841329259 Eh    ::
         :: gradient norm              0.000907691977 Eh/a0 ::
         :: HOMO-LUMO gap              0.733425307517 eV    ::
         ::.................................................::
         :: SCC energy              -661.189062248874 Eh    ::
         :: -> isotropic ES            0.305607471897 Eh    ::
         :: -> anisotropic ES         -0.032843345201 Eh    ::
         :: -> anisotropic XC          0.486682880461 Eh    ::
         :: -> dispersion             -0.526731292954 Eh    ::
         :: repulsion energy          12.980845559634 Eh    ::
         :: add. restraining           0.000000000000 Eh    ::
         :: total charge               0.000000000140 e     ::
         :::::::::::::::::::::::::::::::::::::::::::::::::::::

           -------------------------------------------------
          |                Property Printout                |
           -------------------------------------------------

    * Orbital Energies and Occupations

         #    Occupation            Energy/Eh            Energy/eV
      -------------------------------------------------------------
         1        2.0000           -0.6865949             -18.6832
       ...           ...                  ...                  ...
       589        2.0000           -0.3710693             -10.0973
       590        2.0000           -0.3710678             -10.0973
       591        2.0000           -0.3695314             -10.0555
       592        2.0000           -0.3695230             -10.0552
       593        2.0000           -0.3649845              -9.9317
       594        2.0000           -0.3633520              -9.8873
       595        2.0000           -0.3610408              -9.8244
       596        2.0000           -0.3581907              -9.7469
       597        2.0000           -0.3550817              -9.6623
       598        2.0000           -0.3519655              -9.5775
       599        2.0000           -0.3490836              -9.4990
       600        2.0000           -0.3467212              -9.4348
       601        2.0000           -0.3453290              -9.3969 (HOMO)
       602        0.0000           -0.3183762              -8.6635 (LUMO)
       603        0.0000           -0.3163893              -8.6094
       604                         -0.3137206              -8.5368
       605                         -0.3106252              -8.4525
       606                         -0.3073372              -8.3631
       607                         -0.3041167              -8.2754
       608                         -0.3015039              -8.2043
       609                         -0.3002603              -8.1705
       610                         -0.3002442              -8.1701
       611                         -0.3000381              -8.1645
       612                         -0.2999541              -8.1622
       ...                                ...                  ...
      1166                          1.7164072              46.7058
      -------------------------------------------------------------
                  HL-Gap            0.0269529 Eh            0.7334 eV
             Fermi-level           -0.3318047 Eh           -9.0289 eV

     #   Z          covCN         q      C6AA      α(0)
     1   6 C        3.016    -0.055    29.334     8.884
     2   6 C        3.009    -0.053    29.300     8.879
     3   6 C        3.196     0.087    25.559     8.242
     4   6 C        2.952     0.011    27.762     8.642
     5   6 C        3.097     0.064    26.448     8.428
     6   6 C        3.026    -0.050    29.211     8.865
     7   6 C        3.034    -0.052    29.249     8.871
     8   6 C        3.073     0.064    26.484     8.438
     9   7 N        2.785    -0.081    22.816     7.094
    10   6 C        2.899    -0.055    29.362     8.885
    11   6 C        3.171     0.087    25.715     8.284
    12   6 C        3.012    -0.054    29.314     8.881
    13   6 C        3.010    -0.054    29.316     8.882
    14   6 C        3.174     0.087    25.705     8.280
    15   7 N        1.870    -0.321    29.169     8.006
    16   6 C        2.899    -0.057    29.404     8.891
    17   6 C        3.074     0.065    26.468     8.435
    18   6 C        3.026    -0.051    29.237     8.869
    19   6 C        3.031    -0.051    29.229     8.868
    20   6 C        3.069     0.066    26.459     8.434
    21   7 N        2.787    -0.081    22.810     7.093
    22   6 C        2.899    -0.055    29.362     8.885
    23   6 C        3.175     0.086    25.717     8.282
    24   7 N        1.870    -0.325    29.278     8.021
    25   1 H        0.926     0.019     2.751     2.594
    26   1 H        0.926     0.021     2.714     2.576
    27   1 H        0.926     0.043     2.404     2.425
    28   1 H        0.926     0.042     2.428     2.437
    29   1 H        0.860     0.214     1.037     1.595
    30   1 H        0.925     0.047     2.356     2.400
    31   1 H        0.926     0.020     2.738     2.588
    32   1 H        0.926     0.020     2.738     2.588
    33   1 H        0.926     0.046     2.365     2.405
    34   1 H        0.926     0.042     2.421     2.433
    35   1 H        0.926     0.042     2.421     2.433
    36   1 H        0.860     0.214     1.035     1.594
    37   1 H        0.925     0.047     2.355     2.400
    38   6 C        3.016    -0.055    29.334     8.884
    39   6 C        3.009    -0.053    29.301     8.879
    40   6 C        3.197     0.087    25.559     8.241
    41   6 C        2.952     0.011    27.762     8.642
    42   6 C        3.097     0.064    26.448     8.428
    43   6 C        3.026    -0.050    29.210     8.865
    44   6 C        3.034    -0.052    29.249     8.871
    45   6 C        3.073     0.064    26.484     8.438
    46   7 N        2.785    -0.081    22.817     7.095
    47   6 C        2.899    -0.055    29.362     8.885
    48   6 C        3.170     0.087    25.715     8.284
    49   6 C        3.012    -0.054    29.314     8.881
    50   6 C        3.009    -0.054    29.316     8.882
    51   6 C        3.174     0.087    25.705     8.281
    52   7 N        1.870    -0.321    29.169     8.006
    53   6 C        2.899    -0.057    29.404     8.891
    54   6 C        3.074     0.065    26.469     8.435
    55   6 C        3.026    -0.051    29.237     8.869
    56   6 C        3.031    -0.051    29.229     8.868
    57   6 C        3.069     0.066    26.458     8.434
    58   7 N        2.787    -0.081    22.810     7.093
    59   6 C        2.899    -0.055    29.361     8.884
    60   6 C        3.175     0.086    25.718     8.282
    61   7 N        1.870    -0.325    29.277     8.020
    62   1 H        0.926     0.019     2.751     2.594
    63   1 H        0.926     0.021     2.714     2.576
    64   1 H        0.926     0.043     2.404     2.425
    65   1 H        0.926     0.042     2.428     2.437
    66   1 H        0.860     0.214     1.037     1.595
    67   1 H        0.925     0.047     2.356     2.400
    68   1 H        0.926     0.020     2.738     2.588
    69   1 H        0.926     0.020     2.738     2.587
    70   1 H        0.926     0.046     2.366     2.405
    71   1 H        0.926     0.042     2.421     2.433
    72   1 H        0.926     0.042     2.421     2.433
    73   1 H        0.860     0.214     1.035     1.594
    74   1 H        0.925     0.047     2.355     2.400
    75   6 C        1.996    -0.020    31.577     9.075
    76   6 C        1.963    -0.012    31.388     9.047
    77   6 C        1.965    -0.003    31.148     9.013
    78   6 C        1.965    -0.004    31.170     9.016
    79   6 C        1.964    -0.011    31.360     9.044
    80   6 C        1.995    -0.021    31.601     9.078
    81   6 C        1.995    -0.020    31.582     9.076
    82   6 C        1.964    -0.011    31.368     9.045
    83   6 C        1.965    -0.003    31.148     9.013
    84   6 C        1.965    -0.003    31.155     9.014
    85   6 C        1.964    -0.011    31.361     9.044
    86   6 C        1.995    -0.021    31.589     9.077
    87   6 C        1.995    -0.020    31.582     9.076
    88   6 C        1.964    -0.011    31.364     9.044
    89   6 C        1.965    -0.003    31.148     9.013
    90   6 C        1.965    -0.003    31.151     9.013
    91   6 C        1.964    -0.011    31.361     9.044
    92   6 C        1.995    -0.020    31.585     9.076
    93   6 C        1.995    -0.020    31.583     9.076
    94   6 C        1.964    -0.011    31.363     9.044
    95   6 C        1.965    -0.003    31.149     9.013
    96   6 C        1.965    -0.003    31.150     9.013
    97   6 C        1.964    -0.011    31.363     9.044
    98   6 C        1.995    -0.020    31.584     9.076
    99   6 C        1.995    -0.020    31.584     9.076
   100   6 C        1.964    -0.011    31.363     9.044
   101   6 C        1.965    -0.003    31.150     9.013
   102   6 C        1.965    -0.003    31.149     9.013
   103   6 C        1.964    -0.011    31.363     9.044
   104   6 C        1.995    -0.020    31.583     9.076
   105   6 C        1.995    -0.020    31.585     9.076
   106   6 C        1.964    -0.011    31.362     9.044
   107   6 C        1.965    -0.003    31.151     9.013
   108   6 C        1.965    -0.003    31.148     9.013
   109   6 C        1.964    -0.011    31.364     9.044
   110   6 C        1.995    -0.020    31.582     9.076
   111   6 C        1.995    -0.021    31.589     9.077
   112   6 C        1.964    -0.011    31.361     9.044
   113   6 C        1.965    -0.003    31.155     9.014
   114   6 C        1.965    -0.003    31.148     9.013
   115   6 C        1.964    -0.011    31.368     9.045
   116   6 C        1.995    -0.020    31.582     9.076
   117   6 C        1.994    -0.021    31.602     9.079
   118   6 C        1.964    -0.011    31.360     9.043
   119   6 C        1.965    -0.004    31.170     9.016
   120   6 C        1.965    -0.003    31.148     9.013
   121   6 C        1.963    -0.012    31.387     9.047
   122   6 C        1.996    -0.020    31.578     9.075
   123   6 C        3.017    -0.054    29.328     8.883
   124   6 C        3.009    -0.053    29.296     8.879
   125   6 C        3.197     0.087    25.558     8.241
   126   6 C        2.952     0.012    27.747     8.640
   127   6 C        3.100     0.064    26.454     8.429
   128   6 C        3.025    -0.050    29.217     8.866
   129   6 C        3.037    -0.052    29.247     8.870
   130   6 C        3.073     0.064    26.488     8.439
   131   7 N        2.785    -0.081    22.817     7.094
   132   6 C        2.899    -0.053    29.305     8.876
   133   6 C        3.174     0.085    25.729     8.284
   134   6 C        3.017    -0.054    29.327     8.883
   135   6 C        3.009    -0.053    29.298     8.879
   136   6 C        3.197     0.087    25.555     8.240
   137   7 N        1.870    -0.324    29.257     8.018
   138   6 C        2.952     0.012    27.758     8.641
   139   6 C        3.100     0.064    26.451     8.428
   140   6 C        3.025    -0.050    29.220     8.867
   141   6 C        3.037    -0.052    29.245     8.870
   142   6 C        3.073     0.064    26.490     8.439
   143   7 N        2.785    -0.081    22.818     7.095
   144   6 C        2.899    -0.053    29.304     8.876
   145   6 C        3.174     0.085    25.729     8.284
   146   7 N        1.870    -0.324    29.254     8.017
   147   1 H        0.926     0.019     2.748     2.592
   148   1 H        0.926     0.021     2.712     2.575
   149   1 H        0.926     0.043     2.405     2.425
   150   1 H        0.926     0.041     2.429     2.437
   151   1 H        0.860     0.214     1.035     1.594
   152   1 H        0.925     0.048     2.345     2.395
   153   1 H        0.926     0.019     2.748     2.592
   154   1 H        0.926     0.021     2.714     2.576
   155   1 H        0.926     0.043     2.407     2.426
   156   1 H        0.926     0.042     2.429     2.437
   157   1 H        0.860     0.214     1.035     1.594
   158   1 H        0.925     0.048     2.345     2.394
   159   6 C        3.017    -0.054    29.327     8.883
   160   6 C        3.009    -0.053    29.297     8.879
   161   6 C        3.197     0.087    25.555     8.240
   162   6 C        2.952     0.012    27.750     8.640
   163   6 C        3.100     0.064    26.451     8.428
   164   6 C        3.025    -0.050    29.218     8.866
   165   6 C        3.036    -0.052    29.246     8.870
   166   6 C        3.073     0.064    26.489     8.439
   167   7 N        2.786    -0.081    22.815     7.094
   168   6 C        2.899    -0.052    29.302     8.876
   169   6 C        3.174     0.085    25.728     8.284
   170   6 C        3.017    -0.054    29.326     8.883
   171   6 C        3.009    -0.053    29.298     8.879
   172   6 C        3.197     0.087    25.554     8.240
   173   7 N        1.870    -0.324    29.254     8.017
   174   6 C        2.952     0.012    27.754     8.641
   175   6 C        3.100     0.064    26.451     8.428
   176   6 C        3.025    -0.050    29.218     8.867
   177   6 C        3.037    -0.052    29.245     8.870
   178   6 C        3.073     0.064    26.490     8.439
   179   7 N        2.786    -0.081    22.816     7.094
   180   6 C        2.899    -0.052    29.301     8.875
   181   6 C        3.174     0.085    25.729     8.284
   182   7 N        1.870    -0.324    29.253     8.017
   183   1 H        0.926     0.019     2.746     2.591
   184   1 H        0.926     0.021     2.712     2.575
   185   1 H        0.926     0.043     2.405     2.425
   186   1 H        0.926     0.042     2.427     2.436
   187   1 H        0.860     0.214     1.035     1.594
   188   1 H        0.925     0.048     2.343     2.394
   189   1 H        0.926     0.019     2.746     2.591
   190   1 H        0.926     0.021     2.712     2.575
   191   1 H        0.926     0.043     2.406     2.425
   192   1 H        0.926     0.042     2.427     2.436
   193   1 H        0.860     0.214     1.035     1.594
   194   1 H        0.925     0.048     2.343     2.394
   195   6 C        3.017    -0.054    29.326     8.883
   196   6 C        3.009    -0.053    29.297     8.879
   197   6 C        3.197     0.087    25.553     8.240
   198   6 C        2.952     0.012    27.751     8.640
   199   6 C        3.100     0.064    26.450     8.428
   200   6 C        3.025    -0.050    29.218     8.866
   201   6 C        3.036    -0.052    29.245     8.870
   202   6 C        3.073     0.064    26.490     8.439
   203   7 N        2.786    -0.081    22.814     7.094
   204   6 C        2.899    -0.052    29.302     8.875
   205   6 C        3.174     0.085    25.728     8.284
   206   6 C        3.017    -0.054    29.326     8.883
   207   6 C        3.009    -0.053    29.296     8.879
   208   6 C        3.197     0.087    25.554     8.240
   209   7 N        1.870    -0.324    29.255     8.017
   210   6 C        2.952     0.012    27.752     8.640
   211   6 C        3.100     0.064    26.450     8.428
   212   6 C        3.025    -0.050    29.219     8.867
   213   6 C        3.036    -0.052    29.245     8.870
   214   6 C        3.073     0.064    26.490     8.439
   215   7 N        2.786    -0.081    22.814     7.094
   216   6 C        2.899    -0.052    29.301     8.875
   217   6 C        3.174     0.085    25.728     8.284
   218   7 N        1.870    -0.324    29.253     8.017
   219   1 H        0.926     0.019     2.745     2.591
   220   1 H        0.926     0.021     2.711     2.575
   221   1 H        0.926     0.043     2.405     2.425
   222   1 H        0.926     0.042     2.427     2.436
   223   1 H        0.860     0.214     1.036     1.594
   224   1 H        0.925     0.048     2.343     2.394
   225   1 H        0.926     0.019     2.746     2.591
   226   1 H        0.926     0.021     2.712     2.575
   227   1 H        0.926     0.043     2.405     2.425
   228   1 H        0.926     0.042     2.427     2.436
   229   1 H        0.860     0.214     1.035     1.594
   230   1 H        0.925     0.048     2.343     2.393
   231   6 C        3.017    -0.054    29.326     8.883
   232   6 C        3.009    -0.053    29.296     8.879
   233   6 C        3.197     0.087    25.554     8.240
   234   6 C        2.952     0.012    27.751     8.640
   235   6 C        3.100     0.064    26.449     8.428
   236   6 C        3.025    -0.050    29.219     8.867
   237   6 C        3.036    -0.052    29.245     8.870
   238   6 C        3.074     0.064    26.490     8.439
   239   7 N        2.786    -0.081    22.812     7.094
   240   6 C        2.899    -0.052    29.301     8.875
   241   6 C        3.174     0.085    25.727     8.284
   242   6 C        3.017    -0.054    29.326     8.883
   243   6 C        3.009    -0.053    29.297     8.879
   244   6 C        3.197     0.087    25.553     8.240
   245   7 N        1.870    -0.324    29.255     8.017
   246   6 C        2.952     0.012    27.751     8.640
   247   6 C        3.100     0.064    26.449     8.428
   248   6 C        3.025    -0.050    29.218     8.867
   249   6 C        3.036    -0.052    29.245     8.870
   250   6 C        3.073     0.064    26.490     8.439
   251   7 N        2.786    -0.081    22.813     7.094
   252   6 C        2.899    -0.052    29.301     8.875
   253   6 C        3.174     0.085    25.728     8.284
   254   7 N        1.870    -0.324    29.255     8.018
   255   1 H        0.926     0.019     2.746     2.591
   256   1 H        0.926     0.021     2.712     2.575
   257   1 H        0.926     0.043     2.404     2.425
   258   1 H        0.926     0.042     2.426     2.436
   259   1 H        0.860     0.214     1.036     1.594
   260   1 H        0.925     0.048     2.343     2.394
   261   1 H        0.926     0.019     2.745     2.591
   262   1 H        0.926     0.021     2.712     2.575
   263   1 H        0.926     0.043     2.405     2.425
   264   1 H        0.926     0.042     2.426     2.436
   265   1 H        0.860     0.214     1.036     1.594
   266   1 H        0.925     0.048     2.343     2.394
   267   6 C        3.017    -0.054    29.326     8.883
   268   6 C        3.009    -0.053    29.297     8.879
   269   6 C        3.197     0.087    25.553     8.240
   270   6 C        2.952     0.012    27.752     8.640
   271   6 C        3.100     0.064    26.450     8.428
   272   6 C        3.025    -0.050    29.218     8.867
   273   6 C        3.036    -0.052    29.245     8.870
   274   6 C        3.073     0.064    26.490     8.439
   275   7 N        2.786    -0.081    22.813     7.094
   276   6 C        2.899    -0.052    29.301     8.875
   277   6 C        3.174     0.085    25.727     8.284
   278   6 C        3.017    -0.054    29.326     8.883
   279   6 C        3.009    -0.053    29.298     8.879
   280   6 C        3.197     0.087    25.553     8.240
   281   7 N        1.870    -0.324    29.254     8.017
   282   6 C        2.952     0.012    27.751     8.640
   283   6 C        3.100     0.064    26.450     8.428
   284   6 C        3.025    -0.050    29.218     8.866
   285   6 C        3.036    -0.052    29.245     8.870
   286   6 C        3.073     0.064    26.490     8.439
   287   7 N        2.786    -0.081    22.813     7.094
   288   6 C        2.899    -0.052    29.302     8.875
   289   6 C        3.174     0.085    25.727     8.284
   290   7 N        1.870    -0.324    29.255     8.017
   291   1 H        0.926     0.019     2.746     2.591
   292   1 H        0.926     0.021     2.712     2.575
   293   1 H        0.926     0.043     2.405     2.425
   294   1 H        0.926     0.042     2.427     2.436
   295   1 H        0.860     0.214     1.036     1.594
   296   1 H        0.925     0.048     2.343     2.394
   297   1 H        0.926     0.019     2.745     2.591
   298   1 H        0.926     0.021     2.711     2.575
   299   1 H        0.926     0.043     2.405     2.425
   300   1 H        0.926     0.042     2.427     2.436
   301   1 H        0.860     0.214     1.036     1.594
   302   1 H        0.925     0.048     2.343     2.394
   303   6 C        3.017    -0.054    29.326     8.883
   304   6 C        3.009    -0.053    29.297     8.879
   305   6 C        3.197     0.087    25.553     8.240
   306   6 C        2.952     0.012    27.754     8.641
   307   6 C        3.100     0.064    26.451     8.428
   308   6 C        3.025    -0.050    29.219     8.867
   309   6 C        3.036    -0.052    29.245     8.870
   310   6 C        3.073     0.064    26.490     8.439
   311   7 N        2.786    -0.081    22.816     7.094
   312   6 C        2.899    -0.052    29.302     8.875
   313   6 C        3.174     0.085    25.729     8.284
   314   6 C        3.017    -0.054    29.327     8.883
   315   6 C        3.009    -0.053    29.296     8.879
   316   6 C        3.197     0.087    25.556     8.241
   317   7 N        1.870    -0.324    29.254     8.017
   318   6 C        2.952     0.012    27.750     8.640
   319   6 C        3.100     0.064    26.451     8.428
   320   6 C        3.025    -0.050    29.219     8.867
   321   6 C        3.036    -0.052    29.245     8.870
   322   6 C        3.073     0.064    26.489     8.439
   323   7 N        2.785    -0.081    22.814     7.094
   324   6 C        2.899    -0.052    29.302     8.875
   325   6 C        3.174     0.085    25.728     8.284
   326   7 N        1.870    -0.324    29.254     8.017
   327   1 H        0.926     0.019     2.746     2.591
   328   1 H        0.926     0.021     2.712     2.575
   329   1 H        0.926     0.043     2.406     2.425
   330   1 H        0.926     0.042     2.427     2.436
   331   1 H        0.860     0.214     1.035     1.594
   332   1 H        0.925     0.048     2.343     2.394
   333   1 H        0.926     0.019     2.746     2.592
   334   1 H        0.926     0.021     2.712     2.575
   335   1 H        0.926     0.043     2.405     2.425
   336   1 H        0.926     0.042     2.427     2.436
   337   1 H        0.860     0.214     1.035     1.594
   338   1 H        0.925     0.048     2.343     2.394
   339   6 C        3.017    -0.054    29.327     8.883
   340   6 C        3.009    -0.053    29.297     8.879
   341   6 C        3.197     0.087    25.557     8.241
   342   6 C        2.952     0.012    27.758     8.641
   343   6 C        3.101     0.064    26.451     8.428
   344   6 C        3.025    -0.050    29.220     8.867
   345   6 C        3.037    -0.052    29.245     8.870
   346   6 C        3.073     0.064    26.490     8.439
   347   7 N        2.785    -0.081    22.819     7.095
   348   6 C        2.899    -0.053    29.303     8.876
   349   6 C        3.174     0.085    25.730     8.285
   350   6 C        3.018    -0.054    29.328     8.883
   351   6 C        3.009    -0.053    29.297     8.879
   352   6 C        3.197     0.087    25.558     8.241
   353   7 N        1.870    -0.324    29.253     8.017
   354   6 C        2.952     0.012    27.748     8.640
   355   6 C        3.100     0.064    26.455     8.429
   356   6 C        3.025    -0.050    29.217     8.866
   357   6 C        3.037    -0.052    29.247     8.870
   358   6 C        3.073     0.064    26.488     8.439
   359   7 N        2.786    -0.081    22.819     7.095
   360   6 C        2.899    -0.053    29.305     8.876
   361   6 C        3.174     0.085    25.731     8.285
   362   7 N        1.870    -0.324    29.256     8.018
   363   1 H        0.926     0.019     2.748     2.592
   364   1 H        0.926     0.021     2.714     2.576
   365   1 H        0.926     0.043     2.407     2.426
   366   1 H        0.926     0.042     2.429     2.437
   367   1 H        0.860     0.214     1.035     1.594
   368   1 H        0.925     0.048     2.344     2.394
   369   1 H        0.926     0.019     2.748     2.592
   370   1 H        0.926     0.021     2.712     2.575
   371   1 H        0.926     0.043     2.406     2.425
   372   1 H        0.926     0.041     2.429     2.437
   373   1 H        0.860     0.214     1.035     1.594
   374   1 H        0.925     0.048     2.345     2.395

 Mol. C6AA /au·bohr⁶  :    2450284.444034
 Mol. C8AA /au·bohr⁸  :   63705700.888617
 Mol. α(0) /au        :       2519.230472


Wiberg/Mayer (AO) data.
largest (>0.10) Wiberg bond orders for each atom

 ---------------------------------------------------------------------------
     #   Z sym  total        # sym  WBO       # sym  WBO       # sym  WBO
 ---------------------------------------------------------------------------
     1   6 C    3.960 --     2 C    1.717    23 C    1.115    25 H    0.973
     2   6 C    3.961 --     1 C    1.717     3 C    1.121    26 H    0.971
     3   6 C    3.915 --    24 N    1.362     4 C    1.242     2 C    1.121
     4   6 C    3.940 --     5 C    1.247     3 C    1.242    75 C    1.194
     5   6 C    3.901 --     4 C    1.247     6 C    1.237     9 N    1.226
     6   6 C    3.955 --     7 C    1.592     5 C    1.237    27 H    0.972
     7   6 C    3.948 --     6 C    1.592     8 C    1.224    28 H    0.973
     8   6 C    3.918 --    10 C    1.345     7 C    1.224     9 N    1.202
     9   7 N    3.590 --     5 C    1.226     8 C    1.202    29 H    0.900
    10   6 C    3.921 --    11 C    1.357     8 C    1.345    30 H    0.964
    11   6 C    3.939 --    10 C    1.357    15 N    1.324    12 C    1.107
    12   6 C    3.963 --    13 C    1.731    11 C    1.107    31 H    0.973
    13   6 C    3.962 --    12 C    1.731    14 C    1.109    32 H    0.973
    14   6 C    3.938 --    16 C    1.354    15 N    1.325    13 C    1.109
    15   7 N    3.001 --    14 C    1.325    11 C    1.324
    16   6 C    3.922 --    14 C    1.354    17 C    1.347    33 H    0.965
    17   6 C    3.921 --    16 C    1.347    18 C    1.216    21 N    1.210
    18   6 C    3.949 --    19 C    1.608    17 C    1.216    34 H    0.973
    19   6 C    3.953 --    18 C    1.608    20 C    1.215    35 H    0.973
    20   6 C    3.916 --    22 C    1.342    19 C    1.215    21 N    1.211
    21   7 N    3.586 --    20 C    1.211    17 C    1.210    36 H    0.900
    22   6 C    3.937 --    23 C    1.367    20 C    1.342    37 H    0.964
    23   6 C    3.924 --    22 C    1.367    24 N    1.298     1 C    1.115
    24   7 N    3.009 --     3 C    1.362    23 C    1.298
    25   1 H    0.999 --     1 C    0.973
    26   1 H    0.999 --     2 C    0.971
    27   1 H    0.998 --     6 C    0.972
    28   1 H    0.998 --     7 C    0.973
    29   1 H    0.954 --     9 N    0.900
    30   1 H    0.997 --    10 C    0.964
    31   1 H    0.999 --    12 C    0.973
    32   1 H    0.999 --    13 C    0.973
    33   1 H    0.997 --    16 C    0.965
    34   1 H    0.998 --    18 C    0.973
    35   1 H    0.998 --    19 C    0.973
    36   1 H    0.954 --    21 N    0.900
    37   1 H    0.997 --    22 C    0.964
    38   6 C    3.960 --    39 C    1.717    60 C    1.115    62 H    0.973
    39   6 C    3.961 --    38 C    1.717    40 C    1.122    63 H    0.971
    40   6 C    3.915 --    61 N    1.362    41 C    1.242    39 C    1.122
    41   6 C    3.940 --    42 C    1.247    40 C    1.242   122 C    1.194
    42   6 C    3.901 --    41 C    1.247    43 C    1.237    46 N    1.226
    43   6 C    3.955 --    44 C    1.592    42 C    1.237    64 H    0.972
    44   6 C    3.948 --    43 C    1.592    45 C    1.224    65 H    0.973
    45   6 C    3.918 --    47 C    1.345    44 C    1.224    46 N    1.202
    46   7 N    3.590 --    42 C    1.226    45 C    1.202    66 H    0.900
    47   6 C    3.921 --    48 C    1.357    45 C    1.345    67 H    0.964
    48   6 C    3.939 --    47 C    1.357    52 N    1.324    49 C    1.107
    49   6 C    3.963 --    50 C    1.731    48 C    1.107    68 H    0.973
    50   6 C    3.962 --    49 C    1.731    51 C    1.109    69 H    0.973
    51   6 C    3.938 --    53 C    1.354    52 N    1.325    50 C    1.109
    52   7 N    3.001 --    51 C    1.325    48 C    1.324
    53   6 C    3.922 --    51 C    1.354    54 C    1.347    70 H    0.965
    54   6 C    3.921 --    53 C    1.347    55 C    1.216    58 N    1.210
    55   6 C    3.949 --    56 C    1.608    54 C    1.216    71 H    0.973
    56   6 C    3.953 --    55 C    1.608    57 C    1.215    72 H    0.973
    57   6 C    3.916 --    59 C    1.342    56 C    1.215    58 N    1.212
    58   7 N    3.586 --    57 C    1.212    54 C    1.210    73 H    0.900
    59   6 C    3.937 --    60 C    1.367    57 C    1.342    74 H    0.963
    60   6 C    3.924 --    59 C    1.367    61 N    1.298    38 C    1.115
    61   7 N    3.009 --    40 C    1.362    60 C    1.298
    62   1 H    0.999 --    38 C    0.973
    63   1 H    0.999 --    39 C    0.971
    64   1 H    0.998 --    43 C    0.972
    65   1 H    0.998 --    44 C    0.973
    66   1 H    0.954 --    46 N    0.900
    67   1 H    0.997 --    47 C    0.964
    68   1 H    0.999 --    49 C    0.973
    69   1 H    0.999 --    50 C    0.973
    70   1 H    0.997 --    53 C    0.965
    71   1 H    0.998 --    55 C    0.973
    72   1 H    0.998 --    56 C    0.973
    73   1 H    0.954 --    58 N    0.900
    74   1 H    0.997 --    59 C    0.963
    75   6 C    3.882 --    76 C    2.434     4 C    1.194    78 C    0.192
    76   6 C    3.924 --    75 C    2.434    77 C    1.337
    77   6 C    3.915 --    78 C    2.349    76 C    1.337    80 C    0.191
    78   6 C    3.917 --    77 C    2.349    79 C    1.338    75 C    0.192
    79   6 C    3.920 --    80 C    2.431    78 C    1.338
    80   6 C    3.883 --    79 C    2.431   126 C    1.199    77 C    0.191
    81   6 C    3.881 --    82 C    2.428   138 C    1.200    84 C    0.191
    82   6 C    3.920 --    81 C    2.428    83 C    1.341
    83   6 C    3.915 --    84 C    2.345    82 C    1.341    86 C    0.191
    84   6 C    3.915 --    83 C    2.345    85 C    1.341    81 C    0.191
    85   6 C    3.919 --    86 C    2.428    84 C    1.341
    86   6 C    3.881 --    85 C    2.428   162 C    1.200    83 C    0.191
    87   6 C    3.881 --    88 C    2.428   174 C    1.200    90 C    0.191
    88   6 C    3.919 --    87 C    2.428    89 C    1.341
    89   6 C    3.915 --    90 C    2.345    88 C    1.341    92 C    0.191
    90   6 C    3.915 --    89 C    2.345    91 C    1.341    87 C    0.191
    91   6 C    3.919 --    92 C    2.428    90 C    1.341
    92   6 C    3.881 --    91 C    2.428   198 C    1.200    89 C    0.191
    93   6 C    3.881 --    94 C    2.428   210 C    1.200    96 C    0.191
    94   6 C    3.919 --    93 C    2.428    95 C    1.341
    95   6 C    3.915 --    96 C    2.345    94 C    1.341    98 C    0.191
    96   6 C    3.915 --    95 C    2.345    97 C    1.341    93 C    0.191
    97   6 C    3.919 --    98 C    2.428    96 C    1.341
    98   6 C    3.881 --    97 C    2.428   234 C    1.200    95 C    0.191
    99   6 C    3.881 --   100 C    2.428   246 C    1.200   102 C    0.191
   100   6 C    3.919 --    99 C    2.428   101 C    1.341
   101   6 C    3.915 --   102 C    2.345   100 C    1.341   104 C    0.191
   102   6 C    3.915 --   101 C    2.345   103 C    1.341    99 C    0.191
   103   6 C    3.919 --   104 C    2.428   102 C    1.341
   104   6 C    3.881 --   103 C    2.428   270 C    1.200   101 C    0.191
   105   6 C    3.881 --   106 C    2.428   282 C    1.200   108 C    0.191
   106   6 C    3.919 --   105 C    2.428   107 C    1.341
   107   6 C    3.915 --   108 C    2.345   106 C    1.341   110 C    0.191
   108   6 C    3.915 --   107 C    2.345   109 C    1.341   105 C    0.191
   109   6 C    3.919 --   110 C    2.428   108 C    1.341
   110   6 C    3.881 --   109 C    2.428   306 C    1.200   107 C    0.191
   111   6 C    3.881 --   112 C    2.428   318 C    1.200   114 C    0.191
   112   6 C    3.919 --   111 C    2.428   113 C    1.340
   113   6 C    3.915 --   114 C    2.345   112 C    1.340   116 C    0.191
   114   6 C    3.915 --   113 C    2.345   115 C    1.340   111 C    0.191
   115   6 C    3.920 --   116 C    2.428   114 C    1.340
   116   6 C    3.881 --   115 C    2.428   342 C    1.200   113 C    0.191
   117   6 C    3.883 --   118 C    2.431   354 C    1.199   120 C    0.191
   118   6 C    3.920 --   117 C    2.431   119 C    1.338
   119   6 C    3.917 --   120 C    2.349   118 C    1.338   122 C    0.192
   120   6 C    3.915 --   119 C    2.349   121 C    1.337   117 C    0.191
   121   6 C    3.924 --   122 C    2.434   120 C    1.337
   122   6 C    3.882 --   121 C    2.434    41 C    1.194   119 C    0.192
   123   6 C    3.961 --   124 C    1.716   145 C    1.115   147 H    0.973
   124   6 C    3.960 --   123 C    1.716   125 C    1.123   148 H    0.972
   125   6 C    3.916 --   146 N    1.363   126 C    1.240   124 C    1.123
   126   6 C    3.926 --   127 C    1.242   125 C    1.240    80 C    1.199
   127   6 C    3.902 --   126 C    1.242   128 C    1.242   131 N    1.226
   128   6 C    3.952 --   129 C    1.587   127 C    1.242   149 H    0.972
   129   6 C    3.949 --   128 C    1.587   130 C    1.228   150 H    0.973
   130   6 C    3.914 --   132 C    1.335   129 C    1.228   131 N    1.203
   131   7 N    3.586 --   127 C    1.226   130 C    1.203   151 H    0.898
   132   6 C    3.923 --   133 C    1.372   130 C    1.335   152 H    0.963
   133   6 C    3.926 --   132 C    1.372   137 N    1.294   134 C    1.115
   134   6 C    3.961 --   135 C    1.716   133 C    1.115   153 H    0.973
   135   6 C    3.960 --   134 C    1.716   136 C    1.123   154 H    0.972
   136   6 C    3.916 --   137 N    1.364   138 C    1.239   135 C    1.123
   137   7 N    3.000 --   136 C    1.364   133 C    1.294
   138   6 C    3.926 --   139 C    1.242   136 C    1.239    81 C    1.200
   139   6 C    3.902 --   138 C    1.242   140 C    1.241   143 N    1.227
   140   6 C    3.952 --   141 C    1.587   139 C    1.241   155 H    0.972
   141   6 C    3.949 --   140 C    1.587   142 C    1.228   156 H    0.973
   142   6 C    3.914 --   144 C    1.336   141 C    1.228   143 N    1.203
   143   7 N    3.586 --   139 C    1.227   142 C    1.203   157 H    0.898
   144   6 C    3.922 --   145 C    1.371   142 C    1.336   158 H    0.963
   145   6 C    3.926 --   144 C    1.371   146 N    1.295   123 C    1.115
   146   7 N    3.000 --   125 C    1.363   145 C    1.295
   147   1 H    0.999 --   123 C    0.973
   148   1 H    0.999 --   124 C    0.972
   149   1 H    0.998 --   128 C    0.972
   150   1 H    0.998 --   129 C    0.973
   151   1 H    0.954 --   131 N    0.898
   152   1 H    0.997 --   132 C    0.963
   153   1 H    0.999 --   134 C    0.973
   154   1 H    0.999 --   135 C    0.972
   155   1 H    0.998 --   140 C    0.972
   156   1 H    0.998 --   141 C    0.973
   157   1 H    0.954 --   143 N    0.898
   158   1 H    0.997 --   144 C    0.963
   159   6 C    3.961 --   160 C    1.716   181 C    1.115   183 H    0.973
   160   6 C    3.960 --   159 C    1.716   161 C    1.123   184 H    0.972
   161   6 C    3.916 --   182 N    1.364   162 C    1.239   160 C    1.123
   162   6 C    3.925 --   163 C    1.242   161 C    1.239    86 C    1.200
   163   6 C    3.902 --   162 C    1.242   164 C    1.242   167 N    1.227
   164   6 C    3.952 --   165 C    1.587   163 C    1.242   185 H    0.972
   165   6 C    3.949 --   164 C    1.587   166 C    1.228   186 H    0.973
   166   6 C    3.914 --   168 C    1.335   165 C    1.228   167 N    1.203
   167   7 N    3.586 --   163 C    1.227   166 C    1.203   187 H    0.898
   168   6 C    3.923 --   169 C    1.372   166 C    1.335   188 H    0.963
   169   6 C    3.926 --   168 C    1.372   173 N    1.294   170 C    1.115
   170   6 C    3.961 --   171 C    1.716   169 C    1.115   189 H    0.973
   171   6 C    3.960 --   170 C    1.716   172 C    1.123   190 H    0.972
   172   6 C    3.916 --   173 N    1.364   174 C    1.239   171 C    1.123
   173   7 N    2.999 --   172 C    1.364   169 C    1.294
   174   6 C    3.925 --   175 C    1.242   172 C    1.239    87 C    1.200
   175   6 C    3.902 --   174 C    1.242   176 C    1.242   179 N    1.227
   176   6 C    3.952 --   177 C    1.587   175 C    1.242   191 H    0.972
   177   6 C    3.949 --   176 C    1.587   178 C    1.228   192 H    0.973
   178   6 C    3.914 --   180 C    1.336   177 C    1.228   179 N    1.203
   179   7 N    3.586 --   175 C    1.227   178 C    1.203   193 H    0.898
   180   6 C    3.922 --   181 C    1.372   178 C    1.336   194 H    0.963
   181   6 C    3.926 --   180 C    1.372   182 N    1.294   159 C    1.115
   182   7 N    2.999 --   161 C    1.364   181 C    1.294
   183   1 H    0.999 --   159 C    0.973
   184   1 H    0.999 --   160 C    0.972
   185   1 H    0.998 --   164 C    0.972
   186   1 H    0.998 --   165 C    0.973
   187   1 H    0.954 --   167 N    0.898
   188   1 H    0.997 --   168 C    0.963
   189   1 H    0.999 --   170 C    0.973
   190   1 H    0.999 --   171 C    0.972
   191   1 H    0.998 --   176 C    0.972
   192   1 H    0.998 --   177 C    0.973
   193   1 H    0.954 --   179 N    0.898
   194   1 H    0.997 --   180 C    0.963
   195   6 C    3.961 --   196 C    1.716   217 C    1.115   219 H    0.973
   196   6 C    3.960 --   195 C    1.716   197 C    1.123   220 H    0.972
   197   6 C    3.915 --   218 N    1.364   198 C    1.239   196 C    1.123
   198   6 C    3.925 --   199 C    1.242   197 C    1.239    92 C    1.200
   199   6 C    3.902 --   198 C    1.242   200 C    1.242   203 N    1.227
   200   6 C    3.952 --   201 C    1.587   199 C    1.242   221 H    0.972
   201   6 C    3.949 --   200 C    1.587   202 C    1.228   222 H    0.973
   202   6 C    3.914 --   204 C    1.335   201 C    1.228   203 N    1.203
   203   7 N    3.586 --   199 C    1.227   202 C    1.203   223 H    0.898
   204   6 C    3.922 --   205 C    1.372   202 C    1.335   224 H    0.963
   205   6 C    3.926 --   204 C    1.372   209 N    1.294   206 C    1.115
   206   6 C    3.961 --   207 C    1.716   205 C    1.115   225 H    0.973
   207   6 C    3.960 --   206 C    1.716   208 C    1.123   226 H    0.972
   208   6 C    3.916 --   209 N    1.364   210 C    1.239   207 C    1.123
   209   7 N    2.999 --   208 C    1.364   205 C    1.294
   210   6 C    3.925 --   211 C    1.242   208 C    1.239    93 C    1.200
   211   6 C    3.902 --   212 C    1.242   210 C    1.242   215 N    1.227
   212   6 C    3.952 --   213 C    1.587   211 C    1.242   227 H    0.972
   213   6 C    3.949 --   212 C    1.587   214 C    1.228   228 H    0.973
   214   6 C    3.914 --   216 C    1.335   213 C    1.228   215 N    1.203
   215   7 N    3.586 --   211 C    1.227   214 C    1.203   229 H    0.898
   216   6 C    3.923 --   217 C    1.372   214 C    1.335   230 H    0.963
   217   6 C    3.926 --   216 C    1.372   218 N    1.294   195 C    1.115
   218   7 N    2.999 --   197 C    1.364   217 C    1.294
   219   1 H    0.999 --   195 C    0.973
   220   1 H    0.999 --   196 C    0.972
   221   1 H    0.998 --   200 C    0.972
   222   1 H    0.998 --   201 C    0.973
   223   1 H    0.954 --   203 N    0.898
   224   1 H    0.997 --   204 C    0.963
   225   1 H    0.999 --   206 C    0.973
   226   1 H    0.999 --   207 C    0.972
   227   1 H    0.998 --   212 C    0.972
   228   1 H    0.998 --   213 C    0.973
   229   1 H    0.954 --   215 N    0.898
   230   1 H    0.997 --   216 C    0.963
   231   6 C    3.961 --   232 C    1.716   253 C    1.115   255 H    0.973
   232   6 C    3.960 --   231 C    1.716   233 C    1.123   256 H    0.972
   233   6 C    3.916 --   254 N    1.364   234 C    1.239   232 C    1.123
   234   6 C    3.925 --   235 C    1.242   233 C    1.239    98 C    1.200
   235   6 C    3.902 --   236 C    1.242   234 C    1.242   239 N    1.227
   236   6 C    3.952 --   237 C    1.587   235 C    1.242   257 H    0.972
   237   6 C    3.949 --   236 C    1.587   238 C    1.229   258 H    0.973
   238   6 C    3.914 --   240 C    1.335   237 C    1.229   239 N    1.203
   239   7 N    3.586 --   235 C    1.227   238 C    1.203   259 H    0.898
   240   6 C    3.923 --   241 C    1.372   238 C    1.335   260 H    0.963
   241   6 C    3.926 --   240 C    1.372   245 N    1.294   242 C    1.115
   242   6 C    3.961 --   243 C    1.716   241 C    1.115   261 H    0.973
   243   6 C    3.960 --   242 C    1.716   244 C    1.123   262 H    0.972
   244   6 C    3.916 --   245 N    1.364   246 C    1.239   243 C    1.123
   245   7 N    2.999 --   244 C    1.364   241 C    1.294
   246   6 C    3.925 --   247 C    1.242   244 C    1.239    99 C    1.200
   247   6 C    3.902 --   246 C    1.242   248 C    1.242   251 N    1.227
   248   6 C    3.952 --   249 C    1.587   247 C    1.242   263 H    0.972
   249   6 C    3.949 --   248 C    1.587   250 C    1.228   264 H    0.973
   250   6 C    3.914 --   252 C    1.335   249 C    1.228   251 N    1.203
   251   7 N    3.586 --   247 C    1.227   250 C    1.203   265 H    0.898
   252   6 C    3.922 --   253 C    1.372   250 C    1.335   266 H    0.963
   253   6 C    3.926 --   252 C    1.372   254 N    1.294   231 C    1.115
   254   7 N    2.999 --   233 C    1.364   253 C    1.294
   255   1 H    0.999 --   231 C    0.973
   256   1 H    0.999 --   232 C    0.972
   257   1 H    0.998 --   236 C    0.972
   258   1 H    0.998 --   237 C    0.973
   259   1 H    0.954 --   239 N    0.898
   260   1 H    0.997 --   240 C    0.963
   261   1 H    0.999 --   242 C    0.973
   262   1 H    0.999 --   243 C    0.972
   263   1 H    0.998 --   248 C    0.972
   264   1 H    0.998 --   249 C    0.973
   265   1 H    0.954 --   251 N    0.898
   266   1 H    0.997 --   252 C    0.963
   267   6 C    3.961 --   268 C    1.716   289 C    1.115   291 H    0.973
   268   6 C    3.960 --   267 C    1.716   269 C    1.123   292 H    0.972
   269   6 C    3.916 --   290 N    1.364   270 C    1.239   268 C    1.123
   270   6 C    3.925 --   271 C    1.242   269 C    1.239   104 C    1.200
   271   6 C    3.902 --   270 C    1.242   272 C    1.242   275 N    1.227
   272   6 C    3.952 --   273 C    1.587   271 C    1.242   293 H    0.972
   273   6 C    3.949 --   272 C    1.587   274 C    1.228   294 H    0.973
   274   6 C    3.914 --   276 C    1.335   273 C    1.228   275 N    1.203
   275   7 N    3.586 --   271 C    1.227   274 C    1.203   295 H    0.898
   276   6 C    3.923 --   277 C    1.372   274 C    1.335   296 H    0.963
   277   6 C    3.926 --   276 C    1.372   281 N    1.294   278 C    1.115
   278   6 C    3.961 --   279 C    1.716   277 C    1.115   297 H    0.973
   279   6 C    3.960 --   278 C    1.716   280 C    1.123   298 H    0.972
   280   6 C    3.915 --   281 N    1.364   282 C    1.239   279 C    1.123
   281   7 N    2.999 --   280 C    1.364   277 C    1.294
   282   6 C    3.925 --   283 C    1.242   280 C    1.239   105 C    1.200
   283   6 C    3.902 --   282 C    1.242   284 C    1.242   287 N    1.227
   284   6 C    3.952 --   285 C    1.587   283 C    1.242   299 H    0.972
   285   6 C    3.949 --   284 C    1.587   286 C    1.229   300 H    0.973
   286   6 C    3.914 --   288 C    1.335   285 C    1.229   287 N    1.203
   287   7 N    3.586 --   283 C    1.227   286 C    1.203   301 H    0.898
   288   6 C    3.922 --   289 C    1.372   286 C    1.335   302 H    0.963
   289   6 C    3.926 --   288 C    1.372   290 N    1.294   267 C    1.115
   290   7 N    2.999 --   269 C    1.364   289 C    1.294
   291   1 H    0.999 --   267 C    0.973
   292   1 H    0.999 --   268 C    0.972
   293   1 H    0.998 --   272 C    0.972
   294   1 H    0.998 --   273 C    0.973
   295   1 H    0.954 --   275 N    0.898
   296   1 H    0.997 --   276 C    0.963
   297   1 H    0.999 --   278 C    0.973
   298   1 H    0.999 --   279 C    0.972
   299   1 H    0.998 --   284 C    0.972
   300   1 H    0.998 --   285 C    0.973
   301   1 H    0.954 --   287 N    0.898
   302   1 H    0.997 --   288 C    0.963
   303   6 C    3.961 --   304 C    1.716   325 C    1.115   327 H    0.973
   304   6 C    3.960 --   303 C    1.716   305 C    1.123   328 H    0.972
   305   6 C    3.916 --   326 N    1.364   306 C    1.239   304 C    1.123
   306   6 C    3.925 --   307 C    1.242   305 C    1.239   110 C    1.200
   307   6 C    3.902 --   306 C    1.242   308 C    1.242   311 N    1.227
   308   6 C    3.952 --   309 C    1.587   307 C    1.242   329 H    0.972
   309   6 C    3.949 --   308 C    1.587   310 C    1.228   330 H    0.973
   310   6 C    3.914 --   312 C    1.336   309 C    1.228   311 N    1.203
   311   7 N    3.586 --   307 C    1.227   310 C    1.203   331 H    0.898
   312   6 C    3.922 --   313 C    1.372   310 C    1.336   332 H    0.963
   313   6 C    3.926 --   312 C    1.372   317 N    1.294   314 C    1.115
   314   6 C    3.961 --   315 C    1.716   313 C    1.115   333 H    0.973
   315   6 C    3.960 --   314 C    1.716   316 C    1.123   334 H    0.972
   316   6 C    3.916 --   317 N    1.364   318 C    1.239   315 C    1.123
   317   7 N    2.999 --   316 C    1.364   313 C    1.294
   318   6 C    3.925 --   319 C    1.242   316 C    1.239   111 C    1.200
   319   6 C    3.902 --   320 C    1.242   318 C    1.242   323 N    1.227
   320   6 C    3.952 --   321 C    1.587   319 C    1.242   335 H    0.972
   321   6 C    3.949 --   320 C    1.587   322 C    1.228   336 H    0.973
   322   6 C    3.914 --   324 C    1.335   321 C    1.228   323 N    1.203
   323   7 N    3.586 --   319 C    1.227   322 C    1.203   337 H    0.898
   324   6 C    3.923 --   325 C    1.372   322 C    1.335   338 H    0.963
   325   6 C    3.926 --   324 C    1.372   326 N    1.294   303 C    1.115
   326   7 N    2.999 --   305 C    1.364   325 C    1.294
   327   1 H    0.999 --   303 C    0.973
   328   1 H    0.999 --   304 C    0.972
   329   1 H    0.998 --   308 C    0.972
   330   1 H    0.998 --   309 C    0.973
   331   1 H    0.954 --   311 N    0.898
   332   1 H    0.997 --   312 C    0.963
   333   1 H    0.999 --   314 C    0.973
   334   1 H    0.999 --   315 C    0.972
   335   1 H    0.998 --   320 C    0.972
   336   1 H    0.998 --   321 C    0.973
   337   1 H    0.954 --   323 N    0.898
   338   1 H    0.997 --   324 C    0.963
   339   6 C    3.961 --   340 C    1.716   361 C    1.115   363 H    0.973
   340   6 C    3.960 --   339 C    1.716   341 C    1.123   364 H    0.972
   341   6 C    3.916 --   362 N    1.364   342 C    1.239   340 C    1.123
   342   6 C    3.926 --   343 C    1.242   341 C    1.239   116 C    1.200
   343   6 C    3.902 --   342 C    1.242   344 C    1.242   347 N    1.227
   344   6 C    3.952 --   345 C    1.587   343 C    1.242   365 H    0.972
   345   6 C    3.949 --   344 C    1.587   346 C    1.228   366 H    0.973
   346   6 C    3.914 --   348 C    1.336   345 C    1.228   347 N    1.203
   347   7 N    3.586 --   343 C    1.227   346 C    1.203   367 H    0.898
   348   6 C    3.922 --   349 C    1.371   346 C    1.336   368 H    0.963
   349   6 C    3.926 --   348 C    1.371   353 N    1.295   350 C    1.115
   350   6 C    3.961 --   351 C    1.715   349 C    1.115   369 H    0.973
   351   6 C    3.960 --   350 C    1.715   352 C    1.124   370 H    0.972
   352   6 C    3.916 --   353 N    1.363   354 C    1.240   351 C    1.124
   353   7 N    3.000 --   352 C    1.363   349 C    1.295
   354   6 C    3.926 --   355 C    1.242   352 C    1.240   117 C    1.199
   355   6 C    3.902 --   354 C    1.242   356 C    1.242   359 N    1.226
   356   6 C    3.952 --   357 C    1.587   355 C    1.242   371 H    0.972
   357   6 C    3.949 --   356 C    1.587   358 C    1.228   372 H    0.973
   358   6 C    3.914 --   360 C    1.335   357 C    1.228   359 N    1.204
   359   7 N    3.586 --   355 C    1.226   358 C    1.204   373 H    0.898
   360   6 C    3.923 --   361 C    1.372   358 C    1.335   374 H    0.963
   361   6 C    3.926 --   360 C    1.372   362 N    1.294   339 C    1.115
   362   7 N    3.000 --   341 C    1.364   361 C    1.294
   363   1 H    0.999 --   339 C    0.973
   364   1 H    0.999 --   340 C    0.972
   365   1 H    0.998 --   344 C    0.972
   366   1 H    0.998 --   345 C    0.973
   367   1 H    0.954 --   347 N    0.898
   368   1 H    0.997 --   348 C    0.963
   369   1 H    0.999 --   350 C    0.973
   370   1 H    0.999 --   351 C    0.972
   371   1 H    0.998 --   356 C    0.972
   372   1 H    0.998 --   357 C    0.973
   373   1 H    0.954 --   359 N    0.898
   374   1 H    0.997 --   360 C    0.963
 ---------------------------------------------------------------------------

Topologies differ in total number of bonds
Writing topology from bond orders to xtbtopo.mol

molecular dipole:
                 x           y           z       tot (Debye)
 q only:        0.000      -0.001      -0.005
   full:        0.000      -0.001      -0.009       0.022
molecular quadrupole (traceless):
                xx          xy          yy          xz          yz          zz
 q only:      238.869     -98.329     -80.271       7.926      -7.609    -158.597
  q+dip:      391.325     -51.323     -63.280       1.980     -26.011    -328.044
   full:      304.389     -49.547     -74.427       1.858     -15.282    -229.961


           -------------------------------------------------
          | TOTAL ENERGY             -648.217841329259 Eh   |
          | GRADIENT NORM               0.000907691977 Eh/α |
          | HOMO-LUMO GAP               0.733425307517 eV   |
           -------------------------------------------------

------------------------------------------------------------------------
 * finished run on 2021/11/21 at 19:26:15.655     
------------------------------------------------------------------------
 total:
 * wall-time:     0 d,  0 h,  0 min,  8.825 sec
 *  cpu-time:     0 d,  0 h,  0 min,  8.825 sec
 * ratio c/w:     1.000 speedup
 SCF:
 * wall-time:     0 d,  0 h,  0 min,  8.587 sec
 *  cpu-time:     0 d,  0 h,  0 min,  8.587 sec
 * ratio c/w:     1.000 speedup

