 Entering Gaussian System
 *********************************************
 Gaussian 98:
 frequency output generated by the xtb code
 *********************************************
                         Standard orientation:
 --------------------------------------------------------------------
  Center     Atomic     Atomic              Coordinates (Angstroms)
  Number     Number      Type              X           Y           Z
 --------------------------------------------------------------------
    1         30             0       14.475003    0.000111   -0.007347
    2          6             0       17.011039   -3.432322    0.045347
    3          6             0       17.963538   -2.468693    0.046468
    4          6             0       17.273532   -1.210368    0.026197
    5          6             0       17.911484    0.040983    0.014210
    6          6             0       17.244398    1.276887   -0.001678
    7          6             0       17.904389    2.551255   -0.009010
    8          6             0       16.929308    3.492036   -0.018741
    9          6             0       15.677067    2.790107   -0.017835
   10          7             0       15.900681    1.445809   -0.007927
   11          6             0       14.435183    3.403069   -0.024684
   12          6             0       13.208754    2.759605   -0.025738
   13          6             0       11.934791    3.426406   -0.033193
   14          6             0       10.988742    2.458653   -0.035571
   15          6             0       11.683975    1.199590   -0.029580
   16          7             0       13.025672    1.413130   -0.022531
   17          6             0       11.066541   -0.040618   -0.033536
   18          6             0       11.713234   -1.265853   -0.028112
   19          6             0       11.048151   -2.541134   -0.033981
   20          6             0       12.016880   -3.486115   -0.022095
   21          6             0       13.274533   -2.789117   -0.008618
   22          7             0       13.059537   -1.447368   -0.014142
   23          6             0       14.515851   -3.403026    0.010903
   24          6             0       15.742657   -2.760493    0.024107
   25          7             0       15.934288   -1.411236    0.014993
   26          1             0       17.140294   -4.497400    0.057171
   27          1             0       19.030449   -2.581150    0.059478
   28          1             0       18.968432    2.688781   -0.005982
   29          1             0       17.033178    4.559989   -0.025809
   30          1             0       14.423172    4.484197   -0.030168
   31          1             0       11.801681    4.491314   -0.036409
   32          1             0        9.921098    2.567537   -0.041044
   33          1             0        9.985616   -0.053455   -0.041759
   34          1             0        9.983459   -2.675453   -0.045480
   35          1             0       11.909200   -4.553927   -0.022129
   36          1             0       14.529740   -4.484127    0.016314
   37         30             0       41.376328    0.031098   -0.005519
   38          6             0       38.851765    3.409272    0.651743
   39          6             0       37.895873    2.464834    0.478269
   40          6             0       38.581580    1.227275    0.236505
   41          6             0       37.939696   -0.001109    0.008826
   42          6             0       38.602609   -1.217844   -0.220456
   43          6             0       37.938189   -2.468503   -0.453036
   44          6             0       38.909950   -3.395475   -0.632618
   45          6             0       40.164634   -2.708709   -0.510163
   46          7             0       39.945756   -1.387095   -0.259879
   47          6             0       41.404323   -3.314017   -0.631656
   48          6             0       42.632948   -2.684328   -0.521459
   49          6             0       43.904582   -3.342665   -0.652707
   50          6             0       44.853968   -2.393489   -0.481578
   51          6             0       44.163117   -1.154227   -0.245940
   52          7             0       42.820692   -1.361176   -0.275529
   53          6             0       44.784811    0.063769   -0.023974
   54          6             0       44.142346    1.269738    0.204629
   55          6             0       44.811872    2.522273    0.431670
   56          6             0       43.846411    3.453190    0.612898
   57          6             0       42.586301    2.770316    0.496942
   58          7             0       42.796634    1.450860    0.249292
   59          6             0       41.347053    3.375951    0.622111
   60          6             0       40.117908    2.746810    0.514641
   61          7             0       39.921598    1.421731    0.264024
   62          1             0       38.726272    4.455499    0.853768
   63          1             0       36.829341    2.577173    0.509723
   64          1             0       36.873752   -2.600957   -0.473121
   65          1             0       38.802299   -4.444661   -0.829974
   66          1             0       41.412529   -4.376562   -0.831487
   67          1             0       44.033957   -4.389753   -0.849233
   68          1             0       45.921217   -2.502912   -0.508959
   69          1             0       45.865780    0.074116   -0.029782
   70          1             0       45.877058    2.652271    0.446814
   71          1             0       43.957848    4.502836    0.806824
   72          1             0       41.336961    4.438467    0.822025
   73          6             0       19.310096    0.055364    0.016366
   74          6             0       20.528368    0.061641    0.012280
   75          6             0       21.870414    0.063717    0.007122
   76          6             0       23.088802    0.060347    0.000097
   77          6             0       32.762108   -0.014746   -0.010021
   78          6             0       33.980395   -0.017529   -0.003502
   79          6             0       35.322600   -0.015144    0.003808
   80          6             0       36.540793   -0.012280    0.007968
   81         30             0       27.925347    0.021732   -0.012996
   82          6             0       25.404101   -3.397430    0.382271
   83          6             0       24.447035   -2.443624    0.278096
   84          6             0       25.131093   -1.190883    0.132967
   85          6             0       24.486876    0.049931   -0.004633
   86          6             0       25.150478    1.279729   -0.147319
   87          6             0       24.486145    2.543302   -0.291408
   88          6             0       25.458163    3.481279   -0.400702
   89          6             0       26.711889    2.787840   -0.323157
   90          7             0       26.493425    1.451178   -0.170048
   91          6             0       27.951960    3.399420   -0.392753
   92          6             0       29.182199    2.768457   -0.320915
   93          6             0       30.446755    3.442244   -0.396173
   94          6             0       31.403822    2.488858   -0.288541
   95          6             0       30.719659    1.235501   -0.148179
   96          7             0       29.379523    1.428277   -0.170287
   97          6             0       31.363779   -0.005664   -0.014169
   98          6             0       30.700310   -1.236706    0.117112
   99          6             0       31.364606   -2.501068    0.254289
  100          6             0       30.392599   -3.439277    0.361605
  101          6             0       29.138855   -2.745201    0.289581
  102          7             0       29.357314   -1.408135    0.140121
  103          6             0       27.898829   -3.356167    0.364734
  104          6             0       26.668606   -2.724440    0.299948
  105          7             0       26.471181   -1.384290    0.149048
  106          1             0       25.279836   -4.456265    0.503409
  107          1             0       23.380602   -2.559420    0.296230
  108          1             0       23.421674    2.676299   -0.305391
  109          1             0       25.350744    4.541864   -0.522314
  110          1             0       27.960520    4.473809   -0.514361
  111          1             0       30.571045    4.501258   -0.515538
  112          1             0       32.470267    2.605172   -0.302430
  113          1             0       32.429101   -2.634386    0.265730
  114          1             0       30.500037   -4.500424    0.478983
  115          1             0       27.890319   -4.430585    0.486145
 --------------------------------------------------------------------
     1 basis functions        1 primitive gaussians
     1 alpha electrons        1 beta electrons

 Harmonic frequencies (cm**-1), IR intensities (km*mol⁻¹),
 Raman scattering activities (A**4/amu), Raman depolarization ratios,
 reduced masses (AMU), force constants (mDyne/A) and normal coordinates:
                      1                      2                      3
                        a                      a                      a 
 Frequencies --     3.1298                 3.8534                 4.5245
 Red. masses --    19.2099                17.3797                11.2904
 Frc consts  --     0.0000                 0.0000                 0.0000
 IR Inten    --     2.0538                 0.1646                 0.0049
 Raman Activ --     0.0000                 0.0000                 0.0000
 Depolar     --     0.0000                 0.0000                 0.0000
 Atom AN      X      Y      Z        X      Y      Z        X      Y      Z
   1  30     0.00  -0.04  -0.16     0.00  -0.14   0.05    -0.00  -0.00   0.01
   2   6     0.02  -0.00  -0.03     0.08  -0.00   0.01     0.00  -0.00  -0.20
   3   6     0.01   0.00  -0.01     0.06   0.02   0.00     0.00  -0.00  -0.15
   4   6     0.01  -0.00  -0.01     0.03   0.00   0.00     0.00  -0.00  -0.07
   5   6    -0.00   0.00   0.00    -0.00   0.02  -0.00     0.00   0.00   0.00
   6   6    -0.01  -0.00  -0.00    -0.03   0.00  -0.00    -0.00   0.00   0.07
   7   6    -0.02   0.00   0.01    -0.06   0.02  -0.01    -0.00   0.00   0.15
   8   6    -0.02  -0.00  -0.00    -0.08  -0.00  -0.01    -0.00   0.00   0.21
   9   6    -0.02  -0.01  -0.03    -0.06  -0.03   0.00    -0.00   0.00   0.17
  10   7    -0.01  -0.01  -0.03    -0.04  -0.03   0.01    -0.00  -0.00   0.10
  11   6    -0.02  -0.02  -0.05    -0.08  -0.06   0.01    -0.00  -0.00   0.21
  12   6    -0.02  -0.03  -0.08    -0.06  -0.09   0.02    -0.00  -0.00   0.17
  13   6    -0.02  -0.04  -0.11    -0.08  -0.12   0.03    -0.00  -0.00   0.22
  14   6    -0.01  -0.04  -0.13    -0.06  -0.14   0.04    -0.00  -0.00   0.16
  15   6    -0.01  -0.04  -0.12    -0.03  -0.12   0.04    -0.00  -0.00   0.08
  16   7    -0.01  -0.03  -0.10    -0.03  -0.10   0.03    -0.00  -0.00   0.10
  17   6     0.00  -0.04  -0.14     0.00  -0.14   0.05    -0.00  -0.00   0.01
  18   6     0.01  -0.04  -0.13     0.03  -0.12   0.04     0.00  -0.00  -0.07
  19   6     0.02  -0.04  -0.15     0.06  -0.14   0.05     0.00  -0.00  -0.14
  20   6     0.02  -0.03  -0.13     0.08  -0.12   0.05     0.00  -0.00  -0.20
  21   6     0.02  -0.03  -0.10     0.06  -0.09   0.04     0.00  -0.00  -0.16
  22   7     0.01  -0.03  -0.11     0.04  -0.10   0.04     0.00  -0.00  -0.09
  23   6     0.02  -0.02  -0.08     0.08  -0.06   0.03     0.00  -0.00  -0.20
  24   6     0.02  -0.01  -0.05     0.06  -0.03   0.02     0.00  -0.00  -0.16
  25   7     0.01  -0.01  -0.05     0.04  -0.03   0.01     0.00  -0.00  -0.09
  26   1     0.01  -0.00  -0.01     0.03   0.00   0.00     0.00  -0.00  -0.08
  27   1     0.00   0.00   0.00     0.02   0.01  -0.00     0.00  -0.00  -0.05
  28   1    -0.00   0.00   0.01    -0.02   0.01  -0.01    -0.00   0.00   0.04
  29   1    -0.01  -0.00   0.00    -0.03  -0.00  -0.00    -0.00   0.00   0.08
  30   1    -0.01  -0.01  -0.01    -0.03  -0.02   0.00    -0.00   0.00   0.08
  31   1    -0.01  -0.01  -0.03    -0.03  -0.04   0.01    -0.00  -0.00   0.08
  32   1    -0.00  -0.01  -0.04    -0.02  -0.05   0.01    -0.00  -0.00   0.05
  33   1     0.00  -0.01  -0.05     0.00  -0.05   0.02    -0.00  -0.00   0.00
  34   1     0.01  -0.01  -0.05     0.02  -0.05   0.02     0.00  -0.00  -0.04
  35   1     0.01  -0.01  -0.04     0.03  -0.03   0.01     0.00  -0.00  -0.08
  36   1     0.01  -0.01  -0.02     0.03  -0.02   0.01     0.00  -0.00  -0.08
  37  30     0.00  -0.04  -0.16     0.00  -0.14   0.05    -0.00  -0.00   0.01
  38   6     0.04   0.00  -0.03     0.07  -0.00   0.01     0.00   0.03  -0.18
  39   6     0.03   0.01  -0.00     0.05   0.02  -0.00     0.00   0.03  -0.13
  40   6     0.01   0.00  -0.01     0.03   0.00   0.00    -0.00   0.01  -0.06
  41   6     0.00   0.00   0.01    -0.00   0.02  -0.00    -0.00   0.00  -0.00
  42   6    -0.01  -0.00  -0.00    -0.03   0.00  -0.00    -0.00  -0.01   0.06
  43   6    -0.03   0.00   0.01    -0.05   0.02  -0.01    -0.00  -0.02   0.13
  44   6    -0.03  -0.00  -0.00    -0.07  -0.00  -0.00    -0.00  -0.03   0.18
  45   6    -0.03  -0.01  -0.03    -0.06  -0.03   0.01    -0.00  -0.03   0.15
  46   7    -0.02  -0.01  -0.03    -0.03  -0.03   0.01    -0.00  -0.01   0.08
  47   6    -0.03  -0.02  -0.06    -0.07  -0.06   0.01    -0.00  -0.03   0.18
  48   6    -0.03  -0.03  -0.08    -0.06  -0.09   0.03    -0.00  -0.03   0.15
  49   6    -0.04  -0.04  -0.11    -0.07  -0.12   0.03    -0.00  -0.04   0.19
  50   6    -0.03  -0.04  -0.13    -0.05  -0.14   0.04    -0.00  -0.03   0.14
  51   6    -0.01  -0.04  -0.12    -0.03  -0.12   0.04    -0.00  -0.02   0.07
  52   7    -0.02  -0.03  -0.10    -0.03  -0.10   0.03    -0.00  -0.02   0.09
  53   6    -0.00  -0.04  -0.14     0.00  -0.14   0.05     0.00  -0.00   0.01
  54   6     0.01  -0.03  -0.13     0.03  -0.13   0.05     0.00   0.01  -0.05
  55   6     0.03  -0.04  -0.15     0.05  -0.14   0.05     0.00   0.02  -0.12
  56   6     0.03  -0.03  -0.13     0.07  -0.12   0.05     0.00   0.03  -0.17
  57   6     0.03  -0.02  -0.10     0.06  -0.09   0.04     0.00   0.02  -0.14
  58   7     0.02  -0.03  -0.11     0.03  -0.10   0.04     0.00   0.01  -0.07
  59   6     0.03  -0.02  -0.08     0.07  -0.06   0.03     0.00   0.03  -0.17
  60   6     0.03  -0.01  -0.05     0.06  -0.03   0.02     0.00   0.03  -0.14
  61   7     0.02  -0.01  -0.04     0.03  -0.03   0.01     0.00   0.01  -0.08
  62   1     0.01   0.00  -0.01     0.03  -0.00   0.00     0.00   0.01  -0.07
  63   1     0.01   0.00   0.01     0.02   0.01  -0.00     0.00   0.01  -0.04
  64   1    -0.01   0.00   0.01    -0.02   0.01  -0.01    -0.00  -0.01   0.04
  65   1    -0.01  -0.00   0.00    -0.03   0.00  -0.00    -0.00  -0.01   0.07
  66   1    -0.01  -0.01  -0.01    -0.03  -0.02   0.00    -0.00  -0.01   0.07
  67   1    -0.01  -0.01  -0.03    -0.03  -0.03   0.01    -0.00  -0.01   0.07
  68   1    -0.01  -0.01  -0.05    -0.02  -0.05   0.01    -0.00  -0.01   0.04
  69   1    -0.00  -0.01  -0.05     0.00  -0.05   0.02     0.00  -0.00   0.00
  70   1     0.01  -0.01  -0.05     0.02  -0.05   0.02     0.00   0.01  -0.04
  71   1     0.01  -0.01  -0.04     0.03  -0.04   0.01     0.00   0.01  -0.07
  72   1     0.01  -0.00  -0.02     0.03  -0.02   0.01     0.00   0.01  -0.07
  73   6    -0.00   0.01   0.03    -0.00   0.05  -0.01     0.00   0.00  -0.00
  74   6    -0.00   0.02   0.05    -0.00   0.07  -0.02     0.00   0.00  -0.00
  75   6    -0.00   0.02   0.07    -0.00   0.09  -0.03     0.00   0.00  -0.00
  76   6    -0.00   0.03   0.09    -0.00   0.10  -0.03     0.00   0.00  -0.01
  77   6    -0.00   0.03   0.09    -0.00   0.10  -0.03    -0.00   0.00  -0.01
  78   6    -0.00   0.03   0.08    -0.00   0.09  -0.03    -0.00   0.00  -0.01
  79   6    -0.00   0.02   0.05    -0.00   0.07  -0.02    -0.00   0.00  -0.01
  80   6     0.00   0.01   0.03    -0.00   0.05  -0.01    -0.00   0.00  -0.00
  81  30    -0.00   0.07   0.28    -0.00   0.23  -0.08     0.00   0.00  -0.02
  82   6     0.00   0.03   0.13    -0.00   0.10  -0.04     0.00   0.00   0.01
  83   6    -0.00   0.03   0.12    -0.00   0.10  -0.04     0.00   0.00   0.01
  84   6    -0.00   0.03   0.11    -0.00   0.10  -0.04     0.00   0.00  -0.00
  85   6    -0.00   0.03   0.11    -0.00   0.10  -0.03     0.00   0.00  -0.01
  86   6    -0.00   0.03   0.11    -0.00   0.10  -0.03    -0.00   0.00  -0.02
  87   6    -0.00   0.03   0.11    -0.00   0.10  -0.03    -0.00   0.00  -0.02
  88   6    -0.00   0.03   0.12    -0.00   0.10  -0.03    -0.00  -0.00  -0.03
  89   6    -0.00   0.03   0.12    -0.00   0.10  -0.03    -0.00  -0.00  -0.03
  90   7    -0.00   0.03   0.13    -0.00   0.11  -0.04    -0.00   0.00  -0.02
  91   6    -0.00   0.03   0.13    -0.00   0.10  -0.03    -0.00  -0.00  -0.04
  92   6    -0.00   0.03   0.12    -0.00   0.10  -0.03    -0.00  -0.00  -0.03
  93   6    -0.00   0.03   0.12    -0.00   0.10  -0.03    -0.00  -0.00  -0.04
  94   6    -0.00   0.03   0.11    -0.00   0.10  -0.03    -0.00  -0.00  -0.03
  95   6    -0.00   0.03   0.11    -0.00   0.10  -0.03    -0.00   0.00  -0.02
  96   7    -0.00   0.03   0.13    -0.00   0.11  -0.04    -0.00   0.00  -0.02
  97   6    -0.00   0.03   0.11    -0.00   0.10  -0.03    -0.00   0.00  -0.01
  98   6    -0.00   0.03   0.11    -0.00   0.10  -0.04     0.00   0.00   0.00
  99   6    -0.00   0.03   0.12    -0.00   0.10  -0.04     0.00   0.00   0.01
 100   6    -0.00   0.03   0.13    -0.00   0.10  -0.04     0.00   0.01   0.02
 101   6    -0.00   0.03   0.13    -0.00   0.10  -0.04     0.00   0.00   0.01
 102   7    -0.00   0.03   0.13    -0.00   0.11  -0.04     0.00   0.00   0.00
 103   6     0.00   0.03   0.13    -0.00   0.10  -0.04     0.00   0.00   0.01
 104   6     0.00   0.03   0.13    -0.00   0.10  -0.04     0.00   0.00   0.01
 105   7    -0.00   0.03   0.13    -0.00   0.11  -0.04     0.00   0.00   0.00
 106   1     0.00   0.01   0.04    -0.00   0.03  -0.01     0.00   0.00   0.01
 107   1    -0.00   0.01   0.03    -0.00   0.03  -0.01     0.00   0.00   0.00
 108   1    -0.00   0.01   0.03    -0.00   0.03  -0.01    -0.00   0.00  -0.01
 109   1    -0.00   0.01   0.04    -0.00   0.03  -0.01    -0.00  -0.00  -0.01
 110   1    -0.00   0.01   0.04    -0.00   0.03  -0.01    -0.00  -0.00  -0.01
 111   1    -0.00   0.01   0.04    -0.00   0.03  -0.01    -0.00  -0.00  -0.01
 112   1    -0.00   0.01   0.03    -0.00   0.03  -0.01    -0.00  -0.00  -0.01
 113   1    -0.00   0.01   0.03    -0.00   0.03  -0.01     0.00   0.00   0.00
 114   1    -0.00   0.01   0.04    -0.00   0.03  -0.01     0.00   0.00   0.01
 115   1     0.00   0.01   0.04    -0.00   0.03  -0.01     0.00   0.00   0.01
                      4                      5                      6
                        a                      a                      a 
 Frequencies --     5.9787                 9.2765                10.1854
 Red. masses --    11.2390                11.4501                11.5038
 Frc consts  --     0.0000                 0.0000                 0.0000
 IR Inten    --     0.0060                 0.0094                 0.2334
 Raman Activ --     0.0000                 0.0000                 0.0000
 Depolar     --     0.0000                 0.0000                 0.0000
 Atom AN      X      Y      Z        X      Y      Z        X      Y      Z
   1  30     0.00   0.00  -0.00     0.01   0.00   0.00     0.00   0.00   0.00
   2   6    -0.00   0.00   0.09     0.11   0.08   0.00    -0.00   0.00   0.12
   3   6    -0.00   0.00   0.06     0.08   0.11   0.00    -0.00   0.00   0.15
   4   6    -0.00  -0.00   0.03     0.04   0.09   0.00    -0.00   0.00   0.12
   5   6    -0.00  -0.00  -0.00     0.00   0.11   0.00    -0.00   0.00   0.13
   6   6     0.00  -0.00  -0.03    -0.04   0.09   0.00     0.00   0.00   0.11
   7   6     0.00  -0.00  -0.06    -0.07   0.11   0.00     0.00   0.00   0.14
   8   6     0.00  -0.00  -0.09    -0.10   0.08   0.00     0.00   0.00   0.11
   9   6     0.00  -0.00  -0.07    -0.08   0.04   0.00     0.00   0.00   0.06
  10   7     0.00  -0.00  -0.04    -0.04   0.05   0.00     0.00   0.00   0.07
  11   6     0.00   0.00  -0.09    -0.10   0.00   0.00     0.00   0.00   0.01
  12   6     0.00   0.00  -0.07    -0.08  -0.04  -0.00     0.00  -0.00  -0.05
  13   6     0.00   0.00  -0.09    -0.10  -0.07  -0.00     0.00  -0.00  -0.11
  14   6     0.00   0.00  -0.07    -0.07  -0.10  -0.00     0.00  -0.00  -0.16
  15   6     0.00   0.00  -0.03    -0.03  -0.08  -0.00     0.00  -0.00  -0.13
  16   7     0.00   0.00  -0.04    -0.04  -0.04  -0.00     0.00  -0.00  -0.07
  17   6    -0.00   0.00   0.00     0.00  -0.10  -0.00     0.00  -0.00  -0.16
  18   6    -0.00   0.00   0.04     0.04  -0.08  -0.00     0.00  -0.00  -0.13
  19   6    -0.00   0.00   0.07     0.08  -0.10  -0.00     0.00  -0.00  -0.16
  20   6    -0.00   0.00   0.09     0.11  -0.07  -0.00     0.00  -0.00  -0.10
  21   6    -0.00   0.00   0.07     0.09  -0.03  -0.00     0.00  -0.00  -0.04
  22   7    -0.00   0.00   0.04     0.05  -0.04  -0.00     0.00  -0.00  -0.07
  23   6    -0.00   0.00   0.09     0.11   0.00   0.00     0.00   0.00   0.02
  24   6    -0.00   0.00   0.07     0.09   0.04   0.00     0.00   0.00   0.07
  25   7    -0.00   0.00   0.04     0.05   0.05   0.00     0.00   0.00   0.07
  26   1    -0.00   0.00   0.03     0.04   0.02   0.00    -0.00   0.00   0.04
  27   1    -0.00  -0.00   0.02     0.02   0.04   0.00    -0.00   0.00   0.05
  28   1     0.00  -0.00  -0.02    -0.02   0.04   0.00    -0.00   0.00   0.05
  29   1     0.00  -0.00  -0.03    -0.04   0.02   0.00     0.00   0.00   0.03
  30   1     0.00   0.00  -0.03    -0.04   0.00   0.00     0.00   0.00   0.00
  31   1     0.00   0.00  -0.03    -0.04  -0.02  -0.00     0.00  -0.00  -0.03
  32   1     0.00   0.00  -0.02    -0.02  -0.04  -0.00     0.00  -0.00  -0.06
  33   1    -0.00   0.00   0.00     0.00  -0.04  -0.00     0.00  -0.00  -0.06
  34   1    -0.00   0.00   0.02     0.02  -0.04  -0.00     0.00  -0.00  -0.06
  35   1    -0.00   0.00   0.04     0.04  -0.02  -0.00     0.00  -0.00  -0.03
  36   1    -0.00   0.00   0.03     0.04   0.00   0.00     0.00   0.00   0.01
  37  30    -0.00   0.00  -0.00    -0.01  -0.00  -0.00    -0.00  -0.00  -0.01
  38   6    -0.00   0.02  -0.13    -0.10  -0.08   0.00    -0.02   0.01  -0.12
  39   6    -0.00   0.02  -0.09    -0.08  -0.11   0.00    -0.01   0.01  -0.15
  40   6    -0.00   0.01  -0.04    -0.04  -0.09   0.00    -0.01   0.00  -0.12
  41   6    -0.00   0.00   0.00    -0.00  -0.11   0.00    -0.00   0.00  -0.13
  42   6     0.00  -0.01   0.05     0.03  -0.09   0.00     0.01   0.00  -0.11
  43   6     0.00  -0.02   0.10     0.07  -0.11   0.00     0.01   0.01  -0.14
  44   6     0.00  -0.02   0.13     0.10  -0.08   0.01     0.02   0.01  -0.11
  45   6     0.00  -0.02   0.11     0.08  -0.04   0.00     0.01   0.00  -0.06
  46   7     0.00  -0.01   0.06     0.04  -0.05   0.00     0.01   0.00  -0.07
  47   6     0.00  -0.02   0.13     0.10  -0.00   0.00     0.02   0.00  -0.01
  48   6     0.00  -0.02   0.11     0.08   0.04  -0.00     0.02  -0.00   0.05
  49   6     0.00  -0.02   0.13     0.10   0.08  -0.01     0.02  -0.01   0.11
  50   6     0.00  -0.02   0.09     0.07   0.10  -0.01     0.01  -0.01   0.16
  51   6     0.00  -0.01   0.04     0.03   0.08  -0.01     0.01  -0.01   0.13
  52   7     0.00  -0.01   0.06     0.04   0.05  -0.00     0.01  -0.01   0.07
  53   6    -0.00   0.00  -0.00    -0.00   0.10  -0.01     0.00  -0.01   0.16
  54   6    -0.00   0.01  -0.05    -0.04   0.08  -0.01    -0.01  -0.01   0.13
  55   6    -0.00   0.02  -0.10    -0.08   0.10  -0.01    -0.01  -0.01   0.16
  56   6    -0.00   0.03  -0.14    -0.11   0.07  -0.01    -0.02  -0.01   0.10
  57   6    -0.00   0.02  -0.11    -0.09   0.03  -0.00    -0.01  -0.00   0.04
  58   7    -0.00   0.01  -0.06    -0.05   0.04  -0.01    -0.01  -0.01   0.07
  59   6    -0.00   0.03  -0.13    -0.10  -0.00  -0.00    -0.02   0.00  -0.02
  60   6    -0.00   0.02  -0.10    -0.08  -0.04   0.00    -0.02   0.00  -0.07
  61   7    -0.00   0.01  -0.06    -0.05  -0.05   0.00    -0.01   0.00  -0.07
  62   1    -0.00   0.01  -0.05    -0.04  -0.02   0.00    -0.01   0.00  -0.04
  63   1    -0.00   0.01  -0.03    -0.02  -0.04   0.00    -0.00   0.00  -0.05
  64   1     0.00  -0.01   0.03     0.02  -0.04   0.00     0.00   0.00  -0.05
  65   1     0.00  -0.01   0.05     0.04  -0.02   0.00     0.01   0.00  -0.04
  66   1     0.00  -0.01   0.05     0.04  -0.00   0.00     0.01   0.00  -0.00
  67   1     0.00  -0.01   0.05     0.04   0.02  -0.00     0.01  -0.00   0.03
  68   1     0.00  -0.01   0.03     0.02   0.04  -0.00     0.00  -0.01   0.06
  69   1    -0.00   0.00  -0.00    -0.00   0.04  -0.00     0.00  -0.01   0.06
  70   1    -0.00   0.01  -0.03    -0.02   0.04  -0.00    -0.00  -0.00   0.06
  71   1    -0.00   0.01  -0.05    -0.04   0.02  -0.00    -0.01  -0.00   0.03
  72   1    -0.00   0.01  -0.05    -0.04  -0.00   0.00    -0.01   0.00  -0.01
  73   6    -0.00  -0.00  -0.00     0.00   0.14   0.00    -0.00   0.00   0.16
  74   6    -0.00  -0.00  -0.00     0.00   0.16   0.00    -0.00   0.00   0.17
  75   6    -0.00  -0.00  -0.00     0.00   0.15   0.00    -0.00   0.00   0.16
  76   6    -0.00  -0.00  -0.00     0.00   0.14   0.00    -0.00   0.00   0.15
  77   6     0.00  -0.00   0.00    -0.00  -0.14  -0.00    -0.00  -0.00  -0.15
  78   6     0.00  -0.00   0.00    -0.00  -0.16  -0.00    -0.00   0.00  -0.16
  79   6    -0.00  -0.00   0.00    -0.00  -0.16  -0.00    -0.00   0.00  -0.17
  80   6     0.00  -0.00   0.00    -0.00  -0.14   0.00    -0.00   0.00  -0.16
  81  30     0.00  -0.00   0.00    -0.00  -0.00   0.00    -0.00   0.00   0.00
  82   6    -0.00  -0.03  -0.23    -0.10   0.07   0.00     0.01   0.00   0.09
  83   6    -0.00  -0.02  -0.17    -0.07   0.10   0.00     0.01   0.00   0.12
  84   6    -0.00  -0.01  -0.08    -0.04   0.08   0.00     0.00   0.00   0.10
  85   6    -0.00  -0.00  -0.00     0.00   0.10   0.00    -0.00   0.00   0.12
  86   6     0.00   0.01   0.08     0.04   0.08   0.00    -0.00   0.00   0.10
  87   6     0.00   0.02   0.16     0.07   0.10   0.01    -0.01   0.00   0.12
  88   6     0.00   0.02   0.22     0.10   0.07   0.01    -0.01   0.00   0.09
  89   6     0.00   0.02   0.18     0.08   0.04   0.00    -0.01   0.00   0.05
  90   7     0.00   0.01   0.10     0.04   0.05   0.00    -0.01   0.00   0.06
  91   6     0.00   0.02   0.22     0.10  -0.00   0.00    -0.01   0.00   0.01
  92   6     0.00   0.02   0.18     0.08  -0.04   0.00    -0.01   0.00  -0.04
  93   6     0.00   0.02   0.23     0.10  -0.07  -0.00    -0.01  -0.00  -0.08
  94   6     0.00   0.02   0.17     0.07  -0.10  -0.00    -0.01  -0.00  -0.12
  95   6     0.00   0.01   0.08     0.03  -0.08  -0.00    -0.00  -0.00  -0.09
  96   7     0.00   0.01   0.10     0.04  -0.05   0.00    -0.01   0.00  -0.05
  97   6     0.00  -0.00   0.00    -0.00  -0.10  -0.00    -0.00  -0.00  -0.11
  98   6     0.00  -0.01  -0.08    -0.04  -0.08  -0.00     0.00  -0.00  -0.10
  99   6    -0.00  -0.02  -0.16    -0.07  -0.10  -0.00     0.01  -0.00  -0.12
 100   6    -0.00  -0.03  -0.22    -0.10  -0.07  -0.00     0.01  -0.00  -0.09
 101   6    -0.00  -0.02  -0.18    -0.08  -0.04  -0.00     0.01  -0.00  -0.05
 102   7     0.00  -0.01  -0.10    -0.04  -0.05  -0.00     0.00  -0.00  -0.06
 103   6    -0.00  -0.03  -0.22    -0.10   0.00   0.00     0.01   0.00  -0.00
 104   6    -0.00  -0.02  -0.18    -0.08   0.04   0.00     0.01   0.00   0.04
 105   7    -0.00  -0.01  -0.10    -0.04   0.05   0.00     0.00   0.00   0.06
 106   1    -0.00  -0.01  -0.09    -0.04   0.02   0.00     0.00   0.00   0.03
 107   1    -0.00  -0.01  -0.05    -0.02   0.04   0.00     0.00   0.00   0.04
 108   1     0.00   0.01   0.05     0.02   0.04   0.00    -0.00   0.00   0.05
 109   1     0.00   0.01   0.08     0.04   0.02   0.00    -0.00   0.00   0.03
 110   1     0.00   0.01   0.08     0.04  -0.00   0.00    -0.00   0.00   0.00
 111   1     0.00   0.01   0.09     0.04  -0.02  -0.00    -0.00  -0.00  -0.03
 112   1     0.00   0.01   0.05     0.02  -0.04  -0.00    -0.00  -0.00  -0.04
 113   1    -0.00  -0.01  -0.05    -0.02  -0.04  -0.00     0.00  -0.00  -0.05
 114   1    -0.00  -0.01  -0.08    -0.04  -0.02  -0.00     0.00  -0.00  -0.03
 115   1    -0.00  -0.01  -0.08    -0.04   0.00   0.00     0.00   0.00  -0.00
                      7                      8                      9
                        a                      a                      a 
 Frequencies --    15.6269                25.6460                28.5616
 Red. masses --    13.4158                12.3219                14.8588
 Frc consts  --     0.0000                 0.0000                 0.0000
 IR Inten    --     4.7057                 4.9740                 0.1999
 Raman Activ --     0.0000                 0.0000                 0.0000
 Depolar     --     0.0000                 0.0000                 0.0000
 Atom AN      X      Y      Z        X      Y      Z        X      Y      Z
   1  30    -0.00  -0.00  -0.06     0.00   0.02   0.07    -0.00  -0.09   0.03
   2   6    -0.01  -0.01  -0.16     0.03   0.03   0.12    -0.10  -0.11   0.06
   3   6    -0.00  -0.01  -0.18     0.02   0.04   0.10    -0.07  -0.13   0.04
   4   6    -0.00  -0.01  -0.14     0.01   0.03   0.07    -0.03  -0.12   0.03
   5   6    -0.00  -0.01  -0.14    -0.00   0.04   0.04     0.00  -0.13   0.01
   6   6     0.00  -0.01  -0.14    -0.01   0.03   0.06     0.03  -0.11   0.03
   7   6     0.00  -0.01  -0.17    -0.02   0.04   0.10     0.07  -0.13   0.04
   8   6     0.00  -0.01  -0.16    -0.03   0.03   0.12     0.10  -0.11   0.06
   9   6     0.00  -0.00  -0.11    -0.02   0.02   0.09     0.08  -0.07   0.05
  10   7     0.00  -0.00  -0.10    -0.01   0.02   0.07     0.04  -0.08   0.03
  11   6     0.00  -0.00  -0.06    -0.03   0.01   0.08     0.09  -0.04   0.04
  12   6     0.00   0.00   0.02    -0.02  -0.00   0.02     0.08  -0.00   0.01
  13   6     0.00   0.00   0.09    -0.03  -0.01  -0.03     0.10   0.03  -0.01
  14   6     0.00   0.01   0.16    -0.02  -0.02  -0.09     0.07   0.06  -0.05
  15   6    -0.00   0.00   0.13    -0.01  -0.01  -0.08     0.03   0.04  -0.04
  16   7     0.00   0.00   0.05    -0.01  -0.00  -0.01     0.04   0.00  -0.01
  17   6    -0.00   0.00   0.17     0.00  -0.02  -0.12    -0.00   0.06  -0.06
  18   6    -0.01   0.00   0.13     0.01  -0.01  -0.08    -0.04   0.04  -0.04
  19   6    -0.01   0.00   0.16     0.02  -0.02  -0.10    -0.07   0.06  -0.04
  20   6    -0.01   0.00   0.09     0.03  -0.01  -0.03    -0.10   0.03  -0.01
  21   6    -0.01   0.00   0.02     0.02   0.00   0.02    -0.08  -0.00   0.01
  22   7    -0.00   0.00   0.05     0.01  -0.00  -0.01    -0.04   0.00  -0.00
  23   6    -0.01  -0.00  -0.06     0.03   0.01   0.08    -0.10  -0.04   0.04
  24   6    -0.00  -0.00  -0.11     0.02   0.02   0.09    -0.08  -0.07   0.05
  25   7    -0.00  -0.00  -0.10     0.01   0.02   0.07    -0.04  -0.08   0.03
  26   1    -0.00  -0.00  -0.05     0.01   0.01   0.04    -0.04  -0.03   0.02
  27   1    -0.00  -0.00  -0.06     0.01   0.01   0.03    -0.02  -0.05   0.01
  28   1     0.00  -0.00  -0.06    -0.01   0.01   0.03     0.02  -0.05   0.01
  29   1     0.00  -0.00  -0.05    -0.01   0.01   0.04     0.04  -0.03   0.02
  30   1     0.00  -0.00  -0.02    -0.01   0.00   0.03     0.04  -0.01   0.02
  31   1     0.00   0.00   0.03    -0.01  -0.00  -0.00     0.04   0.01  -0.00
  32   1     0.00   0.00   0.07    -0.01  -0.01  -0.04     0.02   0.03  -0.02
  33   1    -0.00   0.00   0.07     0.00  -0.01  -0.05    -0.00   0.03  -0.02
  34   1    -0.00   0.00   0.06     0.01  -0.01  -0.04    -0.02   0.03  -0.02
  35   1    -0.00   0.00   0.03     0.01  -0.00  -0.01    -0.04   0.01  -0.00
  36   1    -0.00  -0.00  -0.02     0.01   0.00   0.03    -0.04  -0.01   0.02
  37  30     0.00  -0.00  -0.06     0.00   0.03  -0.08    -0.00  -0.09  -0.01
  38   6    -0.02   0.01  -0.15     0.02   0.05  -0.13    -0.10  -0.11  -0.01
  39   6    -0.02   0.00  -0.17     0.02   0.06  -0.10    -0.07  -0.14  -0.02
  40   6    -0.01   0.00  -0.13     0.01   0.04  -0.07    -0.03  -0.12  -0.02
  41   6     0.00  -0.00  -0.14     0.00   0.04  -0.05     0.00  -0.14  -0.02
  42   6     0.01   0.00  -0.13    -0.01   0.04  -0.07     0.03  -0.12  -0.02
  43   6     0.02   0.00  -0.17    -0.02   0.06  -0.10     0.07  -0.14  -0.02
  44   6     0.02   0.01  -0.15    -0.03   0.05  -0.13     0.10  -0.11  -0.02
  45   6     0.02   0.01  -0.10    -0.02   0.04  -0.10     0.08  -0.07  -0.01
  46   7     0.01   0.00  -0.10    -0.01   0.04  -0.08     0.04  -0.09  -0.01
  47   6     0.02   0.01  -0.05    -0.02   0.03  -0.09     0.10  -0.04  -0.00
  48   6     0.02   0.00   0.02    -0.02   0.01  -0.02     0.08  -0.00   0.00
  49   6     0.02  -0.00   0.09    -0.02  -0.01   0.03     0.10   0.03   0.01
  50   6     0.02  -0.01   0.15    -0.02  -0.04   0.10     0.07   0.06   0.01
  51   6     0.01  -0.01   0.12    -0.01  -0.03   0.09     0.03   0.04   0.01
  52   7     0.01  -0.00   0.05    -0.01  -0.00   0.02     0.04   0.00   0.00
  53   6     0.00  -0.01   0.16     0.00  -0.04   0.13    -0.00   0.06   0.01
  54   6    -0.01  -0.01   0.12     0.01  -0.03   0.09    -0.04   0.04   0.00
  55   6    -0.01  -0.01   0.15     0.02  -0.04   0.11    -0.07   0.06   0.01
  56   6    -0.02  -0.00   0.09     0.03  -0.01   0.03    -0.10   0.03   0.00
  57   6    -0.02   0.00   0.02     0.02   0.01  -0.02    -0.08  -0.00   0.00
  58   7    -0.01  -0.00   0.05     0.01  -0.00   0.02    -0.04   0.00   0.00
  59   6    -0.02   0.01  -0.05     0.03   0.03  -0.09    -0.10  -0.04  -0.00
  60   6    -0.02   0.01  -0.10     0.02   0.04  -0.10    -0.08  -0.07  -0.01
  61   7    -0.01   0.00  -0.10     0.01   0.04  -0.08    -0.04  -0.09  -0.01
  62   1    -0.01   0.00  -0.05     0.01   0.02  -0.05    -0.04  -0.03  -0.00
  63   1    -0.00   0.00  -0.06     0.01   0.02  -0.03    -0.02  -0.05  -0.01
  64   1     0.01   0.00  -0.06    -0.01   0.02  -0.03     0.02  -0.05  -0.01
  65   1     0.01   0.00  -0.05    -0.01   0.02  -0.05     0.04  -0.03  -0.00
  66   1     0.01   0.00  -0.02    -0.01   0.01  -0.03     0.04  -0.01  -0.00
  67   1     0.01  -0.00   0.02    -0.01  -0.00   0.01     0.04   0.01   0.00
  68   1     0.01  -0.00   0.06    -0.00  -0.02   0.05     0.02   0.03   0.00
  69   1     0.00  -0.01   0.07     0.00  -0.02   0.06    -0.00   0.03   0.00
  70   1    -0.00  -0.00   0.06     0.01  -0.02   0.05    -0.02   0.03   0.00
  71   1    -0.01  -0.00   0.02     0.01  -0.00   0.01    -0.04   0.01   0.00
  72   1    -0.01   0.00  -0.02     0.01   0.01  -0.03    -0.04  -0.01  -0.00
  73   6    -0.00  -0.01  -0.14    -0.00   0.04  -0.00     0.00  -0.15  -0.01
  74   6    -0.00  -0.01  -0.11    -0.00   0.03  -0.07     0.00  -0.08  -0.05
  75   6    -0.00  -0.00  -0.07    -0.00   0.01  -0.12     0.00  -0.02  -0.07
  76   6    -0.00  -0.00  -0.02    -0.00  -0.01  -0.16     0.00   0.06  -0.09
  77   6     0.00  -0.01  -0.03    -0.00  -0.03   0.17     0.00   0.07   0.02
  78   6     0.00  -0.01  -0.07    -0.00  -0.01   0.13     0.00  -0.02   0.00
  79   6     0.00  -0.01  -0.11    -0.00   0.01   0.08     0.00  -0.08  -0.01
  80   6     0.00  -0.01  -0.14     0.00   0.04   0.01     0.00  -0.15  -0.03
  81  30     0.00   0.01   0.17    -0.00  -0.07   0.00     0.00   0.21   0.00
  82   6    -0.00   0.01   0.09    -0.02  -0.03  -0.15    -0.00   0.08  -0.04
  83   6    -0.00   0.01   0.05    -0.02  -0.03  -0.19     0.00   0.08  -0.07
  84   6    -0.00   0.00   0.04    -0.01  -0.03  -0.14     0.00   0.08  -0.06
  85   6    -0.00   0.00   0.02    -0.00  -0.02  -0.15     0.00   0.08  -0.07
  86   6     0.00   0.00   0.04     0.01  -0.03  -0.14    -0.00   0.08  -0.06
  87   6     0.00   0.01   0.05     0.01  -0.03  -0.19     0.00   0.08  -0.07
  88   6     0.00   0.01   0.09     0.02  -0.03  -0.15     0.00   0.08  -0.05
  89   6     0.00   0.01   0.09     0.02  -0.03  -0.08     0.00   0.09  -0.02
  90   7     0.00   0.01   0.08     0.01  -0.03  -0.09    -0.00   0.09  -0.03
  91   6     0.00   0.01   0.11     0.02  -0.03  -0.00     0.00   0.09   0.02
  92   6     0.00   0.01   0.09     0.02  -0.03   0.07     0.00   0.09   0.04
  93   6     0.00   0.00   0.09     0.02  -0.03   0.15     0.00   0.09   0.06
  94   6     0.00  -0.00   0.05     0.01  -0.03   0.19     0.00   0.09   0.06
  95   6     0.00  -0.00   0.04     0.01  -0.03   0.15     0.00   0.09   0.04
  96   7     0.00   0.00   0.08     0.01  -0.03   0.09     0.00   0.10   0.03
  97   6     0.00  -0.00   0.02    -0.00  -0.03   0.16     0.00   0.09   0.04
  98   6    -0.00  -0.00   0.04    -0.01  -0.03   0.15    -0.00   0.09   0.04
  99   6    -0.00  -0.00   0.05    -0.01  -0.03   0.19    -0.00   0.09   0.06
 100   6    -0.00   0.00   0.08    -0.02  -0.03   0.15    -0.00   0.09   0.06
 101   6    -0.00   0.01   0.09    -0.02  -0.03   0.08    -0.00   0.09   0.04
 102   7    -0.00   0.00   0.07    -0.01  -0.03   0.09    -0.00   0.10   0.03
 103   6    -0.00   0.01   0.11    -0.02  -0.03  -0.00    -0.00   0.09   0.02
 104   6    -0.00   0.01   0.09    -0.02  -0.03  -0.08    -0.00   0.09  -0.01
 105   7    -0.00   0.01   0.08    -0.01  -0.03  -0.09     0.00   0.09  -0.03
 106   1    -0.00   0.00   0.03    -0.01  -0.01  -0.05    -0.00   0.02  -0.01
 107   1    -0.00   0.00   0.01    -0.01  -0.01  -0.07     0.00   0.02  -0.03
 108   1     0.00   0.00   0.01     0.00  -0.01  -0.07     0.00   0.02  -0.03
 109   1     0.00   0.00   0.03     0.01  -0.01  -0.05     0.00   0.02  -0.01
 110   1     0.00   0.00   0.04     0.01  -0.01  -0.00     0.00   0.03   0.01
 111   1     0.00   0.00   0.03     0.01  -0.01   0.05     0.00   0.03   0.02
 112   1     0.00  -0.00   0.01     0.00  -0.01   0.07     0.00   0.03   0.02
 113   1    -0.00  -0.00   0.01    -0.00  -0.01   0.07    -0.00   0.03   0.02
 114   1    -0.00   0.00   0.03    -0.01  -0.01   0.05    -0.00   0.03   0.02
 115   1    -0.00   0.00   0.04    -0.01  -0.01  -0.00    -0.00   0.03   0.01
                     10                     11                     12
                        a                      a                      a 
 Frequencies --    38.9819                40.1964                41.4744
 Red. masses --    12.1268                10.9722                10.9892
 Frc consts  --     0.0000                 0.0000                 0.0000
 IR Inten    --     0.4381                 6.1552                10.0622
 Raman Activ --     0.0000                 0.0000                 0.0000
 Depolar     --     0.0000                 0.0000                 0.0000
 Atom AN      X      Y      Z        X      Y      Z        X      Y      Z
   1  30     0.01  -0.08  -0.01     0.01  -0.01   0.00    -0.00   0.00   0.00
   2   6    -0.08  -0.09  -0.02    -0.00  -0.01   0.04    -0.00   0.00   0.05
   3   6    -0.05  -0.12  -0.01    -0.00  -0.01   0.05    -0.00   0.00   0.05
   4   6    -0.02  -0.10  -0.00    -0.00  -0.01   0.02    -0.00   0.00   0.02
   5   6     0.00  -0.11   0.01     0.00  -0.01  -0.00    -0.00   0.00  -0.00
   6   6     0.03  -0.10   0.01     0.00  -0.01  -0.02    -0.00   0.00  -0.02
   7   6     0.06  -0.11   0.01     0.01  -0.01  -0.04    -0.00   0.00  -0.05
   8   6     0.08  -0.09  -0.00     0.01  -0.01  -0.04    -0.00   0.00  -0.04
   9   6     0.07  -0.06  -0.01     0.01  -0.00  -0.02    -0.00   0.00  -0.02
  10   7     0.04  -0.07  -0.00     0.00  -0.01  -0.01    -0.00   0.00  -0.01
  11   6     0.08  -0.03  -0.02     0.01  -0.00   0.00    -0.00   0.00   0.00
  12   6     0.07  -0.00  -0.01     0.01  -0.00   0.02    -0.00   0.00   0.02
  13   6     0.08   0.03  -0.01     0.01   0.00   0.05    -0.00  -0.00   0.04
  14   6     0.06   0.05   0.00     0.01   0.00   0.05    -0.00  -0.00   0.04
  15   6     0.03   0.03   0.01     0.00   0.00   0.02    -0.00  -0.00   0.02
  16   7     0.04   0.00  -0.00     0.00   0.00   0.02    -0.00  -0.00   0.01
  17   6     0.00   0.05   0.02     0.00   0.00  -0.00    -0.00  -0.00  -0.00
  18   6    -0.03   0.03   0.01     0.00   0.00  -0.02    -0.00  -0.00  -0.02
  19   6    -0.06   0.05   0.02    -0.00   0.00  -0.05     0.00  -0.00  -0.04
  20   6    -0.08   0.02   0.01    -0.00   0.00  -0.05     0.00  -0.00  -0.04
  21   6    -0.06  -0.01  -0.00    -0.00  -0.00  -0.02    -0.00   0.00  -0.02
  22   7    -0.03  -0.00   0.00     0.00  -0.00  -0.02    -0.00   0.00  -0.01
  23   6    -0.08  -0.04  -0.02    -0.00  -0.00  -0.00    -0.00   0.00   0.00
  24   6    -0.06  -0.06  -0.02    -0.00  -0.00   0.02    -0.00   0.00   0.02
  25   7    -0.03  -0.07  -0.01    -0.00  -0.01   0.01    -0.00   0.00   0.01
  26   1    -0.03  -0.03  -0.01    -0.00  -0.00   0.02    -0.00   0.00   0.02
  27   1    -0.02  -0.04  -0.00    -0.00  -0.00   0.02    -0.00   0.00   0.02
  28   1     0.02  -0.04   0.00     0.00  -0.00  -0.02    -0.00   0.00  -0.02
  29   1     0.03  -0.03  -0.00     0.00  -0.00  -0.02    -0.00   0.00  -0.02
  30   1     0.03  -0.01  -0.01     0.00  -0.00   0.00    -0.00   0.00   0.00
  31   1     0.03   0.01  -0.01     0.00   0.00   0.02    -0.00  -0.00   0.02
  32   1     0.02   0.02   0.00     0.00   0.00   0.02    -0.00  -0.00   0.02
  33   1     0.00   0.02   0.01     0.00   0.00  -0.00    -0.00  -0.00  -0.00
  34   1    -0.02   0.02   0.01    -0.00   0.00  -0.02     0.00  -0.00  -0.02
  35   1    -0.03   0.01   0.00    -0.00   0.00  -0.02     0.00  -0.00  -0.02
  36   1    -0.03  -0.01  -0.01    -0.00  -0.00  -0.00     0.00   0.00   0.00
  37  30    -0.01   0.07  -0.01    -0.00   0.01   0.00     0.02  -0.00   0.00
  38   6     0.06   0.09  -0.03     0.00  -0.00   0.04    -0.00   0.05  -0.29
  39   6     0.04   0.10  -0.00     0.00   0.00   0.04    -0.00   0.05  -0.29
  40   6     0.02   0.08   0.01     0.00   0.00   0.02    -0.00   0.02  -0.14
  41   6    -0.00   0.09   0.04    -0.00   0.01   0.00    -0.00  -0.00  -0.00
  42   6    -0.02   0.08   0.02    -0.00   0.01  -0.02     0.00  -0.03   0.14
  43   6    -0.05   0.10   0.01    -0.01   0.02  -0.04     0.00  -0.06   0.29
  44   6    -0.07   0.08  -0.01    -0.01   0.01  -0.04     0.01  -0.06   0.29
  45   6    -0.06   0.06  -0.02    -0.01   0.01  -0.02     0.00  -0.03   0.14
  46   7    -0.03   0.06  -0.00    -0.00   0.01  -0.01     0.00  -0.02   0.08
  47   6    -0.07   0.04  -0.04    -0.01   0.00   0.00     0.00  -0.00  -0.00
  48   6    -0.06   0.01  -0.02    -0.01  -0.00   0.02     0.00   0.03  -0.14
  49   6    -0.07  -0.02  -0.02    -0.01  -0.01   0.04     0.00   0.05  -0.28
  50   6    -0.05  -0.04   0.01    -0.01  -0.01   0.04     0.00   0.05  -0.28
  51   6    -0.03  -0.03   0.02    -0.00  -0.01   0.02     0.00   0.03  -0.14
  52   7    -0.03   0.00  -0.00    -0.00  -0.00   0.01     0.00   0.02  -0.09
  53   6    -0.00  -0.05   0.04    -0.00  -0.00   0.00     0.00   0.00  -0.00
  54   6     0.02  -0.03   0.03     0.00   0.00  -0.02     0.00  -0.03   0.14
  55   6     0.05  -0.05   0.03     0.00   0.00  -0.04     0.00  -0.05   0.28
  56   6     0.07  -0.02   0.00     0.00   0.01  -0.04     0.00  -0.05   0.28
  57   6     0.05   0.01  -0.01     0.00   0.00  -0.02     0.00  -0.03   0.14
  58   7     0.03   0.00   0.00     0.00   0.00  -0.01     0.00  -0.02   0.09
  59   6     0.06   0.04  -0.04     0.00   0.00  -0.00     0.00  -0.00   0.00
  60   6     0.05   0.06  -0.03     0.00   0.00   0.02    -0.00   0.02  -0.14
  61   7     0.02   0.07  -0.01     0.00   0.00   0.01     0.00   0.01  -0.08
  62   1     0.02   0.03  -0.01     0.00  -0.00   0.01    -0.00   0.02  -0.11
  63   1     0.01   0.03   0.00     0.00  -0.00   0.02    -0.00   0.02  -0.11
  64   1    -0.02   0.03   0.01    -0.00   0.01  -0.02     0.00  -0.02   0.11
  65   1    -0.03   0.02  -0.01    -0.00   0.00  -0.02     0.00  -0.02   0.11
  66   1    -0.03   0.01  -0.02    -0.00   0.00   0.00     0.00  -0.00   0.00
  67   1    -0.03  -0.01  -0.01    -0.00  -0.00   0.02     0.00   0.02  -0.11
  68   1    -0.02  -0.02   0.01    -0.00  -0.00   0.02     0.00   0.02  -0.11
  69   1    -0.00  -0.02   0.02    -0.00  -0.00   0.00     0.00   0.00  -0.00
  70   1     0.01  -0.02   0.01     0.00   0.00  -0.02     0.00  -0.02   0.10
  71   1     0.03  -0.01  -0.00     0.00   0.00  -0.02     0.00  -0.02   0.11
  72   1     0.02   0.01  -0.01     0.00   0.00  -0.00    -0.00  -0.00  -0.00
  73   6     0.00  -0.11   0.02     0.00  -0.01  -0.00    -0.00   0.00  -0.00
  74   6     0.00  -0.00   0.03     0.00   0.00  -0.00    -0.00  -0.00  -0.00
  75   6     0.00   0.07   0.04     0.00   0.01  -0.00    -0.00  -0.00  -0.00
  76   6     0.00   0.17   0.04     0.00   0.01  -0.00    -0.00  -0.00  -0.00
  77   6    -0.00  -0.16   0.04    -0.00  -0.01   0.00    -0.00   0.00  -0.00
  78   6    -0.00  -0.08   0.06    -0.00  -0.01   0.00    -0.00   0.00  -0.00
  79   6    -0.00  -0.01   0.07    -0.00  -0.00   0.00    -0.00  -0.00  -0.00
  80   6    -0.00   0.09   0.06    -0.00   0.01   0.00    -0.00  -0.00  -0.00
  81  30     0.00   0.01  -0.02    -0.01  -0.00  -0.00    -0.00   0.00   0.00
  82   6    -0.14   0.11  -0.01    -0.01   0.04   0.29     0.00   0.00   0.03
  83   6    -0.10   0.15   0.01    -0.01   0.04   0.29     0.00   0.00   0.03
  84   6    -0.05   0.12   0.02    -0.00   0.02   0.14    -0.00   0.00   0.02
  85   6     0.00   0.15   0.03     0.00   0.01   0.00    -0.00  -0.00  -0.00
  86   6     0.05   0.12   0.03     0.00  -0.01  -0.14    -0.00  -0.00  -0.02
  87   6     0.10   0.15   0.05     0.01  -0.02  -0.29    -0.00  -0.01  -0.04
  88   6     0.14   0.11   0.03     0.01  -0.02  -0.29    -0.00  -0.01  -0.03
  89   6     0.11   0.06   0.00     0.01  -0.01  -0.14    -0.00  -0.00  -0.01
  90   7     0.06   0.07   0.01     0.00  -0.00  -0.08    -0.00  -0.00  -0.01
  91   6     0.14   0.00  -0.03     0.01   0.00  -0.00    -0.00   0.00   0.00
  92   6     0.11  -0.05  -0.04     0.01   0.01   0.14    -0.00   0.00   0.02
  93   6     0.14  -0.10  -0.06     0.01   0.02   0.29    -0.00   0.01   0.04
  94   6     0.10  -0.14  -0.04     0.01   0.02   0.29    -0.00   0.01   0.04
  95   6     0.05  -0.11  -0.02     0.00   0.01   0.13    -0.00   0.00   0.02
  96   7     0.06  -0.06  -0.02     0.00   0.00   0.08    -0.00   0.00   0.01
  97   6    -0.00  -0.13   0.01    -0.00  -0.01  -0.00    -0.00   0.00  -0.00
  98   6    -0.05  -0.11   0.00    -0.00  -0.02  -0.14    -0.00   0.00  -0.02
  99   6    -0.10  -0.13  -0.00    -0.01  -0.04  -0.29     0.00  -0.00  -0.04
 100   6    -0.14  -0.10  -0.02    -0.01  -0.04  -0.29     0.00  -0.00  -0.04
 101   6    -0.11  -0.05  -0.03    -0.01  -0.02  -0.14     0.00  -0.00  -0.02
 102   7    -0.06  -0.06  -0.01    -0.01  -0.01  -0.08     0.00   0.00  -0.01
 103   6    -0.13   0.00  -0.03    -0.01   0.00  -0.00     0.00   0.00  -0.00
 104   6    -0.11   0.06  -0.02    -0.01   0.02   0.14     0.00   0.00   0.02
 105   7    -0.06   0.07  -0.00    -0.00   0.01   0.08    -0.00   0.00   0.01
 106   1    -0.05   0.03  -0.01    -0.00   0.01   0.11     0.00   0.00   0.01
 107   1    -0.03   0.06   0.01    -0.00   0.02   0.11     0.00   0.00   0.01
 108   1     0.03   0.06   0.02     0.00  -0.01  -0.11    -0.00  -0.00  -0.01
 109   1     0.05   0.03   0.01     0.00  -0.01  -0.11    -0.00  -0.00  -0.01
 110   1     0.05   0.00  -0.01     0.00   0.00   0.00    -0.00   0.00   0.00
 111   1     0.05  -0.03  -0.02     0.00   0.01   0.11    -0.00   0.00   0.02
 112   1     0.03  -0.05  -0.01     0.00   0.01   0.11    -0.00   0.00   0.01
 113   1    -0.03  -0.05   0.00    -0.00  -0.02  -0.11     0.00  -0.00  -0.01
 114   1    -0.05  -0.03  -0.01    -0.00  -0.01  -0.11     0.00  -0.00  -0.01
 115   1    -0.05   0.00  -0.01    -0.00   0.00   0.00     0.00   0.00  -0.00
                     13                     14                     15
                        a                      a                      a 
 Frequencies --    41.7036                45.4716                50.8009
 Red. masses --    10.9733                11.7423                21.5651
 Frc consts  --     0.0000                 0.0000                 0.0000
 IR Inten    --     0.0532                 1.9308                 0.0195
 Raman Activ --     0.0000                 0.0000                 0.0000
 Depolar     --     0.0000                 0.0000                 0.0000
 Atom AN      X      Y      Z        X      Y      Z        X      Y      Z
   1  30     0.00  -0.00  -0.00     0.01   0.00  -0.04     0.30   0.00   0.00
   2   6    -0.00   0.00   0.30     0.01  -0.00  -0.10     0.12  -0.01  -0.00
   3   6    -0.00  -0.00   0.30     0.01   0.00   0.00     0.11   0.00  -0.00
   4   6    -0.00  -0.00   0.14     0.00   0.00   0.04     0.10  -0.01  -0.00
   5   6     0.00  -0.00  -0.00     0.00   0.00   0.10     0.09  -0.00  -0.00
   6   6     0.00  -0.00  -0.14     0.00   0.00   0.04     0.10   0.01  -0.00
   7   6     0.00  -0.01  -0.30     0.00   0.00  -0.00     0.12  -0.00   0.00
   8   6     0.00  -0.01  -0.29     0.00   0.00  -0.11     0.12   0.01   0.00
   9   6     0.00  -0.00  -0.14     0.00   0.00  -0.11     0.12   0.02   0.00
  10   7     0.00  -0.00  -0.08     0.00   0.00  -0.03     0.11   0.02   0.00
  11   6     0.00  -0.00   0.00     0.00   0.00  -0.15     0.12   0.02   0.00
  12   6     0.00   0.00   0.14     0.00  -0.00  -0.07     0.13   0.01   0.00
  13   6     0.00   0.00   0.29     0.00  -0.00  -0.03     0.12   0.00  -0.00
  14   6     0.00   0.00   0.28     0.00  -0.00   0.08     0.13  -0.00  -0.00
  15   6     0.00   0.00   0.14     0.00  -0.00   0.09     0.13   0.00  -0.00
  16   7     0.00   0.00   0.09     0.01   0.00  -0.00     0.14   0.01  -0.00
  17   6     0.00   0.00  -0.00     0.00  -0.00   0.15     0.14   0.00  -0.00
  18   6     0.00   0.00  -0.14     0.00  -0.00   0.08     0.13   0.00   0.00
  19   6     0.00   0.00  -0.29     0.00  -0.00   0.07     0.13   0.00   0.00
  20   6     0.00   0.00  -0.29     0.01  -0.00  -0.04     0.12  -0.00   0.00
  21   6     0.00  -0.00  -0.14     0.01  -0.00  -0.08     0.12  -0.01   0.00
  22   7     0.00   0.00  -0.09     0.01  -0.00  -0.00     0.14  -0.01   0.00
  23   6    -0.00  -0.00   0.00     0.01  -0.00  -0.15     0.12  -0.02   0.00
  24   6    -0.00  -0.00   0.14     0.01  -0.00  -0.11     0.12  -0.02   0.00
  25   7    -0.00  -0.00   0.08     0.01   0.00  -0.03     0.11  -0.02  -0.00
  26   1    -0.00   0.00   0.11     0.00  -0.00  -0.05     0.04  -0.00  -0.00
  27   1    -0.00   0.00   0.11     0.00   0.00   0.01     0.03   0.00  -0.00
  28   1     0.00  -0.00  -0.11     0.00   0.00   0.01     0.03  -0.00   0.00
  29   1     0.00  -0.00  -0.11     0.00   0.00  -0.05     0.04   0.00   0.00
  30   1     0.00  -0.00  -0.00     0.00  -0.00  -0.06     0.03   0.01   0.00
  31   1     0.00   0.00   0.11     0.00  -0.00  -0.02     0.03   0.00  -0.00
  32   1     0.00   0.00   0.11     0.00  -0.00   0.04     0.04  -0.00  -0.00
  33   1     0.00   0.00  -0.00     0.00  -0.00   0.06     0.04   0.00  -0.00
  34   1     0.00   0.00  -0.11     0.00   0.00   0.04     0.04   0.00   0.00
  35   1     0.00   0.00  -0.11     0.00  -0.00  -0.03     0.03  -0.00   0.00
  36   1    -0.00  -0.00   0.00     0.00  -0.00  -0.06     0.03  -0.01   0.00
  37  30    -0.00   0.00   0.00    -0.01  -0.03  -0.04    -0.30  -0.00   0.00
  38   6     0.00  -0.01   0.04    -0.03  -0.02  -0.10    -0.12   0.01  -0.00
  39   6     0.00  -0.01   0.04    -0.02  -0.04  -0.01    -0.11   0.00  -0.01
  40   6    -0.00  -0.00   0.02    -0.01  -0.04   0.03    -0.10   0.01  -0.00
  41   6    -0.00   0.00   0.00    -0.00  -0.06   0.08    -0.09   0.00  -0.00
  42   6    -0.00   0.01  -0.02     0.01  -0.04   0.03    -0.10  -0.00   0.00
  43   6    -0.00   0.01  -0.04     0.02  -0.04  -0.01    -0.12   0.00   0.00
  44   6    -0.00   0.01  -0.04     0.02  -0.02  -0.10    -0.13  -0.01   0.01
  45   6    -0.00   0.00  -0.02     0.02  -0.01  -0.10    -0.12  -0.02   0.00
  46   7    -0.00   0.00  -0.01     0.01  -0.02  -0.03    -0.11  -0.02  -0.00
  47   6    -0.00   0.00  -0.00     0.02   0.01  -0.13    -0.12  -0.02  -0.00
  48   6    -0.00  -0.00   0.02     0.02   0.01  -0.07    -0.13  -0.01  -0.00
  49   6    -0.00  -0.01   0.04     0.03   0.02  -0.03    -0.12  -0.00  -0.00
  50   6    -0.00  -0.01   0.04     0.02   0.01   0.07    -0.13   0.00  -0.01
  51   6    -0.00  -0.00   0.02     0.01  -0.00   0.08    -0.13  -0.00  -0.00
  52   7    -0.00  -0.00   0.01     0.01   0.00  -0.00    -0.14  -0.01  -0.00
  53   6    -0.00  -0.00  -0.00    -0.00  -0.01   0.13    -0.14  -0.00  -0.00
  54   6    -0.00   0.00  -0.02    -0.01  -0.00   0.08    -0.13  -0.00   0.00
  55   6    -0.00   0.01  -0.04    -0.03   0.01   0.07    -0.13  -0.00   0.00
  56   6     0.00   0.01  -0.04    -0.03   0.02  -0.03    -0.12  -0.00   0.01
  57   6    -0.00   0.00  -0.02    -0.03   0.01  -0.07    -0.12   0.01   0.01
  58   7    -0.00   0.00  -0.01    -0.02   0.00  -0.00    -0.14   0.01   0.00
  59   6     0.00   0.00   0.00    -0.03   0.01  -0.13    -0.12   0.02   0.01
  60   6     0.00  -0.00   0.02    -0.03  -0.00  -0.10    -0.12   0.02   0.00
  61   7    -0.00  -0.00   0.01    -0.02  -0.02  -0.03    -0.11   0.02   0.00
  62   1     0.00  -0.00   0.01    -0.01  -0.00  -0.04    -0.04   0.00  -0.00
  63   1     0.00  -0.00   0.01    -0.01  -0.02   0.01    -0.03  -0.00  -0.00
  64   1    -0.00   0.00  -0.01     0.01  -0.02   0.01    -0.03   0.00   0.00
  65   1    -0.00   0.00  -0.01     0.01  -0.00  -0.04    -0.04  -0.00   0.00
  66   1    -0.00   0.00  -0.00     0.01   0.01  -0.05    -0.03  -0.01   0.00
  67   1    -0.00  -0.00   0.01     0.01   0.01  -0.02    -0.03  -0.00  -0.00
  68   1    -0.00  -0.00   0.01     0.01   0.00   0.04    -0.04   0.00  -0.00
  69   1    -0.00  -0.00  -0.00    -0.00  -0.00   0.06    -0.04  -0.00  -0.00
  70   1    -0.00   0.00  -0.01    -0.01   0.00   0.04    -0.04  -0.00   0.00
  71   1     0.00   0.00  -0.01    -0.01   0.01  -0.02    -0.03  -0.00   0.00
  72   1     0.00   0.00   0.00    -0.01   0.01  -0.05    -0.03   0.00   0.00
  73   6     0.00  -0.00  -0.00     0.00   0.00   0.19     0.08  -0.00  -0.01
  74   6     0.00  -0.00  -0.00     0.00   0.00   0.25     0.08  -0.00  -0.01
  75   6    -0.00   0.00  -0.00     0.00   0.00   0.26     0.07  -0.00  -0.01
  76   6    -0.00   0.00  -0.00     0.00  -0.00   0.21     0.06  -0.01  -0.01
  77   6    -0.00  -0.00  -0.00    -0.00   0.06   0.21    -0.06   0.00  -0.01
  78   6    -0.00  -0.00  -0.00    -0.00   0.01   0.24    -0.07   0.00  -0.01
  79   6    -0.00  -0.00  -0.00    -0.00  -0.02   0.23    -0.08   0.00  -0.01
  80   6    -0.00   0.00   0.00    -0.00  -0.07   0.16    -0.08   0.00  -0.01
  81  30     0.00   0.00   0.00    -0.00   0.03  -0.04     0.00  -0.00   0.00
  82   6    -0.00  -0.00  -0.05     0.03  -0.02  -0.10     0.00  -0.01   0.00
  83   6    -0.00  -0.00  -0.05     0.02  -0.01   0.01     0.02  -0.00  -0.01
  84   6    -0.00   0.00  -0.02     0.01  -0.00   0.05     0.04  -0.01  -0.01
  85   6    -0.00   0.00   0.00     0.00  -0.00   0.12     0.06  -0.01  -0.01
  86   6     0.00   0.01   0.02    -0.01  -0.00   0.05     0.03   0.00  -0.00
  87   6     0.00   0.01   0.05    -0.02  -0.01   0.01     0.01  -0.01   0.00
  88   6     0.00   0.01   0.06    -0.03  -0.02  -0.11    -0.01   0.01   0.01
  89   6     0.00   0.00   0.03    -0.02  -0.01  -0.12     0.00   0.03   0.01
  90   7     0.00   0.00   0.02    -0.01  -0.00  -0.03     0.03   0.02  -0.00
  91   6     0.00   0.00   0.00    -0.03  -0.01  -0.17    -0.00   0.04   0.01
  92   6     0.00  -0.00  -0.02    -0.02   0.01  -0.10    -0.01   0.03   0.00
  93   6     0.00  -0.01  -0.05    -0.03   0.03  -0.08    -0.00   0.01   0.00
  94   6     0.00  -0.01  -0.05    -0.02   0.05   0.04    -0.02  -0.00  -0.00
  95   6     0.00  -0.01  -0.02    -0.01   0.04   0.07    -0.04   0.01  -0.01
  96   7     0.00  -0.00  -0.01    -0.01   0.03  -0.01    -0.03   0.03  -0.00
  97   6    -0.00  -0.00  -0.00    -0.00   0.06   0.13    -0.06   0.00  -0.01
  98   6    -0.00  -0.00   0.02     0.01   0.04   0.07    -0.03  -0.00  -0.00
  99   6    -0.00   0.00   0.05     0.02   0.05   0.03    -0.01   0.01   0.00
 100   6    -0.00   0.00   0.05     0.03   0.02  -0.08     0.01  -0.01   0.01
 101   6    -0.00   0.00   0.02     0.02   0.01  -0.10    -0.00  -0.03   0.01
 102   7    -0.00   0.00   0.01     0.01   0.03  -0.01    -0.03  -0.02   0.01
 103   6    -0.00  -0.00  -0.00     0.03  -0.01  -0.17     0.00  -0.04   0.02
 104   6    -0.00  -0.00  -0.02     0.02  -0.01  -0.11     0.01  -0.03   0.01
 105   7    -0.00   0.00  -0.01     0.01  -0.00  -0.02     0.03  -0.03   0.00
 106   1    -0.00  -0.00  -0.02     0.01  -0.01  -0.05    -0.00  -0.00   0.00
 107   1    -0.00  -0.00  -0.02     0.01  -0.00   0.02     0.00   0.00  -0.00
 108   1     0.00   0.00   0.02    -0.01  -0.01   0.01     0.00  -0.01   0.00
 109   1     0.00   0.00   0.02    -0.01  -0.01  -0.05    -0.01   0.00   0.00
 110   1     0.00   0.00   0.00    -0.01  -0.00  -0.07    -0.00   0.01   0.00
 111   1     0.00  -0.00  -0.02    -0.01   0.01  -0.04     0.00   0.00   0.00
 112   1     0.00  -0.00  -0.02    -0.01   0.02   0.03    -0.00  -0.00  -0.00
 113   1    -0.00   0.00   0.02     0.01   0.02   0.02    -0.00   0.01  -0.00
 114   1    -0.00   0.00   0.02     0.01   0.01  -0.04     0.01  -0.00   0.01
 115   1    -0.00  -0.00  -0.00     0.01  -0.00  -0.07     0.00  -0.01   0.01
                     16                     17                     18
                        a                      a                      a 
 Frequencies --    57.2224                67.7391                73.0066
 Red. masses --    11.3955                23.1912                39.1196
 Frc consts  --     0.0000                 0.0000                 0.0000
 IR Inten    --    34.1929                68.5892                 2.0493
 Raman Activ --     0.0000                 0.0000                 0.0000
 Depolar     --     0.0000                 0.0000                 0.0000
 Atom AN      X      Y      Z        X      Y      Z        X      Y      Z
   1  30    -0.00   0.01  -0.04    -0.01   0.00   0.22     0.00  -0.00  -0.49
   2   6     0.00   0.01   0.09     0.00   0.00  -0.08    -0.00   0.00   0.13
   3   6     0.00   0.01  -0.05    -0.00   0.00   0.02    -0.00   0.00   0.12
   4   6     0.00   0.01  -0.10    -0.00   0.00   0.09    -0.00  -0.00  -0.01
   5   6     0.00   0.01  -0.17    -0.00   0.00   0.12     0.00  -0.00  -0.00
   6   6    -0.00   0.01  -0.10    -0.00   0.00   0.09     0.00  -0.00  -0.01
   7   6    -0.00   0.01  -0.05    -0.00   0.00   0.02     0.00   0.00   0.12
   8   6    -0.01   0.01   0.09    -0.00   0.00  -0.08     0.00   0.00   0.13
   9   6    -0.01   0.00   0.10    -0.00   0.00  -0.06     0.00  -0.00   0.01
  10   7    -0.00   0.00  -0.01    -0.00   0.00   0.06     0.00  -0.00  -0.08
  11   6    -0.01   0.00   0.18    -0.00  -0.00  -0.14     0.00  -0.00   0.04
  12   6    -0.01   0.00   0.11    -0.00  -0.00  -0.09     0.00  -0.00   0.02
  13   6    -0.01  -0.00   0.09    -0.00  -0.00  -0.14     0.00   0.00   0.15
  14   6    -0.00  -0.00  -0.05    -0.00  -0.00  -0.03     0.00   0.00   0.14
  15   6    -0.00  -0.00  -0.09    -0.00  -0.00   0.06     0.00  -0.00   0.00
  16   7    -0.00   0.00  -0.00    -0.00   0.00   0.03     0.00  -0.00  -0.08
  17   6     0.00  -0.00  -0.16    -0.00  -0.00   0.11    -0.00   0.00   0.01
  18   6     0.00  -0.00  -0.09    -0.00  -0.00   0.06    -0.00  -0.00   0.00
  19   6     0.00  -0.00  -0.04    -0.00  -0.00  -0.03    -0.00   0.00   0.14
  20   6     0.00  -0.00   0.10     0.00  -0.00  -0.14    -0.00   0.00   0.15
  21   6     0.00   0.00   0.11     0.00   0.00  -0.09    -0.00  -0.00   0.02
  22   7     0.00   0.00  -0.00    -0.00   0.00   0.03    -0.00  -0.00  -0.08
  23   6     0.00   0.00   0.18     0.00   0.00  -0.14    -0.00   0.00   0.04
  24   6     0.00   0.01   0.10     0.00   0.00  -0.06    -0.00   0.00   0.01
  25   7     0.00   0.01  -0.01    -0.00   0.00   0.06    -0.00  -0.00  -0.08
  26   1     0.00   0.00   0.05     0.00   0.00  -0.05    -0.00   0.00   0.06
  27   1     0.00   0.00  -0.03    -0.00   0.00   0.01    -0.00   0.00   0.06
  28   1    -0.00   0.00  -0.03    -0.00   0.00   0.01    -0.00   0.00   0.06
  29   1    -0.00   0.00   0.05    -0.00   0.00  -0.05     0.00   0.00   0.06
  30   1    -0.00   0.00   0.08    -0.00  -0.00  -0.07     0.00   0.00   0.04
  31   1    -0.00  -0.00   0.05    -0.00  -0.00  -0.07    -0.00   0.00   0.07
  32   1    -0.00  -0.00  -0.03    -0.00  -0.00  -0.01    -0.00   0.00   0.06
  33   1     0.00  -0.00  -0.07    -0.00  -0.00   0.04    -0.00   0.00   0.02
  34   1     0.00  -0.00  -0.03    -0.00  -0.00  -0.01    -0.00   0.00   0.06
  35   1     0.00  -0.00   0.05     0.00  -0.00  -0.07    -0.00   0.00   0.07
  36   1     0.00   0.00   0.08     0.00   0.00  -0.07    -0.00   0.00   0.04
  37  30    -0.00  -0.03   0.04     0.01  -0.04   0.21    -0.00   0.05  -0.27
  38   6    -0.01   0.01  -0.09     0.00   0.02  -0.07    -0.00  -0.02   0.07
  39   6    -0.01  -0.02   0.05     0.00   0.00   0.02     0.00  -0.01   0.06
  40   6    -0.00  -0.03   0.10     0.00  -0.01   0.09    -0.00  -0.00  -0.01
  41   6     0.00  -0.04   0.17     0.00  -0.02   0.12     0.00  -0.00  -0.00
  42   6     0.00  -0.03   0.10     0.00  -0.01   0.09     0.00  -0.00  -0.01
  43   6     0.00  -0.02   0.05    -0.00   0.00   0.02     0.00  -0.01   0.06
  44   6     0.01   0.01  -0.09    -0.00   0.02  -0.08     0.00  -0.02   0.07
  45   6     0.00   0.01  -0.11    -0.00   0.01  -0.05     0.00  -0.00   0.01
  46   7     0.00  -0.01   0.01    -0.00  -0.01   0.05     0.00   0.01  -0.05
  47   6     0.01   0.03  -0.19    -0.00   0.03  -0.13     0.00  -0.01   0.02
  48   6     0.00   0.02  -0.11    -0.00   0.02  -0.08     0.00  -0.00   0.01
  49   6     0.01   0.02  -0.10    -0.00   0.02  -0.13     0.00  -0.02   0.08
  50   6     0.00  -0.00   0.05    -0.00   0.00  -0.03     0.00  -0.01   0.07
  51   6     0.00  -0.01   0.10     0.00  -0.01   0.06     0.00   0.00  -0.00
  52   7     0.00  -0.00   0.00     0.00  -0.00   0.03     0.00   0.01  -0.04
  53   6    -0.00  -0.03   0.17     0.00  -0.02   0.11     0.00   0.00   0.00
  54   6    -0.00  -0.01   0.10     0.00  -0.01   0.06    -0.00   0.00  -0.00
  55   6    -0.01  -0.00   0.05     0.00   0.00  -0.03     0.00  -0.01   0.07
  56   6    -0.01   0.02  -0.10     0.00   0.02  -0.13    -0.00  -0.02   0.08
  57   6    -0.01   0.02  -0.11     0.00   0.02  -0.09    -0.00  -0.00   0.01
  58   7    -0.01   0.00   0.00     0.00  -0.00   0.03    -0.00   0.01  -0.04
  59   6    -0.01   0.03  -0.19     0.00   0.03  -0.13    -0.00  -0.01   0.02
  60   6    -0.01   0.01  -0.11     0.00   0.01  -0.05    -0.00  -0.00   0.01
  61   7    -0.00  -0.01   0.01     0.00  -0.01   0.05    -0.00   0.01  -0.05
  62   1    -0.00   0.01  -0.05     0.00   0.01  -0.04     0.00  -0.01   0.03
  63   1    -0.00  -0.01   0.03     0.00   0.00   0.01     0.00  -0.01   0.03
  64   1     0.00  -0.01   0.03    -0.00   0.00   0.01     0.00  -0.01   0.03
  65   1     0.00   0.01  -0.05    -0.00   0.01  -0.04     0.00  -0.01   0.03
  66   1     0.00   0.01  -0.08    -0.00   0.01  -0.07     0.00  -0.00   0.02
  67   1     0.00   0.01  -0.05    -0.00   0.01  -0.07     0.00  -0.01   0.04
  68   1     0.00  -0.00   0.03    -0.00   0.00  -0.01     0.00  -0.01   0.03
  69   1     0.00  -0.01   0.07     0.00  -0.01   0.04     0.00  -0.00   0.01
  70   1    -0.00  -0.00   0.03     0.00   0.00  -0.01     0.00  -0.01   0.03
  71   1    -0.00   0.01  -0.05     0.00   0.01  -0.07    -0.00  -0.01   0.04
  72   1    -0.00   0.02  -0.08     0.00   0.01  -0.07    -0.00  -0.00   0.02
  73   6     0.00   0.00  -0.22    -0.00   0.00   0.09    -0.00  -0.00   0.05
  74   6     0.00  -0.01  -0.20    -0.00  -0.01   0.02    -0.00   0.00   0.08
  75   6     0.00  -0.02  -0.14    -0.00  -0.01  -0.06    -0.00   0.00   0.07
  76   6     0.00  -0.02  -0.03    -0.00  -0.02  -0.12    -0.00   0.00   0.04
  77   6     0.00   0.03   0.04     0.00  -0.01  -0.12    -0.00   0.00   0.03
  78   6     0.00  -0.00   0.16     0.00  -0.02  -0.06    -0.00  -0.00   0.04
  79   6     0.00  -0.03   0.22     0.00  -0.02   0.01    -0.00  -0.00   0.04
  80   6     0.00  -0.05   0.23     0.00  -0.01   0.09     0.00  -0.01   0.03
  81  30     0.01   0.01   0.00     0.00  -0.04  -0.36    -0.00  -0.05  -0.46
  82   6     0.02   0.00   0.11     0.00   0.02   0.16     0.00   0.01   0.12
  83   6     0.02  -0.01   0.11     0.00   0.00   0.04     0.00   0.01   0.10
  84   6     0.01  -0.01   0.07     0.00  -0.01  -0.09     0.00  -0.00  -0.02
  85   6     0.00  -0.01   0.04    -0.00  -0.02  -0.14    -0.00  -0.00  -0.01
  86   6    -0.00  -0.01   0.07    -0.00  -0.01  -0.09    -0.00  -0.00  -0.02
  87   6    -0.01  -0.00   0.11    -0.00   0.00   0.04    -0.00   0.01   0.10
  88   6    -0.02   0.00   0.11    -0.00   0.02   0.16    -0.00   0.02   0.12
  89   6    -0.01   0.00   0.06    -0.00   0.01   0.09    -0.00   0.00   0.01
  90   7    -0.01  -0.00   0.05    -0.00  -0.01  -0.07    -0.00  -0.01  -0.08
  91   6    -0.02   0.00  -0.01    -0.00   0.02   0.17    -0.00   0.01   0.05
  92   6    -0.01   0.00  -0.06    -0.00   0.01   0.09    -0.00   0.00   0.02
  93   6    -0.02   0.01  -0.12    -0.00   0.02   0.16    -0.00   0.02   0.14
  94   6    -0.01   0.01  -0.11    -0.00   0.01   0.04    -0.00   0.01   0.12
  95   6    -0.00   0.01  -0.06     0.00  -0.01  -0.09    -0.00   0.00  -0.01
  96   7    -0.01   0.01  -0.05     0.00  -0.01  -0.07    -0.00  -0.01  -0.08
  97   6     0.00   0.02  -0.03     0.00  -0.01  -0.14     0.00  -0.00  -0.02
  98   6     0.01   0.01  -0.06     0.00  -0.01  -0.09     0.00   0.00  -0.01
  99   6     0.02   0.01  -0.11     0.00   0.01   0.04     0.00   0.01   0.12
 100   6     0.02   0.01  -0.12     0.00   0.02   0.16     0.00   0.02   0.14
 101   6     0.02   0.00  -0.06     0.00   0.01   0.09     0.00   0.00   0.02
 102   7     0.01   0.01  -0.05     0.00  -0.00  -0.07     0.00  -0.01  -0.07
 103   6     0.02   0.00  -0.01     0.00   0.02   0.17     0.00   0.01   0.05
 104   6     0.02   0.00   0.06     0.00   0.01   0.09     0.00   0.00   0.01
 105   7     0.01  -0.00   0.05     0.00  -0.01  -0.07    -0.00  -0.01  -0.08
 106   1     0.01   0.00   0.04     0.00   0.01   0.08     0.00   0.01   0.06
 107   1     0.01  -0.00   0.04     0.00   0.00   0.01     0.00   0.01   0.05
 108   1    -0.00  -0.00   0.04    -0.00   0.00   0.01    -0.00   0.01   0.05
 109   1    -0.01   0.00   0.04    -0.00   0.01   0.08    -0.00   0.01   0.06
 110   1    -0.01   0.00  -0.00    -0.00   0.01   0.09    -0.00   0.00   0.04
 111   1    -0.01   0.00  -0.04    -0.00   0.01   0.08    -0.00   0.01   0.07
 112   1    -0.00   0.00  -0.04    -0.00   0.00   0.01    -0.00   0.01   0.05
 113   1     0.00   0.00  -0.04     0.00   0.00   0.01     0.00   0.01   0.05
 114   1     0.01   0.00  -0.04     0.00   0.01   0.08     0.00   0.01   0.07
 115   1     0.01   0.00  -0.00     0.00   0.01   0.09     0.00   0.00   0.04
                     19                     20                     21
                        a                      a                      a 
 Frequencies --    73.2270                79.0042                94.4637
 Red. masses --    38.0803                26.1436                11.4612
 Frc consts  --     0.0000                 0.0000                 0.0000
 IR Inten    --     6.8245                 8.4806                11.3736
 Raman Activ --     0.0000                 0.0000                 0.0000
 Depolar     --     0.0000                 0.0000                 0.0000
 Atom AN      X      Y      Z        X      Y      Z        X      Y      Z
   1  30    -0.00   0.00   0.40     0.00  -0.00   0.24    -0.00  -0.00   0.06
   2   6     0.00  -0.00  -0.11     0.00  -0.00  -0.08    -0.00  -0.00  -0.10
   3   6     0.00   0.00  -0.10     0.00  -0.00  -0.16    -0.00  -0.01  -0.16
   4   6     0.00   0.00  -0.00     0.00  -0.00  -0.09     0.00  -0.00  -0.08
   5   6    -0.00   0.00  -0.01     0.00  -0.00  -0.10     0.00  -0.00  -0.05
   6   6    -0.00   0.00  -0.00     0.00  -0.00  -0.09     0.00  -0.00  -0.08
   7   6    -0.00   0.00  -0.10     0.00  -0.00  -0.16     0.00  -0.00  -0.16
   8   6    -0.00   0.00  -0.11     0.00  -0.00  -0.08     0.00  -0.00  -0.10
   9   6    -0.00   0.00  -0.01     0.00  -0.00   0.03     0.00  -0.00   0.00
  10   7    -0.00   0.00   0.07     0.00  -0.00   0.02     0.00  -0.00  -0.01
  11   6    -0.00   0.00  -0.02     0.00  -0.00   0.10     0.00  -0.00   0.11
  12   6    -0.00   0.00  -0.01     0.00   0.00   0.08     0.00  -0.00   0.11
  13   6    -0.00  -0.00  -0.12     0.00   0.00   0.01     0.00   0.00   0.11
  14   6    -0.00  -0.00  -0.11     0.00   0.00  -0.09     0.00   0.00  -0.04
  15   6    -0.00  -0.00  -0.01     0.00   0.00  -0.07    -0.00   0.00  -0.09
  16   7    -0.00   0.00   0.07     0.00   0.00   0.05    -0.00  -0.00   0.01
  17   6    -0.00  -0.00  -0.02     0.00   0.00  -0.13    -0.00   0.00  -0.17
  18   6     0.00  -0.00  -0.01     0.00   0.00  -0.07    -0.00   0.00  -0.09
  19   6     0.00  -0.00  -0.12     0.00   0.00  -0.09    -0.00   0.00  -0.04
  20   6     0.00  -0.00  -0.12    -0.00   0.00   0.01    -0.01   0.00   0.11
  21   6     0.00   0.00  -0.01    -0.00   0.00   0.08    -0.00   0.00   0.11
  22   7    -0.00   0.00   0.07     0.00   0.00   0.05    -0.00   0.00   0.01
  23   6     0.00   0.00  -0.02    -0.00  -0.00   0.10    -0.01   0.00   0.11
  24   6     0.00   0.00  -0.01    -0.00  -0.00   0.03    -0.00  -0.00   0.01
  25   7    -0.00   0.00   0.07     0.00  -0.00   0.02    -0.00  -0.00  -0.01
  26   1     0.00  -0.00  -0.05     0.00  -0.00  -0.03    -0.00  -0.00  -0.04
  27   1     0.00  -0.00  -0.05     0.00  -0.00  -0.08     0.00  -0.00  -0.07
  28   1    -0.00   0.00  -0.05     0.00  -0.00  -0.07     0.00  -0.00  -0.07
  29   1    -0.00  -0.00  -0.05     0.00  -0.00  -0.03     0.00  -0.00  -0.04
  30   1    -0.00  -0.00  -0.03     0.00   0.00   0.03     0.00  -0.00   0.05
  31   1    -0.00  -0.00  -0.06     0.00   0.00   0.01     0.00   0.00   0.06
  32   1    -0.00  -0.00  -0.05     0.00   0.00  -0.05     0.00   0.00  -0.03
  33   1     0.00  -0.00  -0.02     0.00   0.00  -0.07    -0.00   0.00  -0.08
  34   1     0.00  -0.00  -0.05     0.00   0.00  -0.05    -0.00   0.00  -0.03
  35   1     0.00  -0.00  -0.06    -0.00   0.00   0.01    -0.00   0.00   0.05
  36   1     0.00   0.00  -0.03    -0.00  -0.00   0.03    -0.00   0.00   0.05
  37  30    -0.00   0.11  -0.56     0.00  -0.05   0.24    -0.00   0.02  -0.06
  38   6    -0.00  -0.03   0.15    -0.01   0.01  -0.08     0.01  -0.01   0.10
  39   6    -0.00  -0.03   0.14    -0.00   0.02  -0.16     0.00  -0.02   0.15
  40   6    -0.00  -0.00  -0.00    -0.00   0.01  -0.08     0.00  -0.01   0.08
  41   6    -0.00  -0.00   0.01    -0.00   0.01  -0.10     0.00   0.00   0.05
  42   6     0.00  -0.00  -0.00     0.00   0.01  -0.08    -0.00  -0.01   0.08
  43   6     0.00  -0.03   0.14     0.00   0.02  -0.16    -0.00  -0.02   0.15
  44   6     0.00  -0.03   0.15     0.00   0.01  -0.08    -0.01  -0.01   0.10
  45   6     0.00  -0.00   0.01     0.00  -0.01   0.03    -0.01   0.01  -0.00
  46   7     0.00   0.01  -0.10     0.00  -0.01   0.02    -0.00   0.00   0.01
  47   6     0.00  -0.01   0.04     0.01  -0.02   0.09    -0.01   0.02  -0.11
  48   6     0.00  -0.00   0.02     0.00  -0.02   0.08    -0.01   0.02  -0.10
  49   6     0.00  -0.03   0.17     0.01  -0.00   0.01    -0.01   0.02  -0.10
  50   6     0.00  -0.03   0.16     0.00   0.02  -0.09    -0.01  -0.01   0.03
  51   6     0.00  -0.00   0.01     0.00   0.01  -0.06    -0.00  -0.02   0.08
  52   7    -0.00   0.02  -0.09     0.00  -0.01   0.04    -0.00   0.00  -0.01
  53   6    -0.00  -0.00   0.02    -0.00   0.03  -0.13    -0.00  -0.03   0.17
  54   6    -0.00  -0.00   0.01    -0.00   0.01  -0.06     0.00  -0.02   0.08
  55   6    -0.00  -0.03   0.16    -0.01   0.02  -0.09     0.00  -0.01   0.03
  56   6    -0.00  -0.03   0.17    -0.01  -0.00   0.01     0.01   0.02  -0.10
  57   6    -0.00  -0.00   0.02    -0.00  -0.02   0.08     0.00   0.02  -0.10
  58   7    -0.00   0.02  -0.09    -0.00  -0.01   0.04     0.00   0.00  -0.01
  59   6    -0.00  -0.01   0.04    -0.00  -0.02   0.09     0.00   0.03  -0.11
  60   6    -0.00  -0.00   0.01    -0.00  -0.01   0.03     0.00   0.01  -0.00
  61   7    -0.00   0.01  -0.10    -0.00  -0.01   0.02     0.00   0.01   0.01
  62   1    -0.00  -0.02   0.07    -0.00   0.00  -0.03     0.00  -0.00   0.04
  63   1     0.00  -0.01   0.07    -0.00   0.01  -0.07     0.00  -0.01   0.07
  64   1     0.00  -0.01   0.07     0.00   0.01  -0.07    -0.00  -0.01   0.07
  65   1     0.00  -0.01   0.07     0.00   0.00  -0.03    -0.00  -0.00   0.04
  66   1     0.00  -0.01   0.04     0.00  -0.01   0.03    -0.00   0.01  -0.05
  67   1     0.00  -0.01   0.08     0.00  -0.00   0.01    -0.00   0.01  -0.05
  68   1     0.00  -0.01   0.08     0.00   0.01  -0.05    -0.00  -0.01   0.03
  69   1     0.00  -0.01   0.03    -0.00   0.01  -0.06     0.00  -0.02   0.07
  70   1     0.00  -0.01   0.08    -0.00   0.01  -0.05     0.00  -0.01   0.03
  71   1    -0.00  -0.01   0.08    -0.00  -0.00   0.01     0.00   0.01  -0.05
  72   1    -0.00  -0.01   0.04    -0.00  -0.01   0.03     0.00   0.01  -0.05
  73   6     0.00   0.00  -0.05     0.00  -0.00  -0.09     0.00   0.00   0.05
  74   6     0.00  -0.00  -0.07     0.00   0.01   0.02     0.00   0.02   0.22
  75   6     0.00  -0.01  -0.06     0.00   0.02   0.10     0.00   0.03   0.27
  76   6     0.00  -0.01  -0.03     0.00   0.02   0.16     0.00   0.03   0.19
  77   6     0.00   0.01   0.05    -0.00   0.02   0.16     0.00  -0.02  -0.20
  78   6    -0.00  -0.00   0.09    -0.00   0.02   0.10     0.00  -0.01  -0.27
  79   6    -0.00  -0.01   0.10    -0.00   0.02   0.02     0.00  -0.00  -0.22
  80   6    -0.00  -0.02   0.07    -0.00   0.01  -0.09     0.00   0.01  -0.05
  81  30     0.00  -0.01  -0.10    -0.00  -0.05  -0.40     0.01  -0.00   0.00
  82   6     0.01   0.01   0.07    -0.00   0.01   0.07    -0.00  -0.02  -0.16
  83   6     0.00   0.00   0.06    -0.00   0.02   0.16    -0.00  -0.01  -0.09
  84   6     0.00  -0.00   0.01    -0.00   0.01   0.07     0.00   0.00   0.01
  85   6     0.00  -0.00  -0.01     0.00   0.01   0.11     0.00   0.01   0.09
  86   6    -0.00  -0.00   0.01     0.00   0.01   0.07     0.00   0.00   0.01
  87   6    -0.00   0.00   0.06     0.00   0.02   0.16     0.00  -0.01  -0.09
  88   6    -0.00   0.01   0.07     0.00   0.01   0.07     0.01  -0.02  -0.16
  89   6    -0.00   0.00   0.02     0.00  -0.01  -0.05     0.00  -0.01  -0.07
  90   7    -0.00  -0.00  -0.01     0.00  -0.01  -0.06     0.00   0.00   0.00
  91   6    -0.00   0.00   0.01     0.00  -0.01  -0.09     0.01  -0.00   0.00
  92   6    -0.00   0.00  -0.02    -0.00  -0.01  -0.05     0.00   0.01   0.07
  93   6    -0.00   0.00  -0.01    -0.00   0.01   0.07     0.01   0.01   0.16
  94   6    -0.00   0.00  -0.01    -0.00   0.02   0.16     0.00   0.01   0.09
  95   6    -0.00   0.00  -0.01    -0.00   0.01   0.07     0.00  -0.01  -0.01
  96   7    -0.00   0.00  -0.03    -0.00  -0.01  -0.06     0.00  -0.00  -0.00
  97   6     0.00   0.01   0.00    -0.00   0.01   0.12     0.00  -0.01  -0.09
  98   6     0.00   0.00  -0.01    -0.00   0.01   0.07     0.00  -0.01  -0.01
  99   6     0.00   0.00  -0.01    -0.00   0.02   0.16    -0.00   0.00   0.09
 100   6     0.00   0.00  -0.01    -0.00   0.01   0.07    -0.00   0.01   0.16
 101   6     0.00   0.00  -0.02    -0.00  -0.01  -0.05    -0.00   0.01   0.07
 102   7     0.00   0.00  -0.03    -0.00  -0.01  -0.06     0.00  -0.00  -0.00
 103   6     0.00   0.00   0.01    -0.00  -0.01  -0.09    -0.00  -0.00   0.00
 104   6     0.00   0.00   0.02    -0.00  -0.01  -0.05    -0.00  -0.01  -0.07
 105   7     0.00  -0.00  -0.01    -0.00  -0.01  -0.06    -0.00   0.00   0.00
 106   1     0.00   0.00   0.03    -0.00   0.00   0.03    -0.00  -0.01  -0.07
 107   1     0.00   0.00   0.02     0.00   0.01   0.08    -0.00  -0.00  -0.04
 108   1    -0.00   0.00   0.02     0.00   0.01   0.08     0.00  -0.00  -0.04
 109   1    -0.00   0.00   0.03     0.00   0.00   0.03     0.00  -0.01  -0.07
 110   1    -0.00   0.00   0.01     0.00  -0.00  -0.03     0.00  -0.00   0.00
 111   1    -0.00   0.00  -0.00     0.00   0.00   0.03     0.00   0.01   0.07
 112   1    -0.00   0.00  -0.00    -0.00   0.01   0.08     0.00   0.00   0.03
 113   1     0.00   0.00  -0.00    -0.00   0.01   0.08    -0.00   0.00   0.03
 114   1     0.00   0.00  -0.00    -0.00   0.00   0.03    -0.00   0.01   0.07
 115   1     0.00   0.00   0.01    -0.00  -0.00  -0.03    -0.00  -0.00   0.00
                     22                     23                     24
                        a                      a                      a 
 Frequencies --    97.7955               113.6265               124.8276
 Red. masses --    25.6480                11.2502                10.7322
 Frc consts  --     0.0000                 0.0000                 0.0000
 IR Inten    --     3.5805                 0.6347                 0.0013
 Raman Activ --     0.0000                 0.0000                 0.0000
 Depolar     --     0.0000                 0.0000                 0.0000
 Atom AN      X      Y      Z        X      Y      Z        X      Y      Z
   1  30    -0.22   0.00  -0.00    -0.00   0.00  -0.02    -0.00   0.00   0.00
   2   6    -0.08   0.02   0.00     0.00  -0.00  -0.15    -0.00   0.00   0.01
   3   6    -0.05  -0.00   0.01     0.00   0.00  -0.11    -0.00   0.00   0.01
   4   6    -0.02   0.02   0.00     0.00   0.00   0.01    -0.00   0.00   0.00
   5   6     0.02   0.00   0.00    -0.00   0.00   0.09    -0.00   0.00  -0.00
   6   6    -0.02  -0.01   0.00    -0.00   0.00   0.01     0.00   0.00  -0.00
   7   6    -0.06   0.01   0.00    -0.00   0.00  -0.11     0.00  -0.00  -0.01
   8   6    -0.08  -0.02   0.00    -0.00   0.00  -0.15     0.00   0.00  -0.00
   9   6    -0.06  -0.05  -0.00    -0.00   0.00  -0.03    -0.00   0.00   0.01
  10   7    -0.03  -0.04   0.00    -0.00   0.00   0.03     0.00   0.00   0.01
  11   6    -0.07  -0.05  -0.00    -0.00   0.00   0.06     0.00   0.00   0.01
  12   6    -0.08  -0.03  -0.00    -0.00   0.00   0.09     0.00   0.00   0.01
  13   6    -0.07  -0.01  -0.00    -0.00   0.00   0.15     0.00  -0.00  -0.00
  14   6    -0.09   0.00   0.00    -0.00  -0.00   0.01     0.00  -0.00  -0.01
  15   6    -0.11  -0.01   0.00     0.00  -0.00  -0.09     0.00  -0.00  -0.00
  16   7    -0.11  -0.02  -0.00    -0.00  -0.00  -0.04     0.00   0.00   0.01
  17   6    -0.12  -0.00   0.00     0.00  -0.00  -0.18     0.00  -0.00   0.00
  18   6    -0.11   0.00   0.00     0.00  -0.00  -0.09     0.00  -0.00   0.00
  19   6    -0.09  -0.01  -0.00     0.00  -0.00   0.01    -0.00   0.00   0.01
  20   6    -0.07   0.01  -0.00    -0.00  -0.00   0.15     0.00  -0.00   0.00
  21   6    -0.08   0.03  -0.00    -0.00   0.00   0.09     0.00  -0.00  -0.01
  22   7    -0.11   0.02  -0.00     0.00   0.00  -0.04     0.00  -0.00  -0.00
  23   6    -0.07   0.05  -0.00    -0.00   0.00   0.06     0.00  -0.00  -0.01
  24   6    -0.06   0.05  -0.00     0.00   0.00  -0.03     0.00  -0.00  -0.01
  25   7    -0.03   0.05  -0.00     0.00   0.00   0.03     0.00  -0.00  -0.01
  26   1    -0.03   0.00   0.00     0.00  -0.00  -0.07    -0.00   0.00   0.00
  27   1    -0.02  -0.01   0.00     0.00  -0.00  -0.05    -0.00   0.00   0.01
  28   1    -0.02   0.01   0.00    -0.00   0.00  -0.05     0.00  -0.00  -0.01
  29   1    -0.03  -0.00   0.00    -0.00  -0.00  -0.07     0.00   0.00  -0.00
  30   1    -0.02  -0.01  -0.00    -0.00   0.00   0.03    -0.00   0.00   0.00
  31   1    -0.02  -0.00  -0.00    -0.00   0.00   0.08     0.00  -0.00  -0.00
  32   1    -0.03   0.01   0.00    -0.00  -0.00   0.00     0.00  -0.00  -0.01
  33   1    -0.03  -0.00   0.00     0.00  -0.00  -0.07     0.00  -0.00   0.00
  34   1    -0.02  -0.01  -0.00     0.00  -0.00   0.00    -0.00   0.00   0.01
  35   1    -0.02   0.00  -0.00    -0.00   0.00   0.08     0.00  -0.00   0.00
  36   1    -0.02   0.01  -0.00    -0.00   0.00   0.03     0.00  -0.00  -0.00
  37  30    -0.22   0.00   0.00     0.00   0.01  -0.02     0.00   0.00  -0.00
[...]
 107   1     0.02   0.00  -0.00     0.27   0.03  -0.00     0.03   0.00  -0.00
 108   1     0.02  -0.00   0.00    -0.23   0.03  -0.00    -0.03   0.00  -0.00
 109   1     0.00  -0.01   0.00    -0.02   0.16  -0.02    -0.00   0.01  -0.00
 110   1     0.00   0.00  -0.00     0.00   0.00  -0.00     0.00  -0.00   0.00
 111   1    -0.00  -0.01   0.00    -0.01  -0.13   0.01    -0.02  -0.21   0.02
 112   1    -0.02  -0.00   0.00    -0.19  -0.02   0.00    -0.30  -0.03   0.00
 113   1    -0.02   0.00  -0.00     0.24  -0.03   0.00     0.39  -0.05   0.00
 114   1    -0.00   0.01  -0.00     0.02  -0.16   0.02     0.03  -0.27   0.03
 115   1    -0.00  -0.00   0.00    -0.00   0.00  -0.00    -0.00  -0.00   0.00
                    334                    335                    336
                        a                      a                      a 
 Frequencies --  3165.1698              3165.5517              3165.7174
 Red. masses --     1.9659                 1.9666                 1.9668
 Frc consts  --     0.0000                 0.0000                 0.0000
 IR Inten    --    16.4812               187.0547                21.0098
 Raman Activ --     0.0000                 0.0000                 0.0000
 Depolar     --     0.0000                 0.0000                 0.0000
 Atom AN      X      Y      Z        X      Y      Z        X      Y      Z
   1  30    -0.00  -0.00  -0.00    -0.00  -0.00  -0.00     0.00  -0.00   0.00
   2   6    -0.00   0.02  -0.00     0.00  -0.00   0.00    -0.01   0.14  -0.00
   3   6    -0.03   0.00  -0.00     0.00  -0.00   0.00    -0.19   0.01  -0.00
   4   6    -0.00  -0.00   0.00     0.00   0.00  -0.00    -0.00  -0.01   0.00
   5   6    -0.00   0.00  -0.00     0.00   0.00  -0.00    -0.00   0.00  -0.00
   6   6     0.00  -0.00   0.00     0.00  -0.00   0.00    -0.00   0.00  -0.00
   7   6     0.05   0.00   0.00     0.08   0.01   0.00    -0.13  -0.01  -0.00
   8   6     0.00   0.04  -0.00     0.00   0.06  -0.00    -0.00  -0.10   0.00
   9   6    -0.00   0.00  -0.00    -0.00   0.00  -0.00     0.00  -0.00   0.00
  10   7    -0.00  -0.00   0.00    -0.00  -0.00   0.00     0.00   0.00   0.00
  11   6     0.00   0.00  -0.00     0.00   0.00  -0.00    -0.00  -0.00   0.00
  12   6     0.00   0.00  -0.00     0.00   0.00   0.00    -0.00  -0.00  -0.00
  13   6    -0.00   0.00  -0.00    -0.00   0.00  -0.00     0.00  -0.00   0.00
  14   6    -0.00   0.00  -0.00    -0.00   0.00  -0.00     0.00  -0.00   0.00
  15   6    -0.00  -0.00  -0.00    -0.00  -0.00   0.00     0.00   0.00  -0.00
  16   7     0.00  -0.00   0.00     0.00  -0.00   0.00    -0.00   0.00   0.00
  17   6    -0.00   0.00  -0.00    -0.00   0.00   0.00     0.00   0.00   0.00
  18   6     0.00  -0.00   0.00     0.00  -0.00   0.00     0.00  -0.00  -0.00
  19   6     0.00   0.00   0.00     0.00   0.00   0.00     0.00   0.00   0.00
  20   6     0.00   0.00  -0.00     0.00   0.00  -0.00     0.00   0.01  -0.00
  21   6    -0.00   0.00  -0.00    -0.00   0.00   0.00    -0.00   0.00  -0.00
  22   7    -0.00  -0.00  -0.00    -0.00  -0.00  -0.00    -0.00  -0.00   0.00
  23   6    -0.00   0.00  -0.00    -0.00  -0.00   0.00    -0.00   0.00  -0.00
  24   6     0.00   0.00   0.00    -0.00  -0.00   0.00     0.01   0.00   0.00
  25   7     0.00  -0.00   0.00    -0.00   0.00   0.00     0.00  -0.00   0.00
  26   1     0.01  -0.07   0.00    -0.00   0.01  -0.00     0.05  -0.44   0.00
  27   1     0.10  -0.01   0.00    -0.01   0.00  -0.00     0.62  -0.06   0.01
  28   1    -0.17  -0.02  -0.00    -0.27  -0.04  -0.00     0.44   0.06   0.00
  29   1    -0.01  -0.12   0.00    -0.02  -0.18   0.00     0.03   0.30  -0.00
  30   1     0.00  -0.00   0.00     0.00  -0.00   0.00    -0.00   0.01  -0.00
  31   1     0.00  -0.01   0.00     0.00  -0.01   0.00    -0.00   0.01  -0.00
  32   1     0.01  -0.00   0.00     0.01  -0.00   0.00    -0.01   0.00  -0.00
  33   1     0.00   0.00  -0.00     0.00   0.00   0.00    -0.00   0.00  -0.00
  34   1    -0.01  -0.00  -0.00    -0.01  -0.00  -0.00    -0.02  -0.00  -0.00
  35   1    -0.00  -0.01  -0.00    -0.00  -0.01   0.00    -0.00  -0.02   0.00
  36   1    -0.00  -0.00   0.00     0.00   0.00   0.00    -0.00  -0.01   0.00
  37  30    -0.00   0.00   0.00     0.00  -0.00  -0.00     0.00  -0.00  -0.00
  38   6     0.01  -0.10  -0.02    -0.00   0.03   0.01    -0.00   0.01   0.00
  39   6     0.13  -0.01  -0.00    -0.04   0.00   0.00    -0.02   0.00   0.00
  40   6     0.00   0.00   0.00    -0.00  -0.00  -0.00    -0.00  -0.00  -0.00
  41   6     0.00  -0.00  -0.00    -0.00   0.00   0.00    -0.00   0.00   0.00
  42   6    -0.00   0.00   0.00     0.00  -0.00  -0.00    -0.00   0.00   0.00
  43   6    -0.12  -0.01  -0.00     0.04   0.00   0.00    -0.01  -0.00  -0.00
  44   6    -0.00  -0.08  -0.02     0.00   0.03   0.01    -0.00  -0.01  -0.00
  45   6     0.00  -0.00  -0.00    -0.00   0.00   0.00     0.00  -0.00  -0.00
  46   7     0.00   0.00   0.00    -0.00  -0.00  -0.00     0.00   0.00   0.00
  47   6    -0.00  -0.00  -0.00     0.00   0.00   0.00    -0.00  -0.00  -0.00
  48   6    -0.00  -0.00  -0.00     0.00   0.00   0.00    -0.00  -0.00  -0.00
  49   6     0.00  -0.01  -0.00    -0.00   0.00   0.00     0.00  -0.00  -0.00
  50   6     0.01  -0.00  -0.00    -0.00   0.00   0.00     0.00  -0.00  -0.00
  51   6     0.00   0.00   0.00    -0.00  -0.00  -0.00     0.00   0.00   0.00
  52   7    -0.00   0.00   0.00     0.00  -0.00  -0.00    -0.00   0.00   0.00
  53   6    -0.00  -0.00  -0.00    -0.00   0.00   0.00     0.00   0.00   0.00
  54   6    -0.00   0.00   0.00     0.00  -0.00  -0.00     0.00  -0.00  -0.00
  55   6    -0.01  -0.00  -0.00     0.00   0.00  -0.00     0.00   0.00   0.00
  56   6    -0.00  -0.01  -0.00     0.00   0.00   0.00     0.00   0.00   0.00
  57   6     0.00  -0.00  -0.00    -0.00   0.00   0.00    -0.00   0.00   0.00
  58   7     0.00   0.00   0.00    -0.00  -0.00  -0.00    -0.00  -0.00  -0.00
  59   6     0.00  -0.00  -0.00    -0.00   0.00   0.00    -0.00   0.00   0.00
  60   6    -0.00  -0.00  -0.00     0.00   0.00   0.00     0.00   0.00   0.00
  61   7    -0.00   0.00   0.00     0.00  -0.00  -0.00     0.00  -0.00  -0.00
  62   1    -0.04   0.31   0.06     0.01  -0.10  -0.02     0.01  -0.05  -0.01
  63   1    -0.43   0.04   0.01     0.14  -0.01  -0.00     0.06  -0.01  -0.00
  64   1     0.39   0.05   0.01    -0.13  -0.02  -0.00     0.03   0.00   0.00
  65   1     0.03   0.25   0.05    -0.01  -0.08  -0.02     0.00   0.02   0.00
  66   1    -0.00   0.00   0.00     0.00  -0.00  -0.00    -0.00   0.00   0.00
  67   1    -0.00   0.03   0.00     0.00  -0.01  -0.00    -0.00   0.00   0.00
  68   1    -0.02   0.00   0.00     0.01  -0.00  -0.00    -0.00   0.00   0.00
  69   1     0.00  -0.00   0.00     0.00   0.00  -0.00    -0.00   0.00   0.00
  70   1     0.03   0.00   0.00    -0.01  -0.00  -0.00    -0.01  -0.00  -0.00
  71   1     0.00   0.03   0.01    -0.00  -0.01  -0.00    -0.00  -0.01  -0.00
  72   1     0.00   0.01   0.00    -0.00  -0.00  -0.00    -0.00  -0.00  -0.00
  73   6     0.00   0.00  -0.00     0.00   0.00  -0.00    -0.00   0.00  -0.00
  74   6    -0.00  -0.00   0.00    -0.00  -0.00   0.00    -0.00  -0.00   0.00
  75   6    -0.00  -0.00   0.00    -0.00  -0.00   0.00     0.00  -0.00   0.00
  76   6     0.00   0.00  -0.00     0.00   0.00  -0.00    -0.00   0.00  -0.00
  77   6     0.00  -0.00   0.00    -0.00   0.00  -0.00    -0.00   0.00  -0.00
  78   6     0.00   0.00  -0.00    -0.00  -0.00   0.00     0.00  -0.00   0.00
  79   6    -0.00   0.00   0.00     0.00  -0.00  -0.00    -0.00  -0.00  -0.00
  80   6     0.00  -0.00  -0.00    -0.00   0.00   0.00    -0.00   0.00   0.00
  81  30    -0.00  -0.00  -0.00     0.00  -0.00   0.00     0.00  -0.00   0.00
  82   6     0.00   0.06  -0.01     0.01   0.10  -0.01     0.00   0.03  -0.00
  83   6     0.08   0.01  -0.00     0.14   0.01  -0.00     0.04   0.00  -0.00
  84   6     0.00  -0.00   0.00     0.00  -0.00   0.00     0.00  -0.00   0.00
  85   6     0.00   0.00  -0.00     0.00   0.00  -0.00    -0.00   0.00  -0.00
  86   6    -0.00  -0.00   0.00    -0.00  -0.00   0.00    -0.00  -0.00   0.00
  87   6    -0.07   0.01  -0.00    -0.11   0.01  -0.00    -0.03   0.00  -0.00
  88   6    -0.00   0.05  -0.01    -0.00   0.08  -0.01    -0.00   0.02  -0.00
  89   6     0.00   0.00  -0.00     0.00   0.00  -0.00     0.00   0.00  -0.00
  90   7     0.00  -0.00   0.00     0.00  -0.00   0.00     0.00  -0.00   0.00
  91   6    -0.00   0.00  -0.00    -0.00   0.00  -0.00     0.00   0.00  -0.00
  92   6     0.00  -0.00   0.00    -0.00   0.00  -0.00    -0.00   0.00  -0.00
  93   6    -0.00  -0.04   0.00     0.00   0.04  -0.00     0.00   0.01  -0.00
  94   6    -0.06  -0.00   0.00     0.05   0.00  -0.00     0.02   0.00  -0.00
  95   6    -0.00   0.00  -0.00     0.00  -0.00   0.00     0.00  -0.00   0.00
  96   7     0.00   0.00  -0.00    -0.00  -0.00   0.00    -0.00  -0.00   0.00
  97   6     0.00  -0.00   0.00    -0.00   0.00  -0.00    -0.00   0.00  -0.00
  98   6     0.00   0.00  -0.00    -0.00  -0.00   0.00    -0.00  -0.00   0.00
  99   6     0.09  -0.01   0.00    -0.11   0.01  -0.00    -0.01   0.00  -0.00
 100   6     0.00  -0.06   0.01    -0.00   0.08  -0.01    -0.00   0.01  -0.00
 101   6    -0.00  -0.00   0.00     0.00   0.00  -0.00     0.00   0.00  -0.00
 102   7    -0.00   0.00  -0.00     0.00  -0.00   0.00     0.00  -0.00   0.00
 103   6     0.00  -0.00   0.00     0.00   0.00  -0.00     0.00   0.00  -0.00
 104   6    -0.00   0.00  -0.00    -0.00   0.00  -0.00    -0.00   0.00  -0.00
 105   7    -0.00  -0.00   0.00    -0.00  -0.00   0.00    -0.00  -0.00   0.00
 106   1    -0.02  -0.18   0.02    -0.04  -0.32   0.04    -0.01  -0.08   0.01
 107   1    -0.27  -0.03   0.00    -0.46  -0.05   0.01    -0.12  -0.01   0.00
 108   1     0.23  -0.03   0.00     0.35  -0.04   0.00     0.09  -0.01   0.00
 109   1     0.02  -0.15   0.02     0.03  -0.25   0.03     0.01  -0.07   0.01
 110   1    -0.00  -0.00   0.00    -0.00  -0.01   0.00    -0.00  -0.00   0.00
 111   1     0.01   0.12  -0.01    -0.01  -0.12   0.01    -0.01  -0.04   0.00
 112   1     0.19   0.02  -0.00    -0.16  -0.02   0.00    -0.06  -0.01   0.00
 113   1    -0.28   0.04  -0.00     0.36  -0.05   0.00     0.05  -0.01   0.00
 114   1    -0.02   0.18  -0.02     0.03  -0.25   0.03     0.00  -0.04   0.00
 115   1     0.00   0.00  -0.00     0.00  -0.01   0.00     0.00  -0.00   0.00
                    337                    338                    339
                        a                      a                      a 
 Frequencies --  3165.9992              3166.0994              3166.3100
 Red. masses --     1.9662                 1.9661                 1.9666
 Frc consts  --     0.0000                 0.0000                 0.0000
 IR Inten    --     1.0656                71.1657                34.0773
 Raman Activ --     0.0000                 0.0000                 0.0000
 Depolar     --     0.0000                 0.0000                 0.0000
 Atom AN      X      Y      Z        X      Y      Z        X      Y      Z
   1  30    -0.00   0.00  -0.00    -0.00   0.00  -0.00    -0.00   0.00   0.00
   2   6     0.00  -0.01   0.00    -0.00   0.00  -0.00    -0.00   0.00  -0.00
   3   6     0.02  -0.00   0.00    -0.00   0.00  -0.00    -0.00   0.00  -0.00
   4   6     0.00   0.00  -0.00    -0.00  -0.00   0.00     0.00  -0.00   0.00
   5   6    -0.00  -0.00  -0.00     0.00  -0.00   0.00     0.00  -0.00  -0.00
   6   6     0.00  -0.00   0.00    -0.00   0.00  -0.00    -0.00   0.00  -0.00
   7   6     0.01   0.00   0.00    -0.01  -0.00  -0.00    -0.00  -0.00  -0.00
   8   6     0.00   0.01  -0.00    -0.00  -0.00   0.00    -0.00  -0.00   0.00
   9   6    -0.00   0.00  -0.00     0.00  -0.00  -0.00     0.00  -0.00   0.00
  10   7    -0.00  -0.00   0.00     0.00   0.00  -0.00    -0.00   0.00  -0.00
  11   6     0.00   0.00  -0.00    -0.00  -0.00   0.00    -0.00  -0.00  -0.00
  12   6     0.00   0.00  -0.00    -0.00  -0.00  -0.00     0.00   0.00  -0.00
  13   6    -0.00   0.00  -0.00     0.00  -0.01   0.00     0.00  -0.00   0.00
  14   6    -0.00   0.00  -0.00     0.01  -0.00   0.00     0.00  -0.00   0.00
  15   6    -0.00  -0.00   0.00     0.00   0.00  -0.00     0.00   0.00   0.00
  16   7     0.00  -0.00  -0.00    -0.00   0.00  -0.00    -0.00  -0.00  -0.00
  17   6    -0.00  -0.00  -0.00     0.00   0.00   0.00     0.00  -0.00  -0.00
  18   6    -0.00   0.00   0.00     0.00  -0.00   0.00     0.00  -0.00   0.00
  19   6    -0.00  -0.00  -0.00     0.01   0.00   0.00     0.00   0.00   0.00
  20   6    -0.00  -0.00   0.00     0.00   0.00  -0.00     0.00   0.00  -0.00
  21   6     0.00  -0.00   0.00    -0.00   0.00  -0.00     0.00  -0.00   0.00
  22   7     0.00   0.00  -0.00    -0.00  -0.00  -0.00    -0.00   0.00  -0.00
  23   6     0.00  -0.00   0.00    -0.00   0.00  -0.00    -0.00   0.00  -0.00
  24   6    -0.00  -0.00  -0.00     0.00   0.00   0.00     0.00   0.00   0.00
  25   7    -0.00   0.00  -0.00     0.00  -0.00   0.00    -0.00  -0.00  -0.00
  26   1    -0.00   0.04  -0.00     0.00  -0.01   0.00     0.00  -0.00   0.00
  27   1    -0.05   0.01  -0.00     0.01  -0.00   0.00     0.00  -0.00   0.00
  28   1    -0.04  -0.01  -0.00     0.02   0.00   0.00     0.02   0.00   0.00
  29   1    -0.00  -0.03   0.00     0.00   0.01  -0.00     0.00   0.01  -0.00
  30   1     0.00  -0.00   0.00     0.00   0.00  -0.00     0.00   0.00  -0.00
  31   1     0.00  -0.00   0.00    -0.00   0.02  -0.00    -0.00   0.00  -0.00
  32   1     0.00  -0.00   0.00    -0.02   0.00  -0.00    -0.00   0.00  -0.00
  33   1     0.00   0.00   0.00    -0.00  -0.00  -0.00    -0.00  -0.00  -0.00
  34   1     0.00   0.00   0.00    -0.02  -0.00  -0.00    -0.00  -0.00  -0.00
  35   1     0.00   0.00   0.00    -0.00  -0.02   0.00    -0.00  -0.00   0.00
  36   1     0.00   0.00  -0.00     0.00  -0.00   0.00     0.00  -0.00   0.00
  37  30     0.00   0.00   0.00     0.00   0.00   0.00     0.00   0.00   0.00
  38   6    -0.01   0.11   0.02    -0.00   0.03   0.01     0.00  -0.01  -0.00
  39   6    -0.15   0.01   0.00    -0.04   0.00   0.00     0.01  -0.00  -0.00
  40   6    -0.00  -0.01  -0.00    -0.00  -0.00  -0.00     0.00   0.00   0.00
  41   6    -0.00  -0.00  -0.00    -0.00  -0.00  -0.00    -0.00  -0.00  -0.00
  42   6    -0.00   0.01   0.00    -0.00   0.00   0.00     0.00  -0.00  -0.00
  43   6    -0.17  -0.02  -0.00    -0.06  -0.01  -0.00     0.01   0.00   0.00
  44   6    -0.01  -0.11  -0.02    -0.00  -0.04  -0.01     0.00   0.01   0.00
  45   6     0.00  -0.00  -0.00     0.00  -0.00  -0.00    -0.00   0.00   0.00
  46   7     0.00   0.00   0.00     0.00   0.00   0.00    -0.00  -0.00  -0.00
  47   6    -0.00  -0.00  -0.00    -0.00  -0.00  -0.00     0.00   0.00   0.00
  48   6    -0.00  -0.00   0.00    -0.00  -0.00  -0.00     0.00   0.00   0.00
  49   6     0.00  -0.01  -0.00     0.00  -0.00  -0.00    -0.00   0.00   0.00
  50   6     0.00  -0.00  -0.00     0.00  -0.00  -0.00    -0.01   0.00   0.00
  51   6     0.00   0.00   0.00     0.00   0.00   0.00    -0.00  -0.00  -0.00
  52   7    -0.00   0.00   0.00    -0.00   0.00   0.00     0.00  -0.00  -0.00
  53   6     0.00  -0.00  -0.00     0.00  -0.00  -0.00    -0.00  -0.00   0.00
  54   6     0.00  -0.00  -0.00     0.00  -0.00  -0.00    -0.00   0.00   0.00
  55   6     0.00   0.00   0.00     0.00   0.00   0.00    -0.01  -0.00  -0.00
  56   6     0.00   0.00   0.00     0.00   0.00   0.00    -0.00  -0.01  -0.00
  57   6    -0.00   0.00  -0.00    -0.00   0.00   0.00     0.00  -0.00  -0.00
  58   7    -0.00  -0.00  -0.00    -0.00  -0.00  -0.00     0.00   0.00   0.00
  59   6    -0.00   0.00   0.00    -0.00   0.00   0.00     0.00  -0.00  -0.00
  60   6     0.00   0.00   0.00     0.00   0.00   0.00    -0.00  -0.00  -0.00
  61   7     0.00  -0.00  -0.00     0.00  -0.00  -0.00    -0.00   0.00   0.00
  62   1     0.04  -0.35  -0.07     0.01  -0.09  -0.02    -0.00   0.02   0.00
  63   1     0.49  -0.05  -0.01     0.13  -0.01  -0.00    -0.03   0.00   0.00
  64   1     0.55   0.07   0.01     0.21   0.03   0.00    -0.02  -0.00  -0.00
  65   1     0.04   0.36   0.07     0.01   0.13   0.03    -0.00  -0.02  -0.00
  66   1    -0.00   0.01   0.00    -0.00   0.00   0.00    -0.00  -0.00  -0.00
  67   1    -0.00   0.02   0.00    -0.00   0.01   0.00     0.00  -0.02  -0.00
  68   1    -0.01   0.00   0.00    -0.01   0.00   0.00     0.02  -0.00  -0.00
  69   1    -0.00  -0.00   0.00    -0.00  -0.00   0.00     0.00   0.00  -0.00
  70   1    -0.01  -0.00  -0.00    -0.01  -0.00  -0.00     0.02   0.00   0.00
  71   1    -0.00  -0.01  -0.00    -0.00  -0.01  -0.00     0.00   0.02   0.00
  72   1    -0.00  -0.01  -0.00    -0.00  -0.00  -0.00    -0.00   0.00   0.00
  73   6     0.00   0.00   0.00    -0.00  -0.00  -0.00     0.00   0.00   0.00
  74   6    -0.00   0.00  -0.00     0.00   0.00   0.00    -0.00   0.00  -0.00
  75   6    -0.00   0.00  -0.00     0.00   0.00  -0.00     0.00   0.00  -0.00
  76   6     0.00  -0.00  -0.00    -0.00  -0.00   0.00     0.00  -0.00   0.00
  77   6    -0.00   0.00  -0.00    -0.00  -0.00   0.00     0.00  -0.00   0.00
  78   6     0.00  -0.00   0.00    -0.00   0.00  -0.00    -0.00   0.00  -0.00
  79   6    -0.00   0.00   0.00     0.00   0.00   0.00     0.00   0.00   0.00
  80   6    -0.00  -0.00  -0.00    -0.00  -0.00  -0.00    -0.00  -0.00  -0.00
  81  30    -0.00  -0.00   0.00     0.00   0.00  -0.00    -0.00   0.00  -0.00
  82   6     0.00   0.01  -0.00    -0.00  -0.02   0.00     0.01   0.10  -0.01
  83   6     0.02   0.00  -0.00    -0.03  -0.00   0.00     0.15   0.01  -0.00
  84   6     0.00  -0.00   0.00    -0.00   0.00  -0.00     0.00  -0.00   0.00
  85   6     0.00   0.00  -0.00    -0.00  -0.00   0.00     0.00  -0.00   0.00
  86   6     0.00   0.00  -0.00    -0.00  -0.00   0.00     0.00   0.01  -0.00
  87   6     0.02  -0.00   0.00    -0.02   0.00  -0.00     0.18  -0.02   0.00
  88   6     0.00  -0.01   0.00    -0.00   0.01  -0.00     0.01  -0.13   0.02
  89   6    -0.00  -0.00   0.00     0.00   0.00  -0.00    -0.01  -0.00   0.00
  90   7    -0.00   0.00  -0.00     0.00   0.00  -0.00    -0.00   0.00  -0.00
  91   6     0.00   0.00  -0.00    -0.00  -0.00   0.00     0.00  -0.00   0.00
  92   6    -0.00   0.00  -0.00     0.01  -0.00   0.00     0.00  -0.00   0.00
  93   6     0.00   0.04  -0.00    -0.01  -0.13   0.02    -0.00  -0.03   0.00
  94   6     0.06   0.00  -0.00    -0.19  -0.01   0.00    -0.04  -0.00   0.00
  95   6     0.00  -0.00   0.00    -0.00   0.01  -0.00    -0.00   0.00  -0.00
  96   7    -0.00  -0.00   0.00     0.00   0.00  -0.00     0.00   0.00  -0.00
  97   6    -0.00   0.00  -0.00    -0.00  -0.00   0.00     0.00  -0.00   0.00
  98   6     0.00   0.00  -0.00    -0.00  -0.00   0.00    -0.00  -0.00   0.00
  99   6     0.04  -0.00   0.00    -0.12   0.01  -0.00    -0.02   0.00  -0.00
 100   6     0.00  -0.03   0.00    -0.00   0.09  -0.01    -0.00   0.01  -0.00
 101   6    -0.00  -0.00   0.00     0.00   0.00  -0.00     0.00   0.00   0.00
 102   7    -0.00   0.00  -0.00     0.00  -0.00   0.00     0.00  -0.00   0.00
 103   6     0.00  -0.00   0.00    -0.00   0.00  -0.00     0.00   0.00  -0.00
 104   6    -0.00   0.00  -0.00     0.00  -0.00   0.00    -0.00   0.00  -0.00
 105   7    -0.00  -0.00   0.00     0.00   0.00  -0.00    -0.00  -0.00   0.00
 106   1    -0.00  -0.04   0.00     0.01   0.08  -0.01    -0.04  -0.33   0.04
 107   1    -0.06  -0.01   0.00     0.11   0.01  -0.00    -0.48  -0.05   0.01
 108   1    -0.06   0.01  -0.00     0.06  -0.01   0.00    -0.60   0.07  -0.01
 109   1    -0.00   0.04  -0.00     0.00  -0.04   0.00    -0.04   0.42  -0.05
 110   1     0.00  -0.00   0.00    -0.00   0.01  -0.00     0.00   0.01  -0.00
 111   1    -0.01  -0.13   0.01     0.05   0.42  -0.05     0.01   0.08  -0.01
 112   1    -0.18  -0.02   0.00     0.61   0.07  -0.01     0.12   0.01  -0.00
 113   1    -0.14   0.02  -0.00     0.41  -0.05   0.00     0.06  -0.01   0.00
 114   1    -0.01   0.09  -0.01     0.03  -0.27   0.03     0.00  -0.04   0.00
 115   1     0.00   0.00  -0.00    -0.00  -0.00   0.00     0.00  -0.01   0.00
