      -----------------------------------------------------------      
     |                   =====================                   |     
     |                           x T B                           |     
     |                   =====================                   |     
     |                         S. Grimme                         |     
     |          Mulliken Center for Theoretical Chemistry        |     
     |                    University of Bonn                     |     
      -----------------------------------------------------------      

   * xtb version 6.4.1 (bd6e46d) compiled by 'conda@4901f00b25ba' on 2021-06-10

   xtb is free software: you can redistribute it and/or modify it under
   the terms of the GNU Lesser General Public License as published by
   the Free Software Foundation, either version 3 of the License, or
   (at your option) any later version.
   
   xtb is distributed in the hope that it will be useful,
   but WITHOUT ANY WARRANTY; without even the implied warranty of
   MERCHANTABILITY or FITNESS FOR A PARTICULAR PURPOSE.  See the
   GNU Lesser General Public License for more details.
   
   Cite this work as:
   * C. Bannwarth, E. Caldeweyher, S. Ehlert, A. Hansen, P. Pracht,
     J. Seibert, S. Spicher, S. Grimme, WIREs Comput. Mol. Sci., 2020, 11,
     e01493. DOI: 10.1002/wcms.1493
   
   for GFN2-xTB:
   * C. Bannwarth, S. Ehlert and S. Grimme., J. Chem. Theory Comput., 2019,
     15, 1652-1671. DOI: 10.1021/acs.jctc.8b01176
   for GFN1-xTB:
   * S. Grimme, C. Bannwarth, P. Shushkov, J. Chem. Theory Comput., 2017,
     13, 1989-2009. DOI: 10.1021/acs.jctc.7b00118
   for GFN0-xTB:
   * P. Pracht, E. Caldeweyher, S. Ehlert, S. Grimme, ChemRxiv, 2019, preprint.
     DOI: 10.26434/chemrxiv.8326202.v1
   for GFN-FF:
   * S. Spicher and S. Grimme, Angew. Chem. Int. Ed., 2020, 59, 15665-15673.
     DOI: 10.1002/anie.202004239
   
   for DFT-D4:
   * E. Caldeweyher, C. Bannwarth and S. Grimme, J. Chem. Phys., 2017,
     147, 034112. DOI: 10.1063/1.4993215
   * E. Caldeweyher, S. Ehlert, A. Hansen, H. Neugebauer, S. Spicher,
     C. Bannwarth and S. Grimme, J. Chem. Phys., 2019, 150, 154122.
     DOI: 10.1063/1.5090222
   * E. Caldeweyher, J.-M. Mewes, S. Ehlert and S. Grimme, Phys. Chem. Chem. Phys.
     2020, 22, 8499-8512. DOI: 10.1039/D0CP00502A
   
   for sTDA-xTB:
   * S. Grimme and C. Bannwarth, J. Chem. Phys., 2016, 145, 054103.
     DOI: 10.1063/1.4959605
   
   in the mass-spec context:
   * V. Asgeirsson, C. Bauer and S. Grimme, Chem. Sci., 2017, 8, 4879.
     DOI: 10.1039/c7sc00601b
   * J. Koopman and S. Grimme, ACS Omega 2019, 4, 12, 15120-15133.
     DOI: 10.1021/acsomega.9b02011
   
   for metadynamics refer to:
   * S. Grimme, J. Chem. Theory Comput., 2019, 155, 2847-2862
     DOI: 10.1021/acs.jctc.9b00143
   
   for SPH calculations refer to:
   * S. Spicher and S. Grimme, J. Chem. Theory Comput., 2021, 17, 1701-1714
     DOI: 10.1021/acs.jctc.0c01306
   
   with help from (in alphabetical order)
   P. Atkinson, C. Bannwarth, F. Bohle, G. Brandenburg, E. Caldeweyher
   M. Checinski, S. Dohm, S. Ehlert, S. Ehrlich, I. Gerasimov, J. Koopman
   C. Lavigne, S. Lehtola, F. März, M. Müller, F. Musil, H. Neugebauer
   J. Pisarek, C. Plett, P. Pracht, J. Seibert, P. Shushkov, S. Spicher
   M. Stahn, M. Steiner, T. Strunk, J. Stückrath, T. Rose, and J. Unsleber
   
 * started run on 2021/11/18 at 18:41:55.978     

           -------------------------------------------------
          |                Calculation Setup                |
           -------------------------------------------------

          program call               : /home/jeff/miniconda3/bin/xtb input_structure_1.xyz --gfn 2 --ohess normal --parallel 1 --etemp 300 --chrg 0 --uhf 0 -I det_control.in
          hostname                   : jelfscompute1
          coordinate file            : input_structure_1.xyz
          omp threads                :                     1
          number of atoms            :                   115
          number of electrons        :                   370
          charge                     :                     0
          spin                       :                   0.0
          first test random number   :      0.40652970201397

   ID    Z sym.   atoms
    1   30 Zn     1, 37, 81
    2    6 C      2-9, 11-15, 17-21, 23, 24, 38-45, 47-51, 53-57, 59, 60,
                  73-80, 82-89, 91-95, 97-101, 103, 104
    3    7 N      10, 16, 22, 25, 46, 52, 58, 61, 90, 96, 102, 105
    4    1 H      26-36, 62-72, 106-115

molecular fragmentation (1/2 indicates fragments):
111111111111111111111111111111111111222222222222222222222222222222222222
2222222222222222222222222222222222222222222
# atoms in fragment 1/2:    36    79
 fragment masses (1/2) :      372.71      840.49
CMA distance (Bohr)    :  40.779
constraining FC (au)   :  0.0500

           -------------------------------------------------
          |                 G F N 2 - x T B                 |
           -------------------------------------------------

        Reference                      10.1021/acs.jctc.8b01176
      * Hamiltonian:
        H0-scaling (s, p, d)           1.850000    2.230000    2.230000
        zeta-weighting                 0.500000
      * Dispersion:
        s8                             2.700000
        a1                             0.520000
        a2                             5.000000
        s9                             5.000000
      * Repulsion:
        kExp                           1.500000    1.000000
        rExp                           1.000000
      * Coulomb:
        alpha                          2.000000
        third order                    shell-resolved
        anisotropic                    true
        a3                             3.000000
        a5                             4.000000
        cn-shift                       1.200000
        cn-exp                         4.000000
        max-rad                        5.000000


          ...................................................
          :                      SETUP                      :
          :.................................................:
          :  # basis functions                 364          :
          :  # atomic orbitals                 364          :
          :  # shells                          198          :
          :  # electrons                       370          :
          :  max. iterations                   250          :
          :  Hamiltonian                  GFN2-xTB          :
          :  restarted?                      false          :
          :  GBSA solvation                  false          :
          :  PC potential                    false          :
          :  electronic temp.          300.0000000     K    :
          :  accuracy                    1.0000000          :
          :  -> integral cutoff          0.2500000E+02      :
          :  -> integral neglect         0.1000000E-07      :
          :  -> SCF convergence          0.1000000E-05 Eh   :
          :  -> wf. convergence          0.1000000E-03 e    :
          :  Broyden damping             0.4000000          :
          ...................................................

 iter      E             dE          RMSdq      gap      omega  full diag
   1   -200.5047050 -0.200505E+03  0.696E+00    0.15       0.0  T
   2   -190.4773685  0.100273E+02  0.580E+00    0.01       1.0  T
   3   -168.5331370  0.219442E+02  0.827E+00    0.13       1.0  T
   4   -151.7440873  0.167890E+02  0.800E+00    0.11       1.0  T
   5   -197.9886181 -0.462445E+02  0.403E+00    0.23       1.0  T
   6   -199.2797156 -0.129110E+01  0.309E+00    0.12       1.0  T
   7   -200.0126974 -0.732982E+00  0.257E+00    0.07       1.0  T
   8   -199.6896100  0.323087E+00  0.245E+00    0.23       1.0  T
   9   -200.3265428 -0.636933E+00  0.198E+00    0.17       1.0  T
  10   -201.0954759 -0.768933E+00  0.168E+00    0.71       1.0  T
  11   -201.2098962 -0.114420E+00  0.139E+00    0.31       1.0  T
  12   -201.2494725 -0.395763E-01  0.124E+00    0.30       1.0  T
  13   -200.6135809  0.635892E+00  0.136E+00    0.13       1.0  T
  14   -201.3844085 -0.770828E+00  0.729E-01    0.09       1.0  T
  15   -201.2795621  0.104846E+00  0.773E-01    0.05       1.0  T
  16   -201.3698615 -0.902994E-01  0.609E-01    0.01       1.0  T
  17   -201.4444201 -0.745586E-01  0.401E-01    0.04       1.0  T
  18   -201.4546056 -0.101856E-01  0.294E-01    0.10       1.0  T
  19   -201.4493716  0.523409E-02  0.293E-01    0.12       1.0  T
  20   -201.4434300  0.594153E-02  0.296E-01    0.06       1.0  T
  21   -201.4580339 -0.146039E-01  0.180E-01    0.13       1.0  T
  22   -201.4548878  0.314607E-02  0.204E-01    0.12       1.0  T
  23   -201.4620981 -0.721027E-02  0.128E-01    0.12       1.0  T
  24   -201.4635221 -0.142399E-02  0.107E-01    0.11       1.0  T
  25   -201.4659079 -0.238583E-02  0.564E-02    0.10       1.0  T
  26   -201.4662254 -0.317440E-03  0.411E-02    0.10       1.0  T
  27   -201.4665387 -0.313342E-03  0.250E-02    0.09       1.0  T
  28   -201.4665522 -0.134413E-04  0.222E-02    0.09       1.0  T
  29   -201.4665526 -0.492778E-06  0.211E-02    0.09       1.0  T
  30   -201.4666170 -0.643555E-04  0.151E-02    0.09       1.0  T
  31   -201.4666195 -0.245092E-05  0.132E-02    0.09       1.0  T
  32   -201.4666754 -0.559044E-04  0.386E-03    0.09       2.4  T
  33   -201.4666759 -0.593489E-06  0.311E-03    0.09       3.0  T
  34   -201.4666723  0.364108E-05  0.411E-03    0.09       2.3  T
  35   -201.4666764 -0.407373E-05  0.238E-03    0.09       3.9  T
  36   -201.4666785 -0.207985E-05  0.805E-04    0.09      11.6  T
  37   -201.4666785 -0.524826E-07  0.662E-04    0.09      14.1  T
  38   -201.4666786 -0.534381E-07  0.515E-04    0.09      18.1  T

   *** convergence criteria satisfied after 38 iterations ***

         #    Occupation            Energy/Eh            Energy/eV
      -------------------------------------------------------------
         1        2.0000           -0.6823788             -18.5685
       ...           ...                  ...                  ...
       179        2.0000           -0.3658810              -9.9561
       180        2.0000           -0.3654642              -9.9448
       181        2.0000           -0.3607629              -9.8169
       182        2.0000           -0.3604283              -9.8078
       183        2.0000           -0.3516826              -9.5698
       184        2.0000           -0.3515822              -9.5670
       185        1.5759           -0.3374261              -9.1818 (HOMO)
       186        0.2206           -0.3341957              -9.0939 (LUMO)
       187        0.2035           -0.3341102              -9.0916
       188                         -0.3164497              -8.6110
       189                         -0.3163673              -8.6088
       190                         -0.3092298              -8.4146
       ...                                ...                  ...
       364                          1.5712625              42.7562
      -------------------------------------------------------------
                  HL-Gap            0.0032304 Eh            0.0879 eV
             Fermi-level           -0.3361791 Eh           -9.1479 eV

 SCC (total)                   0 d,  0 h,  0 min,  1.220 sec
 SCC setup                      ...        0 min,  0.002 sec (  0.197%)
 Dispersion                     ...        0 min,  0.005 sec (  0.414%)
 classical contributions        ...        0 min,  0.001 sec (  0.061%)
 integral evaluation            ...        0 min,  0.044 sec (  3.598%)
 iterations                     ...        0 min,  1.030 sec ( 84.472%)
 molecular gradient             ...        0 min,  0.135 sec ( 11.035%)
 printout                       ...        0 min,  0.003 sec (  0.221%)

         :::::::::::::::::::::::::::::::::::::::::::::::::::::
         ::                     SUMMARY                     ::
         :::::::::::::::::::::::::::::::::::::::::::::::::::::
         :: total energy            -197.757082606456 Eh    ::
         :: gradient norm              0.622859534057 Eh/a0 ::
         :: HOMO-LUMO gap              0.087903447327 eV    ::
         ::.................................................::
         :: SCC energy              -201.466678567820 Eh    ::
         :: -> isotropic ES            0.204776388157 Eh    ::
         :: -> anisotropic ES          0.026246945448 Eh    ::
         :: -> anisotropic XC          0.130276039538 Eh    ::
         :: -> dispersion             -0.172441085276 Eh    ::
         :: repulsion energy           3.709051714946 Eh    ::
         :: add. restraining           0.000000000000 Eh    ::
         :: total charge              -0.000000000015 e     ::
         :::::::::::::::::::::::::::::::::::::::::::::::::::::

      ----------------------------------------------------------- 
     |                   =====================                   |
     |                        A N C O P T                        |
     |                   =====================                   |
     |               Approximate Normal Coordinate               |
     |                Rational Function Optimizer                |
      ----------------------------------------------------------- 

          ...................................................
          :                      SETUP                      :
          :.................................................:
          :   optimization level            normal          :
          :   max. optcycles                   345          :
          :   ANC micro-cycles                  20          :
          :   degrees of freedom               339          :
          :.................................................:
          :   RF solver                   davidson          :
          :   write xtbopt.log                true          :
          :   linear?                        false          :
          :   energy convergence         0.5000000E-05 Eh   :
          :   grad. convergence          0.1000000E-02 Eh/α :
          :   maximium RF displ.         1.0000000          :
          :   Hlow (freq-cutoff)         0.1000000E-01      :
          :   Hmax (freq-cutoff)         5.0000000          :
          :   S6 in model hess.         20.0000000          :
          ...................................................

generating ANC from model Hessian ...
Using Lindh-Hessian (1995)
 Shifting diagonal of input Hessian by    1.0125410391572559E-002
 Lowest  eigenvalues of input Hessian
    0.010000    0.010040    0.010095    0.010104    0.010105    0.010111
    0.010116    0.010118    0.000000    0.000000    0.000000    0.000000
    0.000000    0.000000    0.010136    0.010139    0.010144    0.010158
 Highest eigenvalues
    2.203998    2.204000    2.239930    2.250064    2.785521    2.844619


........................................................................
.............................. CYCLE    1 ..............................
........................................................................
   1   -201.4666786 -0.201467E+03  0.322E-04    0.09       0.0  T
   2   -201.4666655  0.131758E-04  0.517E-03    0.09       1.8  T
   3   -201.4666786 -0.131604E-04  0.467E-04    0.09      20.0  T
   4   -201.4666787 -0.489792E-07  0.213E-04    0.09      43.8  T
   5   -201.4666786  0.117850E-06  0.647E-04    0.09      14.4  T
     SCC iter.                  ...        0 min,  0.133 sec
     gradient                   ...        0 min,  0.135 sec
 * total energy  :  -197.7570826 Eh     change        0.1026669E-07 Eh
   gradient norm :     0.6228519 Eh/α   predicted     0.0000000E+00 (-100.00%)
   displ. norm   :     0.5314270 α      lambda       -0.2435964E+00
   maximum displ.:     0.1557467 α      in ANC's #117, #116, #118, ...

........................................................................
.............................. CYCLE    2 ..............................
........................................................................
   1   -201.4525362 -0.201453E+03  0.415E-01    0.07       0.0  T
   2   -201.3318438  0.120692E+00  0.700E-01    0.01       1.0  T
   3   -201.3927420 -0.608983E-01  0.589E-01    0.16       1.0  T
   4   -201.3807187  0.120233E-01  0.500E-01    0.01       1.0  T
   5   -201.3191233  0.615955E-01  0.618E-01    0.00       1.0  T
   6   -201.4111842 -0.920610E-01  0.488E-01    0.24       1.0  T
   7   -201.4229233 -0.117391E-01  0.302E-01    0.03       1.0  T
   8   -201.4498339 -0.269106E-01  0.281E-01    0.07       1.0  T
   9   -201.4573631 -0.752918E-02  0.212E-01    0.10       1.0  T
  10   -201.4643818 -0.701867E-02  0.120E-01    0.10       1.0  T
  11   -201.4658892 -0.150742E-02  0.977E-02    0.09       1.0  T
  12   -201.4632206  0.266857E-02  0.131E-01    0.11       1.0  T
  13   -201.4667334 -0.351283E-02  0.742E-02    0.09       1.0  T
  14   -201.4679517 -0.121823E-02  0.282E-02    0.08       1.0  T
  15   -201.4681990 -0.247290E-03  0.147E-02    0.08       1.0  T
  16   -201.4682719 -0.729390E-04  0.384E-03    0.08       2.4  T
  17   -201.4682652  0.675533E-05  0.605E-03    0.08       1.5  T
  18   -201.4682656 -0.493441E-06  0.515E-03    0.08       1.8  T
  19   -201.4682730 -0.738630E-05  0.152E-03    0.08       6.1  T
  20   -201.4682735 -0.507931E-06  0.902E-04    0.08      10.3  T
  21   -201.4682735  0.577622E-07  0.862E-04    0.08      10.8  T
     SCC iter.                  ...        0 min,  0.547 sec
     gradient                   ...        0 min,  0.134 sec
 * total energy  :  -197.9468495 Eh     change       -0.1897669E+00 Eh
   gradient norm :     0.3290998 Eh/α   predicted    -0.1562605E+00 ( -17.66%)
   displ. norm   :     0.6166636 α      lambda       -0.1486432E+00
   maximum displ.:     0.2077660 α      in ANC's #117, #116, #118, ...

........................................................................
.............................. CYCLE    3 ..............................
........................................................................
   1   -201.5102869 -0.201510E+03  0.451E-01    0.06       0.0  T
   2   -201.3843933  0.125894E+00  0.783E-01    0.02       1.0  T
   3   -201.3556135  0.287798E-01  0.935E-01    0.22       1.0  T
   4   -201.3162384  0.393751E-01  0.744E-01    0.06       1.0  T
   5   -201.4658847 -0.149646E+00  0.487E-01    0.11       1.0  T
   6   -201.4697863 -0.390156E-02  0.384E-01    0.01       1.0  T
   7   -201.4804976 -0.107113E-01  0.371E-01    0.17       1.0  T
   8   -201.5199161 -0.394185E-01  0.127E-01    0.07       1.0  T
   9   -201.5007538  0.191623E-01  0.210E-01    0.03       1.0  T
  10   -201.5206990 -0.199452E-01  0.974E-02    0.07       1.0  T
  11   -201.5216330 -0.934060E-03  0.767E-02    0.07       1.0  T
  12   -201.5226094 -0.976386E-03  0.576E-02    0.07       1.0  T
  13   -201.5221476  0.461780E-03  0.551E-02    0.06       1.0  T
  14   -201.5231525 -0.100487E-02  0.217E-02    0.06       1.0  T
  15   -201.5233106 -0.158065E-03  0.112E-02    0.06       1.0  T
  16   -201.5233294 -0.187755E-04  0.814E-03    0.06       1.1  T
  17   -201.5233582 -0.288724E-04  0.298E-03    0.06       3.1  T
  18   -201.5233621 -0.386511E-05  0.838E-04    0.06      11.1  T
  19   -201.5233623 -0.238807E-06  0.468E-04    0.06      19.9  T
  20   -201.5233624 -0.329496E-07  0.281E-04    0.06      33.1  T
     SCC iter.                  ...        0 min,  0.522 sec
     gradient                   ...        0 min,  0.134 sec
 * total energy  :  -198.0539178 Eh     change       -0.1070684E+00 Eh
   gradient norm :     0.1199437 Eh/α   predicted    -0.1025842E+00 (  -4.19%)
   displ. norm   :     0.6730491 α      lambda       -0.6397168E-01
   maximum displ.:     0.2204204 α      in ANC's #117, #116, #61, ...

........................................................................
.............................. CYCLE    4 ..............................
........................................................................
   1   -201.5730428 -0.201573E+03  0.387E-01    0.08       0.0  T
   2   -200.8311119  0.741931E+00  0.163E+00    0.16       1.0  T
   3   -200.9229574 -0.918456E-01  0.128E+00    0.23       1.0  T
   4   -201.5341203 -0.611163E+00  0.494E-01    0.07       1.0  T
   5   -201.5000032  0.341171E-01  0.626E-01    0.15       1.0  T
   6   -201.5447899 -0.447867E-01  0.407E-01    0.12       1.0  T
   7   -201.5655468 -0.207569E-01  0.279E-01    0.02       1.0  T
   8   -201.5762538 -0.107071E-01  0.176E-01    0.08       1.0  T
   9   -201.5845492 -0.829541E-02  0.699E-02    0.05       1.0  T
  10   -201.5836447  0.904545E-03  0.818E-02    0.05       1.0  T
  11   -201.5841466 -0.501878E-03  0.771E-02    0.05       1.0  T
  12   -201.5808941  0.325252E-02  0.102E-01    0.05       1.0  T
  13   -201.5846033 -0.370929E-02  0.466E-02    0.05       1.0  T
  14   -201.5853197 -0.716397E-03  0.261E-02    0.06       1.0  T
  15   -201.5853680 -0.482740E-04  0.229E-02    0.05       1.0  T
  16   -201.5855646 -0.196601E-03  0.959E-03    0.06       1.0  T
  17   -201.5855368  0.278252E-04  0.107E-02    0.05       1.0  T
  18   -201.5855695 -0.327248E-04  0.647E-03    0.06       1.4  T
  19   -201.5855857 -0.161439E-04  0.284E-03    0.06       3.3  T
  20   -201.5855878 -0.211120E-05  0.149E-03    0.06       6.3  T
  21   -201.5855880 -0.229327E-06  0.127E-03    0.06       7.4  T
  22   -201.5855883 -0.288027E-06  0.934E-04    0.06      10.0  T
  23   -201.5855886 -0.281742E-06  0.286E-04    0.06      32.6  T
     SCC iter.                  ...        0 min,  0.599 sec
     gradient                   ...        0 min,  0.135 sec
 * total energy  :  -198.1037341 Eh     change       -0.4981626E-01 Eh
   gradient norm :     0.0688941 Eh/α   predicted    -0.4647533E-01 (  -6.71%)
   displ. norm   :     0.7319888 α      lambda       -0.4008495E-01
   maximum displ.:     0.2353270 α      in ANC's #61, #62, #60, ...

........................................................................
.............................. CYCLE    5 ..............................
........................................................................
   1   -201.6172749 -0.201617E+03  0.376E-01    0.10       0.0  T
   2   -200.8896444  0.727630E+00  0.160E+00    0.18       1.0  T
   3   -200.9988794 -0.109235E+00  0.126E+00    0.29       1.0  T
   4   -201.5358378 -0.536958E+00  0.547E-01    0.00       1.0  T
   5   -201.5536205 -0.177827E-01  0.597E-01    0.17       1.0  T
   6   -201.5749118 -0.212913E-01  0.455E-01    0.28       1.0  T
   7   -201.5831859 -0.827405E-02  0.452E-01    0.11       1.0  T
   8   -201.6069952 -0.238093E-01  0.277E-01    0.12       1.0  T
   9   -201.6237101 -0.167149E-01  0.136E-01    0.07       1.0  T
  10   -201.6259272 -0.221705E-02  0.105E-01    0.07       1.0  T
  11   -201.6260041 -0.769177E-04  0.100E-01    0.06       1.0  T
  12   -201.6293349 -0.333080E-02  0.442E-02    0.06       1.0  T
  13   -201.6296563 -0.321466E-03  0.244E-02    0.06       1.0  T
  14   -201.6297139 -0.575358E-04  0.207E-02    0.06       1.0  T
  15   -201.6298677 -0.153774E-03  0.834E-03    0.06       1.1  T
  16   -201.6298248  0.428641E-04  0.118E-02    0.06       1.0  T
  17   -201.6298555 -0.307564E-04  0.874E-03    0.06       1.1  T
  18   -201.6298800 -0.244853E-04  0.434E-03    0.06       2.2  T
  19   -201.6298805 -0.427125E-06  0.348E-03    0.06       2.7  T
  20   -201.6298828 -0.232079E-05  0.252E-03    0.06       3.7  T
  21   -201.6298839 -0.112128E-05  0.201E-03    0.06       4.6  T
  22   -201.6298853 -0.140216E-05  0.954E-04    0.06       9.8  T
  23   -201.6298856 -0.296444E-06  0.361E-04    0.06      25.9  T
  24   -201.6298857 -0.544017E-07  0.501E-05    0.06     186.0  T
     SCC iter.                  ...        0 min,  0.625 sec
     gradient                   ...        0 min,  0.135 sec
 * total energy  :  -198.1367996 Eh     change       -0.3306550E-01 Eh
   gradient norm :     0.0585759 Eh/α   predicted    -0.3078139E-01 (  -6.91%)
   displ. norm   :     0.7705337 α      lambda       -0.2917434E-01
   maximum displ.:     0.2659188 α      in ANC's #61, #62, #18, ...

........................................................................
.............................. CYCLE    6 ..............................
........................................................................
   1   -201.6547168 -0.201655E+03  0.368E-01    0.11       0.0  T
   2   -201.0950887  0.559628E+00  0.130E+00    0.16       1.0  T
   3   -201.1526144 -0.575257E-01  0.111E+00    0.23       1.0  T
   4   -201.6149452 -0.462331E+00  0.496E-01    0.11       1.0  T
   5   -201.5325816  0.823636E-01  0.760E-01    0.25       1.0  T
   6   -201.6287690 -0.961874E-01  0.414E-01    0.14       1.0  T
   7   -201.6291802 -0.411240E-03  0.386E-01    0.13       1.0  T
   8   -201.6471634 -0.179832E-01  0.250E-01    0.11       1.0  T
   9   -201.6584061 -0.112426E-01  0.145E-01    0.11       1.0  T
  10   -201.6605868 -0.218076E-02  0.115E-01    0.10       1.0  T
  11   -201.6602464  0.340387E-03  0.121E-01    0.10       1.0  T
  12   -201.6630120 -0.276557E-02  0.611E-02    0.08       1.0  T
  13   -201.6639922 -0.980250E-03  0.273E-02    0.07       1.0  T
  14   -201.6640324 -0.401209E-04  0.192E-02    0.07       1.0  T
  15   -201.6640685 -0.361623E-04  0.139E-02    0.07       1.0  T
  16   -201.6641126 -0.440558E-04  0.810E-03    0.07       1.2  T
  17   -201.6641297 -0.171331E-04  0.354E-03    0.07       2.6  T
  18   -201.6641308 -0.103707E-05  0.226E-03    0.07       4.1  T
  19   -201.6641320 -0.126683E-05  0.110E-03    0.07       8.5  T
  20   -201.6641322 -0.166422E-06  0.908E-04    0.07      10.3  T
  21   -201.6641323 -0.733267E-07  0.633E-04    0.07      14.7  T
     SCC iter.                  ...        0 min,  0.542 sec
     gradient                   ...        0 min,  0.135 sec
 * total energy  :  -198.1614426 Eh     change       -0.2464298E-01 Eh
   gradient norm :     0.0451418 Eh/α   predicted    -0.2324789E-01 (  -5.66%)
   displ. norm   :     0.8002409 α      lambda       -0.2211611E-01
   maximum displ.:     0.2987001 α      in ANC's #18, #20, #61, ...

........................................................................
.............................. CYCLE    7 ..............................
........................................................................
   1   -201.6801856 -0.201680E+03  0.362E-01    0.14       0.0  T
   2   -201.1973280  0.482858E+00  0.115E+00    0.11       1.0  T
   3   -201.2799324 -0.826044E-01  0.103E+00    0.12       1.0  T
   4   -201.6380829 -0.358151E+00  0.488E-01    0.24       1.0  T
   5   -201.5724812  0.656017E-01  0.763E-01    0.22       1.0  T
   6   -201.6535143 -0.810331E-01  0.406E-01    0.25       1.0  T
   7   -201.6595811 -0.606676E-02  0.349E-01    0.20       1.0  T
   8   -201.6708417 -0.112606E-01  0.255E-01    0.20       1.0  T
   9   -201.6804149 -0.957327E-02  0.169E-01    0.16       1.0  T
  10   -201.6814283 -0.101333E-02  0.157E-01    0.15       1.0  T
  11   -201.6832753 -0.184707E-02  0.134E-01    0.14       1.0  T
  12   -201.6866361 -0.336079E-02  0.805E-02    0.12       1.0  T
  13   -201.6881792 -0.154308E-02  0.301E-02    0.10       1.0  T
  14   -201.6881765  0.274319E-05  0.275E-02    0.09       1.0  T
  15   -201.6882492 -0.727373E-04  0.241E-02    0.10       1.0  T
  16   -201.6883819 -0.132699E-03  0.760E-03    0.09       1.2  T
  17   -201.6883993 -0.174162E-04  0.367E-03    0.09       2.5  T
  18   -201.6883867  0.126378E-04  0.715E-03    0.09       1.3  T
  19   -201.6884004 -0.137322E-04  0.159E-03    0.09       5.8  T
  20   -201.6884012 -0.796587E-06  0.388E-04    0.09      24.0  T
  21   -201.6884012 -0.332412E-07  0.161E-04    0.09      58.0  T
     SCC iter.                  ...        0 min,  0.549 sec
     gradient                   ...        0 min,  0.135 sec
 * total energy  :  -198.1806533 Eh     change       -0.1921079E-01 Eh
   gradient norm :     0.0366291 Eh/α   predicted    -0.1813949E-01 (  -5.58%)
   displ. norm   :     0.8477847 α      lambda       -0.1843380E-01
   maximum displ.:     0.3533770 α      in ANC's #18, #20, #9, ...

........................................................................
.............................. CYCLE    8 ..............................
........................................................................
   1   -201.6932635 -0.201693E+03  0.358E-01    0.18       0.0  T
   2   -201.2870364  0.406227E+00  0.107E+00    0.04       1.0  T
   3   -201.6675093 -0.380473E+00  0.421E-01    0.17       1.0  T
   4   -201.6287374  0.387719E-01  0.633E-01    0.15       1.0  T
   5   -201.6706318 -0.418944E-01  0.380E-01    0.30       1.0  T
   6   -201.6861108 -0.154790E-01  0.282E-01    0.17       1.0  T
   7   -201.6939593 -0.784850E-02  0.157E-01    0.12       1.0  T
   8   -201.6942073 -0.247935E-03  0.163E-01    0.18       1.0  T
   9   -201.6981749 -0.396764E-02  0.106E-01    0.14       1.0  T
  10   -201.6983047 -0.129811E-03  0.104E-01    0.14       1.0  T
  11   -201.6993137 -0.100897E-02  0.815E-02    0.13       1.0  T
  12   -201.7001041 -0.790392E-03  0.526E-02    0.11       1.0  T
  13   -201.7012558 -0.115169E-02  0.242E-02    0.11       1.0  T
  14   -201.7013114 -0.556611E-04  0.211E-02    0.11       1.0  T
  15   -201.7013882 -0.767617E-04  0.142E-02    0.12       1.0  T
  16   -201.7014409 -0.527002E-04  0.321E-03    0.11       2.9  T
  17   -201.7014422 -0.133723E-05  0.152E-03    0.12       6.1  T
  18   -201.7014425 -0.237986E-06  0.127E-03    0.12       7.3  T
  19   -201.7014428 -0.363849E-06  0.780E-04    0.12      12.0  T
  20   -201.7014430 -0.160966E-06  0.219E-04    0.12      42.7  T
     SCC iter.                  ...        0 min,  0.522 sec
     gradient                   ...        0 min,  0.135 sec
 * total energy  :  -198.1976091 Eh     change       -0.1695581E-01 Eh
   gradient norm :     0.0345588 Eh/α   predicted    -0.1584151E-01 (  -6.57%)
   displ. norm   :     0.9130198 α      lambda       -0.1822634E-01
   maximum displ.:     0.3818748 α      in ANC's #18, #20, #9, ...

........................................................................
.............................. CYCLE    9 ..............................
........................................................................
   1   -201.6995071 -0.201700E+03  0.368E-01    0.25       0.0  T
   2   -201.2363516  0.463156E+00  0.113E+00    0.10       1.0  T
   3   -201.6616318 -0.425280E+00  0.494E-01    0.19       1.0  T
   4   -201.6685345 -0.690266E-02  0.463E-01    0.24       1.0  T
   5   -201.6700626 -0.152816E-02  0.450E-01    0.38       1.0  T
   6   -201.6937613 -0.236987E-01  0.241E-01    0.33       1.0  T
   7   -201.6985766 -0.481529E-02  0.192E-01    0.21       1.0  T
   8   -201.7015029 -0.292628E-02  0.143E-01    0.24       1.0  T
   9   -201.7031394 -0.163653E-02  0.114E-01    0.22       1.0  T
  10   -201.7032282 -0.888088E-04  0.112E-01    0.22       1.0  T
  11   -201.7041928 -0.964562E-03  0.941E-02    0.22       1.0  T
  12   -201.7056487 -0.145594E-02  0.575E-02    0.21       1.0  T
  13   -201.7065785 -0.929751E-03  0.155E-02    0.15       1.0  T
  14   -201.7062677  0.310761E-03  0.335E-02    0.18       1.0  T
  15   -201.7066264 -0.358637E-03  0.118E-02    0.16       1.0  T
  16   -201.7065058  0.120591E-03  0.197E-02    0.14       1.0  T
  17   -201.7066309 -0.125152E-03  0.811E-03    0.16       1.2  T
  18   -201.7066525 -0.215312E-04  0.542E-04    0.16      17.2  T
  19   -201.7066525 -0.195458E-07  0.345E-04    0.16      27.0  T
  20   -201.7066522  0.233238E-06  0.805E-04    0.15      11.6  T
     SCC iter.                  ...        0 min,  0.523 sec
     gradient                   ...        0 min,  0.135 sec
 * total energy  :  -198.2157304 Eh     change       -0.1812127E-01 Eh
   gradient norm :     0.0352007 Eh/α   predicted    -0.1670997E-01 (  -7.79%)
   displ. norm   :     0.9668367 α      lambda       -0.2072704E-01
   maximum displ.:     0.3941027 α      in ANC's #18, #20, #9, ...

........................................................................
.............................. CYCLE   10 ..............................
........................................................................
   1   -201.7071268 -0.201707E+03  0.409E-01    0.35       0.0  T
   2   -201.6570272  0.500996E-01  0.544E-01    0.11       1.0  T
   3   -201.6872569 -0.302297E-01  0.412E-01    0.44       1.0  T
   4   -201.6875913 -0.334415E-03  0.381E-01    0.50       1.0  T
   5   -201.7117339 -0.241426E-01  0.950E-02    0.34       1.0  T
   6   -201.7123152 -0.581324E-03  0.768E-02    0.25       1.0  T
   7   -201.7130499 -0.734667E-03  0.294E-02    0.26       1.0  T
   8   -201.7130960 -0.461429E-04  0.267E-02    0.23       1.0  T
   9   -201.7131592 -0.632016E-04  0.151E-02    0.25       1.0  T
  10   -201.7131688 -0.950501E-05  0.923E-03    0.24       1.0  T
  11   -201.7131761 -0.732988E-05  0.399E-03    0.24       2.3  T
  12   -201.7131778 -0.167693E-05  0.219E-03    0.23       4.3  T
  13   -201.7131782 -0.433384E-06  0.115E-03    0.23       8.1  T
  14   -201.7131784 -0.184751E-06  0.387E-04    0.24      24.1  T
  15   -201.7131784 -0.229388E-07  0.158E-04    0.23      58.8  T
     SCC iter.                  ...        0 min,  0.389 sec
     gradient                   ...        0 min,  0.135 sec
 * total energy  :  -198.2365841 Eh     change       -0.2085370E-01 Eh
   gradient norm :     0.0443783 Eh/α   predicted    -0.2005107E-01 (  -3.85%)
   displ. norm   :     0.9861654 α      lambda       -0.2149549E-01
   maximum displ.:     0.4049878 α      in ANC's #18, #20, #9, ...

........................................................................
.............................. CYCLE   11 ..............................
........................................................................
   1   -201.6941707 -0.201694E+03  0.394E-01    0.48       0.0  T
   2   -201.6806641  0.135066E-01  0.366E-01    0.38       1.0  T
   3   -201.6699220  0.107421E-01  0.430E-01    0.48       1.0  T
   4   -201.6854641 -0.155421E-01  0.258E-01    0.55       1.0  T
   5   -201.6965227 -0.110586E-01  0.606E-02    0.45       1.0  T
   6   -201.6968747 -0.352024E-03  0.284E-02    0.43       1.0  T
   7   -201.6970091 -0.134445E-03  0.104E-02    0.45       1.0  T
   8   -201.6970165 -0.739324E-05  0.606E-03    0.45       1.5  T
   9   -201.6970150  0.156130E-05  0.412E-03    0.45       2.3  T
  10   -201.6970176 -0.265561E-05  0.135E-03    0.45       6.9  T
  11   -201.6970179 -0.295176E-06  0.609E-04    0.45      15.3  T
  12   -201.6970180 -0.377135E-07  0.325E-04    0.45      28.7  T
     SCC iter.                  ...        0 min,  0.314 sec
     gradient                   ...        0 min,  0.135 sec
 * total energy  :  -198.2588699 Eh     change       -0.2228577E-01 Eh
   gradient norm :     0.0645924 Eh/α   predicted    -0.2120015E-01 (  -4.87%)
   displ. norm   :     0.9636240 α      lambda       -0.2338132E-01
   maximum displ.:     0.3709010 α      in ANC's #18, #20, #9, ...

........................................................................
.............................. CYCLE   12 ..............................
........................................................................
   1   -201.6824422 -0.201682E+03  0.384E-01    0.78       0.0  T
   2   -201.6773835  0.505871E-02  0.287E-01    0.73       1.0  T
   3   -201.6632622  0.141213E-01  0.383E-01    0.83       1.0  T
   4   -201.6806218 -0.173596E-01  0.148E-01    0.86       1.0  T
   5   -201.6840082 -0.338640E-02  0.457E-02    0.79       1.0  T
   6   -201.6842717 -0.263462E-03  0.111E-02    0.80       1.0  T
   7   -201.6842839 -0.122371E-04  0.622E-03    0.80       1.5  T
   8   -201.6842842 -0.266110E-06  0.405E-03    0.80       2.3  T
   9   -201.6842857 -0.154653E-05  0.224E-03    0.80       4.2  T
  10   -201.6842866 -0.899069E-06  0.623E-04    0.80      15.0  T
  11   -201.6842866 -0.296114E-07  0.381E-04    0.80      24.5  T
     SCC iter.                  ...        0 min,  0.288 sec
     gradient                   ...        0 min,  0.134 sec
 * total energy  :  -198.2832595 Eh     change       -0.2438965E-01 Eh
   gradient norm :     0.0842082 Eh/α   predicted    -0.2254628E-01 (  -7.56%)
   displ. norm   :     0.9454275 α      lambda       -0.2531094E-01
   maximum displ.:     0.3498821 α      in ANC's #18, #9, #20, ...

........................................................................
.............................. CYCLE   13 ..............................
........................................................................
   1   -201.6682761 -0.201668E+03  0.364E-01    1.20       0.0  T
   2   -201.6663707  0.190538E-02  0.246E-01    1.18       1.0  T
   3   -201.6559060  0.104647E-01  0.317E-01    1.27       1.0  T
   4   -201.6686304 -0.127244E-01  0.744E-02    1.26       1.0  T
   5   -201.6692892 -0.658809E-03  0.375E-02    1.24       1.0  T
   6   -201.6694938 -0.204607E-03  0.823E-03    1.24       1.1  T
   7   -201.6695009 -0.711773E-05  0.452E-03    1.24       2.1  T
   8   -201.6695020 -0.109395E-05  0.291E-03    1.24       3.2  T
   9   -201.6695032 -0.112364E-05  0.129E-03    1.24       7.2  T
  10   -201.6695033 -0.184983E-06  0.499E-04    1.24      18.7  T
  11   -201.6695034 -0.170711E-07  0.324E-04    1.24      28.8  T
     SCC iter.                  ...        0 min,  0.285 sec
     gradient                   ...        0 min,  0.134 sec
 * total energy  :  -198.3092439 Eh     change       -0.2598437E-01 Eh
   gradient norm :     0.1010082 Eh/α   predicted    -0.2396735E-01 (  -7.76%)
   displ. norm   :     0.9210216 α      lambda       -0.2673665E-01
   maximum displ.:     0.3362162 α      in ANC's #9, #18, #20, ...

........................................................................
.............................. CYCLE   14 ..............................
........................................................................
   1   -201.6561712 -0.201656E+03  0.338E-01    1.40       0.0  T
   2   -201.6553381  0.833127E-03  0.223E-01    1.42       1.0  T
   3   -201.6482517  0.708641E-02  0.261E-01    1.43       1.0  T
   4   -201.6568268 -0.857510E-02  0.386E-02    1.44       1.0  T
   5   -201.6569882 -0.161441E-03  0.175E-02    1.43       1.0  T
   6   -201.6570308 -0.425638E-04  0.641E-03    1.43       1.5  T
   7   -201.6570337 -0.292664E-05  0.407E-03    1.43       2.3  T
   8   -201.6570347 -0.100559E-05  0.210E-03    1.43       4.4  T
   9   -201.6570353 -0.600513E-06  0.980E-04    1.43       9.5  T
  10   -201.6570355 -0.113919E-06  0.399E-04    1.43      23.3  T
     SCC iter.                  ...        0 min,  0.261 sec
     gradient                   ...        0 min,  0.134 sec
 * total energy  :  -198.3351634 Eh     change       -0.2591946E-01 Eh
   gradient norm :     0.1110922 Eh/α   predicted    -0.2470839E-01 (  -4.67%)
   displ. norm   :     0.9177946 α      lambda       -0.3856670E-01
   maximum displ.:     0.2707360 α      in ANC's #9, #35, #34, ...

........................................................................
.............................. CYCLE   15 ..............................
........................................................................
   1   -201.7482399 -0.201748E+03  0.416E-01    1.30       0.0  T
   2   -201.7464154  0.182451E-02  0.300E-01    1.31       1.0  T
   3   -201.7387332  0.768215E-02  0.301E-01    1.28       1.0  T
   4   -201.7495681 -0.108349E-01  0.721E-02    1.29       1.0  T
   5   -201.7502462 -0.678082E-03  0.262E-02    1.30       1.0  T
   6   -201.7503506 -0.104359E-03  0.134E-02    1.30       1.0  T
   7   -201.7503671 -0.165015E-04  0.745E-03    1.30       1.3  T
   8   -201.7503707 -0.365945E-05  0.431E-03    1.30       2.2  T
   9   -201.7503736 -0.284005E-05  0.156E-03    1.30       6.0  T
  10   -201.7503738 -0.282811E-06  0.660E-04    1.30      14.1  T
  11   -201.7503739 -0.179815E-07  0.391E-04    1.30      23.9  T
     SCC iter.                  ...        0 min,  0.289 sec
     gradient                   ...        0 min,  0.135 sec
 * total energy  :  -198.3455076 Eh     change       -0.1034428E-01 Eh
   gradient norm :     0.1806672 Eh/α   predicted    -0.3552663E-01 ( 243.44%)
   displ. norm   :     0.6271005 α      lambda       -0.4525137E-01
   maximum displ.:     0.2919165 α      in ANC's #18, #20, #19, ...

........................................................................
.............................. CYCLE   16 ..............................
........................................................................
   1   -201.6785400 -0.201679E+03  0.243E-01    1.33       0.0  T
   2   -201.6785292  0.108839E-04  0.150E-01    1.32       1.0  T
   3   -201.6752553  0.327385E-02  0.149E-01    1.33       1.0  T
   4   -201.6785963 -0.334098E-02  0.414E-02    1.33       1.0  T
   5   -201.6788382 -0.241874E-03  0.951E-03    1.33       1.0  T
   6   -201.6788414 -0.321480E-05  0.658E-03    1.33       1.4  T
   7   -201.6788444 -0.307938E-05  0.314E-03    1.33       3.0  T
   8   -201.6788456 -0.113119E-05  0.107E-03    1.33       8.7  T
   9   -201.6788457 -0.159095E-06  0.469E-04    1.33      19.9  T
  10   -201.6788458 -0.170288E-07  0.268E-04    1.33      34.7  T
     SCC iter.                  ...        0 min,  0.263 sec
     gradient                   ...        0 min,  0.134 sec
 * total energy  :  -198.3787511 Eh     change       -0.3324349E-01 Eh
   gradient norm :     0.1090824 Eh/α   predicted    -0.3152337E-01 (  -5.17%)
   displ. norm   :     0.7162838 α      lambda       -0.2934870E-01
   maximum displ.:     0.3015483 α      in ANC's #9, #20, #18, ...

........................................................................
.............................. CYCLE   17 ..............................
........................................................................
   1   -201.6733128 -0.201673E+03  0.202E-01    1.31       0.0  T
   2   -201.6730418  0.270934E-03  0.139E-01    1.31       1.0  T
   3   -201.6702239  0.281788E-02  0.147E-01    1.31       1.0  T
   4   -201.6734614 -0.323749E-02  0.293E-02    1.31       1.0  T
   5   -201.6735828 -0.121352E-03  0.717E-03    1.31       1.3  T
   6   -201.6735863 -0.353788E-05  0.470E-03    1.31       2.0  T
   7   -201.6735882 -0.191259E-05  0.266E-03    1.31       3.5  T
   8   -201.6735890 -0.733628E-06  0.890E-04    1.31      10.5  T
   9   -201.6735891 -0.108638E-06  0.413E-04    1.31      22.6  T
     SCC iter.                  ...        0 min,  0.234 sec
     gradient                   ...        0 min,  0.134 sec
 * total energy  :  -198.4023949 Eh     change       -0.2364379E-01 Eh
   gradient norm :     0.0924982 Eh/α   predicted    -0.2220321E-01 (  -6.09%)
   displ. norm   :     0.7521691 α      lambda       -0.2817964E-01
   maximum displ.:     0.3596986 α      in ANC's #9, #18, #20, ...

........................................................................
.............................. CYCLE   18 ..............................
........................................................................
   1   -201.7072839 -0.201707E+03  0.238E-01    1.30       0.0  T
   2   -201.7072357  0.482313E-04  0.156E-01    1.30       1.0  T
   3   -201.7049838  0.225191E-02  0.128E-01    1.31       1.0  T
   4   -201.7074091 -0.242529E-02  0.416E-02    1.30       1.0  T
   5   -201.7076546 -0.245500E-03  0.107E-02    1.30       1.0  T
   6   -201.7076707 -0.161381E-04  0.448E-03    1.30       2.1  T
   7   -201.7076723 -0.155849E-05  0.268E-03    1.30       3.5  T
   8   -201.7076727 -0.404202E-06  0.104E-03    1.30       9.0  T
   9   -201.7076728 -0.843595E-07  0.569E-04    1.30      16.4  T
  10   -201.7076728 -0.404064E-07  0.257E-04    1.30      36.2  T
     SCC iter.                  ...        0 min,  0.262 sec
     gradient                   ...        0 min,  0.135 sec
 * total energy  :  -198.4231119 Eh     change       -0.2071699E-01 Eh
   gradient norm :     0.0919697 Eh/α   predicted    -0.2206126E-01 (   6.49%)
   displ. norm   :     0.7970425 α      lambda       -0.2917402E-01
   maximum displ.:     0.3898225 α      in ANC's #9, #20, #10, ...

........................................................................
.............................. CYCLE   19 ..............................
........................................................................
   1   -201.7513802 -0.201751E+03  0.261E-01    1.27       0.0  T
   2   -201.7512105  0.169700E-03  0.164E-01    1.27       1.0  T
   3   -201.7457594  0.545115E-02  0.166E-01    1.27       1.0  T
   4   -201.7515009 -0.574159E-02  0.254E-02    1.27       1.0  T
   5   -201.7515807 -0.797268E-04  0.552E-03    1.27       1.7  T
   6   -201.7515832 -0.256789E-05  0.325E-03    1.27       2.9  T
   7   -201.7515836 -0.322417E-06  0.204E-03    1.27       4.6  T
   8   -201.7515840 -0.445905E-06  0.626E-04    1.27      14.9  T
   9   -201.7515840 -0.349046E-07  0.332E-04    1.27      28.1  T
     SCC iter.                  ...        0 min,  0.234 sec
     gradient                   ...        0 min,  0.135 sec
 * total energy  :  -198.4456009 Eh     change       -0.2248900E-01 Eh
   gradient norm :     0.0932610 Eh/α   predicted    -0.2385380E-01 (   6.07%)
   displ. norm   :     0.7556235 α      lambda       -0.3472254E-01
   maximum displ.:     0.3673698 α      in ANC's #9, #20, #10, ...

........................................................................
.............................. CYCLE   20 ..............................
........................................................................
   1   -201.8080399 -0.201808E+03  0.259E-01    1.24       0.0  T
   2   -201.8080566 -0.167343E-04  0.163E-01    1.24       1.0  T
   3   -201.8053948  0.266182E-02  0.150E-01    1.24       1.0  T
   4   -201.8081245 -0.272970E-02  0.464E-02    1.24       1.0  T
   5   -201.8084112 -0.286624E-03  0.978E-03    1.24       1.0  T
   6   -201.8084269 -0.157202E-04  0.470E-03    1.24       2.0  T
   7   -201.8084288 -0.192442E-05  0.280E-03    1.24       3.3  T
   8   -201.8084293 -0.467986E-06  0.133E-03    1.24       7.0  T
   9   -201.8084295 -0.266528E-06  0.498E-04    1.24      18.7  T
  10   -201.8084296 -0.298022E-07  0.278E-04    1.24      33.5  T
     SCC iter.                  ...        0 min,  0.260 sec
     gradient                   ...        0 min,  0.134 sec
 * total energy  :  -198.4684031 Eh     change       -0.2280221E-01 Eh
   gradient norm :     0.1119211 Eh/α   predicted    -0.2727396E-01 (  19.61%)
   displ. norm   :     0.7297289 α      lambda       -0.3149498E-01
   maximum displ.:     0.3930668 α      in ANC's #9, #20, #10, ...
 * RMSD in coord.:     1.1905986 α      energy gain  -0.7113205E+00 Eh

generating ANC from model Hessian ...
Using Lindh-Hessian (1995)
 Shifting diagonal of input Hessian by    1.0008540608872296E-002
 Lowest  eigenvalues of input Hessian
    0.010000    0.010001    0.010006    0.000000    0.000000    0.000000
    0.000000    0.000000    0.000000    0.010011    0.010015    0.010023
    0.010030    0.010055    0.010148    0.010378    0.010815    0.010981
 Highest eigenvalues
    2.131872    2.136552    2.151811    2.154714    2.432406    2.496244


........................................................................
.............................. CYCLE   21 ..............................
........................................................................
   1   -201.8376110 -0.201838E+03  0.212E-01    1.17       0.0  T
   2   -201.8374990  0.112023E-03  0.137E-01    1.17       1.0  T
   3   -201.8350003  0.249864E-02  0.144E-01    1.17       1.0  T
   4   -201.8377308 -0.273048E-02  0.320E-02    1.17       1.0  T
   5   -201.8378793 -0.148468E-03  0.968E-03    1.17       1.0  T
   6   -201.8378909 -0.116518E-04  0.519E-03    1.17       1.8  T
   7   -201.8378933 -0.238616E-05  0.253E-03    1.17       3.7  T
   8   -201.8378939 -0.595558E-06  0.113E-03    1.17       8.2  T
   9   -201.8378941 -0.220393E-06  0.497E-04    1.17      18.8  T
  10   -201.8378942 -0.269107E-07  0.270E-04    1.17      34.6  T
     SCC iter.                  ...        0 min,  0.260 sec
     gradient                   ...        0 min,  0.135 sec
 * total energy  :  -198.4874093 Eh     change       -0.1900621E-01 Eh
   gradient norm :     0.0966626 Eh/α   predicted     0.0000000E+00 (-100.00%)
   displ. norm   :     0.6682928 α      lambda       -0.2819804E-01
   maximum displ.:     0.4019978 α      in ANC's #13, #15, #59, ...

........................................................................
.............................. CYCLE   22 ..............................
........................................................................
   1   -201.8511435 -0.201851E+03  0.185E-01    1.17       0.0  T
   2   -201.8510953  0.481733E-04  0.119E-01    1.16       1.0  T
   3   -201.8490698  0.202549E-02  0.948E-02    1.17       1.0  T
   4   -201.8511865 -0.211666E-02  0.257E-02    1.16       1.0  T
   5   -201.8513102 -0.123697E-03  0.823E-03    1.17       1.1  T
   6   -201.8513183 -0.815879E-05  0.298E-03    1.17       3.1  T
   7   -201.8513186 -0.242634E-06  0.185E-03    1.16       5.0  T
   8   -201.8513189 -0.296838E-06  0.751E-04    1.17      12.4  T
   9   -201.8513189 -0.813769E-07  0.287E-04    1.17      32.5  T
     SCC iter.                  ...        0 min,  0.235 sec
     gradient                   ...        0 min,  0.135 sec
 * total energy  :  -198.5112772 Eh     change       -0.2386786E-01 Eh
   gradient norm :     0.0426352 Eh/α   predicted    -0.2040433E-01 ( -14.51%)
   displ. norm   :     0.8395994 α      lambda       -0.2374911E-01
   maximum displ.:     0.5456266 α      in ANC's #13, #15, #59, ...

........................................................................
.............................. CYCLE   23 ..............................
........................................................................
   1   -201.8723614 -0.201872E+03  0.197E-01    1.14       0.0  T
   2   -201.8723071  0.542982E-04  0.122E-01    1.14       1.0  T
   3   -201.8702166  0.209047E-02  0.982E-02    1.15       1.0  T
   4   -201.8724188 -0.220219E-02  0.226E-02    1.14       1.0  T
   5   -201.8725098 -0.910456E-04  0.729E-03    1.14       1.3  T
   6   -201.8725160 -0.615150E-05  0.260E-03    1.14       3.6  T
   7   -201.8725162 -0.169550E-06  0.166E-03    1.14       5.6  T
   8   -201.8725164 -0.238513E-06  0.666E-04    1.14      14.0  T
   9   -201.8725165 -0.685560E-07  0.239E-04    1.14      39.1  T
     SCC iter.                  ...        0 min,  0.237 sec
     gradient                   ...        0 min,  0.135 sec
 * total energy  :  -198.5318057 Eh     change       -0.2052854E-01 Eh
   gradient norm :     0.0295792 Eh/α   predicted    -0.2024525E-01 (  -1.38%)
   displ. norm   :     0.9121964 α      lambda       -0.2092716E-01
   maximum displ.:     0.6205918 α      in ANC's #13, #15, #17, ...

........................................................................
.............................. CYCLE   24 ..............................
........................................................................
   1   -201.8932980 -0.201893E+03  0.228E-01    1.12       0.0  T
   2   -201.8932406  0.574059E-04  0.138E-01    1.12       1.0  T
   3   -201.8909445  0.229604E-02  0.111E-01    1.12       1.0  T
   4   -201.8933647 -0.242017E-02  0.161E-02    1.12       1.0  T
   5   -201.8934006 -0.358758E-04  0.562E-03    1.12       1.7  T
   6   -201.8934032 -0.259852E-05  0.297E-03    1.12       3.1  T
   7   -201.8934035 -0.296829E-06  0.164E-03    1.12       5.7  T
   8   -201.8934038 -0.314754E-06  0.598E-04    1.12      15.6  T
   9   -201.8934038 -0.587617E-07  0.211E-04    1.12      44.1  T
     SCC iter.                  ...        0 min,  0.234 sec
     gradient                   ...        0 min,  0.135 sec
 * total energy  :  -198.5470786 Eh     change       -0.1527292E-01 Eh
   gradient norm :     0.0458003 Eh/α   predicted    -0.1917039E-01 (  25.52%)
   displ. norm   :     0.8342292 α      lambda       -0.2112021E-01
   maximum displ.:     0.5566161 α      in ANC's #13, #15, #12, ...

........................................................................
.............................. CYCLE   25 ..............................
........................................................................
   1   -201.9310337 -0.201931E+03  0.187E-01    1.09       0.0  T
   2   -201.9310254  0.835400E-05  0.111E-01    1.09       1.0  T
   3   -201.9302283  0.797106E-03  0.664E-02    1.10       1.0  T
   4   -201.9310565 -0.828243E-03  0.104E-02    1.09       1.0  T
   5   -201.9310739 -0.173771E-04  0.364E-03    1.09       2.6  T
   6   -201.9310748 -0.880671E-06  0.239E-03    1.09       3.9  T
   7   -201.9310752 -0.464702E-06  0.889E-04    1.09      10.5  T
   8   -201.9310753 -0.715090E-07  0.434E-04    1.09      21.5  T
     SCC iter.                  ...        0 min,  0.208 sec
     gradient                   ...        0 min,  0.135 sec
 * total energy  :  -198.5644987 Eh     change       -0.1742009E-01 Eh
   gradient norm :     0.0338640 Eh/α   predicted    -0.1790928E-01 (   2.81%)
   displ. norm   :     0.8896602 α      lambda       -0.1662598E-01
   maximum displ.:     0.6601666 α      in ANC's #13, #15, #17, ...

........................................................................
.............................. CYCLE   26 ..............................
........................................................................
   1   -201.9666427 -0.201967E+03  0.150E-01    1.08       0.0  T
   2   -201.9666420  0.731104E-06  0.890E-02    1.08       1.0  T
   3   -201.9662218  0.420229E-03  0.459E-02    1.08       1.0  T
   4   -201.9666536 -0.431814E-03  0.825E-03    1.08       1.1  T
   5   -201.9666645 -0.109418E-04  0.237E-03    1.08       3.9  T
   6   -201.9666649 -0.331722E-06  0.158E-03    1.08       5.9  T
   7   -201.9666650 -0.195278E-06  0.643E-04    1.08      14.5  T
   8   -201.9666651 -0.394329E-07  0.244E-04    1.08      38.2  T
     SCC iter.                  ...        0 min,  0.209 sec
     gradient                   ...        0 min,  0.135 sec
 * total energy  :  -198.5800533 Eh     change       -0.1555457E-01 Eh
   gradient norm :     0.0278449 Eh/α   predicted    -0.1489268E-01 (  -4.26%)
   displ. norm   :     0.9156538 α      lambda       -0.1689498E-01
   maximum displ.:     0.6662725 α      in ANC's #13, #15, #17, ...

........................................................................
.............................. CYCLE   27 ..............................
........................................................................
   1   -202.0041657 -0.202004E+03  0.174E-01    1.07       0.0  T
   2   -202.0041706 -0.490094E-05  0.105E-01    1.07       1.0  T
   3   -202.0036650  0.505633E-03  0.582E-02    1.07       1.0  T
   4   -202.0041799 -0.514889E-03  0.119E-02    1.07       1.0  T
   5   -202.0042006 -0.207450E-04  0.331E-03    1.07       2.8  T
   6   -202.0042016 -0.100492E-05  0.200E-03    1.07       4.7  T
   7   -202.0042019 -0.313265E-06  0.101E-03    1.07       9.2  T
   8   -202.0042020 -0.105124E-06  0.354E-04    1.07      26.4  T
   9   -202.0042021 -0.211715E-07  0.151E-04    1.07      61.7  T
     SCC iter.                  ...        0 min,  0.234 sec
     gradient                   ...        0 min,  0.136 sec
 * total energy  :  -198.5948745 Eh     change       -0.1482117E-01 Eh
   gradient norm :     0.0239631 Eh/α   predicted    -0.1553005E-01 (   4.78%)
   displ. norm   :     0.8981692 α      lambda       -0.1597577E-01
   maximum displ.:     0.6584470 α      in ANC's #13, #15, #17, ...

........................................................................
.............................. CYCLE   28 ..............................
........................................................................
   1   -202.0373221 -0.202037E+03  0.167E-01    1.08       0.0  T
   2   -202.0373257 -0.358574E-05  0.992E-02    1.08       1.0  T
   3   -202.0369973  0.328446E-03  0.467E-02    1.08       1.0  T
   4   -202.0373271 -0.329863E-03  0.104E-02    1.08       1.0  T
   5   -202.0373434 -0.163080E-04  0.254E-03    1.08       3.7  T
   6   -202.0373437 -0.259778E-06  0.171E-03    1.08       5.5  T
   7   -202.0373439 -0.214758E-06  0.842E-04    1.08      11.1  T
   8   -202.0373440 -0.817295E-07  0.239E-04    1.08      39.1  T
     SCC iter.                  ...        0 min,  0.212 sec
     gradient                   ...        0 min,  0.136 sec
 * total energy  :  -198.6092838 Eh     change       -0.1440934E-01 Eh
   gradient norm :     0.0256806 Eh/α   predicted    -0.1443178E-01 (   0.16%)
   displ. norm   :     0.9035166 α      lambda       -0.1466765E-01
   maximum displ.:     0.6626046 α      in ANC's #13, #15, #17, ...

........................................................................
.............................. CYCLE   29 ..............................
........................................................................
   1   -202.0586941 -0.202059E+03  0.153E-01    1.08       0.0  T
   2   -202.0586874  0.667880E-05  0.913E-02    1.08       1.0  T
   3   -202.0581775  0.509914E-03  0.477E-02    1.08       1.0  T
   4   -202.0587059 -0.528379E-03  0.715E-03    1.08       1.3  T
   5   -202.0587126 -0.669608E-05  0.270E-03    1.08       3.5  T
   6   -202.0587130 -0.435048E-06  0.164E-03    1.08       5.7  T
   7   -202.0587132 -0.161889E-06  0.679E-04    1.08      13.7  T
   8   -202.0587132 -0.466268E-07  0.142E-04    1.08      65.6  T
     SCC iter.                  ...        0 min,  0.210 sec
     gradient                   ...        0 min,  0.136 sec
 * total energy  :  -198.6230471 Eh     change       -0.1376328E-01 Eh
   gradient norm :     0.0218994 Eh/α   predicted    -0.1332073E-01 (  -3.22%)
   displ. norm   :     0.9246778 α      lambda       -0.1404802E-01
   maximum displ.:     0.6722968 α      in ANC's #13, #15, #17, ...

........................................................................
.............................. CYCLE   30 ..............................
........................................................................
   1   -202.0794385 -0.202079E+03  0.142E-01    1.09       0.0  T
   2   -202.0794320  0.649080E-05  0.851E-02    1.08       1.0  T
   3   -202.0789099  0.522133E-03  0.483E-02    1.09       1.0  T
   4   -202.0794527 -0.542856E-03  0.772E-03    1.08       1.2  T
   5   -202.0794612 -0.849555E-05  0.289E-03    1.08       3.2  T
   6   -202.0794618 -0.564996E-06  0.166E-03    1.08       5.6  T
   7   -202.0794619 -0.158913E-06  0.775E-04    1.08      12.0  T
   8   -202.0794620 -0.701553E-07  0.204E-04    1.08      45.8  T
     SCC iter.                  ...        0 min,  0.208 sec
     gradient                   ...        0 min,  0.137 sec
 * total energy  :  -198.6364347 Eh     change       -0.1338763E-01 Eh
   gradient norm :     0.0168460 Eh/α   predicted    -0.1302974E-01 (  -2.67%)
   displ. norm   :     0.9377510 α      lambda       -0.1333890E-01
   maximum displ.:     0.6971156 α      in ANC's #13, #15, #17, ...

........................................................................
.............................. CYCLE   31 ..............................
........................................................................
   1   -202.1064036 -0.202106E+03  0.146E-01    1.09       0.0  T
   2   -202.1064027  0.912716E-06  0.865E-02    1.09       1.0  T
   3   -202.1061628  0.239911E-03  0.338E-02    1.09       1.0  T
   4   -202.1064124 -0.249546E-03  0.505E-03    1.09       1.8  T
   5   -202.1064154 -0.300555E-05  0.227E-03    1.09       4.1  T
   6   -202.1064155 -0.122010E-06  0.161E-03    1.09       5.8  T
   7   -202.1064157 -0.227992E-06  0.569E-04    1.09      16.4  T
   8   -202.1064158 -0.392795E-07  0.123E-04    1.09      75.6  T
     SCC iter.                  ...        0 min,  0.208 sec
     gradient                   ...        0 min,  0.136 sec
 * total energy  :  -198.6491113 Eh     change       -0.1267659E-01 Eh
   gradient norm :     0.0155483 Eh/α   predicted    -0.1253441E-01 (  -1.12%)
   displ. norm   :     0.9459749 α      lambda       -0.1255444E-01
   maximum displ.:     0.6991317 α      in ANC's #13, #15, #17, ...

........................................................................
.............................. CYCLE   32 ..............................
........................................................................
   1   -202.1348542 -0.202135E+03  0.148E-01    1.10       0.0  T
   2   -202.1348538  0.377233E-06  0.874E-02    1.10       1.0  T
   3   -202.1346803  0.173550E-03  0.296E-02    1.10       1.0  T
   4   -202.1348616 -0.181318E-03  0.367E-03    1.10       2.5  T
   5   -202.1348627 -0.106858E-05  0.219E-03    1.10       4.3  T
   6   -202.1348628 -0.150043E-06  0.147E-03    1.10       6.3  T
   7   -202.1348631 -0.246225E-06  0.396E-04    1.10      23.5  T
   8   -202.1348631 -0.184490E-07  0.127E-04    1.10      73.7  T
     SCC iter.                  ...        0 min,  0.210 sec
     gradient                   ...        0 min,  0.137 sec
 * total energy  :  -198.6610007 Eh     change       -0.1188941E-01 Eh
   gradient norm :     0.0139376 Eh/α   predicted    -0.1189450E-01 (   0.04%)
   displ. norm   :     0.9383996 α      lambda       -0.1156574E-01
   maximum displ.:     0.7001920 α      in ANC's #13, #15, #17, ...

........................................................................
.............................. CYCLE   33 ..............................
........................................................................
   1   -202.1605245 -0.202161E+03  0.138E-01    1.10       0.0  T
   2   -202.1605222  0.228534E-05  0.816E-02    1.10       1.0  T
   3   -202.1602871  0.235101E-03  0.338E-02    1.10       1.0  T
   4   -202.1605326 -0.245482E-03  0.380E-03    1.10       2.5  T
   5   -202.1605340 -0.144519E-05  0.211E-03    1.10       4.4  T
   6   -202.1605342 -0.183387E-06  0.135E-03    1.10       6.9  T
   7   -202.1605344 -0.171210E-06  0.337E-04    1.10      27.7  T
   8   -202.1605344 -0.133540E-07  0.106E-04    1.10      88.2  T
     SCC iter.                  ...        0 min,  0.211 sec
     gradient                   ...        0 min,  0.137 sec
 * total energy  :  -198.6719938 Eh     change       -0.1099311E-01 Eh
   gradient norm :     0.0124286 Eh/α   predicted    -0.1087523E-01 (  -1.07%)
   displ. norm   :     0.9356189 α      lambda       -0.1062742E-01
   maximum displ.:     0.6952403 α      in ANC's #13, #15, #17, ...

........................................................................
.............................. CYCLE   34 ..............................
........................................................................
   1   -202.1857159 -0.202186E+03  0.131E-01    1.09       0.0  T
   2   -202.1857138  0.206704E-05  0.779E-02    1.09       1.0  T
   3   -202.1854763  0.237483E-03  0.351E-02    1.10       1.0  T
   4   -202.1857242 -0.247851E-03  0.422E-03    1.09       2.2  T
   5   -202.1857263 -0.212875E-05  0.198E-03    1.09       4.7  T
   6   -202.1857264 -0.153578E-06  0.133E-03    1.09       7.0  T
   7   -202.1857266 -0.162581E-06  0.387E-04    1.09      24.1  T
   8   -202.1857266 -0.172606E-07  0.107E-04    1.09      86.9  T
     SCC iter.                  ...        0 min,  0.208 sec
     gradient                   ...        0 min,  0.137 sec
 * total energy  :  -198.6821119 Eh     change       -0.1011805E-01 Eh
   gradient norm :     0.0113107 Eh/α   predicted    -0.9965239E-02 (  -1.51%)
   displ. norm   :     0.9328264 α      lambda       -0.9732644E-02
   maximum displ.:     0.6959679 α      in ANC's #13, #15, #17, ...

........................................................................
.............................. CYCLE   35 ..............................
........................................................................
   1   -202.2109382 -0.202211E+03  0.130E-01    1.09       0.0  T
   2   -202.2109368  0.142568E-05  0.775E-02    1.09       1.0  T
   3   -202.2107266  0.210231E-03  0.331E-02    1.09       1.0  T
   4   -202.2109460 -0.219473E-03  0.394E-03    1.09       2.4  T
   5   -202.2109478 -0.176656E-05  0.194E-03    1.09       4.8  T
   6   -202.2109480 -0.174066E-06  0.126E-03    1.09       7.4  T
   7   -202.2109481 -0.142093E-06  0.366E-04    1.09      25.5  T
   8   -202.2109481 -0.148214E-07  0.951E-05    1.09      98.1  T
     SCC iter.                  ...        0 min,  0.210 sec
     gradient                   ...        0 min,  0.138 sec
 * total energy  :  -198.6913685 Eh     change       -0.9256582E-02 Eh
   gradient norm :     0.0100191 Eh/α   predicted    -0.9100839E-02 (  -1.68%)
   displ. norm   :     0.9325711 α      lambda       -0.8866820E-02
   maximum displ.:     0.6955146 α      in ANC's #13, #15, #17, ...

........................................................................
.............................. CYCLE   36 ..............................
........................................................................
   1   -202.2343858 -0.202234E+03  0.131E-01    1.09       0.0  T
   2   -202.2343829  0.291917E-05  0.780E-02    1.09       1.0  T
   3   -202.2341265  0.256367E-03  0.353E-02    1.09       1.0  T
   4   -202.2343942 -0.267704E-03  0.408E-03    1.09       2.3  T
   5   -202.2343962 -0.193143E-05  0.204E-03    1.09       4.6  T
   6   -202.2343964 -0.263231E-06  0.117E-03    1.09       8.0  T
   7   -202.2343965 -0.966477E-07  0.370E-04    1.09      25.2  T
   8   -202.2343965 -0.154584E-07  0.923E-05    1.09     101.1  T
     SCC iter.                  ...        0 min,  0.210 sec
     gradient                   ...        0 min,  0.138 sec
 * total energy  :  -198.6997863 Eh     change       -0.8417815E-02 Eh
   gradient norm :     0.0091758 Eh/α   predicted    -0.8289104E-02 (  -1.53%)
   displ. norm   :     0.9306088 α      lambda       -0.8012768E-02
   maximum displ.:     0.6957975 α      in ANC's #13, #15, #17, ...

........................................................................
.............................. CYCLE   37 ..............................
........................................................................
   1   -202.2571329 -0.202257E+03  0.135E-01    1.08       0.0  T
   2   -202.2571310  0.195638E-05  0.800E-02    1.08       1.0  T
   3   -202.2569106  0.220342E-03  0.333E-02    1.08       1.0  T
   4   -202.2571408 -0.230160E-03  0.394E-03    1.08       2.4  T
   5   -202.2571425 -0.169648E-05  0.196E-03    1.08       4.8  T
   6   -202.2571427 -0.206062E-06  0.120E-03    1.08       7.8  T
   7   -202.2571428 -0.116559E-06  0.382E-04    1.08      24.4  T
   8   -202.2571428 -0.154710E-07  0.928E-05    1.08     100.5  T
     SCC iter.                  ...        0 min,  0.208 sec
     gradient                   ...        0 min,  0.138 sec
 * total energy  :  -198.7073570 Eh     change       -0.7570741E-02 Eh
   gradient norm :     0.0082451 Eh/α   predicted    -0.7476046E-02 (  -1.25%)
   displ. norm   :     0.9295859 α      lambda       -0.7186360E-02
   maximum displ.:     0.6953152 α      in ANC's #13, #15, #17, ...

........................................................................
.............................. CYCLE   38 ..............................
........................................................................
   1   -202.2789681 -0.202279E+03  0.136E-01    1.08       0.0  T
   2   -202.2789656  0.254373E-05  0.807E-02    1.08       1.0  T
   3   -202.2787361  0.229451E-03  0.336E-02    1.08       1.0  T
   4   -202.2789760 -0.239893E-03  0.375E-03    1.08       2.5  T
   5   -202.2789775 -0.150266E-05  0.194E-03    1.08       4.8  T
   6   -202.2789777 -0.210641E-06  0.114E-03    1.08       8.1  T
   7   -202.2789778 -0.105482E-06  0.349E-04    1.08      26.7  T
   8   -202.2789778 -0.128672E-07  0.890E-05    1.08     104.8  T
     SCC iter.                  ...        0 min,  0.210 sec
     gradient                   ...        0 min,  0.138 sec
 * total energy  :  -198.7140959 Eh     change       -0.6738902E-02 Eh
   gradient norm :     0.0075854 Eh/α   predicted    -0.6698157E-02 (  -0.60%)
   displ. norm   :     0.9278846 α      lambda       -0.6373123E-02
   maximum displ.:     0.6926637 α      in ANC's #13, #15, #17, ...

........................................................................
.............................. CYCLE   39 ..............................
........................................................................
   1   -202.2996623 -0.202300E+03  0.139E-01    1.07       0.0  T
   2   -202.2996605  0.181589E-05  0.820E-02    1.07       1.0  T
   3   -202.2994510  0.209484E-03  0.326E-02    1.07       1.0  T
   4   -202.2996701 -0.219066E-03  0.385E-03    1.07       2.4  T
   5   -202.2996718 -0.168824E-05  0.186E-03    1.07       5.0  T
   6   -202.2996720 -0.172650E-06  0.116E-03    1.07       8.0  T
   7   -202.2996721 -0.109673E-06  0.384E-04    1.07      24.3  T
   8   -202.2996721 -0.161028E-07  0.884E-05    1.07     105.5  T
     SCC iter.                  ...        0 min,  0.210 sec
     gradient                   ...        0 min,  0.139 sec
 * total energy  :  -198.7200066 Eh     change       -0.5910713E-02 Eh
   gradient norm :     0.0071402 Eh/α   predicted    -0.5930101E-02 (   0.33%)
   displ. norm   :     0.9239598 α      lambda       -0.5557945E-02
   maximum displ.:     0.6881196 α      in ANC's #13, #15, #17, ...

........................................................................
.............................. CYCLE   40 ..............................
........................................................................
   1   -202.3190676 -0.202319E+03  0.140E-01    1.07       0.0  T
   2   -202.3190662  0.139609E-05  0.825E-02    1.07       1.0  T
   3   -202.3188731  0.193090E-03  0.319E-02    1.07       1.0  T
   4   -202.3190751 -0.201978E-03  0.385E-03    1.07       2.4  T
   5   -202.3190768 -0.174046E-05  0.178E-03    1.07       5.3  T
   6   -202.3190769 -0.128734E-06  0.117E-03    1.07       8.0  T
   7   -202.3190771 -0.122041E-06  0.368E-04    1.07      25.4  T
   8   -202.3190771 -0.144388E-07  0.881E-05    1.07     105.9  T
     SCC iter.                  ...        0 min,  0.211 sec
     gradient                   ...        0 min,  0.139 sec
 * total energy  :  -198.7250956 Eh     change       -0.5088942E-02 Eh
   gradient norm :     0.0065284 Eh/α   predicted    -0.5151377E-02 (   1.23%)
   displ. norm   :     0.9119544 α      lambda       -0.4702932E-02
   maximum displ.:     0.6729250 α      in ANC's #13, #15, #17, ...

........................................................................
.............................. CYCLE   41 ..............................
........................................................................
   1   -202.3376417 -0.202338E+03  0.138E-01    1.06       0.0  T
   2   -202.3376402  0.149845E-05  0.813E-02    1.06       1.0  T
   3   -202.3374550  0.185201E-03  0.311E-02    1.07       1.0  T
   4   -202.3376490 -0.193972E-03  0.355E-03    1.06       2.6  T
   5   -202.3376504 -0.147220E-05  0.170E-03    1.06       5.5  T
   6   -202.3376506 -0.130292E-06  0.109E-03    1.06       8.6  T
   7   -202.3376507 -0.101806E-06  0.351E-04    1.06      26.6  T
   8   -202.3376507 -0.138866E-07  0.830E-05    1.06     112.4  T
     SCC iter.                  ...        0 min,  0.210 sec
     gradient                   ...        0 min,  0.139 sec
 * total energy  :  -198.7293525 Eh     change       -0.4256976E-02 Eh
   gradient norm :     0.0056556 Eh/α   predicted    -0.4307094E-02 (   1.18%)
   displ. norm   :     0.8965612 α      lambda       -0.3858751E-02
   maximum displ.:     0.6525608 α      in ANC's #13, #15, #17, ...

........................................................................
.............................. CYCLE   42 ..............................
........................................................................
   1   -202.3538280 -0.202354E+03  0.137E-01    1.06       0.0  T
   2   -202.3538269  0.112116E-05  0.808E-02    1.06       1.0  T
   3   -202.3536621  0.164815E-03  0.297E-02    1.06       1.0  T
   4   -202.3538349 -0.172855E-03  0.330E-03    1.06       2.8  T
   5   -202.3538361 -0.119643E-05  0.157E-03    1.06       5.9  T
   6   -202.3538362 -0.875135E-07  0.107E-03    1.06       8.7  T
   7   -202.3538363 -0.109946E-06  0.320E-04    1.06      29.1  T
   8   -202.3538363 -0.108340E-07  0.855E-05    1.06     109.1  T
     SCC iter.                  ...        0 min,  0.208 sec
     gradient                   ...        0 min,  0.139 sec
 * total energy  :  -198.7327997 Eh     change       -0.3447111E-02 Eh
   gradient norm :     0.0048596 Eh/α   predicted    -0.3480258E-02 (   0.96%)
   displ. norm   :     0.8754265 α      lambda       -0.3062769E-02
   maximum displ.:     0.6259228 α      in ANC's #13, #15, #17, ...
 * RMSD in coord.:     1.7978042 α      energy gain  -0.2643965E+00 Eh

generating ANC from model Hessian ...
Using Lindh-Hessian (1995)
 Shifting diagonal of input Hessian by    1.0037977099617793E-002
 Lowest  eigenvalues of input Hessian
    0.010000    0.010007    0.010017    0.010020    0.010026    0.010027
    0.000000    0.000000    0.000000    0.000000    0.000000    0.000000
    0.010073    0.010107    0.010168    0.010232    0.011086    0.011165
 Highest eigenvalues
    2.146928    2.150038    2.370106    2.370753    2.890317    2.891091


........................................................................
.............................. CYCLE   43 ..............................
........................................................................
   1   -202.3702607 -0.202370E+03  0.133E-01    1.06       0.0  T
   2   -202.3702598  0.960217E-06  0.784E-02    1.06       1.0  T
   3   -202.3701183  0.141517E-03  0.276E-02    1.06       1.0  T
   4   -202.3702669 -0.148620E-03  0.289E-03    1.05       3.2  T
   5   -202.3702677 -0.843589E-06  0.148E-03    1.05       6.3  T
   6   -202.3702678 -0.836283E-07  0.983E-04    1.05       9.5  T
   7   -202.3702679 -0.951404E-07  0.285E-04    1.05      32.8  T
     SCC iter.                  ...        0 min,  0.184 sec
     gradient                   ...        0 min,  0.140 sec
 * total energy  :  -198.7354766 Eh     change       -0.2676978E-02 Eh
   gradient norm :     0.0046283 Eh/α   predicted     0.0000000E+00 (-100.00%)
   displ. norm   :     0.2295713 α      lambda       -0.6548908E-03
   maximum displ.:     0.1749393 α      in ANC's #14, #15, #12, ...

........................................................................
.............................. CYCLE   44 ..............................
........................................................................
   1   -202.3760532 -0.202376E+03  0.353E-02    1.05       0.0  T
   2   -202.3760533 -0.818784E-07  0.208E-02    1.05       1.0  T
   3   -202.3760455  0.782787E-05  0.654E-03    1.05       1.4  T
   4   -202.3760537 -0.817869E-05  0.959E-04    1.05       9.7  T
   5   -202.3760538 -0.126612E-06  0.404E-04    1.05      23.1  T
   6   -202.3760538 -0.905931E-08  0.262E-04    1.05      35.5  T
     SCC iter.                  ...        0 min,  0.157 sec
     gradient                   ...        0 min,  0.140 sec
 * total energy  :  -198.7360980 Eh     change       -0.6213686E-03 Eh
   gradient norm :     0.0030194 Eh/α   predicted    -0.3451137E-03 ( -44.46%)
   displ. norm   :     0.5104734 α      lambda       -0.1308060E-02
   maximum displ.:     0.3441710 α      in ANC's #14, #15, #12, ...

........................................................................
.............................. CYCLE   45 ..............................
........................................................................
   1   -202.3844082 -0.202384E+03  0.781E-02    1.05       0.0  T
   2   -202.3844085 -0.268745E-06  0.459E-02    1.05       1.0  T
   3   -202.3843752  0.333108E-04  0.136E-02    1.05       1.0  T
   4   -202.3844103 -0.350948E-04  0.159E-03    1.05       5.9  T
   5   -202.3844105 -0.261561E-06  0.843E-04    1.05      11.1  T
   6   -202.3844106 -0.286809E-07  0.566E-04    1.05      16.5  T
     SCC iter.                  ...        0 min,  0.159 sec
     gradient                   ...        0 min,  0.140 sec
 * total energy  :  -198.7372878 Eh     change       -0.1189757E-02 Eh
   gradient norm :     0.0035377 Eh/α   predicted    -0.8244592E-03 ( -30.70%)
   displ. norm   :     0.6936507 α      lambda       -0.1591963E-02
   maximum displ.:     0.4526168 α      in ANC's #14, #15, #12, ...

........................................................................
.............................. CYCLE   46 ..............................
........................................................................
   1   -202.3908081 -0.202391E+03  0.111E-01    1.05       0.0  T
   2   -202.3908086 -0.489932E-06  0.654E-02    1.05       1.0  T
   3   -202.3907504  0.582499E-04  0.182E-02    1.05       1.0  T
   4   -202.3908119 -0.615677E-04  0.204E-03    1.05       4.6  T
   5   -202.3908122 -0.266878E-06  0.131E-03    1.05       7.1  T
   6   -202.3908123 -0.620377E-07  0.847E-04    1.05      11.0  T
   7   -202.3908123 -0.794474E-07  0.218E-04    1.05      42.9  T
     SCC iter.                  ...        0 min,  0.186 sec
     gradient                   ...        0 min,  0.140 sec
 * total energy  :  -198.7385175 Eh     change       -0.1229725E-02 Eh
   gradient norm :     0.0057833 Eh/α   predicted    -0.1178970E-02 (  -4.13%)
   displ. norm   :     0.7134150 α      lambda       -0.1508841E-02
   maximum displ.:     0.4556158 α      in ANC's #14, #15, #12, ...

........................................................................
.............................. CYCLE   47 ..............................
........................................................................
   1   -202.3956409 -0.202396E+03  0.111E-01    1.05       0.0  T
   2   -202.3956420 -0.114871E-05  0.652E-02    1.05       1.0  T
   3   -202.3956063  0.356702E-04  0.136E-02    1.05       1.0  T
   4   -202.3956441 -0.377606E-04  0.212E-03    1.05       4.4  T
   5   -202.3956445 -0.395525E-06  0.120E-03    1.05       7.7  T
   6   -202.3956445 -0.954273E-08  0.886E-04    1.05      10.5  T
   7   -202.3956446 -0.864660E-07  0.211E-04    1.05      44.1  T
     SCC iter.                  ...        0 min,  0.185 sec
     gradient                   ...        0 min,  0.141 sec
 * total energy  :  -198.7396916 Eh     change       -0.1174136E-02 Eh
   gradient norm :     0.0036377 Eh/α   predicted    -0.1138393E-02 (  -3.04%)
   displ. norm   :     0.7246541 α      lambda       -0.9753791E-03
   maximum displ.:     0.4608090 α      in ANC's #14, #15, #12, ...

........................................................................
.............................. CYCLE   48 ..............................
........................................................................
   1   -202.4011756 -0.202401E+03  0.107E-01    1.04       0.0  T
   2   -202.4011765 -0.914882E-06  0.631E-02    1.04       1.0  T
   3   -202.4011311  0.454401E-04  0.160E-02    1.04       1.0  T
   4   -202.4011792 -0.481716E-04  0.194E-03    1.04       4.8  T
   5   -202.4011796 -0.361713E-06  0.100E-03    1.04       9.3  T
   6   -202.4011796 -0.172386E-08  0.771E-04    1.04      12.1  T
     SCC iter.                  ...        0 min,  0.157 sec
     gradient                   ...        0 min,  0.141 sec
 * total energy  :  -198.7404432 Eh     change       -0.7516072E-03 Eh
[...]
  41: 13.86  42: 12.25  43: 12.35  44: 12.27  45: 44.92  46: 53.44  47: 12.65  48: 48.44
  49: 39.18  50: 47.81  51: 25.22  52: 19.24  53: 50.24  54: 11.92  55: 11.88  56: 11.83
  57: 12.81  58: 12.22  59: 11.78  60: 20.40  61: 12.39  62: 12.07  63: 10.48  64: 10.46
  65: 10.46  66: 11.43  67: 11.75  68: 11.78  69: 12.61  70: 12.15  71: 12.13  72: 11.30
  73: 11.93  74: 12.04  75: 12.05  76: 11.51  77: 10.41  78: 10.51  79: 11.99  80: 12.00
  81: 12.28  82: 12.39  83: 12.80  84: 11.99  85: 12.00  86: 12.69  87: 12.39  88: 12.01
  89: 12.00  90: 11.81  91: 11.81  92: 11.64  93:  9.83  94:  9.84  95:  9.84  96: 10.23
  97: 10.25  98: 10.27  99: 10.29 100:  9.87 101:  9.87 102: 11.96 103: 11.86 104: 11.86
 105: 11.79 106: 11.41 107: 11.59 108: 11.54 109: 11.70 110: 11.90 111: 11.72 112: 10.83
 113: 11.06 114: 11.04 115: 11.20 116: 10.88 117: 10.88 118: 10.78 119: 10.78 120: 11.12
 121: 11.16 122: 11.18 123: 11.18 124: 10.89 125: 10.89 126: 11.23 127: 11.24 128: 11.21
 129: 11.21 130: 11.23 131: 11.23 132: 11.20 133: 11.37 134: 11.35 135: 11.46 136: 11.15
 137: 11.14 138: 10.84 139: 10.84 140: 11.25 141: 11.13 142: 11.18 143: 11.18 144: 11.22
 145: 11.26 146: 11.24 147: 11.30 148: 11.37 149: 11.37 150: 11.09 151: 11.07 152: 11.81
 153: 11.72 154: 11.76 155: 11.68 156:  3.80 157:  3.88 158:  3.88 159:  3.95 160:  3.96
 161:  3.92 162:  4.10 163:  4.10 164:  4.42 165: 10.49 166:  8.66 167:  6.73 168:  4.42
 169:  5.55 170:  3.85 171:  3.85 172:  3.90 173:  3.90 174:  3.92 175:  3.88 176:  4.10
 177:  4.10 178:  3.40 179:  3.40 180:  3.40 181:  3.46 182:  3.51 183:  3.48 184:  3.61
 185:  3.60 186:  3.61 187:  3.64 188:  3.63 189:  3.62 190: 11.35 191: 11.43 192: 11.96
 193: 11.95 194: 11.83 195: 11.65 196: 11.73 197: 11.73 198: 11.74 199: 11.41 200:  7.35
 201:  7.35 202:  7.37 203: 10.82 204: 10.09 205:  9.32 206:  9.31 207:  9.15 208:  9.21
 209:  9.41 210:  8.80 211: 10.68 212: 10.67 213: 11.41 214:  1.93 215:  1.94 216:  2.02
 217:  2.05 218:  1.82 219:  2.12 220:  2.00 221:  1.96 222:  2.04 223:  2.31 224:  2.31
 225:  2.37 226:  6.14 227:  6.04 228:  5.82 229:  5.61 230:  5.61 231:  6.01 232:  6.75
 233:  6.41 234:  6.44 235:  7.07 236:  7.07 237:  8.54 238:  8.82 239:  8.88 240: 10.15
 241: 10.72 242:  8.97 243:  9.33 244:  8.98 245:  9.62 246:  9.63 247:  9.64 248: 11.39
 249: 10.99 250:  9.91 251:  9.90 252: 10.82 253: 10.79 254: 10.93 255: 11.33 256: 11.33
 257: 12.42 258: 11.79 259: 11.49 260: 11.50 261:  9.58 262:  9.58 263:  8.79 264: 12.14
 265: 12.12 266: 12.09 267:  9.38 268:  9.51 269:  9.49 270:  9.05 271:  9.05 272: 11.62
 273: 11.75 274: 11.51 275: 11.43 276: 11.47 277: 11.47 278: 11.52 279: 11.60 280: 11.80
 281: 11.78 282: 11.79 283: 11.76 284: 11.77 285: 11.79 286: 11.58 287: 11.51 288: 11.51
 289: 11.63 290: 11.80 291: 11.79 292: 11.90 293: 11.74 294: 11.76 295: 11.76 296: 11.66
 297: 11.66 298: 11.52 299: 11.59 300: 11.61 301: 11.61 302: 11.55 303: 11.55 304: 11.58
 305: 11.58 306: 11.62 307: 11.77 308: 11.77 309: 11.77 310: 12.01 311: 12.01 312: 12.01
 313: 12.01 314:  1.81 315:  1.81 316:  1.81 317:  1.81 318:  1.81 319:  1.81 320:  1.81
 321:  1.81 322:  1.81 323:  1.81 324:  1.81 325:  1.81 326:  1.81 327:  1.81 328:  1.81
 329:  1.81 330:  1.81 331:  1.81 332:  1.81 333:  1.81 334:  1.97 335:  1.97 336:  1.97
 337:  1.97 338:  1.97 339:  1.97 340:  1.97 341:  1.97 342:  1.97 343:  1.97 344:  1.97
 345:  1.97
 IR intensities (km·mol⁻¹)
   1:  1.45   2:  2.24   3:  8.11   4: 13.59   5:  1.17   6:  0.07   7:  2.05   8:  0.16
   9:  0.00  10:  0.01  11:  0.01  12:  0.23  13:  4.71  14:  4.97  15:  0.20  16:  0.44
  17:  6.16  18: 10.06  19:  0.05  20:  1.93  21:  0.02  22: 34.19  23: 68.59  24:  2.05
  25:  6.82  26:  8.48  27: 11.37  28:  3.58  29:  0.63  30:  0.00  31:  0.01  32:  0.28
  33:  0.06  34:  0.54  35:  0.46  36:  0.81  37:  1.47  38:  2.75  39:  0.72  40: 80.12
  41:  0.02  42:  0.10  43:  2.98  44:  0.03  45:  0.37  46:  0.18  47:  0.00  48:  0.03
  49:  0.49  50:  3.29  51:  0.21  52:  1.29  53: 35.97  54:  0.00  55:  0.00  56:  0.00
  57:  0.04  58:  1.83  59:  2.21  60:  4.16  61:  7.81  62: 26.94  63:  1.74  64:  0.52
  65:  2.29  66: 15.72  67: 24.20  68:  1.51  69:  1.38  70:  0.05  71: 13.56  72:  3.86
  73:  0.02  74:  3.42  75:  0.02  76:  0.32  77: 14.73  78:  3.26  79: 10.81  80:  0.12
  81:  0.07  82: 24.55  83:  5.70  84:  0.26  85:  0.02  86: 26.77  87:  0.02  88:  2.31
  89:  1.93  90:  2.85  91:  2.94  92:  5.12  93:  0.03  94:  0.03  95:  0.05  96:  5.53
  97:  0.00  98:  0.47  99:  0.00 100:  0.35 101:  5.02 102:  0.17 103:  0.07 104:  1.30
 105:  0.00 106: 20.36 107: 11.52 108: 27.29 109:  2.47 110:  0.03 111: 28.52 112:  0.30
 113:  1.40 114:  3.46 115:  0.22 116:  0.08 117:  1.38 118:  0.02 119:  0.89 120:  0.00
 121:  0.24 122:  0.04 123:  1.77 124:  0.89 125: 18.14 126:  9.79 127:  0.02 128:  0.04
 129:  0.36 130: 18.76 131: 22.57 132: 15.94 133:  1.39 134:  5.49 135:  0.05 136:  0.01
 137: 23.18 138:  3.11 139:  1.40 140:  0.00 141:  4.02 142:  0.29 143:  2.63 144:  0.43
 145:  0.00 146:  0.01 147:  3.21 148: 14.65 149:  7.21 150:  0.54 151:  0.00 152: 24.97
 153:  0.53 154:  1.81 155:  0.39 156: 16.13 157: 18.70 158: 30.55 159:  0.14 160:  0.00
 161:  0.02 162:  2.84 163: 12.40 164:  0.18 165:  2.61 166:  0.03 167: 17.28 168:  0.81
 169: 41.82 170:  1.66 171: 61.12 172:  0.05 173:  0.12 174: 87.98 175:  0.08 176: 29.05
 177:214.86 178:  0.03 179:  0.01 180:  0.18 181:  0.35 182:  7.81 183:  0.57 184:  0.02
 185:  0.05 186:  0.30 187: 54.99 188: 44.99 189: 12.73 190:  0.23 191:  0.00 192:  0.01
 193: 69.60 194:  0.00 195: 12.47 196: 20.15 197: 42.13 198: 27.23 199:  0.02 200:  0.01
 201:  0.03 202:  0.00 203:  0.10 204:  0.00 205:  7.87 206: 39.16 207:  7.70 208:  0.74
 209:  0.02 210: 48.05 211: 17.77 212: 21.53 213:  0.00 214:  0.16 215:  8.20 216:  0.84
 217:  0.20 218:  0.05 219: 11.88 220:  3.94 221:  0.08 222: 14.30 223:  0.02 224: 23.78
 225:  0.08 226:  0.84 227:  0.07 228:  5.32 229: 32.82 230:  0.26 231:  0.07 232:  0.02
 233: 82.53 234:  0.10 235:  4.53 236:  5.26 237:  3.02 238: 18.17 239: 29.81 240:251.58
 241:  0.12 242:166.83 243:  1.36 244:228.45 245:  0.00 246:  9.69 247:  4.88 248:  5.33
 249:  0.66 250:  1.29 251:  0.02 252:  0.08 253:177.65 254:  0.00 255:  4.89 256: 11.27
 257: 18.13 258:  0.00 259: 19.47 260:  0.00 261:  1.78 262:  0.73 263:  0.00 264:  7.73
 265: 73.77 266:  0.09 267:  0.05 268:  2.36 269: 46.36 270:  0.22 271:  0.38 272:  0.59
 273:  0.05 274:  1.11 275:185.91 276: 12.39 277: 20.94 278:  0.12 279:  3.14 280:  0.00
 281:  0.29 282: 10.55 283:  0.01 284: 17.69 285:  0.00 286:  0.00 287:  0.61 288:  0.99
 289:  0.00 290:  0.80 291:  0.56 292: 14.02 293:144.22 294:  6.30 295: 10.38 296:102.61
 297: 34.52 298: 74.04 299:  0.00 300: 22.04 301:  0.38 302: 26.74 303: 19.33 304:528.61
 305:  0.67 306:184.05 307:  0.00 308:  1.46 309:  1.05 310:  0.21 311: 13.92 312:  0.02
 313:  0.34 314: 11.58 315:  6.72 316:  0.43 317:  0.26 318:  4.77 319:  2.74 320: 30.39
 321:  0.03 322: 18.43 323: 15.70 324: 22.24 325: 28.04 326: 40.61 327:  4.17 328: 39.59
 329:  5.05 330: 12.74 331:  9.96 332:101.38 333: 45.20 334:  2.28 335:278.67 336:627.28
 337:  0.08 338: 22.41 339: 29.60 340: 16.48 341:187.05 342: 21.01 343:  1.07 344: 71.17
 345: 34.08
 Raman intensities (amu)
   1:  0.00   2:  0.00   3:  0.00   4:  0.00   5:  0.00   6:  0.00   7:  0.00   8:  0.00
   9:  0.00  10:  0.00  11:  0.00  12:  0.00  13:  0.00  14:  0.00  15:  0.00  16:  0.00
Refinement of some symmetry elements was terminated before convergence was reached.
Some symmetry elements may remain unidentified.
Molecule has no symmetry elements
It seems to be the C1 point group
  17:  0.00  18:  0.00  19:  0.00  20:  0.00  21:  0.00  22:  0.00  23:  0.00  24:  0.00
  25:  0.00  26:  0.00  27:  0.00  28:  0.00  29:  0.00  30:  0.00  31:  0.00  32:  0.00
  33:  0.00  34:  0.00  35:  0.00  36:  0.00  37:  0.00  38:  0.00  39:  0.00  40:  0.00
  41:  0.00  42:  0.00  43:  0.00  44:  0.00  45:  0.00  46:  0.00  47:  0.00  48:  0.00
  49:  0.00  50:  0.00  51:  0.00  52:  0.00  53:  0.00  54:  0.00  55:  0.00  56:  0.00
  57:  0.00  58:  0.00  59:  0.00  60:  0.00  61:  0.00  62:  0.00  63:  0.00  64:  0.00
  65:  0.00  66:  0.00  67:  0.00  68:  0.00  69:  0.00  70:  0.00  71:  0.00  72:  0.00
  73:  0.00  74:  0.00  75:  0.00  76:  0.00  77:  0.00  78:  0.00  79:  0.00  80:  0.00
  81:  0.00  82:  0.00  83:  0.00  84:  0.00  85:  0.00  86:  0.00  87:  0.00  88:  0.00
  89:  0.00  90:  0.00  91:  0.00  92:  0.00  93:  0.00  94:  0.00  95:  0.00  96:  0.00
  97:  0.00  98:  0.00  99:  0.00 100:  0.00 101:  0.00 102:  0.00 103:  0.00 104:  0.00
 105:  0.00 106:  0.00 107:  0.00 108:  0.00 109:  0.00 110:  0.00 111:  0.00 112:  0.00
 113:  0.00 114:  0.00 115:  0.00 116:  0.00 117:  0.00 118:  0.00 119:  0.00 120:  0.00
 121:  0.00 122:  0.00 123:  0.00 124:  0.00 125:  0.00 126:  0.00 127:  0.00 128:  0.00
 129:  0.00 130:  0.00 131:  0.00 132:  0.00 133:  0.00 134:  0.00 135:  0.00 136:  0.00
 137:  0.00 138:  0.00 139:  0.00 140:  0.00 141:  0.00 142:  0.00 143:  0.00 144:  0.00
 145:  0.00 146:  0.00 147:  0.00 148:  0.00 149:  0.00 150:  0.00 151:  0.00 152:  0.00
 153:  0.00 154:  0.00 155:  0.00 156:  0.00 157:  0.00 158:  0.00 159:  0.00 160:  0.00
 161:  0.00 162:  0.00 163:  0.00 164:  0.00 165:  0.00 166:  0.00 167:  0.00 168:  0.00
 169:  0.00 170:  0.00 171:  0.00 172:  0.00 173:  0.00 174:  0.00 175:  0.00 176:  0.00
 177:  0.00 178:  0.00 179:  0.00 180:  0.00 181:  0.00 182:  0.00 183:  0.00 184:  0.00
 185:  0.00 186:  0.00 187:  0.00 188:  0.00 189:  0.00 190:  0.00 191:  0.00 192:  0.00
 193:  0.00 194:  0.00 195:  0.00 196:  0.00 197:  0.00 198:  0.00 199:  0.00 200:  0.00
 201:  0.00 202:  0.00 203:  0.00 204:  0.00 205:  0.00 206:  0.00 207:  0.00 208:  0.00
 209:  0.00 210:  0.00 211:  0.00 212:  0.00 213:  0.00 214:  0.00 215:  0.00 216:  0.00
 217:  0.00 218:  0.00 219:  0.00 220:  0.00 221:  0.00 222:  0.00 223:  0.00 224:  0.00
 225:  0.00 226:  0.00 227:  0.00 228:  0.00 229:  0.00 230:  0.00 231:  0.00 232:  0.00
 233:  0.00 234:  0.00 235:  0.00 236:  0.00 237:  0.00 238:  0.00 239:  0.00 240:  0.00
 241:  0.00 242:  0.00 243:  0.00 244:  0.00 245:  0.00 246:  0.00 247:  0.00 248:  0.00
 249:  0.00 250:  0.00 251:  0.00 252:  0.00 253:  0.00 254:  0.00 255:  0.00 256:  0.00
 257:  0.00 258:  0.00 259:  0.00 260:  0.00 261:  0.00 262:  0.00 263:  0.00 264:  0.00
 265:  0.00 266:  0.00 267:  0.00 268:  0.00 269:  0.00 270:  0.00 271:  0.00 272:  0.00
 273:  0.00 274:  0.00 275:  0.00 276:  0.00 277:  0.00 278:  0.00 279:  0.00 280:  0.00
 281:  0.00 282:  0.00 283:  0.00 284:  0.00 285:  0.00 286:  0.00 287:  0.00 288:  0.00
 289:  0.00 290:  0.00 291:  0.00 292:  0.00 293:  0.00 294:  0.00 295:  0.00 296:  0.00
 297:  0.00 298:  0.00 299:  0.00 300:  0.00 301:  0.00 302:  0.00 303:  0.00 304:  0.00
 305:  0.00 306:  0.00 307:  0.00 308:  0.00 309:  0.00 310:  0.00 311:  0.00 312:  0.00
 313:  0.00 314:  0.00 315:  0.00 316:  0.00 317:  0.00 318:  0.00 319:  0.00 320:  0.00
 321:  0.00 322:  0.00 323:  0.00 324:  0.00 325:  0.00 326:  0.00 327:  0.00 328:  0.00
 329:  0.00 330:  0.00 331:  0.00 332:  0.00 333:  0.00 334:  0.00 335:  0.00 336:  0.00
 337:  0.00 338:  0.00 339:  0.00 340:  0.00 341:  0.00 342:  0.00 343:  0.00 344:  0.00
 345:  0.00
 output can be read by thermo (or use thermo option).
 writing <g98.out> molden fake output.
 recommended (thermochemical) frequency scaling factor: 1.0
           -------------------------------------------------
          |             Thermodynamic Functions             |
           -------------------------------------------------

c1  symmetry found (for desy threshold:  0.10E+00) used in thermo

          ...................................................
          :                      SETUP                      :
          :.................................................:
          :  # frequencies                         339      :
          :  # imaginary freq.                       0      :
          :  linear?                             false      :
          :  only rotor calc.                    false      :
          :  symmetry                               c1      :
          :  rotational number                       1      :
          :  scaling factor                  1.0000000      :
          :  rotor cutoff                   50.0000000 cm⁻¹ :
          :  imag. cutoff                  -20.0000000 cm⁻¹ :
          :.................................................:

    mode    ω/cm⁻¹     T·S(HO)/kcal·mol⁻¹    T·S(FR)/kcal·mol⁻¹   T·S(vib)
   ------------------------------------------------------------------------
       1      3.13    -3.07668 (  0.00%)    -1.87744 (100.00%)    -1.87746
       2      3.85    -2.95345 (  0.00%)    -1.81583 (100.00%)    -1.81587
       3      4.52    -2.85833 (  0.01%)    -1.76826 ( 99.99%)    -1.76834
       4      5.98    -2.69322 (  0.02%)    -1.68571 ( 99.98%)    -1.68592
       5      9.28    -2.43298 (  0.12%)    -1.55558 ( 99.88%)    -1.55661
       6     10.19    -2.37761 (  0.17%)    -1.52789 ( 99.83%)    -1.52935
       7     15.63    -2.12408 (  0.95%)    -1.40109 ( 99.05%)    -1.40792
       8     25.65    -1.83081 (  6.47%)    -1.25433 ( 93.53%)    -1.29165
       9     28.56    -1.76710 (  9.62%)    -1.22243 ( 90.38%)    -1.27485
      10     38.98    -1.58322 ( 26.98%)    -1.13029 ( 73.02%)    -1.25249
      11     40.20    -1.56510 ( 29.46%)    -1.12120 ( 70.54%)    -1.25199
      12     41.47    -1.54662 ( 32.13%)    -1.11193 ( 67.87%)    -1.25160
      13     41.70    -1.54336 ( 32.61%)    -1.11030 ( 67.39%)    -1.25153
      14     45.47    -1.49230 ( 40.62%)    -1.08467 ( 59.38%)    -1.25025
      15     50.80    -1.42693 ( 51.59%)    -1.05184 ( 48.41%)    -1.24535
      16     57.22    -1.35681 ( 63.17%)    -1.01658 ( 36.83%)    -1.23151
      17     67.74    -1.25760 ( 77.11%)    -0.96660 ( 22.89%)    -1.19099
      18     73.01    -1.21365 ( 81.97%)    -0.94441 ( 18.03%)    -1.16510
      19     73.23    -1.21188 ( 82.14%)    -0.94352 ( 17.86%)    -1.16396
      20     79.00    -1.16739 ( 86.18%)    -0.92103 ( 13.82%)    -1.13333
      21     94.46    -1.06304 ( 92.72%)    -0.86808 (  7.28%)    -1.04885
      22     97.80    -1.04286 ( 93.60%)    -0.85781 (  6.40%)    -1.03103
      23    113.63    -0.95587 ( 96.39%)    -0.81337 (  3.61%)    -0.95072
      24    124.83    -0.90167 ( 97.49%)    -0.78551 (  2.51%)    -0.89876
      25    127.60    -0.88906 ( 97.70%)    -0.77901 (  2.30%)    -0.88653
      26    127.73    -0.88848 ( 97.71%)    -0.77871 (  2.29%)    -0.88596
      27    127.88    -0.88777 ( 97.72%)    -0.77835 (  2.28%)    -0.88527
      28    144.91    -0.81633 ( 98.60%)    -0.74132 (  1.40%)    -0.81528
      29    146.68    -0.80942 ( 98.67%)    -0.73772 (  1.33%)    -0.80847
      30    152.54    -0.78720 ( 98.86%)    -0.72612 (  1.14%)    -0.78651
      31    153.15    -0.78495 ( 98.88%)    -0.72494 (  1.12%)    -0.78428
      32    166.00    -0.73950 ( 99.18%)    -0.70107 (  0.82%)    -0.73919
      33    167.44    -0.73466 ( 99.21%)    -0.69852 (  0.79%)    -0.73438
      34    168.64    -0.73064 ( 99.23%)    -0.69639 (  0.77%)    -0.73038
      35    174.67    -0.71097 ( 99.33%)    -0.68599 (  0.67%)    -0.71081
      36    181.05    -0.69099 ( 99.42%)    -0.67537 (  0.58%)    -0.69090
      37    181.10    -0.69083 ( 99.42%)    -0.67528 (  0.58%)    -0.69074
      38    181.52    -0.68955 ( 99.43%)    -0.67460 (  0.57%)    -0.68946
      39    190.72    -0.66213 ( 99.53%)    -0.65995 (  0.47%)    -0.66212
      40    195.67    -0.64800 ( 99.58%)    -0.65235 (  0.42%)    -0.64801
      41    196.24    -0.64640 ( 99.58%)    -0.65149 (  0.42%)    -0.64642
      42    198.43    -0.64031 ( 99.60%)    -0.64821 (  0.40%)    -0.64035
      43    198.48    -0.64017 ( 99.60%)    -0.64813 (  0.40%)    -0.64020
      44    198.59    -0.63987 ( 99.60%)    -0.64797 (  0.40%)    -0.63990
      45    198.63    -0.63975 ( 99.60%)    -0.64790 (  0.40%)    -0.63978
      46    198.79    -0.63932 ( 99.60%)    -0.64768 (  0.40%)    -0.63936
      47    200.16    -0.63554 ( 99.61%)    -0.64563 (  0.39%)    -0.63558
      48    202.73    -0.62856 ( 99.63%)    -0.64186 (  0.37%)    -0.62861
      49    202.93    -0.62800 ( 99.63%)    -0.64156 (  0.37%)    -0.62805
      50    203.85    -0.62555 ( 99.64%)    -0.64023 (  0.36%)    -0.62560
      51    203.98    -0.62518 ( 99.64%)    -0.64003 (  0.36%)    -0.62523
      52    208.62    -0.61290 ( 99.67%)    -0.63336 (  0.33%)    -0.61297
      53    221.27    -0.58100 ( 99.74%)    -0.61593 (  0.26%)    -0.58109
      54    224.49    -0.57322 ( 99.75%)    -0.61165 (  0.25%)    -0.57331
      55    259.59    -0.49627 ( 99.86%)    -0.56861 (  0.14%)    -0.49637
      56    260.46    -0.49454 ( 99.86%)    -0.56762 (  0.14%)    -0.49464
      57    262.32    -0.49083 ( 99.87%)    -0.56551 (  0.13%)    -0.49093
      58    262.98    -0.48954 ( 99.87%)    -0.56478 (  0.13%)    -0.48964
      59    263.09    -0.48932 ( 99.87%)    -0.56465 (  0.13%)    -0.48942
      60    280.57    -0.45623 ( 99.90%)    -0.54559 (  0.10%)    -0.45632
   ------------------------------------------------------------------------

   temp. (K)  partition function   enthalpy   heat capacity  entropy
                                   cal/mol     cal/K/mol   cal/K/mol   J/K/mol
 298.15  VIB  0.325E+34            40423.461    259.995    255.634
         ROT  0.845E+09              888.752      2.981     43.829
         INT  0.275E+43            41312.214    262.976    299.462
         TR   0.409E+29             1481.254      4.968     47.136
         TOT                       42793.4676   267.9443   346.5985  1450.1681

       T/K    H(0)-H(T)+PV         H(T)/Eh          T*S/Eh         G(T)/Eh
   ------------------------------------------------------------------------
    298.15    0.681957E-01    0.859752E+00    0.164680E+00    0.695072E+00
   ------------------------------------------------------------------------

         :::::::::::::::::::::::::::::::::::::::::::::::::::::
         ::                  THERMODYNAMIC                  ::
         :::::::::::::::::::::::::::::::::::::::::::::::::::::
         :: total free energy        -198.046605762356 Eh   ::
         ::.................................................::
         :: total energy             -198.741677726754 Eh   ::
         :: zero point energy           0.791556363092 Eh   ::
         :: G(RRHO) w/o ZPVE           -0.096484398694 Eh   ::
         :: G(RRHO) contrib.            0.695071964398 Eh   ::
         :::::::::::::::::::::::::::::::::::::::::::::::::::::

optimized geometry written to: xtbopt.xyz


           -------------------------------------------------
          | TOTAL ENERGY             -198.741677726754 Eh   |
          | TOTAL ENTHALPY           -197.881925632148 Eh   |
          | TOTAL FREE ENERGY        -198.046605762356 Eh   |
          | GRADIENT NORM               0.000489502516 Eh/α |
          | HOMO-LUMO GAP               1.033666852945 eV   |
           -------------------------------------------------

------------------------------------------------------------------------
 * finished run on 2021/11/18 at 18:45:59.629     
------------------------------------------------------------------------
 total:
 * wall-time:     0 d,  0 h,  4 min,  3.651 sec
 *  cpu-time:     0 d,  0 h,  4 min,  3.646 sec
 * ratio c/w:     1.000 speedup
 SCF:
 * wall-time:     0 d,  0 h,  0 min,  1.221 sec
 *  cpu-time:     0 d,  0 h,  0 min,  1.221 sec
 * ratio c/w:     1.000 speedup
 ANC optimizer:
 * wall-time:     0 d,  0 h,  0 min, 25.949 sec
 *  cpu-time:     0 d,  0 h,  0 min, 25.941 sec
 * ratio c/w:     1.000 speedup
 analytical hessian:
 * wall-time:     0 d,  0 h,  3 min, 35.470 sec
 *  cpu-time:     0 d,  0 h,  3 min, 35.473 sec
 * ratio c/w:     1.000 speedup

