115
 energy: -197.757082596189 gnorm: 0.622851918373 xtb: 6.4.1 (bd6e46d)
Zn       12.97627000000000    0.03373500000000   -0.00892400000000
C        15.30526100000000   -3.11305800000000    1.31376500000000
C        16.22136800000000   -2.16885000000000    1.26348300000000
C        15.81018900000000   -1.11494600000000    0.34219100000000
C        16.42905900000000    0.00940000000000   -0.00421900000000
C        15.72501700000000    1.22934800000000   -0.36832400000000
C        16.05312700000000    2.18940300000000   -1.21579800000000
C        15.01834800000000    3.20568800000000   -1.23269600000000
C        14.08208000000000    2.82922600000000   -0.38580400000000
N        14.48407000000000    1.59621500000000    0.17801300000000
C        12.82100500000000    3.47422500000000   -0.00665200000000
C        11.72578800000000    2.83944300000000    0.34410800000000
C        10.65216200000000    3.15739900000000    1.31313600000000
C         9.81460000000000    2.16064500000000    1.23597000000000
C        10.25289700000000    1.15696200000000    0.25551800000000
N        11.35783500000000    1.59581500000000   -0.22877400000000
C         9.64206200000000   -0.09630900000000   -0.15803000000000
C        10.30622300000000   -1.20081500000000   -0.41245500000000
C         9.93237400000000   -2.26375700000000   -1.36998200000000
C        10.88112100000000   -3.15751300000000   -1.28096300000000
C        11.86684500000000   -2.72006300000000   -0.29808500000000
N        11.51379900000000   -1.57425800000000    0.19871200000000
C        13.09773300000000   -3.37613300000000    0.14763600000000
C        14.22077500000000   -2.73027200000000    0.41475700000000
N        14.54937500000000   -1.48283100000000   -0.18364700000000
H        15.36552300000000   -4.02283900000000    1.93131100000000
H        17.13769500000000   -2.20880000000000    1.84153100000000
H        16.98049300000000    2.20619800000000   -1.81694100000000
H        15.03524700000000    4.11037700000000   -1.84531700000000
H        12.77328200000000    4.56902800000000   -0.01043000000000
H        10.59934100000000    4.03612400000000    1.93812800000000
H         8.90296900000000    2.12497500000000    1.85329400000000
H         8.54381200000000   -0.09339800000000   -0.25730100000000
H         9.06351800000000   -2.31622200000000   -2.01893200000000
H        10.87827500000000   -4.07382100000000   -1.87972200000000
H        13.06225100000000   -4.47193500000000    0.25956100000000
Zn       42.86170100000000   -0.01364100000000   -0.01335700000000
C        40.53271000000000    2.83315100000000    1.87014800000000
C        39.61660200000000    1.91466200000000    1.64557400000000
C        40.02778200000000    1.04996500000000    0.54476000000000
C        39.40891100000000    0.00940000000000   -0.00421900000000
C        40.11295400000000   -1.12182500000000   -0.58832200000000
C        39.78484300000000   -1.90799700000000   -1.59918900000000
C        40.81962300000001   -2.90350600000000   -1.80432900000000
C        41.75589100000000   -2.69069000000000   -0.90229900000000
N        41.35390100000000   -1.58367800000000   -0.11952700000000
C        43.01696500000000   -3.39483100000000   -0.64938500000000
C        44.11218300000000   -2.83613800000000   -0.18695200000000
C        45.18580800000000   -3.32834300000000    0.70627000000000
C        46.02337100000000   -2.33457600000000    0.81535500000000
C        45.58507300000000   -1.16642800000000    0.03812000000000
N        44.48013500000000   -1.50782000000000   -0.51917900000000
C        46.19590800000000    0.14180800000000   -0.13575000000000
C        45.53174800000001    1.27434100000000   -0.18085600000000
C        45.90559600000000    2.49646700000000   -0.92457100000000
C        44.95684900000000    3.35819400000000   -0.67129300000000
C        43.97112500000000    2.74599900000000    0.21337100000000
N        44.32417100000000    1.52792100000000    0.48898100000000
C        42.74023700000000    3.30799400000000    0.77306500000000
C        41.61719600000000    2.62378900000000    0.91573300000000
N        41.28859600000000    1.50901400000000    0.09629800000000
H        40.47244800000000    3.61257600000000    2.64575200000000
H        38.70027500000000    1.84668100000000    2.22100000000000
H        38.85747800000001   -1.81298000000000   -2.19301300000000
H        40.80272400000000   -3.67884100000000   -2.57414900000000
H        43.06468800000000   -4.46992900000000   -0.85619900000000
H        45.23863000000001   -4.30776000000000    1.15739700000000
H        46.93500100000000   -2.41404800000000    1.42858000000000
H        47.29415900000000    0.15736300000000   -0.23383700000000
H        46.77445200000000    2.66841000000000   -1.55252400000000
H        44.95969500000000    4.36967500000000   -1.08967000000000
H        42.77572000000001    4.36401000000000    1.08633400000000
C        19.32376300000000    0.00736400000000   -0.00533100000000
C        20.53174000000000    0.01481900000000   -0.00363600000000
C        21.95050700000000    0.01551600000000    0.00150100000000
C        23.16602400000000    0.00736400000000   -0.00533100000000
C        32.67391300000000    0.00736400000000   -0.00533100000000
C        33.88189000000000    0.01481900000000   -0.00363600000000
C        35.30065800000000    0.01551600000000    0.00150100000000
C        36.51617400000000    0.00736400000000   -0.00533100000000
Zn       27.95460500000000    0.02750000000000    0.00680800000000
C        25.67479400000000   -3.23394800000000   -0.90285800000000
C        24.71858500000000   -2.33459700000000   -1.00488500000000
C        25.11095900000000   -1.17229200000000   -0.20236900000000
C        24.47584300000000   -0.02102000000000    0.00989700000000
C        25.16130000000000    1.25358000000000    0.23612700000000
C        24.82601000000000    2.33218000000000    0.94036700000000
C        25.85055100000000    3.35149700000000    0.84978600000000
C        26.80114800000000    2.85457200000000    0.07642100000000
N        26.42415400000001    1.53796700000000   -0.33972200000000
C        28.04828800000000    3.46627300000000   -0.34044500000000
C        29.14983900000000    2.79901600000000   -0.67221600000000
C        30.14338600000000    3.05100100000000   -1.70638600000000
C        31.03726900000000    2.09014200000000   -1.60490200000000
C        30.65757100000000    1.17825800000000   -0.50092500000000
N        29.56265600000000    1.62757700000000    0.00644200000000
C        31.31477800000000   -0.02102000000000    0.00989700000000
C        30.69136600000000   -1.09020200000000    0.47141400000000
C        31.07007900000000   -2.02231700000000    1.54689000000000
C        30.12941000000000   -2.93646300000000    1.63275600000000
C        29.12110900000000   -2.64068400000000    0.63532900000000
N        29.45888400000000   -1.58730700000000   -0.01396600000000
C        27.86871600000000   -3.34769200000000    0.30413500000000
C        26.75483900000000   -2.75099500000000   -0.04320600000000
N        26.37272700000000   -1.46823800000000    0.37447700000000
H        25.67513900000000   -4.22502100000000   -1.39409300000000
H        23.81005100000000   -2.45629100000000   -1.58603300000000
H        23.90115700000000    2.45053100000000    1.51729300000000
H        25.87784600000000    4.34066100000000    1.30643600000000
H        28.13422800000000    4.56365100000000   -0.40246800000000
H        30.17605800000000    3.85721700000000   -2.43321000000000
H        31.93033000000000    1.97717400000000   -2.23867600000000
H        31.98482900000000   -1.94791100000000    2.15706000000000
H        30.14845700000000   -3.75007100000000    2.34102300000000
H        27.90720000000000   -4.44765100000000    0.36317200000000
115
 energy: -197.946849460076 gnorm: 0.329099774593 xtb: 6.4.1 (bd6e46d)
Zn       12.99339647210686    0.03282619038550   -0.00702188652194
C        15.30780849945633   -3.12352783005314    1.30084391611547
C        16.24051115973543   -2.16892106719427    1.25685352620882
C        15.80414744218929   -1.11534601431794    0.35314092843863
C        16.40151383063151    0.03357142862273   -0.00611700818700
C        15.70815003667717    1.22774561831645   -0.36177550255890
C        16.06775482702935    2.22080401189046   -1.23413272648919
C        15.05221000217683    3.20873528602447   -1.24650249702457
C        14.07666223944572    2.80197249213945   -0.38128226199906
N        14.45697820020088    1.57402221432060    0.17908420431586
C        12.84392205773529    3.46875241905920   -0.00642270684139
C        11.71608904358189    2.82000578206586    0.34536928627832
C        10.65043707688040    3.16615581171451    1.28976637755012
C         9.78274625428692    2.15317931736382    1.23736827680949
C        10.24607060887745    1.15658716728438    0.27724752449381
N        11.39763023112614    1.56721514509953   -0.20032838246858
C         9.62891659410515   -0.07069595198638   -0.14957837421530
C        10.30946565878433   -1.20304375773132   -0.41973443058169
C         9.92264835621344   -2.26579564150598   -1.35091921880251
C        10.88808056584581   -3.18473215972932   -1.27417796298161
C        11.87852213378642   -2.73082739193591   -0.31050769205135
N        11.52787095464909   -1.54561371962228    0.16138803475839
C        13.07725217913982   -3.38188481053101    0.13822320327915
C        14.22665021262935   -2.71469991950118    0.41856960257834
N        14.54198636840845   -1.47895213665765   -0.14645129043167
H        15.35385632015686   -4.01681758496445    1.91948427390337
H        17.14579278148776   -2.19546319059583    1.83724254482674
H        16.97899931651324    2.21908651848908   -1.81976658511468
H        15.04599645599071    4.10679451742735   -1.84690673984357
H        12.79731538879260    4.56090398792064   -0.00051554901043
H        10.60965321493826    4.03410081251442    1.92746759545805
H         8.89448656523474    2.11208217333576    1.85206920615713
H         8.54517355222534   -0.07998262234279   -0.26468040521369
H         9.06560268875101   -2.30316666913318   -2.00727252352357
H        10.89388661166635   -4.08152583142628   -1.87437485193198
H        13.05410835518008   -4.46592150066516    0.26024975708611
Zn       42.84458185007162   -0.01308412156363   -0.01133723029600
C        40.53017703318983    2.84583927620879    1.85939299524416
C        39.59750015105396    1.91594991423245    1.63907538748313
C        40.03388436684684    1.04829357741158    0.55563796396633
C        39.43649115427215   -0.01410214674700   -0.01032510786287
C        40.12987313166148   -1.12145795577381   -0.58158007159735
C        39.77023246298621   -1.93543722936282   -1.62299628106671
C        40.78577511151558   -2.90394516021237   -1.81845231912431
C        41.76132312397978   -2.66477477426776   -0.89280753113309
N        41.38101561427855   -1.56208220150325   -0.11437483273446
C        42.99404772492935   -3.38951567240473   -0.64814758065415
C        44.12188176838848   -2.81727177618718   -0.18209881099849
C        45.18752490028928   -3.33260677448779    0.68168266270918
C        46.05522662000776   -2.32749089457534    0.81810868953833
C        45.59190618271442   -1.17009050020940    0.05954334723898
N        44.44033495869779   -1.48500381870363   -0.48592200757121
C        46.20905437214434    0.11506915434185   -0.13219278668335
C        45.52850432021361    1.27788158077117   -0.18759649288199
C        45.91531820961106    2.49492916643761   -0.90546189736917
C        44.94988651373866    3.38368190758085   -0.65957466421372
C        43.95944608371448    2.75888432432486    0.20315851138621
N        44.31010003015463    1.50669926726135    0.44699470661878
C        42.76072153952052    3.31540892943019    0.76488139326276
C        41.61132246891589    2.60779783908015    0.91657067274051
N        41.29600798409997    1.49831997004433    0.13213176790079
H        40.48411345446041    3.60885990463754    2.63301252920886
H        38.69219215671515    1.83438596858804    2.21430815937413
H        38.85898658299172   -1.82509208913859   -2.19816842234003
H        40.79198208172645   -3.67502977629117   -2.57505364577867
H        43.04066683519720   -4.46379865476165   -0.84496825590173
H        45.22831855496772   -4.30379449766242    1.14729413211618
H        46.94348640829065   -2.40115038147614    1.42976523956254
H        47.29279770376403    0.14554949691124   -0.24357510286870
H        46.77236652537609    2.65341704739032   -1.54348714165616
H        44.94408202584241    4.37625499762554   -1.08298393001801
H        42.78386696033945    4.35798153625021    1.08590702486922
C        19.30793143106571    0.00798342407814   -0.00189359925844
C        20.53079298812423    0.01514573669376   -0.00478513130369
C        21.91462614275871    0.01745997722622    0.00090839589413
C        23.13588546231622    0.01999237777450   -0.00890734041177
C        32.69944525595572    0.01905347043387    0.00002759631365
C        33.91833196864567    0.01627889965417   -0.00223845205409
C        35.30419303555175    0.01428877906945    0.00138909169616
C        36.52684876191739    0.00622966859310   -0.00404489339447
Zn       27.94135488039145    0.03151003930609    0.00498502796224
C        25.67497369733200   -3.25640848093125   -0.89147233880101
C        24.71171527409115   -2.33502599429576   -0.99126237052700
C        25.14229644834579   -1.18674966518321   -0.20885736143366
C        24.49486021811144    0.00196668192481    0.00632061251735
C        25.19744327829659    1.26007486114397    0.23590801750196
C        24.81614246756436    2.36127218480234    0.95252147211087
C        25.82318213683487    3.35399349801184    0.85628444096277
C        26.81269438075515    2.83174446580777    0.07468408778256
N        26.45482833222579    1.52316202422943   -0.32281498437524
C        28.03115620312686    3.46266998610829   -0.34274912685482
C        29.15876739869246    2.78451290373788   -0.67351891903228
C        30.15420704374265    3.06011623276936   -1.68751265700108
C        31.06269317897680    2.07671657655251   -1.60216771673490
C        30.65750589007132    1.17497814887340   -0.52384083847038
N        29.52266369216111    1.60083315509467   -0.02086931160709
C        31.32197064624441   -0.00243824810591   -0.00078906847746
C        30.67420286359709   -1.10211711767337    0.48177804476923
C        31.08365256543519   -2.02301611556239    1.53188757518930
C        30.12498498809023   -2.95692958174740    1.62933784529049
C        29.10880830238228   -2.64691397280332    0.64846181480030
N        29.43835452772032   -1.54525808872343    0.00721038001378
C        27.89105030134558   -3.35478643093485    0.31503510922011
C        26.74328984643929   -2.73932648846953   -0.05231310088874
N        26.39159167689285   -1.45500845712890    0.33253353773362
H        25.68223018713331   -4.22270855396265   -1.38842198625665
H        23.81089182666093   -2.44138339690299   -1.57814781358308
H        23.89944504443402    2.45696993000768    1.51816889182575
H        25.86165738504156    4.33377672390352    1.30925094634801
H        28.10850691742823    4.55407236685639   -0.41145052532829
H        30.16643572583276    3.85527405658479   -2.42034742422106
H        31.93359135675465    1.96685116231960   -2.23427931950053
H        31.97842508063420   -1.94038189024078    2.14429637547240
H        30.13759664223894   -3.75944492031640    2.34077700069740
H        27.91725332533684   -4.44415045585377    0.35866928247902
115
 energy: -198.053917810298 gnorm: 0.119943699270 xtb: 6.4.1 (bd6e46d)
Zn       13.00329073695093    0.03242302305799   -0.00407475082335
C        15.30819860087086   -3.12907344450346    1.28569291898036
C        16.25598818268434   -2.16763936989696    1.24963889985912
C        15.79232300134511   -1.11509229484282    0.36899633519630
C        16.35792692307325    0.06154699823893   -0.00968081871572
C        15.68918036414702    1.22184658242825   -0.35954769058186
C        16.07726720855964    2.25325440887628   -1.24345035763367
C        15.08914778869352    3.20800143971611   -1.24609722980018
C        14.07149201455076    2.77195723250795   -0.37240536111963
N        14.42835669400738    1.55051308664962    0.15952546952244
C        12.87030154007619    3.45344614298028   -0.00548143951939
C        11.71772213246293    2.78817086184424    0.35595135311981
C        10.65611461945498    3.16597825377665    1.26050265481614
C         9.75563394248139    2.15036771853004    1.22677268629475
C        10.24152778200633    1.15364970507288    0.30130203010247
N        11.44541369475892    1.53310383391915   -0.15762400839078
C         9.62406427436198   -0.04678757052911   -0.13995549888240
C        10.32144998486193   -1.19756358664948   -0.43775852950883
C         9.91985425394130   -2.26434994085688   -1.32840812632886
C        10.89018526290041   -3.20703696413498   -1.25803224419121
C        11.89096285929679   -2.73664941968949   -0.32393652847399
N        11.54714378381235   -1.50427311459571    0.11031898050326
C        13.05856195959591   -3.37902071164697    0.12759791573099
C        14.22813901496639   -2.69092909933316    0.42688288433907
N        14.52882318421916   -1.47181665409084   -0.10162959357675
H        15.34165564524179   -4.01219154333105    1.90088078026899
H        17.15706345154072   -2.18076852744132    1.82729910911111
H        16.97812722356634    2.23022948732508   -1.81844268019603
H        15.05244683323566    4.10159969324814   -1.84092523917643
H        12.82208283113037    4.54234189229237    0.00107529839705
H        10.62023718517906    4.02842461967390    1.90656343642425
H         8.88462543128969    2.09974359588198    1.84278022072427
H         8.55003096326010   -0.07147659760955   -0.26281198340000
H         9.06894310885104   -2.29053172596830   -1.98809039715892
H        10.90862470399138   -4.09088149319060   -1.86104128316868
H        13.05283777468214   -4.45536106379509    0.25276913241334
Zn       42.83470396719675   -0.01322883134721   -0.00838454124812
C        40.52980381510472    2.85409201736591    1.84552118699611
C        39.58201139311025    1.91603984613636    1.63171535055509
C        40.04561879974032    1.04509474156100    0.57111981931816
C        39.47969779328367   -0.04100748733604   -0.01892570621078
C        40.14882924196815   -1.11607339247219   -0.57830152534718
C        39.76072122910511   -1.96560882208300   -1.63815199819576
C        40.74886022388907   -2.90330647975255   -1.81792174414717
C        41.76650840806449   -2.63695206320561   -0.87852369518511
N        41.40965868904816   -1.53527574762997   -0.12929624231601
C        42.96765985969207   -3.37466621772754   -0.64438273367402
C        44.12024785872490   -2.78795344921676   -0.16579216678977
C        45.18184107210425   -3.32699762585473    0.65295554992232
C        46.08233862091768   -2.32275339405752    0.80820660090341
C        45.59645346830629   -1.17166841341035    0.08371276306680
N        44.39255095565493   -1.45941762397722   -0.43764062761906
C        46.21390607841944    0.08978953314262   -0.12719063806734
C        45.51651638402112    1.27584001566973   -0.20634750853097
C        45.91810744397095    2.48933012732496   -0.88363647104882
C        44.94778449812556    3.40260733320964   -0.63958932576159
C        43.94700344112850    2.76710079144544    0.19102219523549
N        44.29082895613023    1.47554872170040    0.38911972689767
C        42.77941008985228    3.31456772648189    0.75387206314352
C        41.60983073894025    2.58287885857672    0.92031152881585
N        41.30916256117011    1.48292493506369    0.17489908448006
H        40.49631729903304    3.60777102796005    2.61384293642031
H        38.68092608182324    1.82183381373300    2.20181520362050
H        38.85987573145515   -1.83630267361203   -2.19894734371307
H        40.78553210270326   -3.67103857626118   -2.56821308337755
H        43.01591000385017   -4.44586547287282   -0.83998303128450
H        45.21773516567461   -4.29433164756461    1.12780334929371
H        46.95334891454426   -2.38729647799620    1.42291228078784
H        47.28793976181752    0.13684710766715   -0.24333237233197
H        46.76902085219481    2.63743901282126   -1.52701004009772
H        44.92934041851971    4.38297234044310   -1.06817475924935
H        42.78512830117143    4.34900075855132    1.07654847444708
C        19.29968116599706    0.01001159437453    0.00007652343363
C        20.53291452009600    0.01551988290141   -0.00618765047433
C        21.88784582091301    0.01754903299934    0.00191531045804
C        23.11756666263255    0.03262070739067   -0.00938745068778
C        32.72224978205326    0.02159502086378   -0.00080270698552
C        33.94971106341485    0.01546351610943    0.00065455631471
C        35.30577060654576    0.01348920430167    0.00012841591188
C        36.53725660220520    0.00483885737528   -0.00293612057442
Zn       27.93587172208359    0.03513061206641    0.00214081623870
C        25.68002308432558   -3.27275657189782   -0.87751104683694
C        24.71016037344735   -2.32916527584522   -0.97533146819692
C        25.17187247333874   -1.19193859286038   -0.21983809302761
C        24.50815257162567    0.02910119946447    0.00421861991681
C        25.23299401062758    1.26082971324698    0.23373757839189
C        24.80801719426813    2.39029267451672    0.95466973100063
C        25.79355561359085    3.35085705419080    0.85264802313631
C        26.82507192861487    2.80451205913677    0.07200773292666
N        26.48689118713050    1.50253007391660   -0.28107086505944
C        28.01025009607520    3.45067283343029   -0.34534800943180
C        29.15914991206901    2.75677990159402   -0.68275927805295
C        30.16012404739000    3.06127746006348   -1.66470331347074
C        31.08487582200418    2.06416264155678   -1.58855596531260
C        30.65955828501484    1.16695139386122   -0.54779532451480
N        29.47648641405149    1.56614219676116   -0.05959771334973
C        31.33273540555251    0.01485433629121   -0.01233789154101
C        30.65415652340143   -1.10385919380483    0.49821543010062
C        31.08893806232014   -2.01788562335055    1.51298591426881
C        30.12194121441938   -2.97392067219281    1.61410947106427
C        29.09520584394583   -2.64784111006066    0.66215257495353
N        29.41713488642385   -1.48846835022106    0.04233731105305
C        27.91252172235629   -3.35093647151423    0.32581255371188
C        26.74004125991729   -2.72273648373034   -0.06951794551222
N        26.41132524603358   -1.43752176026566    0.27746619008313
H        25.68916782708507   -4.22243361309003   -1.37486485300832
H        23.81220564913546   -2.42354920276981   -1.56171956149035
H        23.89722134970541    2.46029340197098    1.51418288586636
H        25.84604467515908    4.32403337294433    1.30614618677006
H        28.08013022473062    4.53634675310648   -0.41292888150594
H        30.15670475999905    3.85307608349525   -2.39721188034077
H        31.93912316201270    1.95713592145909   -2.22308701710382
H        31.97097641664424   -1.93488603072240    2.12446987412434
H        30.12593447913302   -3.76962576402581    2.33100217038935
H        27.92133315600869   -4.43365454942507    0.36163826149928
115
 energy: -198.103734071624 gnorm: 0.068894085150 xtb: 6.4.1 (bd6e46d)
Zn       13.00805988398330    0.03265808494946    0.00042164048183
C        15.31340949171804   -3.13108814637622    1.27183641131417
C        16.26643066610468   -2.16651742059281    1.24335059048928
C        15.77909025043887   -1.10772720390831    0.39281954107889
C        16.32167675072255    0.07634399584392   -0.00407902694147
C        15.67627250038552    1.21584487617382   -0.36983493946236
C        16.08991891791789    2.27458848196660   -1.24526358098692
C        15.11523844674347    3.21574411074560   -1.23792104234432
C        14.07176039606287    2.75199148117015   -0.37063077769777
N        14.40834110670263    1.52957607091248    0.12668743138407
C        12.89291618600521    3.42953483335042    0.00072282694005
C        11.73669803359311    2.75216765059555    0.37848764183104
C        10.65836125794557    3.16204610424042    1.23608595941694
C         9.73765553440615    2.15483164195610    1.20822082266055
C        10.24711933696285    1.13997998229033    0.32826937276938
N        11.48936847049433    1.49089978473071   -0.09813646092034
C         9.62773279493391   -0.03477532647807   -0.13390583190812
C        10.33768430151546   -1.18386365602668   -0.46331966857602
C         9.91778676417527   -2.26752590036011   -1.31041106946020
C        10.88418893245945   -3.22235212279949   -1.23779998693038
C        11.90421717612184   -2.72803882914815   -0.34599730240689
N        11.57618751723731   -1.46268625318177    0.04859574049932
C        13.05180754964490   -3.36943770953961    0.12141321910438
C        14.22486593675217   -2.67298948243209    0.44139057383138
N        14.51169851978727   -1.45231819906353   -0.05671711014590
H        15.33440562329628   -4.01852498946359    1.87529224533067
H        17.17636892840059   -2.16785947321825    1.80782988524402
H        16.99397355417910    2.24411602389633   -1.81499316047272
H        15.06098126120926    4.11084750560042   -1.82774141440396
H        12.85131685780258    4.51515397433076   -0.00163472570862
H        10.62642985435283    4.03017318353017    1.87137137293092
H         8.86251511929305    2.09455460170382    1.82034157635530
H         8.55400302457100   -0.06321997431337   -0.25201870546418
H         9.06203281271580   -2.28475912477538   -1.96006607529946
H        10.91749043697229   -4.11194992571444   -1.83319384510218
H        13.05469627492548   -4.44509163518173    0.23556752691309
Zn       42.82988974466431   -0.01431328026870   -0.00399856820330
C        40.52456146945276    2.85861553511453    1.83228428450921
C        39.57147422969769    1.91613302314258    1.62532988953721
C        40.05861959143154    1.03343533141911    0.59313891238496
C        39.51553947612270   -0.05654332595772   -0.01621783189687
C        40.16148773391274   -1.10829258446071   -0.58720488495111
C        39.74797605670709   -1.98625673852649   -1.64385182604239
C        40.72273063000928   -2.91238838261049   -1.81129236005046
C        41.76618843931809   -2.61754624964039   -0.87305670762827
N        41.42950336380021   -1.50850076211372   -0.15764626100186
C        42.94500739534394   -3.35224434368399   -0.63380903590106
C        44.10125536438435   -2.75673161941030   -0.13694092301742
C        45.17959124578168   -3.31860494714468    0.62971773256955
C        46.10031111880414   -2.32370655652681    0.78917518203141
C        45.59085417275561   -1.16323529598033    0.11277072636948
N        44.34859442496605   -1.42895737596051   -0.37132846111212
C        46.21023713102620    0.07686293123597   -0.12346205435133
C        45.50027921504180    1.26711149405554   -0.23399755045658
C        45.92017405098320    2.48911355721548   -0.86535209832979
C        44.95377586292796    3.41389203875884   -0.61685945209214
C        43.93372853236410    2.76269907241603    0.16774577980252
N        44.26177437934699    1.44610358206604    0.32074295904955
C        42.78611338190391    3.30620266136934    0.74599136281030
C        41.61305039135998    2.56242966122392    0.93126428416498
N        41.32612519529363    1.45529638720102    0.21544065077595
H        40.50356768240058    3.61873400196428    2.58986098244777
H        38.66156259807355    1.81283679622985    2.18032531390863
H        38.84399013353841   -1.85063615026624   -2.19814222248055
H        40.77699168401212   -3.68254539231537   -2.55692893184523
H        42.98662889868765   -4.41858735705223   -0.83754459228828
H        45.21153483684935   -4.28951674520498    1.09293048866691
H        46.97545354013725   -2.37804096352397    1.40185108342754
H        47.28396723096509    0.12673034549437   -0.23424249716964
H        46.77592735316023    2.62656739751159   -1.50053614339158
H        44.92046552016716    4.39849713043814   -1.03689706021724
H        42.78319807634443    4.34203400065975    1.05766561968081
C        19.28837469461203    0.01254117075357    0.00125249463618
C        20.52584680437706    0.01707924789536   -0.00844527386939
C        21.87766807700594    0.02185494206893    0.00305002165268
C        23.11102494784808    0.04795763595499   -0.00614784698245
C        32.73924958044248    0.02011715944291   -0.00494447139163
C        33.97117038777378    0.01467263754544    0.00145791759325
C        35.32160381173931    0.01124163648610   -0.00097037992674
C        36.55743459368886    0.00207935569817   -0.00276937231813
Zn       27.94088201246678    0.03851585809773   -0.00266553988954
C        25.68078633176311   -3.27845027817625   -0.86232142876179
C        24.70969561259697   -2.32438946242407   -0.96027074023330
C        25.18939906228352   -1.18033483345662   -0.24185138931787
C        24.51060495754122    0.04935901184944   -0.00087710412817
C        25.24965275408679    1.25613821807045    0.24121830077701
C        24.79640322348004    2.40636321913878    0.95057568523868
C        25.77161472820480    3.35277612257449    0.84457145863449
C        26.83156187855190    2.78291012565382    0.08152575619900
N        26.51061194395521    1.47787074216920   -0.22825614386659
C        27.99350401216281    3.42653220861443   -0.34958162489375
C        29.14691645848700    2.72126586472997   -0.70124835383461
C        30.16585554752700    3.05681172039095   -1.64510938233063
C        31.10263186187099    2.06060131127499   -1.57228227829683
C        30.65905255718368    1.14698728449322   -0.57199898096695
N        29.43942049038614    1.51971588457028   -0.10966736663555
C        31.34767003679930    0.02355749365499   -0.01893542992643
C        30.64214289152296   -1.09079000926441    0.51698540887674