      -----------------------------------------------------------      
     |                   =====================                   |     
     |                           x T B                           |     
     |                   =====================                   |     
     |                         S. Grimme                         |     
     |          Mulliken Center for Theoretical Chemistry        |     
     |                    University of Bonn                     |     
      -----------------------------------------------------------      

   * xtb version 6.4.1 (bd6e46d) compiled by 'conda@4901f00b25ba' on 2021-06-10

   xtb is free software: you can redistribute it and/or modify it under
   the terms of the GNU Lesser General Public License as published by
   the Free Software Foundation, either version 3 of the License, or
   (at your option) any later version.
   
   xtb is distributed in the hope that it will be useful,
   but WITHOUT ANY WARRANTY; without even the implied warranty of
   MERCHANTABILITY or FITNESS FOR A PARTICULAR PURPOSE.  See the
   GNU Lesser General Public License for more details.
   
   Cite this work as:
   * C. Bannwarth, E. Caldeweyher, S. Ehlert, A. Hansen, P. Pracht,
     J. Seibert, S. Spicher, S. Grimme, WIREs Comput. Mol. Sci., 2020, 11,
     e01493. DOI: 10.1002/wcms.1493
   
   for GFN2-xTB:
   * C. Bannwarth, S. Ehlert and S. Grimme., J. Chem. Theory Comput., 2019,
     15, 1652-1671. DOI: 10.1021/acs.jctc.8b01176
   for GFN1-xTB:
   * S. Grimme, C. Bannwarth, P. Shushkov, J. Chem. Theory Comput., 2017,
     13, 1989-2009. DOI: 10.1021/acs.jctc.7b00118
   for GFN0-xTB:
   * P. Pracht, E. Caldeweyher, S. Ehlert, S. Grimme, ChemRxiv, 2019, preprint.
     DOI: 10.26434/chemrxiv.8326202.v1
   for GFN-FF:
   * S. Spicher and S. Grimme, Angew. Chem. Int. Ed., 2020, 59, 15665-15673.
     DOI: 10.1002/anie.202004239
   
   for DFT-D4:
   * E. Caldeweyher, C. Bannwarth and S. Grimme, J. Chem. Phys., 2017,
     147, 034112. DOI: 10.1063/1.4993215
   * E. Caldeweyher, S. Ehlert, A. Hansen, H. Neugebauer, S. Spicher,
     C. Bannwarth and S. Grimme, J. Chem. Phys., 2019, 150, 154122.
     DOI: 10.1063/1.5090222
   * E. Caldeweyher, J.-M. Mewes, S. Ehlert and S. Grimme, Phys. Chem. Chem. Phys.
     2020, 22, 8499-8512. DOI: 10.1039/D0CP00502A
   
   for sTDA-xTB:
   * S. Grimme and C. Bannwarth, J. Chem. Phys., 2016, 145, 054103.
     DOI: 10.1063/1.4959605
   
   in the mass-spec context:
   * V. Asgeirsson, C. Bauer and S. Grimme, Chem. Sci., 2017, 8, 4879.
     DOI: 10.1039/c7sc00601b
   * J. Koopman and S. Grimme, ACS Omega 2019, 4, 12, 15120-15133.
     DOI: 10.1021/acsomega.9b02011
   
   for metadynamics refer to:
   * S. Grimme, J. Chem. Theory Comput., 2019, 155, 2847-2862
     DOI: 10.1021/acs.jctc.9b00143
   
   for SPH calculations refer to:
   * S. Spicher and S. Grimme, J. Chem. Theory Comput., 2021, 17, 1701-1714
     DOI: 10.1021/acs.jctc.0c01306
   
   with help from (in alphabetical order)
   P. Atkinson, C. Bannwarth, F. Bohle, G. Brandenburg, E. Caldeweyher
   M. Checinski, S. Dohm, S. Ehlert, S. Ehrlich, I. Gerasimov, J. Koopman
   C. Lavigne, S. Lehtola, F. März, M. Müller, F. Musil, H. Neugebauer
   J. Pisarek, C. Plett, P. Pracht, J. Seibert, P. Shushkov, S. Spicher
   M. Stahn, M. Steiner, T. Strunk, J. Stückrath, T. Rose, and J. Unsleber
   
 * started run on 2021/11/19 at 15:26:32.716     

           -------------------------------------------------
          |                Calculation Setup                |
           -------------------------------------------------

          program call               : /home/jeff/miniconda3/bin/xtb input_structure_1.xyz --gfn 2 --ohess normal --parallel 1 --etemp 300 --chrg 0 --uhf 0 -I det_control.in
          hostname                   : jelfscompute1
          coordinate file            : input_structure_1.xyz
          omp threads                :                     1
          number of atoms            :                   152
          number of electrons        :                   474
          charge                     :                     0
          spin                       :                   0.0
          first test random number   :      0.00534194699762

   ID    Z sym.   atoms
    1    6 C      1-8, 10-14, 16-20, 22, 23, 38-45, 47-51, 53-57, 59, 60,
                  75-88, 90-94, 96-100, 102, 103, 117-124, 126-130, 132-136,
                  138, 139
    2    7 N      9, 15, 21, 24, 46, 52, 58, 61, 89, 95, 101, 104, 125, 131,
                  137, 140
    3    1 H      25-37, 62-74, 105-116, 141-152

molecular fragmentation (1/2 indicates fragments):
111111111111111111111111111111111111122222222222222222222222222222222222
222222222222222222222222222222222222222222222222222222222222222222222222
22222222
# atoms in fragment 1/2:    37   115
 fragment masses (1/2) :      309.34      998.08
CMA distance (Bohr)    :  40.741
constraining FC (au)   :  0.0500

           -------------------------------------------------
          |                 G F N 2 - x T B                 |
           -------------------------------------------------

        Reference                      10.1021/acs.jctc.8b01176
      * Hamiltonian:
        H0-scaling (s, p, d)           1.850000    2.230000    2.230000
        zeta-weighting                 0.500000
      * Dispersion:
        s8                             2.700000
        a1                             0.520000
        a2                             5.000000
        s9                             5.000000
      * Repulsion:
        kExp                           1.500000    1.000000
        rExp                           1.000000
      * Coulomb:
        alpha                          2.000000
        third order                    shell-resolved
        anisotropic                    true
        a3                             3.000000
        a5                             4.000000
        cn-shift                       1.200000
        cn-exp                         4.000000
        max-rad                        5.000000


          ...................................................
          :                      SETUP                      :
          :.................................................:
          :  # basis functions                 458          :
          :  # atomic orbitals                 458          :
          :  # shells                          254          :
          :  # electrons                       474          :
          :  max. iterations                   250          :
          :  Hamiltonian                  GFN2-xTB          :
          :  restarted?                      false          :
          :  GBSA solvation                  false          :
          :  PC potential                    false          :
          :  electronic temp.          300.0000000     K    :
          :  accuracy                    1.0000000          :
          :  -> integral cutoff          0.2500000E+02      :
          :  -> integral neglect         0.1000000E-07      :
          :  -> SCF convergence          0.1000000E-05 Eh   :
          :  -> wf. convergence          0.1000000E-03 e    :
          :  Broyden damping             0.4000000          :
          ...................................................

 iter      E             dE          RMSdq      gap      omega  full diag
   1   -259.6724955 -0.259672E+03  0.473E+00    0.21       0.0  T
   2   -259.9782833 -0.305788E+00  0.308E+00    0.27       1.0  T
   3   -257.0809907  0.289729E+01  0.301E+00    0.23       1.0  T
   4   -247.9274347  0.915356E+01  0.387E+00    0.17       1.0  T
   5   -248.3760452 -0.448611E+00  0.375E+00    0.07       1.0  T
   6   -258.7677358 -0.103917E+02  0.205E+00    0.24       1.0  T
   7   -259.8713324 -0.110360E+01  0.110E+00    0.22       1.0  T
   8   -259.9414859 -0.701535E-01  0.811E-01    0.27       1.0  T
   9   -259.9752168 -0.337309E-01  0.674E-01    0.13       1.0  T
  10   -260.0152014 -0.399845E-01  0.586E-01    0.24       1.0  T
  11   -260.0978236 -0.826223E-01  0.403E-01    0.15       1.0  T
  12   -260.1323195 -0.344959E-01  0.320E-01    0.24       1.0  T
  13   -260.1521809 -0.198614E-01  0.264E-01    0.25       1.0  T
  14   -260.1527967 -0.615738E-03  0.238E-01    0.26       1.0  T
  15   -260.1577328 -0.493612E-02  0.211E-01    0.25       1.0  T
  16   -260.1617033 -0.397049E-02  0.136E-01    0.26       1.0  T
  17   -260.1637168 -0.201349E-02  0.107E-01    0.25       1.0  T
  18   -260.1643590 -0.642236E-03  0.929E-02    0.25       1.0  T
  19   -260.1644628 -0.103774E-03  0.669E-02    0.25       1.0  T
  20   -260.1654009 -0.938096E-03  0.410E-02    0.25       1.0  T
  21   -260.1657401 -0.339249E-03  0.181E-02    0.25       1.0  T
  22   -260.1657725 -0.324165E-04  0.967E-03    0.24       1.0  T
  23   -260.1658028 -0.302478E-04  0.480E-03    0.24       1.7  T
  24   -260.1658093 -0.647775E-05  0.306E-03    0.24       2.7  T
  25   -260.1658099 -0.577902E-06  0.166E-03    0.24       4.9  T
  26   -260.1658105 -0.646198E-06  0.108E-03    0.24       7.5  T
  27   -260.1658107 -0.164902E-06  0.707E-04    0.24      11.5  T
  28   -260.1658107 -0.320041E-07  0.602E-04    0.24      13.5  T

   *** convergence criteria satisfied after 28 iterations ***

         #    Occupation            Energy/Eh            Energy/eV
      -------------------------------------------------------------
         1        2.0000           -0.6913935             -18.8138
       ...           ...                  ...                  ...
       231        2.0000           -0.3558637              -9.6835
       232        2.0000           -0.3537839              -9.6269
       233        2.0000           -0.3528343              -9.6011
       234        2.0000           -0.3520436              -9.5796
       235        2.0000           -0.3458527              -9.4111
       236        2.0000           -0.3455040              -9.4016
       237        1.9819           -0.3225608              -8.7773 (HOMO)
       238        0.0178           -0.3136225              -8.5341 (LUMO)
       239        0.0002           -0.3095202              -8.4225
       240        0.0001           -0.3085182              -8.3952
       241                         -0.2944573              -8.0126
       242                         -0.2913346              -7.9276
       ...                                ...                  ...
       458                          2.5980376              70.6962
      -------------------------------------------------------------
                  HL-Gap            0.0089383 Eh            0.2432 eV
             Fermi-level           -0.3181003 Eh           -8.6559 eV

 SCC (total)                   0 d,  0 h,  0 min,  1.724 sec
 SCC setup                      ...        0 min,  0.004 sec (  0.243%)
 Dispersion                     ...        0 min,  0.009 sec (  0.495%)
 classical contributions        ...        0 min,  0.001 sec (  0.078%)
 integral evaluation            ...        0 min,  0.068 sec (  3.937%)
 iterations                     ...        0 min,  1.384 sec ( 80.259%)
 molecular gradient             ...        0 min,  0.253 sec ( 14.653%)
 printout                       ...        0 min,  0.006 sec (  0.334%)

         :::::::::::::::::::::::::::::::::::::::::::::::::::::
         ::                     SUMMARY                     ::
         :::::::::::::::::::::::::::::::::::::::::::::::::::::
         :: total energy            -254.995934191496 Eh    ::
         :: gradient norm              1.546148585325 Eh/a0 ::
         :: HOMO-LUMO gap              0.243223891655 eV    ::
         ::.................................................::
         :: SCC energy              -260.165810696028 Eh    ::
         :: -> isotropic ES            0.156261784464 Eh    ::
         :: -> anisotropic ES         -0.008150284843 Eh    ::
         :: -> anisotropic XC          0.177941700519 Eh    ::
         :: -> dispersion             -0.217295528973 Eh    ::
         :: repulsion energy           5.171383532418 Eh    ::
         :: add. restraining           0.000000000000 Eh    ::
         :: total charge              -0.000000000001 e     ::
         :::::::::::::::::::::::::::::::::::::::::::::::::::::

      ----------------------------------------------------------- 
     |                   =====================                   |
     |                        A N C O P T                        |
     |                   =====================                   |
     |               Approximate Normal Coordinate               |
     |                Rational Function Optimizer                |
      ----------------------------------------------------------- 

          ...................................................
          :                      SETUP                      :
          :.................................................:
          :   optimization level            normal          :
          :   max. optcycles                   456          :
          :   ANC micro-cycles                  20          :
          :   degrees of freedom               450          :
          :.................................................:
          :   RF solver                   davidson          :
          :   write xtbopt.log                true          :
          :   linear?                        false          :
          :   energy convergence         0.5000000E-05 Eh   :
          :   grad. convergence          0.1000000E-02 Eh/α :
          :   maximium RF displ.         1.0000000          :
          :   Hlow (freq-cutoff)         0.1000000E-01      :
          :   Hmax (freq-cutoff)         5.0000000          :
          :   S6 in model hess.         20.0000000          :
          ...................................................

generating ANC from model Hessian ...
Using Lindh-Hessian (1995)
 Shifting diagonal of input Hessian by    1.0025754275304381E-002
 Lowest  eigenvalues of input Hessian
    0.010000    0.010021    0.010022    0.000000    0.000000    0.000000
    0.000000    0.000000    0.000000    0.010028    0.010033    0.010036
    0.010051    0.010059    0.010075    0.010144    0.010182    0.010371
 Highest eigenvalues
    2.571842    2.901665    2.919714    3.402572    3.490098    3.830635


........................................................................
.............................. CYCLE    1 ..............................
........................................................................
   1   -260.1658107 -0.260166E+03  0.448E-04    0.24       0.0  T
   2   -260.1658087  0.205603E-05  0.245E-03    0.24       3.3  T
   3   -260.1658104 -0.172008E-05  0.110E-03    0.24       7.4  T
   4   -260.1658106 -0.218878E-06  0.711E-04    0.24      11.4  T
   5   -260.1658107 -0.995041E-07  0.419E-04    0.24      19.4  T
     SCC iter.                  ...        0 min,  0.247 sec
     gradient                   ...        0 min,  0.253 sec
 * total energy  :  -254.9959342 Eh     change        0.1345200E-08 Eh
   gradient norm :     1.5461464 Eh/α   predicted     0.0000000E+00 (-100.00%)
   displ. norm   :     0.5784627 α      lambda       -0.7589802E+00
   maximum displ.:     0.2010746 α      in ANC's #450, #449, #448, ...

........................................................................
.............................. CYCLE    2 ..............................
........................................................................
   1   -260.2769048 -0.260277E+03  0.445E-01    0.44       0.0  T
   2   -260.2693196  0.758521E-02  0.397E-01    0.42       1.0  T
   3   -260.2812534 -0.119338E-01  0.242E-01    0.43       1.0  T
   4   -260.2496569  0.315965E-01  0.364E-01    0.48       1.0  T
   5   -260.2848862 -0.352293E-01  0.124E-01    0.44       1.0  T
   6   -260.2885717 -0.368556E-02  0.294E-02    0.43       1.0  T
   7   -260.2887105 -0.138770E-03  0.111E-02    0.43       1.0  T
   8   -260.2887120 -0.148306E-05  0.895E-03    0.43       1.0  T
   9   -260.2887235 -0.115317E-04  0.565E-03    0.43       1.4  T
  10   -260.2887256 -0.207232E-05  0.369E-03    0.43       2.2  T
  11   -260.2887277 -0.206547E-05  0.169E-03    0.43       4.8  T
  12   -260.2887284 -0.713458E-06  0.552E-04    0.43      14.7  T
  13   -260.2887284 -0.313069E-07  0.285E-04    0.43      28.5  T
     SCC iter.                  ...        0 min,  0.640 sec
     gradient                   ...        0 min,  0.252 sec
 * total energy  :  -255.4776725 Eh     change       -0.4817383E+00 Eh
   gradient norm :     0.4856097 Eh/α   predicted    -0.5065011E+00 (   5.14%)
   displ. norm   :     0.6680226 α      lambda       -0.2656108E+00
   maximum displ.:     0.1651675 α      in ANC's #284, #282, #190, ...

........................................................................
.............................. CYCLE    3 ..............................
........................................................................
   1   -260.3560742 -0.260356E+03  0.371E-01    0.46       0.0  T
   2   -260.3514600  0.461424E-02  0.319E-01    0.47       1.0  T
   3   -260.3573948 -0.593474E-02  0.201E-01    0.47       1.0  T
   4   -260.3585910 -0.119624E-02  0.105E-01    0.47       1.0  T
   5   -260.3586128 -0.218144E-04  0.101E-01    0.47       1.0  T
   6   -260.3614485 -0.283569E-02  0.175E-02    0.47       1.0  T
   7   -260.3614927 -0.442301E-04  0.115E-02    0.47       1.0  T
   8   -260.3615173 -0.246054E-04  0.473E-03    0.47       1.7  T
   9   -260.3615181 -0.791282E-06  0.318E-03    0.47       2.6  T
  10   -260.3615195 -0.133612E-05  0.119E-03    0.47       6.8  T
  11   -260.3615197 -0.189380E-06  0.628E-04    0.47      12.9  T
  12   -260.3615197 -0.817342E-07  0.349E-04    0.47      23.2  T
     SCC iter.                  ...        0 min,  0.589 sec
     gradient                   ...        0 min,  0.251 sec
 * total energy  :  -255.6918276 Eh     change       -0.2141551E+00 Eh
   gradient norm :     0.2967819 Eh/α   predicted    -0.1920709E+00 ( -10.31%)
   displ. norm   :     0.7809715 α      lambda       -0.1926449E+00
   maximum displ.:     0.1866986 α      in ANC's #42, #284, #190, ...

........................................................................
.............................. CYCLE    4 ..............................
........................................................................
   1   -260.4499661 -0.260450E+03  0.354E-01    0.48       0.0  T
   2   -260.4456843  0.428176E-02  0.323E-01    0.49       1.0  T
   3   -260.4526635 -0.697917E-02  0.173E-01    0.49       1.0  T
   4   -260.4535433 -0.879793E-03  0.852E-02    0.49       1.0  T
   5   -260.4543464 -0.803131E-03  0.611E-02    0.49       1.0  T
   6   -260.4551920 -0.845572E-03  0.140E-02    0.49       1.0  T
   7   -260.4552134 -0.213637E-04  0.797E-03    0.49       1.0  T
   8   -260.4552200 -0.664998E-05  0.553E-03    0.49       1.5  T
   9   -260.4552223 -0.229752E-05  0.374E-03    0.49       2.2  T
  10   -260.4552253 -0.294009E-05  0.913E-04    0.49       8.9  T
  11   -260.4552254 -0.147159E-06  0.539E-04    0.49      15.0  T
  12   -260.4552255 -0.562230E-07  0.258E-04    0.49      31.5  T
     SCC iter.                  ...        0 min,  0.590 sec
     gradient                   ...        0 min,  0.250 sec
 * total energy  :  -255.8498789 Eh     change       -0.1580513E+00 Eh
   gradient norm :     0.1751041 Eh/α   predicted    -0.1550713E+00 (  -1.89%)
   displ. norm   :     0.8205176 α      lambda       -0.1271512E+00
   maximum displ.:     0.2702403 α      in ANC's #42, #31, #190, ...

........................................................................
.............................. CYCLE    5 ..............................
........................................................................
   1   -260.4920875 -0.260492E+03  0.291E-01    0.43       0.0  T
   2   -260.4882075  0.388006E-02  0.292E-01    0.44       1.0  T
   3   -260.4951499 -0.694242E-02  0.137E-01    0.43       1.0  T
   4   -260.4944007  0.749202E-03  0.756E-02    0.43       1.0  T
   5   -260.4955079 -0.110721E-02  0.415E-02    0.43       1.0  T
   6   -260.4958913 -0.383371E-03  0.919E-03    0.43       1.0  T
   7   -260.4958964 -0.506761E-05  0.525E-03    0.43       1.5  T
   8   -260.4958973 -0.965772E-06  0.356E-03    0.43       2.3  T
   9   -260.4958994 -0.204609E-05  0.145E-03    0.43       5.6  T
  10   -260.4958999 -0.574808E-06  0.570E-04    0.43      14.2  T
  11   -260.4959000 -0.567520E-07  0.263E-04    0.43      30.9  T
     SCC iter.                  ...        0 min,  0.542 sec
     gradient                   ...        0 min,  0.250 sec
 * total energy  :  -255.9427227 Eh     change       -0.9284386E-01 Eh
   gradient norm :     0.1090217 Eh/α   predicted    -0.1063778E+00 (  14.58%)
   displ. norm   :     0.7510410 α      lambda       -0.5581126E-01
   maximum displ.:     0.3018334 α      in ANC's #31, #42, #85, ...

........................................................................
.............................. CYCLE    6 ..............................
........................................................................
   1   -260.5501251 -0.260550E+03  0.183E-01    0.44       0.0  T
   2   -260.5496316  0.493499E-03  0.138E-01    0.44       1.0  T
   3   -260.5469596  0.267202E-02  0.115E-01    0.44       1.0  T
   4   -260.5502986 -0.333898E-02  0.367E-02    0.44       1.0  T
   5   -260.5506103 -0.311675E-03  0.152E-02    0.44       1.0  T
   6   -260.5506621 -0.518472E-04  0.409E-03    0.44       2.0  T
   7   -260.5506633 -0.119112E-05  0.269E-03    0.44       3.0  T
   8   -260.5506640 -0.747299E-06  0.172E-03    0.44       4.7  T
   9   -260.5506646 -0.547972E-06  0.572E-04    0.44      14.2  T
  10   -260.5506647 -0.638527E-07  0.266E-04    0.44      30.5  T
     SCC iter.                  ...        0 min,  0.496 sec
     gradient                   ...        0 min,  0.251 sec
 * total energy  :  -255.9898931 Eh     change       -0.4717036E-01 Eh
   gradient norm :     0.0852453 Eh/α   predicted    -0.4364641E-01 (  -7.47%)
   displ. norm   :     0.8214525 α      lambda       -0.4796156E-01
   maximum displ.:     0.3426704 α      in ANC's #31, #42, #53, ...

........................................................................
.............................. CYCLE    7 ..............................
........................................................................
   1   -260.6155054 -0.260616E+03  0.185E-01    0.49       0.0  T
   2   -260.6153931  0.112307E-03  0.123E-01    0.49       1.0  T
   3   -260.6110954  0.429763E-02  0.114E-01    0.50       1.0  T
   4   -260.6153247 -0.422927E-02  0.462E-02    0.49       1.0  T
   5   -260.6159586 -0.633867E-03  0.867E-03    0.49       1.0  T
   6   -260.6159679 -0.931679E-05  0.430E-03    0.49       1.9  T
   7   -260.6159704 -0.255027E-05  0.204E-03    0.49       4.0  T
   8   -260.6159701  0.314780E-06  0.189E-03    0.49       4.3  T
   9   -260.6159709 -0.817893E-06  0.540E-04    0.49      15.0  T
  10   -260.6159710 -0.408028E-07  0.189E-04    0.49      42.8  T
     SCC iter.                  ...        0 min,  0.496 sec
     gradient                   ...        0 min,  0.250 sec
 * total energy  :  -256.0296220 Eh     change       -0.3972892E-01 Eh
   gradient norm :     0.0649456 Eh/α   predicted    -0.4016271E-01 (   1.09%)
   displ. norm   :     0.8752985 α      lambda       -0.3759671E-01
   maximum displ.:     0.4210714 α      in ANC's #31, #42, #30, ...

........................................................................
.............................. CYCLE    8 ..............................
........................................................................
   1   -260.6724453 -0.260672E+03  0.145E-01    0.51       0.0  T
   2   -260.6722696  0.175660E-03  0.101E-01    0.51       1.0  T
   3   -260.6702778  0.199180E-02  0.911E-02    0.51       1.0  T
   4   -260.6724884 -0.221056E-02  0.256E-02    0.51       1.0  T
   5   -260.6726737 -0.185335E-03  0.829E-03    0.51       1.0  T
   6   -260.6726898 -0.160284E-04  0.282E-03    0.51       2.9  T
   7   -260.6726910 -0.120237E-05  0.130E-03    0.51       6.2  T
   8   -260.6726910 -0.331406E-07  0.785E-04    0.51      10.3  T
   9   -260.6726911 -0.102313E-06  0.239E-04    0.51      33.9  T
     SCC iter.                  ...        0 min,  0.442 sec
     gradient                   ...        0 min,  0.254 sec
 * total energy  :  -256.0627186 Eh     change       -0.3309662E-01 Eh
   gradient norm :     0.0463179 Eh/α   predicted    -0.3320067E-01 (   0.31%)
   displ. norm   :     0.8908393 α      lambda       -0.3159193E-01
   maximum displ.:     0.4346911 α      in ANC's #31, #42, #30, ...

........................................................................
.............................. CYCLE    9 ..............................
........................................................................
   1   -260.7128485 -0.260713E+03  0.144E-01    0.55       0.0  T
   2   -260.7127646  0.839149E-04  0.917E-02    0.54       1.0  T
   3   -260.7104911  0.227352E-02  0.888E-02    0.55       1.0  T
   4   -260.7128691 -0.237807E-02  0.210E-02    0.55       1.0  T
   5   -260.7129973 -0.128126E-03  0.548E-03    0.55       1.5  T
   6   -260.7130030 -0.576670E-05  0.232E-03    0.55       3.5  T
   7   -260.7130038 -0.802746E-06  0.111E-03    0.55       7.3  T
   8   -260.7130038  0.168836E-07  0.834E-04    0.55       9.7  T
   9   -260.7130040 -0.153797E-06  0.235E-04    0.55      34.4  T
     SCC iter.                  ...        0 min,  0.444 sec
     gradient                   ...        0 min,  0.251 sec
 * total energy  :  -256.0911065 Eh     change       -0.2838789E-01 Eh
   gradient norm :     0.0397623 Eh/α   predicted    -0.2833157E-01 (  -0.20%)
   displ. norm   :     0.9111925 α      lambda       -0.2817802E-01
   maximum displ.:     0.4533501 α      in ANC's #31, #42, #29, ...

........................................................................
.............................. CYCLE   10 ..............................
........................................................................
   1   -260.7572974 -0.260757E+03  0.148E-01    0.58       0.0  T
   2   -260.7571609  0.136554E-03  0.991E-02    0.58       1.0  T
   3   -260.7556151  0.154581E-02  0.879E-02    0.58       1.0  T
   4   -260.7573768 -0.176170E-02  0.226E-02    0.58       1.0  T
   5   -260.7575222 -0.145428E-03  0.641E-03    0.58       1.3  T
   6   -260.7575319 -0.967908E-05  0.244E-03    0.58       3.3  T
   7   -260.7575326 -0.768665E-06  0.133E-03    0.58       6.1  T
   8   -260.7575328 -0.123512E-06  0.785E-04    0.58      10.3  T
   9   -260.7575329 -0.119721E-06  0.236E-04    0.58      34.3  T
     SCC iter.                  ...        0 min,  0.443 sec
     gradient                   ...        0 min,  0.254 sec
 * total energy  :  -256.1152671 Eh     change       -0.2416059E-01 Eh
   gradient norm :     0.0478839 Eh/α   predicted    -0.2578672E-01 (   6.73%)
   displ. norm   :     0.8974667 α      lambda       -0.2521577E-01
   maximum displ.:     0.4655018 α      in ANC's #31, #42, #30, ...

........................................................................
.............................. CYCLE   11 ..............................
........................................................................
   1   -260.7954451 -0.260795E+03  0.143E-01    0.60       0.0  T
   2   -260.7953520  0.931317E-04  0.940E-02    0.60       1.0  T
   3   -260.7941060  0.124604E-02  0.820E-02    0.60       1.0  T
   4   -260.7955175 -0.141155E-02  0.202E-02    0.60       1.0  T
   5   -260.7956327 -0.115166E-03  0.551E-03    0.60       1.5  T
   6   -260.7956403 -0.759388E-05  0.228E-03    0.60       3.6  T
   7   -260.7956410 -0.734280E-06  0.119E-03    0.60       6.8  T
   8   -260.7956411 -0.125380E-06  0.597E-04    0.60      13.6  T
   9   -260.7956412 -0.647960E-07  0.207E-04    0.60      39.2  T
     SCC iter.                  ...        0 min,  0.445 sec
     gradient                   ...        0 min,  0.249 sec
 * total energy  :  -256.1368143 Eh     change       -0.2154722E-01 Eh
   gradient norm :     0.0395980 Eh/α   predicted    -0.2276289E-01 (   5.64%)
   displ. norm   :     0.8956385 α      lambda       -0.2051251E-01
   maximum displ.:     0.4732120 α      in ANC's #31, #29, #30, ...

........................................................................
.............................. CYCLE   12 ..............................
........................................................................
   1   -260.8153020 -0.260815E+03  0.139E-01    0.63       0.0  T
   2   -260.8152701  0.318929E-04  0.836E-02    0.62       1.0  T
   3   -260.8138941  0.137601E-02  0.711E-02    0.63       1.0  T
   4   -260.8153219 -0.142782E-02  0.133E-02    0.63       1.0  T
   5   -260.8153725 -0.506431E-04  0.365E-03    0.63       2.2  T
   6   -260.8153754 -0.289176E-05  0.163E-03    0.63       5.0  T
   7   -260.8153757 -0.285213E-06  0.760E-04    0.63      10.7  T
   8   -260.8153758 -0.559877E-07  0.344E-04    0.63      23.6  T
     SCC iter.                  ...        0 min,  0.398 sec
     gradient                   ...        0 min,  0.253 sec
 * total energy  :  -256.1554834 Eh     change       -0.1866908E-01 Eh
   gradient norm :     0.0297451 Eh/α   predicted    -0.1848352E-01 (  -0.99%)
   displ. norm   :     0.9065958 α      lambda       -0.1809135E-01
   maximum displ.:     0.4772676 α      in ANC's #31, #29, #30, ...

........................................................................
.............................. CYCLE   13 ..............................
........................................................................
   1   -260.8428138 -0.260843E+03  0.140E-01    0.65       0.0  T
   2   -260.8427816  0.321706E-04  0.835E-02    0.65       1.0  T
   3   -260.8412432  0.153836E-02  0.692E-02    0.65       1.0  T
   4   -260.8428351 -0.159189E-02  0.128E-02    0.65       1.0  T
   5   -260.8428799 -0.448335E-04  0.302E-03    0.65       2.7  T
   6   -260.8428815 -0.152385E-05  0.157E-03    0.65       5.2  T
   7   -260.8428817 -0.274906E-06  0.774E-04    0.65      10.5  T
   8   -260.8428818 -0.751871E-07  0.341E-04    0.65      23.8  T
     SCC iter.                  ...        0 min,  0.398 sec
     gradient                   ...        0 min,  0.275 sec
 * total energy  :  -256.1721092 Eh     change       -0.1662579E-01 Eh
   gradient norm :     0.0243356 Eh/α   predicted    -0.1648046E-01 (  -0.87%)
   displ. norm   :     0.9088449 α      lambda       -0.1585943E-01
   maximum displ.:     0.4725447 α      in ANC's #31, #29, #30, ...

........................................................................
.............................. CYCLE   14 ..............................
........................................................................
   1   -260.8586430 -0.260859E+03  0.143E-01    0.67       0.0  T
   2   -260.8586218  0.212178E-04  0.845E-02    0.66       1.0  T
   3   -260.8573491  0.127273E-02  0.643E-02    0.67       1.0  T
   4   -260.8586686 -0.131948E-02  0.114E-02    0.67       1.0  T
   5   -260.8587023 -0.337017E-04  0.311E-03    0.66       2.6  T
   6   -260.8587042 -0.192632E-05  0.157E-03    0.66       5.2  T
   7   -260.8587045 -0.277830E-06  0.768E-04    0.66      10.6  T
   8   -260.8587046 -0.854984E-07  0.350E-04    0.66      23.2  T
     SCC iter.                  ...        0 min,  0.416 sec
     gradient                   ...        0 min,  0.252 sec
 * total energy  :  -256.1866219 Eh     change       -0.1451273E-01 Eh
   gradient norm :     0.0220106 Eh/α   predicted    -0.1447968E-01 (  -0.23%)
   displ. norm   :     0.9072240 α      lambda       -0.1381236E-01
   maximum displ.:     0.4636748 α      in ANC's #31, #29, #30, ...

........................................................................
.............................. CYCLE   15 ..............................
........................................................................
   1   -260.8727797 -0.260873E+03  0.146E-01    0.69       0.0  T
   2   -260.8727743  0.533042E-05  0.855E-02    0.69       1.0  T
   3   -260.8718609  0.913450E-03  0.530E-02    0.69       1.0  T
   4   -260.8727952 -0.934301E-03  0.110E-02    0.69       1.0  T
   5   -260.8728281 -0.328898E-04  0.274E-03    0.69       3.0  T
   6   -260.8728293 -0.117634E-05  0.154E-03    0.69       5.3  T
   7   -260.8728295 -0.253738E-06  0.635E-04    0.69      12.8  T
   8   -260.8728296 -0.506074E-07  0.242E-04    0.69      33.6  T
     SCC iter.                  ...        0 min,  0.395 sec
     gradient                   ...        0 min,  0.253 sec
 * total energy  :  -256.1989486 Eh     change       -0.1232668E-01 Eh
   gradient norm :     0.0242089 Eh/α   predicted    -0.1259035E-01 (   2.14%)
   displ. norm   :     0.9001157 α      lambda       -0.1211894E-01
   maximum displ.:     0.4421934 α      in ANC's #31, #29, #30, ...

........................................................................
.............................. CYCLE   16 ..............................
........................................................................
   1   -260.8793194 -0.260879E+03  0.159E-01    0.71       0.0  T
   2   -260.8793105  0.891669E-05  0.936E-02    0.70       1.0  T
   3   -260.8782437  0.106681E-02  0.588E-02    0.71       1.0  T
   4   -260.8793435 -0.109978E-02  0.103E-02    0.70       1.0  T
   5   -260.8793722 -0.286896E-04  0.299E-03    0.70       2.7  T
   6   -260.8793736 -0.138746E-05  0.169E-03    0.70       4.8  T
   7   -260.8793739 -0.300366E-06  0.811E-04    0.70      10.0  T
   8   -260.8793740 -0.111211E-06  0.333E-04    0.70      24.4  T
     SCC iter.                  ...        0 min,  0.392 sec
     gradient                   ...        0 min,  0.251 sec
 * total energy  :  -256.2093263 Eh     change       -0.1037771E-01 Eh
   gradient norm :     0.0241951 Eh/α   predicted    -0.1096892E-01 (   5.70%)
   displ. norm   :     0.8682462 α      lambda       -0.9986470E-02
   maximum displ.:     0.4356796 α      in ANC's #31, #29, #30, ...

........................................................................
.............................. CYCLE   17 ..............................
........................................................................
   1   -260.8915434 -0.260892E+03  0.147E-01    0.72       0.0  T
   2   -260.8915480 -0.456169E-05  0.857E-02    0.72       1.0  T
   3   -260.8910455  0.502509E-03  0.400E-02    0.72       1.0  T
   4   -260.8915576 -0.512173E-03  0.846E-03    0.72       1.0  T
   5   -260.8915776 -0.199128E-04  0.243E-03    0.72       3.3  T
   6   -260.8915783 -0.760100E-06  0.153E-03    0.72       5.3  T
   7   -260.8915786 -0.309682E-06  0.546E-04    0.72      14.8  T
   8   -260.8915787 -0.401650E-07  0.202E-04    0.72      40.2  T
     SCC iter.                  ...        0 min,  0.420 sec
     gradient                   ...        0 min,  0.253 sec
 * total energy  :  -256.2179414 Eh     change       -0.8615050E-02 Eh
   gradient norm :     0.0212677 Eh/α   predicted    -0.8757394E-02 (   1.65%)
   displ. norm   :     0.8547387 α      lambda       -0.8176644E-02
   maximum displ.:     0.4019161 α      in ANC's #31, #29, #30, ...

........................................................................
.............................. CYCLE   18 ..............................
........................................................................
   1   -260.8965001 -0.260897E+03  0.149E-01    0.73       0.0  T
   2   -260.8965053 -0.516475E-05  0.870E-02    0.73       1.0  T
   3   -260.8962025  0.302768E-03  0.312E-02    0.73       1.0  T
   4   -260.8965119 -0.309321E-03  0.646E-03    0.73       1.3  T
   5   -260.8965233 -0.113923E-04  0.211E-03    0.73       3.8  T
   6   -260.8965236 -0.346754E-06  0.139E-03    0.73       5.8  T
   7   -260.8965238 -0.233972E-06  0.540E-04    0.73      15.0  T
   8   -260.8965239 -0.525121E-07  0.177E-04    0.73      45.7  T
     SCC iter.                  ...        0 min,  0.397 sec
     gradient                   ...        0 min,  0.251 sec
 * total energy  :  -256.2248494 Eh     change       -0.6908033E-02 Eh
   gradient norm :     0.0182637 Eh/α   predicted    -0.7075165E-02 (   2.42%)
   displ. norm   :     0.8389796 α      lambda       -0.6905583E-02
   maximum displ.:     0.3914154 α      in ANC's #31, #29, #30, ...

........................................................................
.............................. CYCLE   19 ..............................
........................................................................
   1   -260.9088014 -0.260909E+03  0.146E-01    0.75       0.0  T
   2   -260.9088084 -0.706467E-05  0.855E-02    0.75       1.0  T
   3   -260.9085306  0.277773E-03  0.296E-02    0.75       1.0  T
   4   -260.9088077 -0.277076E-03  0.738E-03    0.75       1.1  T
   5   -260.9088249 -0.171913E-04  0.192E-03    0.75       4.2  T
   6   -260.9088250 -0.453275E-07  0.135E-03    0.75       6.0  T
   7   -260.9088252 -0.242050E-06  0.463E-04    0.75      17.5  T
   8   -260.9088252 -0.372311E-07  0.160E-04    0.75      50.8  T
     SCC iter.                  ...        0 min,  0.392 sec
     gradient                   ...        0 min,  0.251 sec
 * total energy  :  -256.2304324 Eh     change       -0.5582952E-02 Eh
   gradient norm :     0.0186663 Eh/α   predicted    -0.5883159E-02 (   5.38%)
   displ. norm   :     0.7907127 α      lambda       -0.5229668E-02
   maximum displ.:     0.3559219 α      in ANC's #31, #29, #30, ...

........................................................................
.............................. CYCLE   20 ..............................
........................................................................
   1   -260.9160642 -0.260916E+03  0.138E-01    0.75       0.0  T
   2   -260.9160723 -0.805908E-05  0.810E-02    0.75       1.0  T
   3   -260.9160168  0.554626E-04  0.171E-02    0.75       1.0  T
   4   -260.9160762 -0.593783E-04  0.387E-03    0.75       2.1  T
   5   -260.9160786 -0.244781E-05  0.170E-03    0.75       4.8  T
   6   -260.9160786 -0.184342E-07  0.106E-03    0.75       7.6  T
   7   -260.9160789 -0.229338E-06  0.467E-04    0.75      17.4  T
   8   -260.9160789 -0.527983E-07  0.126E-04    0.75      64.1  T
     SCC iter.                  ...        0 min,  0.395 sec
     gradient                   ...        0 min,  0.249 sec
 * total energy  :  -256.2346601 Eh     change       -0.4227760E-02 Eh
   gradient norm :     0.0141776 Eh/α   predicted    -0.4249703E-02 (   0.52%)
   displ. norm   :     0.7623542 α      lambda       -0.3845968E-02
   maximum displ.:     0.3224480 α      in ANC's #31, #29, #30, ...
 * RMSD in coord.:     1.0917719 α      energy gain  -0.1238726E+01 Eh

generating ANC from model Hessian ...
Using Lindh-Hessian (1995)
 Shifting diagonal of input Hessian by    1.0048411560921991E-002
 Lowest  eigenvalues of input Hessian
    0.010000    0.010027    0.010048    0.000000    0.000000    0.000000
    0.000000    0.000000    0.000000    0.010053    0.010060    0.010061
    0.010076    0.010114    0.010160    0.010246    0.010402    0.010482
 Highest eigenvalues
    2.240292    2.241945    2.242718    2.665870    2.668463    2.680066


........................................................................
.............................. CYCLE   21 ..............................
........................................................................
   1   -260.9193463 -0.260919E+03  0.129E-01    0.76       0.0  T
   2   -260.9193519 -0.559586E-05  0.754E-02    0.75       1.0  T
   3   -260.9192529  0.989878E-04  0.195E-02    0.75       1.0  T
   4   -260.9193575 -0.104646E-03  0.361E-03    0.75       2.2  T
   5   -260.9193597 -0.221136E-05  0.175E-03    0.75       4.6  T
   6   -260.9193599 -0.166423E-06  0.112E-03    0.75       7.2  T
   7   -260.9193601 -0.211451E-06  0.394E-04    0.75      20.6  T
   8   -260.9193602 -0.357210E-07  0.147E-04    0.75      55.1  T
     SCC iter.                  ...        0 min,  0.397 sec
     gradient                   ...        0 min,  0.248 sec
 * total energy  :  -256.2375745 Eh     change       -0.2914322E-02 Eh
   gradient norm :     0.0137500 Eh/α   predicted     0.0000000E+00 (-100.00%)
   displ. norm   :     0.2300135 α      lambda       -0.1133930E-02
   maximum displ.:     0.0977539 α      in ANC's #31, #30, #29, ...

........................................................................
.............................. CYCLE   22 ..............................
........................................................................
   1   -260.9258014 -0.260926E+03  0.493E-02    0.76       0.0  T
   2   -260.9258024 -0.100134E-05  0.292E-02    0.76       1.0  T
   3   -260.9257776  0.248466E-04  0.108E-02    0.76       1.0  T
   4   -260.9258036 -0.260042E-04  0.176E-03    0.76       4.6  T
   5   -260.9258041 -0.508488E-06  0.777E-04    0.76      10.4  T
   6   -260.9258041 -0.492564E-07  0.494E-04    0.76      16.4  T
     SCC iter.                  ...        0 min,  0.300 sec
     gradient                   ...        0 min,  0.250 sec
 * total energy  :  -256.2384939 Eh     change       -0.9194942E-03 Eh
   gradient norm :     0.0060473 Eh/α   predicted    -0.5969690E-03 ( -35.08%)
   displ. norm   :     0.5251918 α      lambda       -0.1606647E-02
   maximum displ.:     0.2297223 α      in ANC's #31, #30, #29, ...

........................................................................
.............................. CYCLE   23 ..............................
........................................................................
   1   -260.9319488 -0.260932E+03  0.841E-02    0.76       0.0  T
   2   -260.9319511 -0.226634E-05  0.494E-02    0.76       1.0  T
   3   -260.9318649  0.861659E-04  0.191E-02    0.76       1.0  T
   4   -260.9319557 -0.907383E-04  0.278E-03    0.76       2.9  T
   5   -260.9319569 -0.119238E-05  0.136E-03    0.76       6.0  T
   6   -260.9319571 -0.208472E-06  0.884E-04    0.76       9.2  T
   7   -260.9319572 -0.129362E-06  0.314E-04    0.76      25.8  T
     SCC iter.                  ...        0 min,  0.344 sec
     gradient                   ...        0 min,  0.251 sec
 * total energy  :  -256.2397030 Eh     change       -0.1209080E-02 Eh
   gradient norm :     0.0084760 Eh/α   predicted    -0.1024995E-02 ( -15.23%)
   displ. norm   :     0.5399463 α      lambda       -0.1071531E-02
   maximum displ.:     0.2301451 α      in ANC's #31, #11, #30, ...

........................................................................
.............................. CYCLE   24 ..............................
........................................................................
   1   -260.9321174 -0.260932E+03  0.811E-02    0.76       0.0  T
   2   -260.9321189 -0.150662E-05  0.474E-02    0.76       1.0  T
   3   -260.9320434  0.754412E-04  0.169E-02    0.76       1.0  T
   4   -260.9321228 -0.794019E-04  0.239E-03    0.76       3.4  T
   5   -260.9321238 -0.940757E-06  0.126E-03    0.76       6.4  T
   6   -260.9321240 -0.202630E-06  0.767E-04    0.76      10.6  T
   7   -260.9321241 -0.103434E-06  0.238E-04    0.76      34.1  T
     SCC iter.                  ...        0 min,  0.344 sec
     gradient                   ...        0 min,  0.248 sec
 * total energy  :  -256.2405398 Eh     change       -0.8368146E-03 Eh
   gradient norm :     0.0097306 Eh/α   predicted    -0.6919848E-03 ( -17.31%)
   displ. norm   :     0.5127784 α      lambda       -0.7667366E-03
   maximum displ.:     0.2374334 α      in ANC's #11, #31, #30, ...

........................................................................
.............................. CYCLE   25 ..............................
........................................................................
   1   -260.9309161 -0.260931E+03  0.751E-02    0.77       0.0  T
   2   -260.9309170 -0.914369E-06  0.440E-02    0.77       1.0  T
   3   -260.9308467  0.702880E-04  0.158E-02    0.77       1.0  T
   4   -260.9309204 -0.737348E-04  0.225E-03    0.77       3.6  T
   5   -260.9309214 -0.938842E-06  0.115E-03    0.77       7.0  T
   6   -260.9309215 -0.157925E-06  0.672E-04    0.77      12.1  T
   7   -260.9309216 -0.742891E-07  0.230E-04    0.77      35.3  T
     SCC iter.                  ...        0 min,  0.348 sec
     gradient                   ...        0 min,  0.251 sec
 * total energy  :  -256.2411077 Eh     change       -0.5678732E-03 Eh
   gradient norm :     0.0059287 Eh/α   predicted    -0.4841720E-03 ( -14.74%)
   displ. norm   :     0.3825649 α      lambda       -0.3924339E-03
   maximum displ.:     0.2216719 α      in ANC's #11, #31, #30, ...

........................................................................
.............................. CYCLE   26 ..............................
........................................................................
   1   -260.9323429 -0.260932E+03  0.524E-02    0.77       0.0  T
   2   -260.9323435 -0.687590E-06  0.308E-02    0.77       1.0  T
   3   -260.9323195  0.240249E-04  0.975E-03    0.77       1.0  T
   4   -260.9323449 -0.254126E-04  0.149E-03    0.77       5.4  T
   5   -260.9323453 -0.331769E-06  0.746E-04    0.77      10.9  T
   6   -260.9323453 -0.339894E-07  0.480E-04    0.77      16.9  T
     SCC iter.                  ...        0 min,  0.297 sec
     gradient                   ...        0 min,  0.250 sec
 * total energy  :  -256.2414008 Eh     change       -0.2930682E-03 Eh
   gradient norm :     0.0033474 Eh/α   predicted    -0.2249353E-03 ( -23.25%)
   displ. norm   :     0.2782208 α      lambda       -0.2369142E-03
   maximum displ.:     0.1916219 α      in ANC's #11, #28, #8, ...

........................................................................
.............................. CYCLE   27 ..............................
........................................................................
   1   -260.9349427 -0.260935E+03  0.323E-02    0.77       0.0  T
   2   -260.9349431 -0.339333E-06  0.190E-02    0.77       1.0  T
   3   -260.9349324  0.106590E-04  0.656E-03    0.77       1.2  T
   4   -260.9349437 -0.112681E-04  0.111E-03    0.77       7.3  T
   5   -260.9349439 -0.195413E-06  0.453E-04    0.77      17.9  T
   6   -260.9349439 -0.459431E-08  0.331E-04    0.77      24.5  T
     SCC iter.                  ...        0 min,  0.294 sec
     gradient                   ...        0 min,  0.248 sec
 * total energy  :  -256.2416011 Eh     change       -0.2003214E-03 Eh
   gradient norm :     0.0035783 Eh/α   predicted    -0.1277040E-03 ( -36.25%)
   displ. norm   :     0.2755270 α      lambda       -0.2511754E-03
   maximum displ.:     0.1987421 α      in ANC's #11, #10, #8, ...

........................................................................
.............................. CYCLE   28 ..............................
........................................................................
   1   -260.9375300 -0.260938E+03  0.273E-02    0.77       0.0  T
   2   -260.9375296  0.364244E-06  0.163E-02    0.77       1.0  T
   3   -260.9374956  0.340475E-04  0.103E-02    0.77       1.0  T
   4   -260.9375310 -0.354299E-04  0.149E-03    0.77       5.4  T
   5   -260.9375316 -0.573373E-06  0.567E-04    0.77      14.3  T
   6   -260.9375316 -0.513538E-07  0.308E-04    0.77      26.4  T
     SCC iter.                  ...        0 min,  0.298 sec
     gradient                   ...        0 min,  0.248 sec
 * total energy  :  -256.2418255 Eh     change       -0.2243969E-03 Eh
   gradient norm :     0.0040594 Eh/α   predicted    -0.1351224E-03 ( -39.78%)
   displ. norm   :     0.3559364 α      lambda       -0.3211857E-03
   maximum displ.:     0.2505120 α      in ANC's #11, #10, #8, ...

........................................................................
.............................. CYCLE   29 ..............................
........................................................................
   1   -260.9383333 -0.260938E+03  0.338E-02    0.77       0.0  T
   2   -260.9383322  0.105166E-05  0.201E-02    0.77       1.0  T
   3   -260.9382658  0.664310E-04  0.143E-02    0.77       1.0  T
   4   -260.9383353 -0.695236E-04  0.175E-03    0.77       4.6  T
   5   -260.9383361 -0.718037E-06  0.753E-04    0.77      10.8  T
   6   -260.9383361 -0.880736E-07  0.384E-04    0.77      21.1  T
     SCC iter.                  ...        0 min,  0.297 sec
     gradient                   ...        0 min,  0.248 sec
 * total energy  :  -256.2421117 Eh     change       -0.2862223E-03 Eh
   gradient norm :     0.0041360 Eh/α   predicted    -0.1809453E-03 ( -36.78%)
   displ. norm   :     0.4342927 α      lambda       -0.3560281E-03
   maximum displ.:     0.3004187 α      in ANC's #11, #10, #8, ...

........................................................................
.............................. CYCLE   30 ..............................
........................................................................
   1   -260.9371104 -0.260937E+03  0.409E-02    0.77       0.0  T
   2   -260.9371091  0.132145E-05  0.243E-02    0.77       1.0  T
   3   -260.9370206  0.884971E-04  0.164E-02    0.77       1.0  T
   4   -260.9371132 -0.925824E-04  0.183E-03    0.77       4.4  T
   5   -260.9371139 -0.683695E-06  0.887E-04    0.77       9.1  T
   6   -260.9371140 -0.111951E-06  0.431E-04    0.77      18.8  T
     SCC iter.                  ...        0 min,  0.296 sec
     gradient                   ...        0 min,  0.251 sec
 * total energy  :  -256.2424278 Eh     change       -0.3160823E-03 Eh
   gradient norm :     0.0041157 Eh/α   predicted    -0.2115925E-03 ( -33.06%)
   displ. norm   :     0.4678510 α      lambda       -0.3482460E-03
   maximum displ.:     0.3209131 α      in ANC's #11, #10, #8, ...

........................................................................
.............................. CYCLE   31 ..............................
........................................................................
   1   -260.9349764 -0.260935E+03  0.432E-02    0.77       0.0  T
   2   -260.9349756  0.817828E-06  0.255E-02    0.77       1.0  T
   3   -260.9349006  0.750324E-04  0.152E-02    0.77       1.0  T
   4   -260.9349789 -0.783551E-04  0.174E-03    0.77       4.7  T
   5   -260.9349795 -0.563712E-06  0.890E-04    0.77       9.1  T
   6   -260.9349796 -0.103028E-06  0.426E-04    0.77      19.0  T
     SCC iter.                  ...        0 min,  0.298 sec
     gradient                   ...        0 min,  0.248 sec
 * total energy  :  -256.2427417 Eh     change       -0.3139072E-03 Eh
   gradient norm :     0.0040590 Eh/α   predicted    -0.2122389E-03 ( -32.39%)
   displ. norm   :     0.4864632 α      lambda       -0.3467233E-03
   maximum displ.:     0.3316959 α      in ANC's #11, #10, #8, ...

........................................................................
.............................. CYCLE   32 ..............................
........................................................................
   1   -260.9328586 -0.260933E+03  0.432E-02    0.77       0.0  T
   2   -260.9328585  0.149999E-06  0.255E-02    0.77       1.0  T
   3   -260.9328077  0.507514E-04  0.129E-02    0.77       1.0  T
   4   -260.9328607 -0.529591E-04  0.165E-03    0.77       4.9  T
   5   -260.9328612 -0.508833E-06  0.865E-04    0.77       9.4  T
   6   -260.9328613 -0.959883E-07  0.431E-04    0.77      18.8  T
     SCC iter.                  ...        0 min,  0.311 sec
     gradient                   ...        0 min,  0.259 sec
 * total energy  :  -256.2430575 Eh     change       -0.3158155E-03 Eh
   gradient norm :     0.0037845 Eh/α   predicted    -0.2143909E-03 ( -32.12%)
   displ. norm   :     0.5218105 α      lambda       -0.3609706E-03
   maximum displ.:     0.3535625 α      in ANC's #11, #10, #1, ...

........................................................................
.............................. CYCLE   33 ..............................
........................................................................
   1   -260.9311059 -0.260931E+03  0.442E-02    0.77       0.0  T
   2   -260.9311063 -0.370544E-06  0.260E-02    0.77       1.0  T
   3   -260.9310718  0.344248E-04  0.113E-02    0.77       1.0  T
   4   -260.9311080 -0.361511E-04  0.155E-03    0.77       5.2  T
   5   -260.9311084 -0.377106E-06  0.874E-04    0.77       9.3  T
   6   -260.9311085 -0.101127E-06  0.477E-04    0.77      17.0  T
     SCC iter.                  ...        0 min,  0.300 sec
     gradient                   ...        0 min,  0.248 sec
 * total energy  :  -256.2433851 Eh     change       -0.3275606E-03 Eh
   gradient norm :     0.0034414 Eh/α   predicted    -0.2296302E-03 ( -29.90%)
   displ. norm   :     0.5638180 α      lambda       -0.3671951E-03
   maximum displ.:     0.3793014 α      in ANC's #11, #1, #10, ...

........................................................................
.............................. CYCLE   34 ..............................
........................................................................
   1   -260.9297228 -0.260930E+03  0.458E-02    0.77       0.0  T
   2   -260.9297235 -0.674162E-06  0.269E-02    0.77       1.0  T
   3   -260.9296951  0.283341E-04  0.108E-02    0.77       1.0  T
   4   -260.9297253 -0.302222E-04  0.135E-03    0.77       6.0  T
   5   -260.9297255 -0.149713E-06  0.807E-04    0.77      10.1  T
   6   -260.9297255 -0.314342E-07  0.543E-04    0.77      14.9  T
     SCC iter.                  ...        0 min,  0.350 sec
     gradient                   ...        0 min,  0.248 sec
 * total energy  :  -256.2437144 Eh     change       -0.3292768E-03 Eh
   gradient norm :     0.0033202 Eh/α   predicted    -0.2419623E-03 ( -26.52%)
   displ. norm   :     0.5928816 α      lambda       -0.3548559E-03
   maximum displ.:     0.3955083 α      in ANC's #11, #1, #10, ...

........................................................................
.............................. CYCLE   35 ..............................
........................................................................
   1   -260.9286562 -0.260929E+03  0.469E-02    0.77       0.0  T
   2   -260.9286570 -0.786010E-06  0.275E-02    0.77       1.0  T
   3   -260.9286299  0.271514E-04  0.108E-02    0.77       1.0  T
   4   -260.9286590 -0.291588E-04  0.126E-03    0.77       6.4  T
   5   -260.9286591 -0.959357E-07  0.720E-04    0.77      11.3  T
   6   -260.9286591 -0.639670E-08  0.450E-04    0.77      18.0  T
     SCC iter.                  ...        0 min,  0.300 sec
     gradient                   ...        0 min,  0.251 sec
 * total energy  :  -256.2440303 Eh     change       -0.3159078E-03 Eh
   gradient norm :     0.0034275 Eh/α   predicted    -0.2397964E-03 ( -24.09%)
   displ. norm   :     0.6150168 α      lambda       -0.3422181E-03
   maximum displ.:     0.4065298 α      in ANC's #11, #2, #1, ...

........................................................................
.............................. CYCLE   36 ..............................
........................................................................
   1   -260.9278423 -0.260928E+03  0.483E-02    0.78       0.0  T
   2   -260.9278431 -0.851363E-06  0.283E-02    0.78       1.0  T
   3   -260.9278155  0.276462E-04  0.107E-02    0.78       1.0  T
   4   -260.9278451 -0.296247E-04  0.132E-03    0.78       6.2  T
   5   -260.9278452 -0.111650E-06  0.792E-04    0.78      10.2  T
   6   -260.9278452 -0.258165E-07  0.474E-04    0.78      17.1  T
     SCC iter.                  ...        0 min,  0.295 sec
     gradient                   ...        0 min,  0.247 sec
 * total energy  :  -256.2443336 Eh     change       -0.3033269E-03 Eh
   gradient norm :     0.0035190 Eh/α   predicted    -0.2358338E-03 ( -22.25%)
   displ. norm   :     0.6428981 α      lambda       -0.3388107E-03
   maximum displ.:     0.4203864 α      in ANC's #11, #2, #1, ...

........................................................................
.............................. CYCLE   37 ..............................
........................................................................
   1   -260.9271684 -0.260927E+03  0.508E-02    0.78       0.0  T
   2   -260.9271694 -0.995323E-06  0.297E-02    0.78       1.0  T
   3   -260.9271420  0.273783E-04  0.105E-02    0.78       1.0  T
   4   -260.9271712 -0.292348E-04  0.143E-03    0.78       5.7  T
   5   -260.9271714 -0.162812E-06  0.883E-04    0.78       9.2  T
   6   -260.9271714 -0.551416E-07  0.509E-04    0.78      15.9  T
     SCC iter.                  ...        0 min,  0.300 sec
     gradient                   ...        0 min,  0.248 sec
 * total energy  :  -256.2446302 Eh     change       -0.2965848E-03 Eh
   gradient norm :     0.0034256 Eh/α   predicted    -0.2394243E-03 ( -19.27%)
   displ. norm   :     0.6662185 α      lambda       -0.3278257E-03
   maximum displ.:     0.4297163 α      in ANC's #11, #2, #1, ...

........................................................................
.............................. CYCLE   38 ..............................
........................................................................
   1   -260.9264552 -0.260926E+03  0.534E-02    0.78       0.0  T
   2   -260.9264564 -0.127834E-05  0.313E-02    0.78       1.0  T
   3   -260.9264340  0.224110E-04  0.970E-03    0.78       1.0  T
   4   -260.9264581 -0.240398E-04  0.147E-03    0.78       5.5  T
   5   -260.9264583 -0.190097E-06  0.851E-04    0.78       9.5  T
   6   -260.9264583 -0.411631E-07  0.483E-04    0.78      16.8  T
     SCC iter.                  ...        0 min,  0.300 sec
     gradient                   ...        0 min,  0.247 sec
 * total energy  :  -256.2449073 Eh     change       -0.2771403E-03 Eh
   gradient norm :     0.0031224 Eh/α   predicted    -0.2366662E-03 ( -14.60%)
   displ. norm   :     0.6497454 α      lambda       -0.2780099E-03
   maximum displ.:     0.4105982 α      in ANC's #11, #2, #1, ...

........................................................................
.............................. CYCLE   39 ..............................
........................................................................
   1   -260.9255948 -0.260926E+03  0.528E-02    0.78       0.0  T
   2   -260.9255962 -0.138142E-05  0.309E-02    0.78       1.0  T
   3   -260.9255792  0.169811E-04  0.857E-03    0.78       1.0  T
   4   -260.9255975 -0.182522E-04  0.148E-03    0.78       5.5  T
   5   -260.9255977 -0.227578E-06  0.792E-04    0.78      10.2  T
   6   -260.9255977 -0.388163E-07  0.481E-04    0.78      16.9  T
     SCC iter.                  ...        0 min,  0.298 sec
     gradient                   ...        0 min,  0.247 sec
 * total energy  :  -256.2451302 Eh     change       -0.2228753E-03 Eh
   gradient norm :     0.0027358 Eh/α   predicted    -0.1976944E-03 ( -11.30%)
   displ. norm   :     0.5611241 α      lambda       -0.1904751E-03
   maximum displ.:     0.3426201 α      in ANC's #11, #2, #1, ...

........................................................................
.............................. CYCLE   40 ..............................
........................................................................
   1   -260.9247299 -0.260925E+03  0.459E-02    0.78       0.0  T
   2   -260.9247306 -0.700134E-06  0.270E-02    0.78       1.0  T
   3   -260.9247023  0.282764E-04  0.959E-03    0.78       1.0  T
   4   -260.9247315 -0.292051E-04  0.176E-03    0.78       4.6  T
   5   -260.9247322 -0.693911E-06  0.881E-04    0.78       9.2  T
   6   -260.9247323 -0.128028E-06  0.421E-04    0.78      19.3  T
     SCC iter.                  ...        0 min,  0.311 sec
     gradient                   ...        0 min,  0.256 sec
 * total energy  :  -256.2452770 Eh     change       -0.1467801E-03 Eh
   gradient norm :     0.0024519 Eh/α   predicted    -0.1252246E-03 ( -14.69%)
   displ. norm   :     0.4445128 α      lambda       -0.1232369E-03
   maximum displ.:     0.2556639 α      in ANC's #11, #2, #1, ...

........................................................................
.............................. CYCLE   41 ..............................
........................................................................
   1   -260.9240836 -0.260924E+03  0.367E-02    0.78       0.0  T
   2   -260.9240838 -0.123978E-06  0.216E-02    0.78       1.0  T
   3   -260.9240515  0.323046E-04  0.968E-03    0.78       1.0  T
   4   -260.9240848 -0.333865E-04  0.159E-03    0.78       5.1  T
   5   -260.9240854 -0.597678E-06  0.680E-04    0.78      11.9  T
   6   -260.9240855 -0.585408E-07  0.332E-04    0.78      24.4  T
     SCC iter.                  ...        0 min,  0.319 sec
     gradient                   ...        0 min,  0.261 sec
 * total energy  :  -256.2453732 Eh     change       -0.9618479E-04 Eh
   gradient norm :     0.0023198 Eh/α   predicted    -0.7379733E-04 ( -23.28%)
   displ. norm   :     0.3596606 α      lambda       -0.1022061E-03
   maximum displ.:     0.1827458 α      in ANC's #11, #2, #1, ...

........................................................................
.............................. CYCLE   42 ..............................
........................................................................
   1   -260.9236949 -0.260924E+03  0.310E-02    0.78       0.0  T
   2   -260.9236946  0.276262E-06  0.182E-02    0.78       1.0  T
   3   -260.9236574  0.372050E-04  0.101E-02    0.78       1.0  T
   4   -260.9236961 -0.386418E-04  0.145E-03    0.78       5.6  T
   5   -260.9236965 -0.451064E-06  0.552E-04    0.78      14.7  T
   6   -260.9236966 -0.283989E-07  0.298E-04    0.78      27.2  T
     SCC iter.                  ...        0 min,  0.299 sec
     gradient                   ...        0 min,  0.247 sec
 * total energy  :  -256.2454568 Eh     change       -0.8359025E-04 Eh
   gradient norm :     0.0023051 Eh/α   predicted    -0.5771511E-04 ( -30.95%)
   displ. norm   :     0.3432856 α      lambda       -0.1146197E-03
   maximum displ.:     0.1412201 α      in ANC's #2, #11, #9, ...
 * RMSD in coord.:     0.7183935 α      energy gain  -0.1079663E-01 Eh

generating ANC from model Hessian ...
Using Lindh-Hessian (1995)
 Shifting diagonal of input Hessian by    1.0029427854047772E-002
 Lowest  eigenvalues of input Hessian
    0.010000    0.000000    0.000000    0.000000    0.000000    0.000000
    0.000000    0.010030    0.010037    0.010041    0.010046    0.010048
    0.010082    0.010103    0.010130    0.010236    0.010538    0.010585
 Highest eigenvalues
    2.239658    2.247979    2.248271    2.665400    2.669905    2.671388


........................................................................
.............................. CYCLE   43 ..............................
........................................................................
   1   -260.9232329 -0.260923E+03  0.324E-02    0.78       0.0  T
   2   -260.9232325  0.389249E-06  0.190E-02    0.78       1.0  T
   3   -260.9231888  0.436989E-04  0.110E-02    0.78       1.0  T
   4   -260.9232343 -0.454718E-04  0.153E-03    0.78       5.3  T
   5   -260.9232347 -0.474036E-06  0.572E-04    0.78      14.2  T
   6   -260.9232348 -0.248880E-07  0.333E-04    0.78      24.3  T
     SCC iter.                  ...        0 min,  0.301 sec
     gradient                   ...        0 min,  0.246 sec
 * total energy  :  -256.2455500 Eh     change       -0.9327450E-04 Eh
   gradient norm :     0.0025534 Eh/α   predicted     0.0000000E+00 (-100.00%)
   displ. norm   :     0.0446801 α      lambda       -0.3214760E-04
   maximum displ.:     0.0230035 α      in ANC's #17, #4, #9, ...

........................................................................
.............................. CYCLE   44 ..............................
........................................................................
   1   -260.9230983 -0.260923E+03  0.618E-03    0.78       0.0  T
   2   -260.9230983 -0.642808E-08  0.367E-03    0.78       2.2  T
   3   -260.9230968  0.152821E-05  0.238E-03    0.78       3.4  T
   4   -260.9230984 -0.158170E-05  0.449E-04    0.78      18.1  T
   5   -260.9230984 -0.505280E-07  0.160E-04    0.78      50.8  T
   6   -260.9230984 -0.471340E-08  0.820E-05    0.78      98.9  T
     SCC iter.                  ...        0 min,  0.299 sec
     gradient                   ...        0 min,  0.245 sec
 * total energy  :  -256.2455803 Eh     change       -0.3024394E-04 Eh
   gradient norm :     0.0015977 Eh/α   predicted    -0.1679223E-04 ( -44.48%)
   displ. norm   :     0.3265688 α      lambda       -0.1278557E-03
   maximum displ.:     0.1651233 α      in ANC's #17, #4, #9, ...

........................................................................
.............................. CYCLE   45 ..............................
........................................................................
   1   -260.9219705 -0.260922E+03  0.402E-02    0.78       0.0  T
   2   -260.9219700  0.428479E-06  0.237E-02    0.78       1.0  T
   3   -260.9218959  0.741008E-04  0.153E-02    0.79       1.0  T
   4   -260.9219729 -0.770114E-04  0.251E-03    0.78       3.2  T
   5   -260.9219744 -0.148195E-05  0.944E-04    0.78       8.6  T
   6   -260.9219745 -0.126388E-06  0.510E-04    0.78      15.9  T
   7   -260.9219746 -0.317026E-07  0.232E-04    0.78      34.9  T
     SCC iter.                  ...        0 min,  0.349 sec
     gradient                   ...        0 min,  0.249 sec
 * total energy  :  -256.2456842 Eh     change       -0.1039702E-03 Eh
   gradient norm :     0.0040945 Eh/α   predicted    -0.6696031E-04 ( -35.60%)
   displ. norm   :     0.0924896 α      lambda       -0.3765157E-04
   maximum displ.:     0.0464734 α      in ANC's #17, #4, #9, ...

........................................................................
.............................. CYCLE   46 ..............................
........................................................................
   1   -260.9226746 -0.260923E+03  0.960E-03    0.78       0.0  T
   2   -260.9226746 -0.434623E-07  0.563E-03    0.78       1.4  T
   3   -260.9226733  0.132787E-05  0.210E-03    0.78       3.9  T
   4   -260.9226746 -0.137168E-05  0.404E-04    0.78      20.1  T
   5   -260.9226747 -0.359927E-07  0.183E-04    0.78      44.4  T
   6   -260.9226747 -0.415974E-08  0.106E-04    0.78      76.2  T
     SCC iter.                  ...        0 min,  0.294 sec
     gradient                   ...        0 min,  0.246 sec
 * total energy  :  -256.2457190 Eh     change       -0.3478031E-04 Eh
   gradient norm :     0.0032923 Eh/α   predicted    -0.1898759E-04 ( -45.41%)
   displ. norm   :     0.2932664 α      lambda       -0.1249912E-03
   maximum displ.:     0.1417191 α      in ANC's #17, #4, #9, ...

........................................................................
.............................. CYCLE   47 ..............................
........................................................................
   1   -260.9246082 -0.260925E+03  0.291E-02    0.78       0.0  T
   2   -260.9246088 -0.619552E-06  0.170E-02    0.78       1.0  T
   3   -260.9246021  0.675297E-05  0.523E-03    0.78       1.6  T
   4   -260.9246090 -0.689454E-05  0.133E-03    0.78       6.1  T
   5   -260.9246094 -0.401878E-06  0.528E-04    0.78      15.3  T
   6   -260.9246094 -0.259284E-07  0.328E-04    0.78      24.7  T
     SCC iter.                  ...        0 min,  0.300 sec
     gradient                   ...        0 min,  0.245 sec
 * total energy  :  -256.2458177 Eh     change       -0.9871016E-04 Eh
   gradient norm :     0.0018592 Eh/α   predicted    -0.6787526E-04 ( -31.24%)
   displ. norm   :     0.5770662 α      lambda       -0.1087971E-03
   maximum displ.:     0.2726171 α      in ANC's #17, #4, #9, ...

........................................................................
.............................. CYCLE   48 ..............................
........................................................................
   1   -260.9256697 -0.260926E+03  0.551E-02    0.78       0.0  T
   2   -260.9256716 -0.189557E-05  0.322E-02    0.78       1.0  T
   3   -260.9256550  0.165369E-04  0.833E-03    0.78       1.0  T
   4   -260.9256723 -0.172850E-04  0.201E-03    0.78       4.0  T
   5   -260.9256731 -0.752339E-06  0.951E-04    0.78       8.5  T
   6   -260.9256731 -0.760388E-07  0.569E-04    0.78      14.2  T
     SCC iter.                  ...        0 min,  0.297 sec
     gradient                   ...        0 min,  0.247 sec
 * total energy  :  -256.2459253 Eh     change       -0.1075759E-03 Eh
   gradient norm :     0.0048756 Eh/α   predicted    -0.6245916E-04 ( -41.94%)
   displ. norm   :     0.2364723 α      lambda       -0.5780793E-04
   maximum displ.:     0.1150262 α      in ANC's #4, #9, #17, ...

........................................................................
.............................. CYCLE   49 ..............................
........................................................................
   1   -260.9260500 -0.260926E+03  0.214E-02    0.78       0.0  T
   2   -260.9260503 -0.258411E-06  0.126E-02    0.78       1.0  T
   3   -260.9260481  0.210433E-05  0.288E-03    0.78       2.8  T
   4   -260.9260504 -0.223042E-05  0.685E-04    0.78      11.8  T
   5   -260.9260504 -0.721413E-07  0.370E-04    0.78      21.9  T
   6   -260.9260505 -0.150120E-07  0.197E-04    0.78      41.1  T
     SCC iter.                  ...        0 min,  0.294 sec
     gradient                   ...        0 min,  0.250 sec
 * total energy  :  -256.2459772 Eh     change       -0.5184761E-04 Eh
   gradient norm :     0.0040324 Eh/α   predicted    -0.3052066E-04 ( -41.13%)
   displ. norm   :     0.3624730 α      lambda       -0.1049120E-03
   maximum displ.:     0.1821905 α      in ANC's #4, #9, #17, ...

........................................................................
.............................. CYCLE   50 ..............................
........................................................................
   1   -260.9264384 -0.260926E+03  0.320E-02    0.79       0.0  T
   2   -260.9264389 -0.585790E-06  0.187E-02    0.79       1.0  T
   3   -260.9264288  0.101266E-04  0.595E-03    0.79       1.4  T
   4   -260.9264393 -0.104655E-04  0.134E-03    0.79       6.0  T
   5   -260.9264397 -0.384834E-06  0.596E-04    0.79      13.6  T
   6   -260.9264397 -0.384201E-07  0.349E-04    0.79      23.2  T
     SCC iter.                  ...        0 min,  0.298 sec
     gradient                   ...        0 min,  0.246 sec
 * total energy  :  -256.2460618 Eh     change       -0.8468622E-04 Eh
   gradient norm :     0.0017881 Eh/α   predicted    -0.5934899E-04 ( -29.92%)
   displ. norm   :     0.5891776 α      lambda       -0.8698152E-04
   maximum displ.:     0.3056574 α      in ANC's #4, #9, #17, ...

........................................................................
.............................. CYCLE   51 ..............................
........................................................................
   1   -260.9253877 -0.260925E+03  0.512E-02    0.79       0.0  T
   2   -260.9253885 -0.767046E-06  0.299E-02    0.79       1.0  T
   3   -260.9253374  0.510665E-04  0.124E-02    0.79       1.0  T
   4   -260.9253903 -0.528854E-04  0.222E-03    0.79       3.7  T
   5   -260.9253914 -0.111625E-05  0.958E-04    0.79       8.5  T
   6   -260.9253915 -0.968835E-07  0.554E-04    0.79      14.6  T
   7   -260.9253916 -0.444712E-07  0.212E-04    0.79      38.3  T
     SCC iter.                  ...        0 min,  0.345 sec
     gradient                   ...        0 min,  0.247 sec
 * total energy  :  -256.2461508 Eh     change       -0.8898445E-04 Eh
   gradient norm :     0.0034325 Eh/α   predicted    -0.5020106E-04 ( -43.58%)
   displ. norm   :     0.2223160 α      lambda       -0.4614664E-04
   maximum displ.:     0.1210138 α      in ANC's #4, #9, #14, ...

........................................................................
.............................. CYCLE   52 ..............................
........................................................................
   1   -260.9255839 -0.260926E+03  0.191E-02    0.79       0.0  T
   2   -260.9255840 -0.910216E-07  0.112E-02    0.79       1.0  T
   3   -260.9255783  0.565599E-05  0.405E-03    0.79       2.0  T
   4   -260.9255842 -0.590225E-05  0.647E-04    0.79      12.5  T
   5   -260.9255843 -0.727698E-07  0.323E-04    0.79      25.1  T
   6   -260.9255843 -0.691279E-08  0.179E-04    0.79      45.3  T
     SCC iter.                  ...        0 min,  0.297 sec
     gradient                   ...        0 min,  0.247 sec
 * total energy  :  -256.2461937 Eh     change       -0.4290840E-04 Eh
   gradient norm :     0.0033661 Eh/α   predicted    -0.2421723E-04 ( -43.56%)
   displ. norm   :     0.3350578 α      lambda       -0.1033112E-03
   maximum displ.:     0.1848401 α      in ANC's #4, #9, #14, ...

........................................................................
.............................. CYCLE   53 ..............................
........................................................................
   1   -260.9267602 -0.260927E+03  0.309E-02    0.79       0.0  T
   2   -260.9267605 -0.324898E-06  0.181E-02    0.79       1.0  T
   3   -260.9267487  0.118149E-04  0.591E-03    0.79       1.4  T
   4   -260.9267610 -0.122529E-04  0.113E-03    0.79       7.2  T
   5   -260.9267612 -0.263751E-06  0.522E-04    0.79      15.5  T
   6   -260.9267613 -0.190037E-07  0.283E-04    0.79      28.7  T
     SCC iter.                  ...        0 min,  0.299 sec
     gradient                   ...        0 min,  0.246 sec
 * total energy  :  -256.2462840 Eh     change       -0.9030461E-04 Eh
   gradient norm :     0.0023016 Eh/α   predicted    -0.5745499E-04 ( -36.38%)
   displ. norm   :     0.4956451 α      lambda       -0.1356033E-03
   maximum displ.:     0.2750981 α      in ANC's #4, #9, #10, ...

........................................................................
.............................. CYCLE   54 ..............................
........................................................................
   1   -260.9262912 -0.260926E+03  0.462E-02    0.79       0.0  T
   2   -260.9262922 -0.108206E-05  0.270E-02    0.79       1.0  T
   3   -260.9262835  0.869995E-05  0.563E-03    0.79       1.4  T
   4   -260.9262926 -0.906035E-05  0.153E-03    0.79       5.3  T
   5   -260.9262931 -0.454820E-06  0.768E-04    0.79      10.6  T
   6   -260.9262931 -0.500111E-07  0.405E-04    0.79      20.0  T
     SCC iter.                  ...        0 min,  0.300 sec
     gradient                   ...        0 min,  0.248 sec
 * total energy  :  -256.2463928 Eh     change       -0.1088018E-03 Eh
   gradient norm :     0.0017391 Eh/α   predicted    -0.8446012E-04 ( -22.37%)
   displ. norm   :     0.6799190 α      lambda       -0.9235743E-04
   maximum displ.:     0.3823372 α      in ANC's #4, #9, #7, ...

........................................................................
.............................. CYCLE   55 ..............................
........................................................................
   1   -260.9245410 -0.260925E+03  0.621E-02    0.79       0.0  T
   2   -260.9245431 -0.209756E-05  0.363E-02    0.79       1.0  T
   3   -260.9245372  0.590459E-05  0.559E-03    0.79       1.4  T
   4   -260.9245439 -0.667483E-05  0.168E-03    0.79       4.8  T
   5   -260.9245442 -0.299518E-06  0.977E-04    0.79       8.3  T
   6   -260.9245443 -0.945884E-07  0.481E-04    0.79      16.9  T
     SCC iter.                  ...        0 min,  0.297 sec
     gradient                   ...        0 min,  0.248 sec
 * total energy  :  -256.2464910 Eh     change       -0.9812902E-04 Eh
   gradient norm :     0.0028749 Eh/α   predicted    -0.5567048E-04 ( -43.27%)
   displ. norm   :     0.2489154 α      lambda       -0.5200786E-04
   maximum displ.:     0.1439849 α      in ANC's #4, #9, #7, ...

........................................................................
.............................. CYCLE   56 ..............................
........................................................................
   1   -260.9253379 -0.260925E+03  0.219E-02    0.79       0.0  T
   2   -260.9253379 -0.316415E-07  0.128E-02    0.79       1.0  T
   3   -260.9253276  0.103202E-04  0.531E-03    0.79       1.5  T
   4   -260.9253384 -0.107585E-04  0.709E-04    0.79      11.4  T
   5   -260.9253385 -0.780885E-07  0.361E-04    0.79      22.5  T
   6   -260.9253385 -0.741824E-08  0.196E-04    0.79      41.4  T
     SCC iter.                  ...        0 min,  0.298 sec
     gradient                   ...        0 min,  0.248 sec
 * total energy  :  -256.2465386 Eh     change       -0.4758022E-04 Eh
   gradient norm :     0.0025349 Eh/α   predicted    -0.2761550E-04 ( -41.96%)
   displ. norm   :     0.3698469 α      lambda       -0.1002179E-03
   maximum displ.:     0.2149291 α      in ANC's #4, #9, #1, ...

........................................................................
.............................. CYCLE   57 ..............................
........................................................................
   1   -260.9267051 -0.260927E+03  0.333E-02    0.79       0.0  T
   2   -260.9267048  0.284360E-06  0.196E-02    0.79       1.0  T
   3   -260.9266653  0.395821E-04  0.103E-02    0.79       1.0  T
   4   -260.9267065 -0.412346E-04  0.131E-03    0.79       6.2  T
   5   -260.9267068 -0.299967E-06  0.585E-04    0.79      13.9  T
   6   -260.9267068 -0.217593E-07  0.338E-04    0.79      24.0  T
     SCC iter.                  ...        0 min,  0.299 sec
     gradient                   ...        0 min,  0.247 sec
 * total energy  :  -256.2466245 Eh     change       -0.8595741E-04 Eh
   gradient norm :     0.0018386 Eh/α   predicted    -0.5696709E-04 ( -33.73%)
   displ. norm   :     0.6932063 α      lambda       -0.1093061E-03
   maximum displ.:     0.4048180 α      in ANC's #4, #1, #9, ...

........................................................................
.............................. CYCLE   58 ..............................
........................................................................
   1   -260.9258143 -0.260926E+03  0.629E-02    0.80       0.0  T
   2   -260.9258141  0.256450E-06  0.368E-02    0.80       1.0  T
   3   -260.9257048  0.109303E-03  0.172E-02    0.80       1.0  T
   4   -260.9258186 -0.113844E-03  0.232E-03    0.80       3.5  T
   5   -260.9258195 -0.927190E-06  0.109E-03    0.80       7.4  T
   6   -260.9258196 -0.796300E-07  0.625E-04    0.80      13.0  T
   7   -260.9258197 -0.615069E-07  0.174E-04    0.80      46.5  T
     SCC iter.                  ...        0 min,  0.344 sec
     gradient                   ...        0 min,  0.246 sec
 * total energy  :  -256.2467380 Eh     change       -0.1135124E-03 Eh
   gradient norm :     0.0022517 Eh/α   predicted    -0.6632941E-04 ( -41.57%)
   displ. norm   :     0.2459289 α      lambda       -0.4032791E-04
   maximum displ.:     0.1468531 α      in ANC's #4, #1, #7, ...

........................................................................
.............................. CYCLE   59 ..............................
........................................................................
   1   -260.9254703 -0.260925E+03  0.215E-02    0.80       0.0  T
   2   -260.9254705 -0.224256E-06  0.126E-02    0.80       1.0  T
   3   -260.9254697  0.789924E-06  0.197E-03    0.80       4.1  T
   4   -260.9254706 -0.882712E-06  0.539E-04    0.80      15.0  T
   5   -260.9254706 -0.278679E-07  0.330E-04    0.80      24.6  T
[...]
 449:  1.90 450:  1.89 451:  1.90 452:  1.89 453:  1.89 454:  1.89 455:  1.89 456:  1.89
 IR intensities (km·mol⁻¹)
   1: 11.92   2:  0.94   3:  0.25   4:  3.77   5: 27.46   6:  5.89   7: 14.57   8: 12.39
   9:  1.11  10:  0.24  11:  7.03  12:  1.02  13:  1.56  14:  1.32  15:  2.44  16:  0.37
  17:  3.56  18: 68.95  19: 11.40  20:  0.83  21:  9.87  22: 31.34  23: 21.01  24:  3.28
  25:  2.49  26:  2.80  27:  1.97  28:  1.94  29:  6.81  30: 43.51  31:  1.13  32:221.97
  33: 30.67  34: 30.34  35: 35.78  36: 28.75  37: 13.22  38:  3.35  39:  2.09  40:  9.36
  41:  0.75  42: 15.82  43: 13.63  44:  0.20  45:  5.40  46:  0.16  47:  0.32  48:  0.34
  49:  0.24  50: 15.21  51:  1.33  52:  2.66  53: 17.86  54:  1.58  55:  2.54  56:  0.60
  57:  4.35  58: 18.23  59: 16.80  60: 44.94  61:  5.89  62: 11.20  63:  1.46  64:  3.20
  65: 74.83  66: 52.20  67: 51.01  68:  1.65  69:  2.00  70:  2.92  71:  0.78  72:  1.41
  73:  2.39  74:  9.62  75: 30.34  76: 46.85  77:  6.96  78:  3.38  79:  2.65  80:  0.31
  81:  7.14  82: 33.26  83:  2.98  84: 19.99  85: 70.78  86:  4.33  87: 33.56  88:  8.17
  89: 18.91  90:  1.70  91:  2.12  92:  1.36  93: 13.96  94: 27.20  95:  0.08  96:  1.54
  97:  7.75  98:  0.32  99: 10.85 100:  6.17 101:  1.90 102:  0.45 103:  0.21 104:  1.81
 105: 10.54 106:  0.73 107:  0.33 108:  0.20 109:  4.87 110:  0.30 111:  2.33 112:  3.33
 113:  0.12 114:  3.02 115:  3.58 116:  0.46 117:  1.12 118:  0.48 119: 12.67 120:118.21
 121:  2.40 122: 89.74 123:  5.47 124: 15.81 125:  3.89 126: 19.54 127: 36.87 128:  8.43
 129: 31.41 130: 54.13 131:109.99 132:  1.97 133:  7.36 134:  9.08 135:  0.13 136:  0.78
 137:  0.53 138:  0.13 139:  2.34 140: 28.56 141: 36.93 142:  7.99 143: 26.11 144:  2.44
 145:  0.43 146:  9.11 147:  4.20 148: 26.49 149:  0.56 150:  6.66 151:  1.95 152: 18.47
 153: 16.43 154:  1.72 155:  3.74 156:  0.32 157:  4.60 158:  5.50 159:  4.04 160:  0.85
 161:  8.71 162:  0.79 163:  0.60 164: 10.59 165: 25.73 166: 40.86 167: 32.40 168:371.12
 169:807.05 170:280.08 171:145.10 172: 92.10 173: 12.00 174:  7.00 175:  3.85 176:  3.14
 177: 24.50 178:  2.65 179:  7.39 180:  4.27 181:  0.12 182:  6.38 183:  0.82 184:  5.17
 185: 23.14 186:  9.37 187:  4.60 188: 47.03 189: 43.53 190:  0.13 191: 75.51 192:  2.84
 193:  5.15 194:  0.52 195: 43.18 196: 78.06 197:  6.95 198:  7.81 199:  2.78 200:  3.96
 201:  1.12 202: 14.74 203:  7.75 204:  0.35 205:  1.83 206:  4.14 207:100.20 208:  2.34
 209:  8.00 210: 73.30 211: 18.69 212: 28.87 213:155.12 214:208.62 215:  5.39 216: 77.33
 217:120.55 218: 99.94 219:118.88 220: 47.60 221:263.39 222:  2.56 223:  9.41 224:  9.87
 225: 28.47 226:284.95 227:155.38 228: 33.37 229: 10.06 230: 38.95 231: 11.26 232:  8.67
 233: 10.38 234: 17.49 235:  3.34 236: 12.17 237:  8.43 238:  2.05 239: 34.03 240:  1.11
 241:  0.12 242:  0.44 243:  2.30 244: 21.91 245:  0.16 246: 22.15 247: 23.93 248: 11.86
 249:****** 250:152.87 251: 59.40 252:  8.48 253: 59.98 254: 11.06 255: 30.76 256:188.79
 257:218.76 258:  0.48 259:  2.94 260: 14.02 261: 41.36 262: 19.09 263: 38.14 264:  0.54
 265:  4.83 266:  2.42 267:  2.90 268:  1.63 269: 13.39 270: 47.51 271: 35.02 272:  2.02
 273:  8.19 274: 42.90 275: 28.46 276:  9.32 277:103.72 278: 16.39 279: 47.71 280: 13.01
 281:  9.45 282: 19.99 283:  2.09 284:  2.67 285: 57.83 286: 16.98 287:  1.28 288: 81.79
 289:149.48 290: 18.23 291: 79.27 292:216.18 293:100.26 294:  0.97 295: 95.04 296:  3.19
 297:  6.50 298:  8.56 299:  3.85 300:  1.25 301:  5.13 302: 34.68 303:  3.71 304:  4.24
 305: 36.16 306: 14.09 307: 51.88 308:  0.90 309:327.97 310:  1.88 311: 18.31 312: 24.60
 313:223.70 314:270.21 315:179.00 316: 14.91 317: 51.75 318: 29.75 319:  2.94 320:176.88
 321:  0.35 322:  2.38 323: 12.90 324: 28.76 325:  0.49 326:  1.50 327:  8.35 328: 17.96
 329: 47.00 330:320.43 331:  0.38 332: 80.70 333:  0.72 334: 15.75 335:249.12 336: 11.64
 337:241.13 338:  8.92 339:  2.29 340:  0.45 341:  3.05 342:  1.10 343:100.11 344: 16.55
 345:  0.26 346:  0.49 347:  4.53 348: 14.35 349:  4.03 350:  3.02 351:178.57 352:  4.99
 353:  2.70 354: 21.15 355: 51.40 356: 10.67 357:  3.35 358: 10.10 359: 63.00 360:  0.27
 361: 14.17 362:  3.76 363:  0.85 364:  1.56 365: 27.22 366:  7.02 367: 11.69 368:  7.66
 369: 29.25 370:  7.64 371:185.82 372: 23.19 373: 36.83 374: 18.58 375: 32.16 376: 23.50
 377:  7.97 378:  4.28 379:  5.93 380:  7.06 381: 57.67 382: 29.20 383: 28.94 384:  0.22
 385:  2.09 386:  1.59 387: 32.93 388:  8.55 389:217.59 390:  1.75 391: 33.64 392:  0.12
 393: 25.87 394:  5.21 395: 27.82 396:553.14 397: 50.40 398: 60.65 399: 49.49 400:  0.16
 401:  0.13 402:100.97 403: 23.06 404:  0.01 405:  5.02 406:  4.46 407: 40.82 408:  8.67
 409: 14.32 410:  1.39 411: 11.44 412: 10.33 413: 15.26 414:  5.43 415: 24.90 416: 19.55
 417: 11.24 418: 17.35 419: 30.27 420: 17.63 421: 26.70 422: 36.31 423: 19.25 424: 24.46
 425:448.26 426: 98.34 427: 42.44 428: 42.42 429:  0.91 430: 14.94 431: 41.28 432:  0.11
 433:  5.35 434: 30.77 435: 21.88 436:128.18 437: 83.42 438: 22.03 439: 59.49 440: 56.36
 441:188.53 442:133.50 443:  6.64 444: 47.23 445: 14.33 446: 34.22 447:  4.01 448: 51.45
 449: 17.79 450:  3.23 451:****** 452: 69.37 453: 25.97 454: 14.37 455:  4.11 456:  3.34
 Raman intensities (amu)
   1:  0.00   2:  0.00   3:  0.00   4:  0.00   5:  0.00   6:  0.00   7:  0.00   8:  0.00
   9:  0.00  10:  0.00  11:  0.00  12:  0.00  13:  0.00  14:  0.00  15:  0.00  16:  0.00
  17:  0.00  18:  0.00  19:  0.00  20:  0.00  21:  0.00  22:  0.00  23:  0.00  24:  0.00
  25:  0.00  26:  0.00  27:  0.00  28:  0.00  29:  0.00  30:  0.00  31:  0.00  32:  0.00
  33:  0.00  34:  0.00  35:  0.00  36:  0.00  37:  0.00  38:  0.00  39:  0.00  40:  0.00
  41:  0.00  42:  0.00  43:  0.00  44:  0.00  45:  0.00  46:  0.00  47:  0.00  48:  0.00
  49:  0.00  50:  0.00  51:  0.00  52:  0.00  53:  0.00  54:  0.00  55:  0.00  56:  0.00
  57:  0.00  58:  0.00  59:  0.00  60:  0.00  61:  0.00  62:  0.00  63:  0.00  64:  0.00
  65:  0.00  66:  0.00  67:  0.00  68:  0.00  69:  0.00  70:  0.00  71:  0.00  72:  0.00
  73:  0.00  74:  0.00  75:  0.00  76:  0.00  77:  0.00  78:  0.00  79:  0.00  80:  0.00
  81:  0.00  82:  0.00  83:  0.00  84:  0.00  85:  0.00  86:  0.00  87:  0.00  88:  0.00
  89:  0.00  90:  0.00  91:  0.00  92:  0.00  93:  0.00  94:  0.00  95:  0.00  96:  0.00
  97:  0.00  98:  0.00  99:  0.00 100:  0.00 101:  0.00 102:  0.00 103:  0.00 104:  0.00
 105:  0.00 106:  0.00 107:  0.00 108:  0.00 109:  0.00 110:  0.00 111:  0.00 112:  0.00
 113:  0.00 114:  0.00 115:  0.00 116:  0.00 117:  0.00 118:  0.00 119:  0.00 120:  0.00
 121:  0.00 122:  0.00 123:  0.00 124:  0.00 125:  0.00 126:  0.00 127:  0.00 128:  0.00
 129:  0.00 130:  0.00 131:  0.00 132:  0.00 133:  0.00 134:  0.00 135:  0.00 136:  0.00
 137:  0.00 138:  0.00 139:  0.00 140:  0.00 141:  0.00 142:  0.00 143:  0.00 144:  0.00
 145:  0.00 146:  0.00 147:  0.00 148:  0.00 149:  0.00 150:  0.00 151:  0.00 152:  0.00
 153:  0.00 154:  0.00 155:  0.00 156:  0.00 157:  0.00 158:  0.00 159:  0.00 160:  0.00
 161:  0.00 162:  0.00 163:  0.00 164:  0.00 165:  0.00 166:  0.00 167:  0.00 168:  0.00
 169:  0.00 170:  0.00 171:  0.00 172:  0.00 173:  0.00 174:  0.00 175:  0.00 176:  0.00
 177:  0.00 178:  0.00 179:  0.00 180:  0.00 181:  0.00 182:  0.00 183:  0.00 184:  0.00
 185:  0.00 186:  0.00 187:  0.00 188:  0.00 189:  0.00 190:  0.00 191:  0.00 192:  0.00
 193:  0.00 194:  0.00 195:  0.00 196:  0.00 197:  0.00 198:  0.00 199:  0.00 200:  0.00
 201:  0.00 202:  0.00 203:  0.00 204:  0.00 205:  0.00 206:  0.00 207:  0.00 208:  0.00
 209:  0.00 210:  0.00 211:  0.00 212:  0.00 213:  0.00 214:  0.00 215:  0.00 216:  0.00
 217:  0.00 218:  0.00 219:  0.00 220:  0.00 221:  0.00 222:  0.00 223:  0.00 224:  0.00
 225:  0.00 226:  0.00 227:  0.00 228:  0.00 229:  0.00 230:  0.00 231:  0.00 232:  0.00
 233:  0.00 234:  0.00 235:  0.00 236:  0.00 237:  0.00 238:  0.00 239:  0.00 240:  0.00
 241:  0.00 242:  0.00 243:  0.00 244:  0.00 245:  0.00 246:  0.00 247:  0.00 248:  0.00
 249:  0.00 250:  0.00 251:  0.00 252:  0.00 253:  0.00 254:  0.00 255:  0.00 256:  0.00
 257:  0.00 258:  0.00 259:  0.00 260:  0.00 261:  0.00 262:  0.00 263:  0.00 264:  0.00
 265:  0.00 266:  0.00 267:  0.00 268:  0.00 269:  0.00 270:  0.00 271:  0.00 272:  0.00
 273:  0.00 274:  0.00 275:  0.00 276:  0.00 277:  0.00 278:  0.00 279:  0.00 280:  0.00
 281:  0.00 282:  0.00 283:  0.00 284:  0.00 285:  0.00 286:  0.00 287:  0.00 288:  0.00
 289:  0.00 290:  0.00 291:  0.00 292:  0.00 293:  0.00 294:  0.00 295:  0.00 296:  0.00
 297:  0.00 298:  0.00 299:  0.00 300:  0.00 301:  0.00 302:  0.00 303:  0.00 304:  0.00
 305:  0.00 306:  0.00 307:  0.00 308:  0.00 309:  0.00 310:  0.00 311:  0.00 312:  0.00
Refinement of some symmetry elements was terminated before convergence was reached.
Some symmetry elements may remain unidentified.
Molecule has no symmetry elements
It seems to be the C1 point group
 313:  0.00 314:  0.00 315:  0.00 316:  0.00 317:  0.00 318:  0.00 319:  0.00 320:  0.00
 321:  0.00 322:  0.00 323:  0.00 324:  0.00 325:  0.00 326:  0.00 327:  0.00 328:  0.00
 329:  0.00 330:  0.00 331:  0.00 332:  0.00 333:  0.00 334:  0.00 335:  0.00 336:  0.00
 337:  0.00 338:  0.00 339:  0.00 340:  0.00 341:  0.00 342:  0.00 343:  0.00 344:  0.00
 345:  0.00 346:  0.00 347:  0.00 348:  0.00 349:  0.00 350:  0.00 351:  0.00 352:  0.00
 353:  0.00 354:  0.00 355:  0.00 356:  0.00 357:  0.00 358:  0.00 359:  0.00 360:  0.00
 361:  0.00 362:  0.00 363:  0.00 364:  0.00 365:  0.00 366:  0.00 367:  0.00 368:  0.00
 369:  0.00 370:  0.00 371:  0.00 372:  0.00 373:  0.00 374:  0.00 375:  0.00 376:  0.00
 377:  0.00 378:  0.00 379:  0.00 380:  0.00 381:  0.00 382:  0.00 383:  0.00 384:  0.00
 385:  0.00 386:  0.00 387:  0.00 388:  0.00 389:  0.00 390:  0.00 391:  0.00 392:  0.00
 393:  0.00 394:  0.00 395:  0.00 396:  0.00 397:  0.00 398:  0.00 399:  0.00 400:  0.00
 401:  0.00 402:  0.00 403:  0.00 404:  0.00 405:  0.00 406:  0.00 407:  0.00 408:  0.00
 409:  0.00 410:  0.00 411:  0.00 412:  0.00 413:  0.00 414:  0.00 415:  0.00 416:  0.00
 417:  0.00 418:  0.00 419:  0.00 420:  0.00 421:  0.00 422:  0.00 423:  0.00 424:  0.00
 425:  0.00 426:  0.00 427:  0.00 428:  0.00 429:  0.00 430:  0.00 431:  0.00 432:  0.00
 433:  0.00 434:  0.00 435:  0.00 436:  0.00 437:  0.00 438:  0.00 439:  0.00 440:  0.00
 441:  0.00 442:  0.00 443:  0.00 444:  0.00 445:  0.00 446:  0.00 447:  0.00 448:  0.00
 449:  0.00 450:  0.00 451:  0.00 452:  0.00 453:  0.00 454:  0.00 455:  0.00 456:  0.00
 output can be read by thermo (or use thermo option).
 writing <g98.out> molden fake output.
 recommended (thermochemical) frequency scaling factor: 1.0
           -------------------------------------------------
          |             Thermodynamic Functions             |
           -------------------------------------------------

c1  symmetry found (for desy threshold:  0.10E+00) used in thermo

          ...................................................
          :                      SETUP                      :
          :.................................................:
          :  # frequencies                         449      :
          :  # imaginary freq.                       0      :
          :  linear?                             false      :
          :  only rotor calc.                    false      :
          :  symmetry                               c1      :
          :  rotational number                       1      :
          :  scaling factor                  1.0000000      :
          :  rotor cutoff                   50.0000000 cm⁻¹ :
          :  imag. cutoff                  -20.0000000 cm⁻¹ :
          :.................................................:

    mode    ω/cm⁻¹     T·S(HO)/kcal·mol⁻¹    T·S(FR)/kcal·mol⁻¹   T·S(vib)
   ------------------------------------------------------------------------
       1      3.20    -3.06364 (  0.00%)    -1.87092 (100.00%)    -1.87094
       2      6.42    -2.65062 (  0.03%)    -1.66441 ( 99.97%)    -1.66468
       3      7.79    -2.53647 (  0.06%)    -1.60733 ( 99.94%)    -1.60788
       4      9.36    -2.42741 (  0.12%)    -1.55279 ( 99.88%)    -1.55387
       5     11.87    -2.28680 (  0.32%)    -1.48247 ( 99.68%)    -1.48502
       6     12.96    -2.23487 (  0.45%)    -1.45650 ( 99.55%)    -1.46000
       7     14.59    -2.16474 (  0.72%)    -1.42142 ( 99.28%)    -1.42677
       8     15.79    -2.11777 (  0.99%)    -1.39793 ( 99.01%)    -1.40502
       9     23.76    -1.87611 (  4.85%)    -1.27701 ( 95.15%)    -1.30606
      10     24.07    -1.86834 (  5.10%)    -1.27312 ( 94.90%)    -1.30346
      11     32.26    -1.69514 ( 14.77%)    -1.18639 ( 85.23%)    -1.26151
      12     38.64    -1.58841 ( 26.29%)    -1.13289 ( 73.71%)    -1.25266
      13     41.68    -1.54368 ( 32.57%)    -1.11046 ( 67.43%)    -1.25154
      14     42.65    -1.53011 ( 34.62%)    -1.10365 ( 65.38%)    -1.25127
      15     45.22    -1.49558 ( 40.08%)    -1.08632 ( 59.92%)    -1.25037
      16     45.47    -1.49230 ( 40.62%)    -1.08467 ( 59.38%)    -1.25025
      17     47.51    -1.46639 ( 44.92%)    -1.07166 ( 55.08%)    -1.24896
      18     52.39    -1.40876 ( 54.66%)    -1.04271 ( 45.34%)    -1.24279
      19     53.18    -1.39995 ( 56.14%)    -1.03828 ( 43.86%)    -1.24131
      20     58.70    -1.34181 ( 65.51%)    -1.00903 ( 34.49%)    -1.22704
      21     62.17    -1.30805 ( 70.50%)    -0.99203 ( 29.50%)    -1.21482
      22     67.05    -1.26363 ( 76.38%)    -0.96964 ( 23.62%)    -1.19418
      23     71.71    -1.22414 ( 80.89%)    -0.94971 ( 19.11%)    -1.17168
      24     72.88    -1.21464 ( 81.87%)    -0.94492 ( 18.13%)    -1.16573
      25     78.06    -1.17446 ( 85.59%)    -0.92460 ( 14.41%)    -1.13845
      26     84.89    -1.12540 ( 89.26%)    -0.89975 ( 10.74%)    -1.10116
      27     93.54    -1.06874 ( 92.45%)    -0.87098 (  7.55%)    -1.05382
      28     94.79    -1.06104 ( 92.81%)    -0.86707 (  7.19%)    -1.04710
      29    101.04    -1.02387 ( 94.34%)    -0.84813 (  5.66%)    -1.01393
      30    107.40    -0.98846 ( 95.51%)    -0.83005 (  4.49%)    -0.98135
      31    108.83    -0.98079 ( 95.74%)    -0.82613 (  4.26%)    -0.97419
      32    114.23    -0.95279 ( 96.46%)    -0.81179 (  3.54%)    -0.94779
      33    114.84    -0.94971 ( 96.53%)    -0.81021 (  3.47%)    -0.94487
      34    116.15    -0.94318 ( 96.68%)    -0.80686 (  3.32%)    -0.93865
      35    120.29    -0.92296 ( 97.10%)    -0.79647 (  2.90%)    -0.91930
      36    120.52    -0.92189 ( 97.12%)    -0.79592 (  2.88%)    -0.91827
      37    121.11    -0.91909 ( 97.18%)    -0.79448 (  2.82%)    -0.91557
      38    121.65    -0.91651 ( 97.23%)    -0.79315 (  2.77%)    -0.91308
      39    142.34    -0.82651 ( 98.50%)    -0.74662 (  1.50%)    -0.82532
      40    142.59    -0.82553 ( 98.51%)    -0.74611 (  1.49%)    -0.82435
      41    144.00    -0.81992 ( 98.57%)    -0.74319 (  1.43%)    -0.81882
      42    144.71    -0.81713 ( 98.59%)    -0.74173 (  1.41%)    -0.81607
      43    163.11    -0.74937 ( 99.12%)    -0.70627 (  0.88%)    -0.74899
      44    167.60    -0.73412 ( 99.21%)    -0.69823 (  0.79%)    -0.73384
      45    173.76    -0.71390 ( 99.32%)    -0.68754 (  0.68%)    -0.71372
      46    181.06    -0.69096 ( 99.42%)    -0.67535 (  0.58%)    -0.69087
      47    183.59    -0.68324 ( 99.45%)    -0.67124 (  0.55%)    -0.68318
      48    186.42    -0.67477 ( 99.49%)    -0.66671 (  0.51%)    -0.67472
      49    188.39    -0.66894 ( 99.51%)    -0.66359 (  0.49%)    -0.66892
      50    188.78    -0.66780 ( 99.51%)    -0.66298 (  0.49%)    -0.66778
      51    193.26    -0.65484 ( 99.55%)    -0.65603 (  0.45%)    -0.65485
      52    201.40    -0.63216 ( 99.62%)    -0.64381 (  0.38%)    -0.63221
      53    202.55    -0.62905 ( 99.63%)    -0.64212 (  0.37%)    -0.62909
      54    202.63    -0.62883 ( 99.63%)    -0.64200 (  0.37%)    -0.62887
      55    203.32    -0.62695 ( 99.64%)    -0.64099 (  0.36%)    -0.62700
      56    209.87    -0.60967 ( 99.68%)    -0.63161 (  0.32%)    -0.60974
      57    214.14    -0.59871 ( 99.70%)    -0.62564 (  0.30%)    -0.59879
      58    229.66    -0.56099 ( 99.78%)    -0.60490 (  0.22%)    -0.56109
      59    251.25    -0.51335 ( 99.84%)    -0.57829 (  0.16%)    -0.51345
      60    258.65    -0.49818 ( 99.86%)    -0.56969 (  0.14%)    -0.49828
      61    265.07    -0.48543 ( 99.87%)    -0.56243 (  0.13%)    -0.48553
      62    265.20    -0.48518 ( 99.87%)    -0.56229 (  0.13%)    -0.48528
      63    265.91    -0.48379 ( 99.88%)    -0.56149 (  0.12%)    -0.48389
      64    266.97    -0.48174 ( 99.88%)    -0.56032 (  0.12%)    -0.48184
      65    267.98    -0.47979 ( 99.88%)    -0.55920 (  0.12%)    -0.47989
      66    269.70    -0.47649 ( 99.88%)    -0.55730 (  0.12%)    -0.47658
      67    272.72    -0.47076 ( 99.89%)    -0.55400 (  0.11%)    -0.47085
      68    273.58    -0.46913 ( 99.89%)    -0.55306 (  0.11%)    -0.46922
      69    280.43    -0.45648 ( 99.90%)    -0.54574 (  0.10%)    -0.45657
      70    287.38    -0.44404 ( 99.91%)    -0.53848 (  0.09%)    -0.44413
      71    295.83    -0.42946 ( 99.92%)    -0.52991 (  0.08%)    -0.42954
   ------------------------------------------------------------------------

   temp. (K)  partition function   enthalpy   heat capacity  entropy
                                   cal/mol     cal/K/mol   cal/K/mol   J/K/mol
 298.15  VIB  0.205E+40            48634.921    320.919    305.998
         ROT  0.135E+10              888.752      2.981     44.760
         INT  0.277E+49            49523.674    323.900    350.758
         TR   0.457E+29             1481.254      4.968     47.359
         TOT                       51004.9277   328.8682   398.1174  1665.7231

       T/K    H(0)-H(T)+PV         H(T)/Eh          T*S/Eh         G(T)/Eh
   ------------------------------------------------------------------------
    298.15    0.812815E-01    0.119099E+01    0.189158E+00    0.100183E+01
   ------------------------------------------------------------------------

         :::::::::::::::::::::::::::::::::::::::::::::::::::::
         ::                  THERMODYNAMIC                  ::
         :::::::::::::::::::::::::::::::::::::::::::::::::::::
         :: total free energy        -255.246187539414 Eh   ::
         ::.................................................::
         :: total energy             -256.248017930286 Eh   ::
         :: zero point energy           1.109707280014 Eh   ::
         :: G(RRHO) w/o ZPVE           -0.107876889142 Eh   ::
         :: G(RRHO) contrib.            1.001830390872 Eh   ::
         :::::::::::::::::::::::::::::::::::::::::::::::::::::

optimized geometry written to: xtbopt.xyz


           -------------------------------------------------
          | TOTAL ENERGY             -256.248017930286 Eh   |
          | TOTAL ENTHALPY           -255.057029124143 Eh   |
          | TOTAL FREE ENERGY        -255.246187539414 Eh   |
          | GRADIENT NORM               0.000750115586 Eh/α |
          | HOMO-LUMO GAP               0.833790677110 eV   |
           -------------------------------------------------

------------------------------------------------------------------------
 * finished run on 2021/11/19 at 15:35:49.072     
------------------------------------------------------------------------
 total:
 * wall-time:     0 d,  0 h,  9 min, 16.356 sec
 *  cpu-time:     0 d,  0 h,  9 min, 16.345 sec
 * ratio c/w:     1.000 speedup
 SCF:
 * wall-time:     0 d,  0 h,  0 min,  1.726 sec
 *  cpu-time:     0 d,  0 h,  0 min,  1.726 sec
 * ratio c/w:     1.000 speedup
 ANC optimizer:
 * wall-time:     0 d,  0 h,  1 min,  3.620 sec
 *  cpu-time:     0 d,  0 h,  1 min,  3.602 sec
 * ratio c/w:     1.000 speedup
 analytical hessian:
 * wall-time:     0 d,  0 h,  8 min, 10.759 sec
 *  cpu-time:     0 d,  0 h,  8 min, 10.765 sec
 * ratio c/w:     1.000 speedup

