152
 energy: -254.995934190151 gnorm: 1.546146391668 xtb: 6.4.1 (bd6e46d)
C        30.35330500000000    3.51086900000000    0.78928500000000
C        31.24328300000000    2.57061000000000    0.59109000000000
C        30.58178200000000    1.31053500000000    0.29028300000000
C        30.94022000000000    0.00487300000000    0.00160200000000
C        30.11504100000001   -1.12619900000000   -0.08361500000000
C        30.57060700000000   -2.33492400000000    0.49769200000000
C        29.59791200000000   -3.26747000000000    0.29753700000000
C        28.56681900000000   -2.59976900000000   -0.40545000000000
N        28.90354400000000   -1.31890900000000   -0.62236400000000
C        27.40885800000000   -3.32588400000000   -0.73716700000000
C        26.09075700000000   -2.88318900000000   -0.62363200000000
C        24.77841100000000   -3.48532300000000   -0.72061200000000
C        23.85678300000000   -2.53867500000000   -0.51452700000000
C        24.55366900000000   -1.29284500000000   -0.27779600000000
N        25.87474200000000   -1.57259700000000   -0.35748100000000
C        24.15442700000000    0.00915300000000   -0.00979300000000
C        24.98703900000000    1.14582900000000    0.06611600000000
C        24.55289600000000    2.34781800000000   -0.54402500000000
C        25.54840900000000    3.26420700000000   -0.35206900000000
C        26.56256000000000    2.59096400000000    0.37186200000000
N        26.19736300000000    1.32314200000000    0.61068600000000
C        27.73220100000000    3.29792000000000    0.69336200000000
C        29.04745500000000    2.89439500000000    0.62334600000000
N        29.23707700000000    1.58329200000000    0.32694400000000
H        30.52057000000000    4.53941300000000    1.02787500000000
H        32.31354200000000    2.69394700000000    0.64010800000000
H        31.53112800000000   -2.52062600000000    1.01626900000000
H        29.63479400000000   -4.32408000000000    0.62286400000000
H        28.30025900000000   -0.55149900000000   -1.16988400000000
H        27.49724900000000   -4.36131100000000   -1.11551400000000
H        24.57973600000000   -4.54602400000000   -0.92935600000000
H        22.78737300000000   -2.73060900000000   -0.53376000000000
H        23.07948400000000    0.09842200000000    0.12795200000000
H        23.59924100000000    2.53937600000000   -1.07282200000000
H        25.53398700000000    4.31443600000000   -0.69851000000000
H        26.79068800000000    0.56569800000000    1.18268300000000
H        27.66369300000000    4.35532500000000    1.05007800000000
C        57.65900400000000   -3.49275400000000    0.82565600000000
C        56.76902600000000   -2.55460400000000    0.61770500000000
C        57.43052700000000   -1.29772100000000    0.30382800000000
C        57.07208900000001    0.00487300000000    0.00160200000000
C        57.89726800000000    1.13499900000000   -0.09535700000000
C        57.44170200000001    2.34969500000000    0.47336500000000
C        58.41439700000000    3.28011200000000    0.26353500000000
C        59.44549000000001    2.60514600000000   -0.43248000000000
N        59.10876500000000    1.32210300000000   -0.63607900000000
C        60.60345100000000    3.32777800000000   -0.77172000000000
C        61.92155200000000    2.88628500000000   -0.65359400000000
C        63.23389800000000    3.48737900000000   -0.75682100000000
C        64.15552599999999    2.54292300000000   -0.54091600000000
C        63.45864000000000    1.29961800000000   -0.29125900000000
N        62.13756700000000    1.57852800000000   -0.37384500000000
C        63.85788200000000    0.00047500000000   -0.00974800000000
C        63.02527000000000   -1.13535200000000    0.07796200000000
C        63.45941300000000   -2.34361300000000   -0.51966200000000
C        62.46390000000000   -3.25795900000000   -0.31819900000000
C        61.44974900000000   -2.57723300000000    0.39870100000000
N        61.81494600000001   -1.30699900000000    0.62434500000000
C        60.28010800000001   -3.28081200000000    0.72752600000000
C        58.96485500000001   -2.87803700000000    0.65332300000000
N        58.77523200000000   -1.57008200000000    0.34332000000000
H        57.49173900000001   -4.51876400000000    1.07491500000000
H        55.69876700000000   -2.67742500000000    0.66800200000000
H        56.48118100000000    2.54077300000000    0.98998500000000
H        58.37751500000000    4.34004400000000    0.57787100000000
H        59.71205000000000    0.54904700000000   -1.17559900000000
H        60.51506000000000    4.35921900000000   -1.16080000000000
H        63.43257400000001    4.54585500000000   -0.97657100000000
H        65.22493600000000    2.73464700000000   -0.56214100000000
H        64.93282499999999   -0.08735900000000    0.12891700000000
H        64.41306800000000   -2.54065300000000   -1.04644100000000
H        62.47832200000001   -4.31172900000000   -0.65371400000000
H        61.22162100000000   -0.54365600000000    1.18844400000000
H        60.34861600000000   -4.33445500000000    1.09520400000000
C        33.16766400000000    0.00487300000000    0.00160200000000
C        34.38386900000000    0.00487300000000    0.00160200000000
C        43.39805200000000    0.00487300000000    0.00160200000000
C        44.61425700000000    0.00487300000000    0.00160200000000
C        53.62844000000000    0.00487300000000    0.00160200000000
C        54.84464500000000    0.00487300000000    0.00160200000000
C        36.09901700000000   -3.59468700000000    0.00011200000000
C        35.22446700000000   -2.59978300000000   -0.01019000000000
C        35.89593100000000   -1.32100000000000    0.00299900000000
C        35.49890000000001   -0.00541400000000   -0.00178000000000
C        36.31009200000000    1.13890900000000   -0.15590600000000
C        35.83106700000000    2.19142600000000   -0.96797100000000
C        36.81815200000000    3.13417800000000   -0.95944000000000
C        37.86542300000000    2.63238400000000   -0.14663700000000
N        37.52657000000000    1.42601600000000    0.32610900000000
C        39.02580100000000    3.41036600000000    0.00771300000000
C        40.34679000000000    2.95249300000000   -0.02168000000000
C        41.65935900000000    3.58062600000000   -0.08280800000000
C        42.57347200000000    2.62556200000000   -0.08539200000000
C        41.89992500000001    1.33868900000000   -0.02620200000000
N        40.58786700000000    1.62728800000000    0.00858800000000
C        42.30220900000000   -0.00541400000000   -0.00178000000000
C        41.47005500000000   -1.11920300000000    0.18050100000000
C        41.91001300000000   -2.15086000000000    1.04381300000000
C        40.91183100000000   -3.07420100000000    1.04843300000000
C        39.88891500000000   -2.59426300000000    0.19500400000000
N        40.25609200000000   -1.41301600000000   -0.31550400000000
C        38.73200600000000   -3.36967100000000    0.03793500000000
C        37.41123100000000   -2.95019200000000    0.02125000000000
N        37.23484000000000   -1.61198900000000    0.02215100000000
H        35.93049800000000   -4.65685400000000   -0.00529100000000
H        34.13663900000000   -2.78581900000000   -0.02721700000000
H        34.86698900000000    2.26679700000000   -1.50228700000000
H        36.78000500000000    4.10529300000000   -1.49188300000000
H        38.13424900000000    0.78891600000000    1.01473800000000
H        38.97070100000000    4.49662800000000    0.15182800000000
H        41.87778600000000    4.64861900000000   -0.12113800000000
H        43.64978700000000    2.77160600000000   -0.12501900000000
H        42.86402200000000   -2.21527200000000    1.60136100000000
H        40.93724900000000   -4.01951800000000    1.62375300000000
H        39.66901600000001   -0.79355900000000   -1.03915400000000
H        38.79272400000001   -4.48141000000000   -0.07619300000000
C        46.32940500000000   -3.59468700000000    0.00011200000000
C        45.45485500000000   -2.59978300000000   -0.01019000000000
C        46.12631900000000   -1.32100000000000    0.00299900000000
C        45.72928800000000   -0.00541400000000   -0.00178000000000
C        46.54048000000000    1.13890900000000   -0.15590600000000
C        46.06145500000000    2.19142600000000   -0.96797100000000
C        47.04854000000000    3.13417800000000   -0.95944000000000
C        48.09581100000000    2.63238400000000   -0.14663700000000
N        47.75695800000000    1.42601600000000    0.32610900000000
C        49.25618800000001    3.41036600000000    0.00771300000000
C        50.57717800000001    2.95249300000000   -0.02168000000000
C        51.88974700000000    3.58062600000000   -0.08280800000000
C        52.80386000000000    2.62556200000000   -0.08539200000000
C        52.13031300000000    1.33868900000000   -0.02620200000000
N        50.81825500000000    1.62728800000000    0.00858800000000
C        52.53259700000000   -0.00541400000000   -0.00178000000000
C        51.70044200000001   -1.11920300000000    0.18050100000000
C        52.14040100000000   -2.15086000000000    1.04381300000000
C        51.14221900000000   -3.07420100000000    1.04843300000000
C        50.11930300000000   -2.59426300000000    0.19500400000000
N        50.48648000000001   -1.41301600000000   -0.31550400000000
C        48.96239400000000   -3.36967100000000    0.03793500000000
C        47.64161800000000   -2.95019200000000    0.02125000000000
N        47.46522800000000   -1.61198900000000    0.02215100000000
H        46.16088600000000   -4.65685400000000   -0.00529100000000
H        44.36702700000000   -2.78581900000000   -0.02721700000000
H        45.09737700000001    2.26679700000000   -1.50228700000000
H        47.01039300000000    4.10529300000000   -1.49188300000000
H        48.36463600000000    0.78891600000000    1.01473800000000
H        49.20108900000000    4.49662800000000    0.15182800000000
H        52.10817400000001    4.64861900000000   -0.12113800000000
H        53.88017500000001    2.77160600000000   -0.12501900000000
H        53.09441000000000   -2.21527200000000    1.60136100000000
H        51.16763700000000   -4.01951800000000    1.62375300000000
H        49.89940400000000   -0.79355900000000   -1.03915400000000
H        49.02311200000000   -4.48141000000000   -0.07619300000000
152
 energy: -255.477672481011 gnorm: 0.485609687305 xtb: 6.4.1 (bd6e46d)
C        30.34657555524833    3.51413370300754    0.79098041301086
C        31.25447884299190    2.56484866303394    0.58853124555029
C        30.57813314190708    1.31152079818351    0.28575093064819
C        30.96624195118202    0.01298526732525    0.00651215467823
C        30.13635114853466   -1.11991627750295   -0.08086176699011
C        30.57788605494346   -2.33862934636876    0.49779777748204
C        29.60138550396521   -3.27060890108259    0.29336268193543
C        28.56114454890847   -2.60824045008918   -0.40891554039156
N        28.90149454534119   -1.31170249191829   -0.62280172763366
C        27.39755001729901   -3.32932498208270   -0.74217879380807
C        26.08901085117408   -2.87096779055441   -0.62783008365187
C        24.77895806068104   -3.49318903769689   -0.72403858532506
C        23.85247021773020   -2.54142789038207   -0.51373748203589
C        24.56407026460345   -1.29693295585756   -0.27235319482216
N        25.88474049064724   -1.56363036418090   -0.35507076243286
C        24.15101201698043   -0.00086394326386   -0.00773471036406
C        24.97645016551879    1.14062186426302    0.06465264971109
C        24.54780999159047    2.35031521501292   -0.54121641283421
C        25.54513444511194    3.26756641738946   -0.34853785570556
C        26.56838517263911    2.60164813023040    0.37414181067826
N        26.20408587978972    1.31721667126421    0.60861736649467
C        27.73987584561642    3.30757983100564    0.70065933357103
C        29.04748276470459    2.87950949134156    0.62573957181932
N        29.23684958831759    1.57310272278689    0.32481113947943
H        30.51871282972531    4.54219770925719    1.02868879588523
H        32.31750185580318    2.69165436581059    0.63952528367403
H        31.52535535756036   -2.51662982523519    1.01336573047117
H        29.63171990951652   -4.31573771069960    0.61959719887329
H        28.31271528085727   -0.56831101086460   -1.15429031659722
H        27.49894162474462   -4.35954745149977   -1.10658860135664
H        24.58177795332318   -4.54317972652288   -0.92896217371582
H        22.78799959986365   -2.72677340566690   -0.53276188469791
H        23.07916512558610    0.10293108696108    0.12180800673222
H        23.60608325314947    2.53501035971133   -1.06898209299385
H        25.53684666505971    4.30622553045391   -0.69527467946980
H        26.77840217212753    0.58208652243857    1.16629979688290
H        27.65939815891441    4.35363535135251    1.04197587134937
C        57.66572642104779   -3.49601378871379    0.82741295665404
C        56.75787701194816   -2.54886552444533    0.61518859420309
C        57.43413137862750   -1.29880072734310    0.29940077031343
C        57.04612067899254   -0.00333040643975    0.00718988634088
C        57.87598711766498    1.12877151808940   -0.09252408946063
C        57.43441091108649    2.35338291586012    0.47339466716997
C        58.41095294676233    3.28321430763882    0.25931602857294
C        59.45115096728549    2.61359781333581   -0.43602156687596
N        59.11082572465334    1.31487749783229   -0.63640449746453
C        60.61477749819218    3.33117114720813   -0.77678569944544
C        61.92329141322518    2.87404251592868   -0.65767050717067
C        63.23335045296433    3.49521463569952   -0.76034516181184
C        64.15983534432195    2.54568645011049   -0.54017141057962
C        63.44822907321355    1.30377084138956   -0.28587466731802
N        62.12757561646531    1.56957506268176   -0.37134915328816
C        63.86129490477306    0.01049930546567   -0.00780705000785
C        63.03585769278391   -1.13015558738012    0.07643171156136
C        63.46449764274253   -2.34608896028642   -0.51684157783113
C        62.46717931707278   -3.26128518910968   -0.31464415609607
C        61.44391589483585   -2.58788908017875    0.40107951026896
N        61.80821934062634   -1.30109151239749    0.62220056575239
C        60.27243023971207   -3.29040194360679    0.73489304275659
C        58.96480954919423   -2.86313449572753    0.65551238938876
N        58.77542183031725   -1.55989515212890    0.34119357068015
H        57.49359979091155   -4.52155303587070    1.07575547713798
H        55.69490653989044   -2.67519391533965    0.66720371050466
H        56.48695976412152    2.53675632447760    0.98711916429084
H        58.38059016046780    4.33166599004305    0.57468364606757
H        59.69958991491040    0.56601533894033   -1.16018910556018
H        60.51337111152733    4.35754231993979   -1.15189108960022
H        63.43053109034605    4.54301448455616   -0.97616126918148
H        65.22430607517312    2.73082108950332   -0.56111841280487
H        64.93314274219239   -0.09193348474413    0.12280310677224
H        64.40622281040463   -2.53624886988373   -1.04266286843313
H        62.47546153488506   -4.30348505475146   -0.65058005868694
H        61.23390816360579   -0.56021003072345    1.17221946169437
H        60.35291395001659   -4.33285180169017    1.08706752857626
C        33.08235532862602    0.01019027263021    0.00096323476028
C        34.28196710478861    0.01071131924485    0.00008736150819
C        43.44160904116094    0.00488462794519    0.00197016711693
C        44.58141366763341    0.00814146908081    0.00194425165026
C        53.73707392060918    0.00213960024462    0.00399865569742
C        54.93524270140225   -0.00057084738078   -0.00085483881189
C        36.10723579260617   -3.59741736933877   -0.00096602174974
C        35.21465348771736   -2.60045322420124   -0.00936908600267
C        35.92773311751395   -1.33982750993373    0.00692258840388
C        35.55695138447122   -0.01169682520841   -0.00124249081712
C        36.32007721390190    1.13986266444400   -0.15936521123554
C        35.83065920572316    2.19277892968070   -0.96572610204908
C        36.81804131189723    3.14175652651504   -0.95697968400161
C        37.87138951534118    2.64552383521965   -0.14689858660997
N        37.53812193769696    1.42445134311555    0.32733009036200
C        39.04059263171155    3.41634055529429    0.01163576591739
C        40.34600780709390    2.95135799565937   -0.01639624614530
C        41.65526949031442    3.59149075698031   -0.08086770570481
C        42.57797031029542    2.62246235093169   -0.08585396698675
C        41.85742829746912    1.35990758012832   -0.03002510520380
N        40.56720542952031    1.62073134228043    0.00688230276961
C        42.20896638497751    0.00528613763084   -0.00365415080422
C        41.44785790313747   -1.12516734454784    0.18548705466392
C        41.90994031734670   -2.15009395537722    1.04182764388094
C        40.91194251834264   -3.08359305872547    1.04680610478368
C        39.88313157738441   -2.60951919996175    0.19609819505906
N        40.24215912100274   -1.41325727548226   -0.31724796552673
C        38.72142432324345   -3.38319214190108    0.03305239848301
C        37.41421426206877   -2.94476746628468    0.01603847612622
N        37.24342939611569   -1.60840946979752    0.02339992551015
H        35.93201895438791   -4.65670493703365   -0.00537901782358
H        34.13879598977846   -2.77980509862473   -0.02713317099264
H        34.87459741992967    2.26223234156543   -1.49704812942420
H        36.78310894530637    4.09882124715900   -1.48739943518682
H        38.12290227486672    0.80218457626361    0.99652539905493
H        38.96757487209127    4.49568643188689    0.14460431307318
H        41.87453468884904    4.64874882627702   -0.12102344473554
H        43.64798864094239    2.76838304348553   -0.12404457625865
H        42.85566196964572   -2.21008517466162    1.59602698372328
H        40.93377571657533   -4.01442965619728    1.61906750590502
H        39.67991680746459   -0.80675650901123   -1.02027675711354
H        38.79746753168823   -4.47819231365675   -0.06914975039154
C        46.33819165415220   -3.59865870720803   -0.00098563837538
C        45.44649450344919   -2.60041158458189   -0.00974754560767
C        46.16969963693396   -1.34601320306515    0.00639608207828
C        45.81397070933216   -0.01197980893927   -0.00100312776297
C        46.55916486605805    1.14379597047672   -0.16084738117376
C        46.06305245136924    2.19166156705495   -0.96638371133414
C        47.04900398694199    3.14277090939377   -0.95662694650211
C        48.10239296127243    2.64699163472086   -0.14697819876375
N        47.77038733704968    1.42633604521569    0.32753416224823
C        49.27066370757025    3.41648537069981    0.01152562268546
C        50.57774460345880    2.94874528290482   -0.01631580684348
C        51.88626829554405    3.59028008101495   -0.08089432703448
C        52.80994518519864    2.62237495839908   -0.08613685336848
C        52.09868187913482    1.35436265571161   -0.03105066754359
N        50.79904302955504    1.61976528164838    0.00724872761872
C        52.46536997220689    0.00507263473893   -0.00347831139509
C        51.68676235270575   -1.12119963268928    0.18418541929763
C        52.14192495118886   -2.15119278047844    1.04122192419589
C        51.14282706793363   -3.08263707049080    1.04715475516916
C        50.11415045504564   -2.60808411953002    0.19600181497343
N        50.47438041540828   -1.41140750423475   -0.31695603378198
C        48.95140381703227   -3.38307149500560    0.03286117464561
C        47.64590306832656   -2.94749729507297    0.01610715362223
N        47.47492840831495   -1.60928068405378    0.02370659482123
H        46.16228767188988   -4.65712085015943   -0.00531311040584
H        44.36994279270323   -2.77953600773982   -0.02752128166080
H        45.10651774647479    2.26142157937332   -1.49812138918832
H        47.01344105416513    4.09918485697033   -1.48736236459342
H        48.35331345943371    0.80240285660934    0.99659227654757
H        49.19810612857701    4.49575191446625    0.14450423766286
H        52.10481171754160    4.64836760449352   -0.12095979001947
H        53.87975084766867    2.76838834844978   -0.12542640053299
H        53.08675545512462   -2.21063582199586    1.59573311929975
H        51.16409207149313   -4.01408928722844    1.61912315837589
H        49.91035483981599   -0.80654866729558   -1.02020539900912
H        49.02799911867049   -4.47813356621033   -0.06929245440919
152
 energy: -255.691827556600 gnorm: 0.296781900115 xtb: 6.4.1 (bd6e46d)
C        30.33992659881840    3.51083533832289    0.79374553820946
C        31.26599817184470    2.56151012259725    0.58395516012892
C        30.58055719433152    1.31514873369845    0.27476495903543
C        31.02984707189917    0.02954349250132    0.00797203300981
C        30.18016640369141   -1.11076337336742   -0.08127566521833
C        30.59182529282063   -2.34301843264666    0.49150567602455
C        29.60890880662358   -3.27116388964263    0.28194031324471
C        28.56059535262348   -2.61467097227421   -0.41376545166141
N        28.91448867632747   -1.30397001331920   -0.61264814205724
C        27.38614442817406   -3.32833171362430   -0.75067649142939
C        26.08829638054120   -2.85098699748996   -0.63798506545924
C        24.78192585304746   -3.49774173272339   -0.73033007297659
C        23.85245881200917   -2.54492987637416   -0.51044641043294
C        24.57981949877526   -1.30329607867620   -0.25980514974259
N        25.89984053738090   -1.54937653115194   -0.35077336117041
C        24.14706103837414   -0.01422665220523   -0.00227842119135
C        24.96306907479470    1.13553991703561    0.06341524300759
C        24.54101385685626    2.35331562066432   -0.53103480576820
C        25.53915012271883    3.27073880097911   -0.33744530002703
C        26.57404990120645    2.61562474616183    0.37794777899332
N        26.20902635822744    1.31585713479911    0.59643760458472
C        27.75023868821811    3.31581508276905    0.71212770470529
C        29.04855705696390    2.85274107353499    0.63295728558428
N        29.24035385114270    1.55257901326082    0.32031597092508
H        30.51277587816772    4.54275222160059    1.02988016431836
H        32.32623142462926    2.68863607798827    0.63782949849672
H        31.52113971183225   -2.51148279178021    1.01102485010894
H        29.62529828519332   -4.30275335910878    0.61330525963096
H        28.33808276174975   -0.59529978487504   -1.12199202524133
H        27.50086775129450   -4.35914095390661   -1.08588319496525
H        24.58787886978031   -4.53988098407850   -0.92975252410801
H        22.78957870503907   -2.71778612113637   -0.52963926916617
H        23.07682245756087    0.11053080624048    0.10586632173580
H        23.61480369823152    2.52686701566276   -1.06295109667421
H        25.54220052055652    4.29455568619273   -0.68938745880108
H        26.75873224874776    0.60970211469191    1.13361750007682
H        27.65359399521879    4.35561365622856    1.02385420863558
C        57.67238034874993   -3.49259754467393    0.83031131821574
C        56.74644283561179   -2.54540126349017    0.61078911414679
C        57.43147362176373   -1.30226909894111    0.28788684446784
C        56.98166428007391   -0.01980799458609    0.00544547643537
C        57.83197092476534    1.11972063536028   -0.09359790848602
C        57.42039321349265    2.35760648173815    0.46687917900914
C        58.40345981939428    3.28360376436007    0.24794922673126
C        59.45173479565399    2.61998278323069   -0.44081276275843
N        59.09800025314043    1.30721543011611   -0.62592480552630
C        60.62621016725801    3.33010346562285   -0.78525137916400
C        61.92400575721552    2.85398574632375   -0.66758393343765
C        63.23038261167156    3.49970823308314   -0.76666620898192
C        64.15984180635405    2.54922204294893   -0.53689716192872
C        63.43246681422738    1.31027454745183   -0.27336738919059
N        62.11248776863891    1.55536782222340   -0.36686219380686
C        63.86523852702822    0.02390017259363   -0.00246830099058
C        63.04923910001383   -1.12507971091642    0.07516562678673
C        63.47129494465232   -2.34900098196876   -0.50658737685908
C        62.47317121479123   -3.26434777373345   -0.30348012566852
C        61.43822918960368   -2.60181947629603    0.40505250011975
N        61.80327147693301   -1.29985395418848    0.61003053838775
C        60.26205172033678   -3.29849739393927    0.74646205083382
C        58.96369911096237   -2.83616834283923    0.66253587446590
N        58.77175354296708   -1.53926697729317    0.33675270107888
H        57.49954618509971   -4.52207716359448    1.07698293530935
H        55.68633262956038   -2.67234237994355    0.66492912444437
H        56.49114663650085    2.53156160759124    0.98477187972086
H        58.38700547551581    4.31858993586707    0.56856235207751
H        59.67424876126270    0.59335856074054   -1.12816855285938
H        60.51145289619892    4.35733946976119   -1.13122551014193
H        63.42443286116043    4.53971160478956   -0.97690187750264
H        65.22272454523973    2.72186357521740   -0.55788188899078
H        64.93548220963392   -0.09970523420620    0.10695501197515
H        64.39749832438501   -2.52804821952981   -1.03669115786092
H        62.47010433758770   -4.29175495052443   -0.64479177158361
H        61.25357404602082   -0.58815152162402    1.13983572080173
H        60.35871693513437   -4.33502426544794    1.06894176670455
C        32.96923509904259   -0.00165016685523    0.00876055165024
C        34.19379729935859    0.01397918856203   -0.01174776713193
C        43.41516016884367    0.00029475945500    0.01963021966167
C        44.60418685884154    0.01614552247155   -0.01502811741156
C        53.82316322902677    0.00185400811824    0.01901958876247
C        55.04830805854828    0.00958863042908    0.00565291090552
C        36.11735127966055   -3.59675592728865   -0.00462098651496
C        35.20638578425057   -2.60447080591303   -0.00616340391763
C        35.94276630101211   -1.35195323516904    0.01912137479940
C        35.53770120842513   -0.02098541789921    0.00135845691459
C        36.30499699392674    1.13739941937293   -0.15961523279845
C        35.82864232706052    2.19978515402256   -0.95872524342987
C        36.81544185657587    3.15183815614099   -0.94789837447993
C        37.87683123011541    2.66405561790340   -0.14567387013346
N        37.54395459277954    1.42407143215697    0.31760595898593
C        39.05231578727066    3.42993384232002    0.01970521578441
C        40.33994534309026    2.95347129753980   -0.00379266008184
C        41.64848683985839    3.60066305797329   -0.07532169073829
C        42.57303884838243    2.61994896134689   -0.08775313905457
C        41.80734472010329    1.37780302432750   -0.04215240167096
N        40.52491834158624    1.62002027656578    0.00154826495587
C        42.14228028369761    0.02378094450867   -0.00440465403224
C        41.42700774833208   -1.12834366959662    0.19263804246664
C        41.90628150258027   -2.15544102344671    1.03487538964144
C        40.91344631186669   -3.09870269962764    1.03884266211765
C        39.87296982581144   -2.63683528045475    0.19581093080982
N        40.21868516204838   -1.42157099470907   -0.30872007809585
C        38.70942684709092   -3.40553366396478    0.02372059614251
C        37.41901308900787   -2.93582779013087    0.00309529199610
N        37.25210251183626   -1.60019545757906    0.02622064494978
H        35.93741790360266   -4.65532069123855   -0.00638282142960
H        34.14064481010765   -2.76940895594785   -0.02651352533904
H        34.88594110886282    2.25562424360024   -1.48935735130509
H        36.78962674072423    4.09177797379556   -1.48036386297537
H        38.10454672330361    0.82451344715371    0.96077721857778
H        38.95999831880459    4.50240026968518    0.12653947875634
H        41.86668383788006    4.65109554403844   -0.11962889457381
H        43.64058461529191    2.75981571667534   -0.12167810006392
H        42.84038956032971   -2.19979622366106    1.58709375553788
H        40.92692863687159   -4.01126585391469    1.61252713593345
H        39.69112764606617   -0.83126141981444   -0.98461232599227
H        38.80552592124936   -4.48315166751099   -0.05183373210184
C        46.35108270254154   -3.60066942122847   -0.00463251630763
C        45.44546870050983   -2.60285448570223   -0.00719257773683
C        46.21809991317456   -1.36773373497709    0.01715513636383
C        45.87960986909526   -0.02407896611232   -0.00155683423233
C        46.57949909176324    1.14641685246079   -0.16831368771223
C        46.06968980346533    2.19763219538364   -0.95993634906107
C        47.04972989637184    3.15660351597911   -0.94680970240606
C        48.11498963518389    2.67250597373388   -0.14566704793235
N        47.79369743441433    1.43490865091451    0.31930920632944
C        49.28903757566101    3.42973383511815    0.01919745556980
C        50.57889023757474    2.94098223758540   -0.00351360840310
C        51.88270843609804    3.59647082490200   -0.07541814660747
C        52.81261954999659    2.62119938534153   -0.08884495842657
C        52.08104298595452    1.36285982392937   -0.04435412622992
N        50.77638319593147    1.60750893630128    0.00246391956998
C        52.48380768277536    0.02099007859383   -0.00713544328955
C        51.70172217264158   -1.11904669952848    0.18435429597089
C        52.14610031178783   -2.15693692808939    1.03409009610105
C        51.14748064493199   -3.09387169788073    1.03980676747142
C        50.11119013818222   -2.62850483128426    0.19553618655088
N        50.46843862458326   -1.41074615392970   -0.30691778118861
C        48.94615509130647   -3.40594450009228    0.02294800382695
C        47.65777905767300   -2.94837231392186    0.00337720456834
N        47.50318408840989   -1.61282238900298    0.02720647474046