152
 energy: -256.248017930835 gnorm: 0.000750097410 xtb: 6.4.1 (bd6e46d)
C        30.00180977691983    3.34335793202746    0.80913231894751
C        30.96196251676020    2.41804200562284    0.61723842831727
C        30.27156411236910    1.19280631133119    0.25715810136709
C        30.94087526095003   -0.01193499039742   -0.03565852144071
C        30.29349287645950   -1.21769265878700   -0.34963277850509
C        30.89759350770947   -2.46093627014657   -0.67700132899709
C        29.89482375868193   -3.35883693158054   -0.90364676978478
C        28.65555677824302   -2.68187712446529   -0.72562156230093
N        28.94898836700014   -1.39386595122837   -0.39484575049093
C        27.38893039925217   -3.23018260064620   -0.86420240116168
C        26.16911531286383   -2.58348832662372   -0.72258040418198
C        24.89385766907571   -3.26447561245721   -0.89522789065382
C        23.94137038412519   -2.33358873488104   -0.70184061335548
C        24.64207006756838   -1.09184563172975   -0.41300423158863
N        25.97845248061481   -1.28038674792723   -0.43017091164560
C        23.99254042291409    0.11053580485735   -0.16352239724173
C        24.61571442939572    1.31641186086950    0.11843803183974
C        24.00865524115900    2.57634791244096    0.38795960639906
C        25.00761031719517    3.47418646363237    0.62267567826649
C        26.25049810611341    2.78672593124121    0.50216882374211
N        25.96154031511422    1.49480108117611    0.19516794887972
C        27.51667964158672    3.32458106776216    0.67767965754046
C        28.73572792616375    2.67165687031832    0.57080530405815
N        28.94000916228826    1.37259732161490    0.24565608352553
H        30.10365281082998    4.37485706126427    1.08702377808875
H        32.02536009106920    2.51334093556568    0.71722119850779
H        31.95463641227879   -2.62928380859786   -0.74044981802433
H        29.99352818193685   -4.39234332480519   -1.17322878892153
H        28.27625996832251   -0.65836068014594   -0.21161501508831
H        27.35089272604402   -4.28070086958224   -1.11759844308652
H        24.78527153538552   -4.30611254172546   -1.13000822437496
H        22.87392029609484   -2.43719844808417   -0.74215618687382
H        22.91248201848376    0.10579540692917   -0.19014986840167
H        22.95117269580808    2.75607497947877    0.39881871212335
H        24.90759550397508    4.51595263012009    0.85871457622132
H        26.63273134958071    0.75163180011781    0.04270214677608
H        27.55708838615874    4.37465473436596    0.93294515589330
C        58.03737339023429   -3.42874656062600   -0.40354542616525
C        57.06629197877077   -2.50239828308930   -0.28510241821193
C        57.74581136290092   -1.23067879426083   -0.11288561142893
C        57.06503709246628   -0.00768059701039    0.03709615310261
C        57.69415881930372    1.23830465522583    0.18416819098560
C        57.06871911721350    2.50071767794384    0.36888301760444
C        58.05626135296505    3.43658205275482    0.47837493292205
C        59.30665487805657    2.76576081611721    0.36650643601867
N        59.03527530638858    1.44298016927160    0.19077816515380
C        60.56489387309436    3.34618670486612    0.42812307923104
C        61.79250322989851    2.70508542298848    0.33698748381117
C        63.05964148336109    3.41753818131694    0.41678968094043
C        64.02298933268686    2.48559536164863    0.29606332858841
C        63.33689338708300    1.21173345092546    0.14379812789450
N        61.99832007364255    1.38197813763848    0.17213481680189
C        64.00162967909206    0.00139158740886   -0.00813712213258
C        63.39609043767189   -1.23712038366876   -0.15425406403995
C        64.02353612094761   -2.50525797431191   -0.31884855979772
C        63.03915818441153   -3.44256240995185   -0.42570059216224
C        61.78492571222863   -2.77214358671631   -0.32883556465187
N        62.05309197290752   -1.44971005810354   -0.16617789830519
C        60.52642653755536   -3.35123702395054   -0.39217696987097
C        59.29801872300538   -2.71257892448197   -0.30548497070324
N        59.08036623963797   -1.38735070717852   -0.13146534443235
H        57.94625706827242   -4.48842355302974   -0.54645171581600
H        56.00134157677976   -2.62681598674517   -0.31958356384521
H        56.00875476935323    2.65562119003620    0.42138737748260
H        57.94036662501409    4.49255341408380    0.62682471151108
H        59.72181373956882    0.70511978380575    0.08552666702319
H        60.58890578776222    4.41836461026510    0.56573820264390
H        63.15583416013382    4.47855735529139    0.54683442712537
H        65.08921475410551    2.60763337625467    0.30512103790527
H        65.08176095070340    0.02689131315881   -0.01360986937368
H        65.08406756058157   -2.66338505073304   -0.35035213528045
H        63.15616819508472   -4.50054269782345   -0.55973364216665
H        61.36818015031903   -0.71033615602994   -0.06609528256844
H        60.50075015659374   -4.42360829299591   -0.52894270013457
C        32.34118078656211   -0.01139471853439   -0.01640575601159
C        33.55476888012277    0.01419596681304    0.00183363514355
C        43.40539459851843   -0.00906024399206    0.05872492435265
C        44.61963139572626    0.00934806861911    0.04887210088050
C        54.45075365398604   -0.04150157724600    0.03638040403167
C        55.66386606937016   -0.02539317521125    0.03946906575309
C        35.94829442033901   -3.36377981825385    0.63607690728605
C        34.96983945214681   -2.44867275280518    0.49199360086207
C        35.63774165571447   -1.18549855476254    0.24125995541330
C        34.95391511442214    0.02583051463307    0.01781767560309
C        35.60413126590119    1.25385297152768   -0.18856180320283
C        35.01615839154566    2.52063849415169   -0.44058243791947
C        36.03123444613086    3.42687873709785   -0.55578111876346
C        37.26031368947788    2.73085076070985   -0.38382272844806
N        36.95024767953482    1.42278624597600   -0.17058130280646
C        38.52836453111895    3.29480037157210   -0.41842573300164
C        39.75632701668759    2.66723746513913   -0.28546194563180
C        41.01029266132517    3.40050959716300   -0.32171521272345
C        41.98835541249818    2.48391911129077   -0.18524860758711
C        41.32113590878409    1.20063303261197   -0.07318566919484
N        39.98608479955526    1.34170885478948   -0.12486324616441
C        42.00696289568908   -0.02278114942500    0.06598133027756
C        41.35729820204297   -1.25992577953278    0.21322615418247
C        41.94535105084852   -2.54492233261176    0.34199648658009
C        40.93007064510493   -3.44773501722789    0.48027936017232
C        39.70043560604293   -2.73344382568432    0.43126729000898
N        40.01084236626689   -1.41857506607827    0.26396189062390
C        38.43172491234267   -3.28534943135639    0.54454352251853
C        37.20303278947320   -2.64825015988689    0.47685848021084
N        36.97351292804239   -1.33300542057740    0.24833170149546
H        35.86561618656521   -4.41533743643695    0.83351755108405
H        33.90696565256307   -2.57525380941167    0.55834468474918
H        33.96325583733562    2.70085811391623   -0.53238382790870
H        35.94663626852083    4.47920033122399   -0.74566089003035
H        37.59619905578289    0.65489457211004   -0.02076854445712
H        38.55847458364987    4.36523132771064   -0.57186203408329
H        41.09267551924051    4.46470734200434   -0.43248562825212
H        43.05040516257211    2.62590557582840   -0.14328556801254
H        42.99874820466194   -2.74249104362459    0.31759220399931
H        41.01508332424248   -4.51014859179726    0.60137088983860
H        39.36338518843200   -0.64204247923216    0.18002924424668
H        38.40129199613531   -4.35490709796168    0.70402893759687
C        47.00185910059371   -3.01740117739103    1.67324340250575
C        46.02825861224216   -2.18122001921210    1.26341955973349
C        46.70095503070990   -1.06821216920637    0.62021110965119
C        46.01828534446763    0.01954278087524    0.03950538554604
C        46.66704682894240    1.11533456114089   -0.55412478990410
C        46.07476245054045    2.23632183667344   -1.19195444776396
C        47.08703815249498    3.04927253118055   -1.61536773019929
C        48.31908886088517    2.43869893542706   -1.24991180462581
N        48.01301492132949    1.27413108987238   -0.61447826720782
C        49.58768174144898    2.94260976922734   -1.50179615372288
C        50.81481674293639    2.37786085445303   -1.19237873795376
C        52.07373118225078    3.02021852057131   -1.53096922240174
C        53.04782124963782    2.19324771350742   -1.10347345433525
C        52.37213979839735    1.05527880072206   -0.50784081015578
N        51.03693603965987    1.19371334856878   -0.57370231381569
C        53.05060489034599   -0.05121959494018    0.03771041906984
C        52.40324833184424   -1.17057161638498    0.58429302662785
C        52.99841176475792   -2.31887976859202    1.16940640568419
C        51.98660557819557   -3.13605751695899    1.58579924103604
C        50.75326969874607   -2.50154733042086    1.26781724779556
N        51.05721778420621   -1.32153847235195    0.66136131155168
C        49.48471088879134   -2.98995933619622    1.54886510304858
C        48.25874036014591   -2.40183873289366    1.28273309796703
N        48.03505872448675   -1.22251872173193    0.65396948490017
H        46.91483375817563   -3.95315015926686    2.19129187015356
H        44.96603701865034   -2.26631273584018    1.38251950442937
H        45.02028105999151    2.38346403339256   -1.31754847430519
H        46.99851683064489    3.98288161201988   -2.13604211761344
H        48.66713011147526    0.59740304867475   -0.23682662808634
H        49.61960925025579    3.89601511885074   -2.01181997340999
H        52.16192157210186    3.96709046121868   -2.02824703079294
H        54.11240713394140    2.30092241037961   -1.17997187523095
H        54.05442292116967   -2.48030553166271    1.26385162974816
H        52.07605369125559   -4.08783497608890    2.07229224703742
H        50.40336473145946   -0.62843804179178    0.31406149990415
H        49.45231618700024   -3.94864217895212    2.04874182725592
