      -----------------------------------------------------------      
     |                   =====================                   |     
     |                           x T B                           |     
     |                   =====================                   |     
     |                         S. Grimme                         |     
     |          Mulliken Center for Theoretical Chemistry        |     
     |                    University of Bonn                     |     
      -----------------------------------------------------------      

   * xtb version 6.4.1 (bd6e46d) compiled by 'conda@4901f00b25ba' on 2021-06-10

   xtb is free software: you can redistribute it and/or modify it under
   the terms of the GNU Lesser General Public License as published by
   the Free Software Foundation, either version 3 of the License, or
   (at your option) any later version.
   
   xtb is distributed in the hope that it will be useful,
   but WITHOUT ANY WARRANTY; without even the implied warranty of
   MERCHANTABILITY or FITNESS FOR A PARTICULAR PURPOSE.  See the
   GNU Lesser General Public License for more details.
   
   Cite this work as:
   * C. Bannwarth, E. Caldeweyher, S. Ehlert, A. Hansen, P. Pracht,
     J. Seibert, S. Spicher, S. Grimme, WIREs Comput. Mol. Sci., 2020, 11,
     e01493. DOI: 10.1002/wcms.1493
   
   for GFN2-xTB:
   * C. Bannwarth, S. Ehlert and S. Grimme., J. Chem. Theory Comput., 2019,
     15, 1652-1671. DOI: 10.1021/acs.jctc.8b01176
   for GFN1-xTB:
   * S. Grimme, C. Bannwarth, P. Shushkov, J. Chem. Theory Comput., 2017,
     13, 1989-2009. DOI: 10.1021/acs.jctc.7b00118
   for GFN0-xTB:
   * P. Pracht, E. Caldeweyher, S. Ehlert, S. Grimme, ChemRxiv, 2019, preprint.
     DOI: 10.26434/chemrxiv.8326202.v1
   for GFN-FF:
   * S. Spicher and S. Grimme, Angew. Chem. Int. Ed., 2020, 59, 15665-15673.
     DOI: 10.1002/anie.202004239
   
   for DFT-D4:
   * E. Caldeweyher, C. Bannwarth and S. Grimme, J. Chem. Phys., 2017,
     147, 034112. DOI: 10.1063/1.4993215
   * E. Caldeweyher, S. Ehlert, A. Hansen, H. Neugebauer, S. Spicher,
     C. Bannwarth and S. Grimme, J. Chem. Phys., 2019, 150, 154122.
     DOI: 10.1063/1.5090222
   * E. Caldeweyher, J.-M. Mewes, S. Ehlert and S. Grimme, Phys. Chem. Chem. Phys.
     2020, 22, 8499-8512. DOI: 10.1039/D0CP00502A
   
   for sTDA-xTB:
   * S. Grimme and C. Bannwarth, J. Chem. Phys., 2016, 145, 054103.
     DOI: 10.1063/1.4959605
   
   in the mass-spec context:
   * V. Asgeirsson, C. Bauer and S. Grimme, Chem. Sci., 2017, 8, 4879.
     DOI: 10.1039/c7sc00601b
   * J. Koopman and S. Grimme, ACS Omega 2019, 4, 12, 15120-15133.
     DOI: 10.1021/acsomega.9b02011
   
   for metadynamics refer to:
   * S. Grimme, J. Chem. Theory Comput., 2019, 155, 2847-2862
     DOI: 10.1021/acs.jctc.9b00143
   
   for SPH calculations refer to:
   * S. Spicher and S. Grimme, J. Chem. Theory Comput., 2021, 17, 1701-1714
     DOI: 10.1021/acs.jctc.0c01306
   
   with help from (in alphabetical order)
   P. Atkinson, C. Bannwarth, F. Bohle, G. Brandenburg, E. Caldeweyher
   M. Checinski, S. Dohm, S. Ehlert, S. Ehrlich, I. Gerasimov, J. Koopman
   C. Lavigne, S. Lehtola, F. März, M. Müller, F. Musil, H. Neugebauer
   J. Pisarek, C. Plett, P. Pracht, J. Seibert, P. Shushkov, S. Spicher
   M. Stahn, M. Steiner, T. Strunk, J. Stückrath, T. Rose, and J. Unsleber
   
 * started run on 2021/11/20 at 14:48:34.739     

           -------------------------------------------------
          |                Calculation Setup                |
           -------------------------------------------------

          program call               : /home/jeff/miniconda3/bin/xtb input_structure_1.xyz --gfn 2 --ohess normal --parallel 1 --etemp 300 --chrg 0 --uhf 0 -I det_control.in
          hostname                   : jelfscompute1
          coordinate file            : input_structure_1.xyz
          omp threads                :                     1
          number of atoms            :                   271
          number of electrons        :                   931
          charge                     :                     0
          spin                       :                   0.5
          first test random number   :      0.30479003002564

   ID    Z sym.   atoms
    1   27 Co     1, 37, 97, 132, 167, 202, 237
    2    6 C      2-9, 11-15, 17-21, 23, 24, 38-45, 47-51, 53-57, 59, 60,
                  73-96, 98-105, 107-111, 113-117, 119, 120, 133-140,
                  142-146, 148-152, 154, 155, 168-175, 177-181, 183-187, 189,
                  190, 203-210, 212-216, 218-222, 224, 225, 238-245, 247-251,
                  253-257, 259, 260
    3    7 N      10, 16, 22, 25, 46, 52, 58, 61, 106, 112, 118, 121, 141,
                  147, 153, 156, 176, 182, 188, 191, 211, 217, 223, 226, 246,
                  252, 258, 261
    4    1 H      26-36, 62-72, 122-131, 157-166, 192-201, 227-236, 262-271

molecular fragmentation (1/2 indicates fragments):
111111111111111111111111111111111111222222222222222222222222222222222222
222222222222222222222222222222222222222222222222222222222222222222222222
222222222222222222222222222222222222222222222222222222222222222222222222
2222222222222222222222222222222222222222222222222222222
# atoms in fragment 1/2:    36   235
 fragment masses (1/2) :      366.26     2480.79
CMA distance (Bohr)    :  90.342
constraining FC (au)   :  0.0500

           -------------------------------------------------
          |                 G F N 2 - x T B                 |
           -------------------------------------------------

        Reference                      10.1021/acs.jctc.8b01176
      * Hamiltonian:
        H0-scaling (s, p, d)           1.850000    2.230000    2.230000
        zeta-weighting                 0.500000
      * Dispersion:
        s8                             2.700000
        a1                             0.520000
        a2                             5.000000
        s9                             5.000000
      * Repulsion:
        kExp                           1.500000    1.000000
        rExp                           1.000000
      * Coulomb:
        alpha                          2.000000
        third order                    shell-resolved
        anisotropic                    true
        a3                             3.000000
        a5                             4.000000
        cn-shift                       1.200000
        cn-exp                         4.000000
        max-rad                        5.000000


          ...................................................
          :                      SETUP                      :
          :.................................................:
          :  # basis functions                 910          :
          :  # atomic orbitals                 903          :
          :  # shells                          477          :
          :  # electrons                       931          :
          :  max. iterations                   250          :
          :  Hamiltonian                  GFN2-xTB          :
          :  restarted?                      false          :
          :  GBSA solvation                  false          :
          :  PC potential                    false          :
          :  electronic temp.          300.0000000     K    :
          :  accuracy                    1.0000000          :
          :  -> integral cutoff          0.2500000E+02      :
          :  -> integral neglect         0.1000000E-07      :
          :  -> SCF convergence          0.1000000E-05 Eh   :
          :  -> wf. convergence          0.1000000E-03 e    :
          :  Broyden damping             0.4000000          :
          ...................................................

 iter      E             dE          RMSdq      gap      omega  full diag
   1   -498.4718802 -0.498472E+03  0.891E+00    0.00       0.0  T
   2   -440.2638287  0.582081E+02  0.131E+01    0.04       1.0  T
   3   -476.4558713 -0.361920E+02  0.793E+00    0.06       1.0  T
   4   -442.0397149  0.344162E+02  0.813E+00    0.05       1.0  T
   5    -78.8406812  0.363199E+03  0.158E+01    0.03       1.0  T
   6   -394.9860137 -0.316145E+03  0.759E+00    0.03       1.0  T
   7   -443.4480964 -0.484621E+02  0.733E+00    0.01       1.0  T
   8   -467.0592042 -0.236111E+02  0.696E+00    0.04       1.0  T
   9   -475.6169137 -0.855771E+01  0.599E+00    0.02       1.0  T
  10   -479.5918635 -0.397495E+01  0.607E+00    0.09       1.0  T
  11   -497.7488776 -0.181570E+02  0.400E+00    0.06       1.0  T
  12   -498.5246740 -0.775796E+00  0.374E+00    0.02       1.0  T
  13   -499.4993095 -0.974636E+00  0.353E+00    0.01       1.0  T
  14   -500.1333885 -0.634079E+00  0.341E+00    0.01       1.0  T
  15   -500.0749628  0.584257E-01  0.332E+00    0.05       1.0  T
  16   -500.2729692 -0.198006E+00  0.328E+00    0.02       1.0  T
  17   -500.4460659 -0.173097E+00  0.325E+00    0.01       1.0  T
  18   -500.4304464  0.156196E-01  0.324E+00    0.01       1.0  T
  19   -500.3381805  0.922659E-01  0.327E+00    0.02       1.0  T
  20   -499.5567653  0.781415E+00  0.304E+00    0.04       1.0  T
  21   -500.0080952 -0.451330E+00  0.299E+00    0.06       1.0  T
  22   -499.9040032  0.104092E+00  0.302E+00    0.07       1.0  T
  23   -499.8972975  0.670577E-02  0.303E+00    0.07       1.0  T
  24   -499.9161692 -0.188717E-01  0.302E+00    0.07       1.0  T
  25   -499.6440430  0.272126E+00  0.293E+00    0.07       1.0  T
  26   -495.1158378  0.452821E+01  0.387E+00    0.06       1.0  T
  27   -499.2649689 -0.414913E+01  0.281E+00    0.00       1.0  T
  28   -499.8753513 -0.610382E+00  0.236E+00    0.01       1.0  T
  29   -499.8826701 -0.731882E-02  0.227E+00    0.01       1.0  T
  30   -496.8412914  0.304138E+01  0.311E+00    0.03       1.0  T
  31   -496.2228145  0.618477E+00  0.290E+00    0.00       1.0  T
  32   -496.9011217 -0.678307E+00  0.268E+00    0.01       1.0  T
  33   -494.4119936  0.248913E+01  0.331E+00    0.01       1.0  T
  34   -488.0051247  0.640687E+01  0.514E+00    0.04       1.0  T
  35   -488.8986064 -0.893482E+00  0.512E+00    0.01       1.0  T
  36   -488.7352421  0.163364E+00  0.513E+00    0.00       1.0  T
  37   -488.5947424  0.140500E+00  0.515E+00    0.00       1.0  T
  38   -482.1187206  0.647602E+01  0.607E+00    0.02       1.0  T
  39   -484.8481135 -0.272939E+01  0.564E+00    0.01       1.0  T
  40   -484.8254205  0.226930E-01  0.564E+00    0.02       1.0  T
  41   -484.9757995 -0.150379E+00  0.563E+00    0.01       1.0  T
  42   -482.6483110  0.232749E+01  0.592E+00    0.04       1.0  T
  43   -482.7048611 -0.565500E-01  0.591E+00    0.04       1.0  T
  44   -482.9181089 -0.213248E+00  0.589E+00    0.04       1.0  T
  45   -488.5536754 -0.563557E+01  0.514E+00    0.03       1.0  T
  46   -486.8619202  0.169176E+01  0.534E+00    0.04       1.0  T
  47   -488.0263404 -0.116442E+01  0.518E+00    0.03       1.0  T
  48   -485.2069790  0.281936E+01  0.562E+00    0.01       1.0  T
  49   -486.4604485 -0.125347E+01  0.553E+00    0.02       1.0  T
  50   -483.7186954  0.274175E+01  0.589E+00    0.02       1.0  T
  51   -483.3798803  0.338815E+00  0.595E+00    0.02       1.0  T
  52   -482.1392502  0.124063E+01  0.598E+00    0.01       1.0  T
  53   -483.0033553 -0.864105E+00  0.586E+00    0.01       1.0  T
  54   -479.4286615  0.357469E+01  0.668E+00    0.05       1.0  T
  55   -478.1660776  0.126258E+01  0.686E+00    0.02       1.0  T
  56   -478.4152244 -0.249147E+00  0.683E+00    0.04       1.0  T
  57   -479.6114946 -0.119627E+01  0.667E+00    0.04       1.0  T
  58   -483.3516278 -0.374013E+01  0.607E+00    0.01       1.0  T
  59   -490.3431060 -0.699148E+01  0.521E+00    0.02       1.0  T
  60   -490.3361812  0.692476E-02  0.517E+00    0.02       1.0  T
  61   -490.3658025 -0.296212E-01  0.516E+00    0.01       1.0  T
  62   -492.1777687 -0.181197E+01  0.499E+00    0.02       1.0  T
  63   -492.2239185 -0.461497E-01  0.498E+00    0.02       1.0  T
  64   -492.3270560 -0.103138E+00  0.495E+00    0.02       1.0  T
  65   -495.3928014 -0.306575E+01  0.418E+00    0.03       1.0  T
  66   -497.3513245 -0.195852E+01  0.364E+00    0.02       1.0  T
  67   -497.5395742 -0.188250E+00  0.358E+00    0.02       1.0  T
  68   -497.5775531 -0.379790E-01  0.357E+00    0.02       1.0  T
  69   -497.9289254 -0.351372E+00  0.332E+00    0.01       1.0  T
  70   -495.3620182  0.256691E+01  0.388E+00    0.00       1.0  T
  71   -497.1447030 -0.178268E+01  0.339E+00    0.02       1.0  T
  72   -496.4696292  0.675074E+00  0.361E+00    0.02       1.0  T
  73   -496.6728350 -0.203206E+00  0.351E+00    0.03       1.0  T
  74   -498.4948686 -0.182203E+01  0.295E+00    0.01       1.0  T
  75   -497.4951546  0.999714E+00  0.314E+00    0.02       1.0  T
  76   -497.4107693  0.843853E-01  0.317E+00    0.02       1.0  T
  77   -498.2951126 -0.884343E+00  0.291E+00    0.01       1.0  T
  78   -498.0934227  0.201690E+00  0.298E+00    0.01       1.0  T
  79   -498.7432762 -0.649854E+00  0.284E+00    0.02       1.0  T
  80   -497.8672710  0.876005E+00  0.305E+00    0.05       1.0  T
  81   -498.4045045 -0.537234E+00  0.290E+00    0.05       1.0  T
  82   -499.0728737 -0.668369E+00  0.266E+00    0.03       1.0  T
  83   -498.4546466  0.618227E+00  0.286E+00    0.05       1.0  T
  84   -498.4989333 -0.442867E-01  0.280E+00    0.05       1.0  T
  85   -501.1710122 -0.267208E+01  0.177E+00    0.00       1.0  T
  86   -500.9391291  0.231883E+00  0.191E+00    0.01       1.0  T
  87   -501.0269083 -0.877792E-01  0.186E+00    0.01       1.0  T
  88   -501.3500188 -0.323110E+00  0.173E+00    0.01       1.0  T
  89   -501.2978509  0.521679E-01  0.176E+00    0.00       1.0  T
  90   -498.0204457  0.327741E+01  0.319E+00    0.03       1.0  T
  91   -497.2825643  0.737881E+00  0.345E+00    0.03       1.0  T
  92   -497.6199400 -0.337376E+00  0.334E+00    0.03       1.0  T
  93   -499.7770468 -0.215711E+01  0.251E+00    0.01       1.0  T
  94   -500.0093799 -0.232333E+00  0.240E+00    0.01       1.0  T
  95   -499.8815204  0.127859E+00  0.246E+00    0.01       1.0  T
  96   -500.1021800 -0.220660E+00  0.236E+00    0.02       1.0  T
  97   -499.7601018  0.342078E+00  0.253E+00    0.00       1.0  T
  98   -499.0071583  0.752944E+00  0.286E+00    0.02       1.0  T
  99   -500.6541161 -0.164696E+01  0.216E+00    0.01       1.0  T
 100   -500.0243741  0.629742E+00  0.246E+00    0.03       1.0  T
 101   -501.6093408 -0.158497E+01  0.167E+00    0.00       1.0  T
 102   -501.7353969 -0.126056E+00  0.161E+00    0.00       1.0  T
 103   -501.5917724  0.143624E+00  0.170E+00    0.00       1.0  T
 104   -501.0714200  0.520352E+00  0.200E+00    0.02       1.0  T
 105   -501.1401022 -0.686821E-01  0.195E+00    0.02       1.0  T
 106   -500.9052866  0.234816E+00  0.209E+00    0.02       1.0  T
 107   -501.5067467 -0.601460E+00  0.172E+00    0.01       1.0  T
 108   -501.1076722  0.399074E+00  0.194E+00    0.02       1.0  T
 109   -500.6174980  0.490174E+00  0.213E+00    0.00       1.0  T
 110   -500.9213395 -0.303841E+00  0.198E+00    0.00       1.0  T
 111   -500.2750029  0.646337E+00  0.230E+00    0.00       1.0  T
 112   -500.5739646 -0.298962E+00  0.216E+00    0.01       1.0  T
 113   -500.2678525  0.306112E+00  0.230E+00    0.01       1.0  T
 114   -500.5981063 -0.330254E+00  0.218E+00    0.01       1.0  T
 115   -500.5728862  0.252201E-01  0.218E+00    0.01       1.0  T
 116   -500.6511306 -0.782444E-01  0.215E+00    0.01       1.0  T
 117   -500.6338968  0.172338E-01  0.216E+00    0.01       1.0  T
 118   -500.7240046 -0.901078E-01  0.212E+00    0.00       1.0  T
 119   -500.7240229 -0.182204E-04  0.211E+00    0.00       1.0  T
 120   -500.9890852 -0.265062E+00  0.196E+00    0.00       1.0  T
 121   -501.0422078 -0.531226E-01  0.194E+00    0.01       1.0  T
 122   -501.1511923 -0.108985E+00  0.188E+00    0.01       1.0  T
 123   -501.6492014 -0.498009E+00  0.154E+00    0.01       1.0  T
 124   -502.0150284 -0.365827E+00  0.129E+00    0.01       1.0  T
 125   -502.0413978 -0.263694E-01  0.123E+00    0.00       1.0  T
 126   -502.0030970  0.383008E-01  0.126E+00    0.00       1.0  T
 127   -501.9677537  0.353433E-01  0.127E+00    0.00       1.0  T
 128   -502.0092415 -0.414878E-01  0.124E+00    0.00       1.0  T
 129   -501.9476691  0.615724E-01  0.124E+00    0.00       1.0  T
 130   -501.8808321  0.668371E-01  0.125E+00    0.01       1.0  T
 131   -502.1875067 -0.306675E+00  0.102E+00    0.01       1.0  T
 132   -502.0467712  0.140735E+00  0.115E+00    0.00       1.0  T
 133   -502.2533999 -0.206629E+00  0.938E-01    0.00       1.0  T
 134   -502.2470797  0.632020E-02  0.965E-01    0.00       1.0  T
 135   -502.2554331 -0.835337E-02  0.965E-01    0.00       1.0  T
 136   -502.3119826 -0.565495E-01  0.924E-01    0.01       1.0  T
 137   -502.3135649 -0.158233E-02  0.940E-01    0.00       1.0  T
 138   -502.1456870  0.167878E+00  0.108E+00    0.00       1.0  T
 139   -501.9643306  0.181356E+00  0.122E+00    0.00       1.0  T
 140   -502.0066608 -0.423302E-01  0.118E+00    0.00       1.0  T
 141   -502.1013315 -0.946706E-01  0.109E+00    0.00       1.0  T
 142   -502.0515652  0.497662E-01  0.112E+00    0.00       1.0  T
 143   -501.9635742  0.879910E-01  0.120E+00    0.01       1.0  T
 144   -502.1178949 -0.154321E+00  0.108E+00    0.01       1.0  T
 145   -502.1838651 -0.659701E-01  0.102E+00    0.01       1.0  T
 146   -502.3237164 -0.139851E+00  0.944E-01    0.01       1.0  T
 147   -502.2600324  0.636840E-01  0.987E-01    0.01       1.0  T
 148   -502.3116251 -0.515926E-01  0.994E-01    0.00       1.0  T
 149   -502.2687595  0.428656E-01  0.101E+00    0.00       1.0  T
 150   -502.2213571  0.474024E-01  0.106E+00    0.00       1.0  T
 151   -502.1960697  0.252874E-01  0.108E+00    0.01       1.0  T
 152   -502.2369498 -0.408801E-01  0.111E+00    0.00       1.0  T
 153   -502.3200530 -0.831033E-01  0.103E+00    0.00       1.0  T
 154   -502.3816347 -0.615816E-01  0.957E-01    0.00       1.0  T
 155   -502.3749380  0.669661E-02  0.977E-01    0.00       1.0  T
 156   -502.3895646 -0.146266E-01  0.966E-01    0.00       1.0  T
 157   -502.3888092  0.755395E-03  0.968E-01    0.00       1.0  T
 158   -502.3903657 -0.155646E-02  0.960E-01    0.00       1.0  T
 159   -502.2733677  0.116998E+00  0.108E+00    0.00       1.0  T
 160   -502.2449148  0.284529E-01  0.110E+00    0.00       1.0  T
 161   -502.3543841 -0.109469E+00  0.953E-01    0.01       1.0  T
 162   -502.3532582  0.112588E-02  0.946E-01    0.01       1.0  T
 163   -502.3983830 -0.451248E-01  0.876E-01    0.01       1.0  T
 164   -502.3526541  0.457290E-01  0.931E-01    0.00       1.0  T
 165   -502.3171076  0.355464E-01  0.968E-01    0.00       1.0  T
 166   -502.3205495 -0.344190E-02  0.963E-01    0.00       1.0  T
 167   -502.3240647 -0.351512E-02  0.958E-01    0.00       1.0  T
 168   -502.3588328 -0.347682E-01  0.910E-01    0.00       1.0  T
 169   -502.4241375 -0.653047E-01  0.811E-01    0.00       1.0  T
 170   -502.4184122  0.572533E-02  0.808E-01    0.00       1.0  T
 171   -502.4527479 -0.343357E-01  0.737E-01    0.00       1.0  T
 172   -502.4350033  0.177445E-01  0.748E-01    0.00       1.0  T
 173   -502.4577383 -0.227350E-01  0.696E-01    0.00       1.0  T
 174   -502.5220210 -0.642828E-01  0.552E-01    0.00       1.0  T
 175   -502.5386333 -0.166122E-01  0.506E-01    0.00       1.0  T
 176   -502.5581600 -0.195267E-01  0.453E-01    0.00       1.0  T
 177   -502.5770055 -0.188455E-01  0.392E-01    0.00       1.0  T
 178   -502.5789929 -0.198744E-02  0.389E-01    0.00       1.0  T
 179   -502.5869019 -0.790897E-02  0.349E-01    0.00       1.0  T
 180   -502.5945284 -0.762646E-02  0.296E-01    0.00       1.0  T
 181   -502.6068199 -0.122915E-01  0.225E-01    0.00       1.0  T
 182   -502.6077243 -0.904354E-03  0.217E-01    0.00       1.0  T
 183   -502.6071541  0.570188E-03  0.222E-01    0.00       1.0  T
 184   -502.6126660 -0.551192E-02  0.175E-01    0.00       1.0  T
 185   -502.6142177 -0.155165E-02  0.150E-01    0.00       1.0  T
 186   -502.6154092 -0.119151E-02  0.120E-01    0.00       1.0  T
 187   -502.6175212 -0.211205E-02  0.984E-02    0.00       1.0  T
 188   -502.6167057  0.815550E-03  0.110E-01    0.00       1.0  T
 189   -502.6172346 -0.528949E-03  0.103E-01    0.00       1.0  T
 190   -502.6154360  0.179866E-02  0.122E-01    0.00       1.0  T
 191   -502.6178125 -0.237652E-02  0.873E-02    0.00       1.0  T
 192   -502.6167176  0.109492E-02  0.100E-01    0.00       1.0  T
 193   -502.6177696 -0.105200E-02  0.845E-02    0.00       1.0  T
 194   -502.6177058  0.637720E-04  0.844E-02    0.00       1.0  T
 195   -502.6181792 -0.473388E-03  0.743E-02    0.00       1.0  T
 196   -502.6177404  0.438732E-03  0.799E-02    0.00       1.0  T
 197   -502.6183750 -0.634596E-03  0.667E-02    0.00       1.0  T
 198   -502.6182718  0.103281E-03  0.674E-02    0.00       1.0  T
 199   -502.6190711 -0.799295E-03  0.515E-02    0.00       1.0  T
 200   -502.6189486  0.122424E-03  0.537E-02    0.00       1.0  T
 201   -502.6192710 -0.322345E-03  0.447E-02    0.00       1.0  T
 202   -502.6193125 -0.415592E-04  0.419E-02    0.00       1.0  T
 203   -502.6194595 -0.146979E-03  0.374E-02    0.00       1.0  T
 204   -502.6196529 -0.193362E-03  0.312E-02    0.00       1.0  T
 205   -502.6198403 -0.187399E-03  0.234E-02    0.00       1.0  T
 206   -502.6198480 -0.770864E-05  0.227E-02    0.00       1.0  T
 207   -502.6198794 -0.313926E-04  0.206E-02    0.00       1.0  T
 208   -502.6199013 -0.219324E-04  0.186E-02    0.00       1.0  T
 209   -502.6198762  0.250936E-04  0.199E-02    0.00       1.0  T
 210   -502.6199436 -0.674191E-04  0.146E-02    0.00       1.0  T
 211   -502.6199431  0.535312E-06  0.145E-02    0.00       1.0  T
 212   -502.6199717 -0.285956E-04  0.118E-02    0.00       1.0  T
 213   -502.6199881 -0.164543E-04  0.101E-02    0.00       1.0  T
 214   -502.6199983 -0.102007E-04  0.883E-03    0.00       1.0  T
 215   -502.6200072 -0.881768E-05  0.744E-03    0.00       1.0  T
 216   -502.6200051  0.207119E-05  0.753E-03    0.00       1.0  T
 217   -502.6200057 -0.562138E-06  0.723E-03    0.00       1.0  T
 218   -502.6200091 -0.347845E-05  0.644E-03    0.00       1.0  T
 219   -502.6200095 -0.386596E-06  0.611E-03    0.00       1.0  T
 220   -502.6200145 -0.502679E-05  0.493E-03    0.00       1.2  T
 221   -502.6200162 -0.163849E-05  0.436E-03    0.00       1.4  T
 222   -502.6200175 -0.131068E-05  0.380E-03    0.00       1.6  T
 223   -502.6200181 -0.645241E-06  0.347E-03    0.00       1.8  T
 224   -502.6200184 -0.300381E-06  0.326E-03    0.00       1.9  T
 225   -502.6200190 -0.577315E-06  0.298E-03    0.00       2.0  T
 226   -502.6200203 -0.132976E-05  0.237E-03    0.00       2.6  T
 227   -502.6200212 -0.857851E-06  0.189E-03    0.00       3.2  T
 228   -502.6200215 -0.286173E-06  0.169E-03    0.00       3.6  T
 229   -502.6200219 -0.360176E-06  0.138E-03    0.00       4.4  T
 230   -502.6200221 -0.273491E-06  0.112E-03    0.00       5.4  T
 231   -502.6200224 -0.264390E-06  0.764E-04    0.00       7.9  T
 232   -502.6200224 -0.531981E-08  0.744E-04    0.00       8.2  T

   *** convergence criteria satisfied after 232 iterations ***

         #    Occupation            Energy/Eh            Energy/eV
      -------------------------------------------------------------
         1        2.0000           -0.6829169             -18.5831
       ...           ...                  ...                  ...
       460        1.7053           -0.3467537              -9.4356
       461        1.6811           -0.3466651              -9.4332
       462        1.6736           -0.3466384              -9.4325
       463        1.5705           -0.3463156              -9.4237
       464        1.5681           -0.3463089              -9.4235
       465        1.4015           -0.3458894              -9.4121
       466        1.3901           -0.3458635              -9.4114 (HOMO)
       467        1.3849           -0.3458518              -9.4111 (LUMO)
       468        1.3228           -0.3457160              -9.4074
       469        1.2729           -0.3456111              -9.4046
       470        0.0001           -0.3359342              -9.1412
       471        0.0001           -0.3358919              -9.1401
       ...           ...                  ...                  ...
       903                          1.6140070              43.9194
      -------------------------------------------------------------
                  HL-Gap            0.0000117 Eh            0.0003 eV
             Fermi-level           -0.3450746 Eh           -9.3900 eV

 SCC (total)                   0 d,  0 h,  1 min,  1.375 sec
 SCC setup                      ...        0 min,  0.013 sec (  0.021%)
 Dispersion                     ...        0 min,  0.025 sec (  0.041%)
 classical contributions        ...        0 min,  0.002 sec (  0.004%)
 integral evaluation            ...        0 min,  0.206 sec (  0.336%)
 iterations                     ...        1 min,  0.576 sec ( 98.698%)
 molecular gradient             ...        0 min,  0.517 sec (  0.843%)
 printout                       ...        0 min,  0.035 sec (  0.057%)

         :::::::::::::::::::::::::::::::::::::::::::::::::::::
         ::                     SUMMARY                     ::
         :::::::::::::::::::::::::::::::::::::::::::::::::::::
         :: total energy            -493.474682462651 Eh    ::
         :: gradient norm              1.014315945195 Eh/a0 ::
         :: HOMO-LUMO gap              0.000319166246 eV    ::
         ::.................................................::
         :: SCC energy              -502.620022396897 Eh    ::
         :: -> isotropic ES            0.180613027952 Eh    ::
         :: -> anisotropic ES          0.050185005122 Eh    ::
         :: -> anisotropic XC          0.332366996856 Eh    ::
         :: -> dispersion             -0.424879899487 Eh    ::
         :: repulsion energy           9.145802494925 Eh    ::
         :: add. restraining           0.000000000000 Eh    ::
         :: total charge              -0.000000000010 e     ::
         :::::::::::::::::::::::::::::::::::::::::::::::::::::

      ----------------------------------------------------------- 
     |                   =====================                   |
     |                        A N C O P T                        |
     |                   =====================                   |
     |               Approximate Normal Coordinate               |
     |                Rational Function Optimizer                |
      ----------------------------------------------------------- 

          ...................................................
          :                      SETUP                      :
          :.................................................:
          :   optimization level            normal          :
          :   max. optcycles                   813          :
          :   ANC micro-cycles                  20          :
          :   degrees of freedom               807          :
          :.................................................:
          :   RF solver                   davidson          :
          :   write xtbopt.log                true          :
          :   linear?                        false          :
          :   energy convergence         0.5000000E-05 Eh   :
          :   grad. convergence          0.1000000E-02 Eh/α :
          :   maximium RF displ.         1.0000000          :
          :   Hlow (freq-cutoff)         0.1000000E-01      :
          :   Hmax (freq-cutoff)         5.0000000          :
          :   S6 in model hess.         20.0000000          :
          ...................................................

generating ANC from model Hessian ...
Using Lindh-Hessian (1995)
 Shifting diagonal of input Hessian by    1.0124451945995790E-002
 Lowest  eigenvalues of input Hessian
    0.010000    0.010039    0.010094    0.010096    0.010097    0.010097
    0.010097    0.010097    0.010103    0.010107    0.010109    0.010111
    0.010112    0.010115    0.010116    0.010117    0.010119    0.010121
 Highest eigenvalues
    2.785521    2.844620    2.909723    2.909723    2.909725    2.909725


........................................................................
.............................. CYCLE    1 ..............................
........................................................................
   1   -502.6200225 -0.502620E+03  0.577E-04    0.00       0.0  T
   2   -502.6188116  0.121091E-02  0.535E-02    0.00       1.0  T
   3   -502.6200043 -0.119270E-02  0.634E-03    0.00       1.0  T
   4   -502.6199284  0.758838E-04  0.139E-02    0.00       1.0  T
   5   -502.6198784  0.499988E-04  0.178E-02    0.00       1.0  T
   6   -502.6199799 -0.101515E-03  0.932E-03    0.00       1.0  T
   7   -502.6198518  0.128120E-03  0.193E-02    0.00       1.0  T
   8   -502.6200187 -0.166886E-03  0.303E-03    0.00       2.0  T
   9   -502.6199094  0.109263E-03  0.167E-02    0.00       1.0  T
  10   -502.6200195 -0.110063E-03  0.256E-03    0.00       2.4  T
  11   -502.6199212  0.982276E-04  0.151E-02    0.00       1.0  T
  12   -502.6200224 -0.101167E-03  0.646E-04    0.00       9.4  T
  13   -502.6200212  0.119931E-05  0.168E-03    0.00       3.6  T
  14   -502.6200224 -0.116101E-05  0.713E-04    0.00       8.5  T
  15   -502.6200224  0.811127E-08  0.680E-04    0.00       8.9  T
  16   -502.6200226 -0.233265E-06  0.176E-04    0.00      34.4  T
     SCC iter.                  ...        0 min,  4.149 sec
     gradient                   ...        0 min,  0.517 sec
 * total energy  :  -493.4746827 Eh     change       -0.2035473E-06 Eh
   gradient norm :     1.0143140 Eh/α   predicted     0.0000000E+00 (-100.00%)
   displ. norm   :     0.6192338 α      lambda       -0.5372664E+00
   maximum displ.:     0.1463359 α      in ANC's #787, #278, #575, ...

........................................................................
.............................. CYCLE    2 ..............................
........................................................................
   1   -502.6027306 -0.502603E+03  0.355E-01    0.00       0.0  T
   2   -499.5300290  0.307270E+01  0.258E+00    0.01       1.0  T
   3   -501.3992509 -0.186922E+01  0.162E+00    0.02       1.0  T
   4   -498.5485033  0.285075E+01  0.283E+00    0.01       1.0  T
   5   -498.1426882  0.405815E+00  0.317E+00    0.00       1.0  T
   6   -498.8497718 -0.707084E+00  0.280E+00    0.00       1.0  T
   7   -499.9108781 -0.106111E+01  0.248E+00    0.02       1.0  T
   8   -498.8660162  0.104486E+01  0.277E+00    0.04       1.0  T
   9   -501.5205738 -0.265456E+01  0.164E+00    0.00       1.0  T
  10   -499.3933941  0.212718E+01  0.269E+00    0.00       1.0  T
  11   -501.1010484 -0.170765E+01  0.178E+00    0.00       1.0  T
  12   -501.7285432 -0.627495E+00  0.139E+00    0.01       1.0  T
  13   -500.7797447  0.948798E+00  0.185E+00    0.00       1.0  T
  14   -502.2604782 -0.148073E+01  0.921E-01    0.01       1.0  T
  15   -500.6646882  0.159579E+01  0.202E+00    0.01       1.0  T
  16   -502.1517700 -0.148708E+01  0.102E+00    0.00       1.0  T
  17   -502.3916283 -0.239858E+00  0.751E-01    0.01       1.0  T
  18   -502.3956499 -0.402157E-02  0.732E-01    0.01       1.0  T
  19   -502.3635474  0.321025E-01  0.781E-01    0.00       1.0  T
  20   -502.3163050  0.472424E-01  0.853E-01    0.00       1.0  T
  21   -502.3598387 -0.435337E-01  0.768E-01    0.00       1.0  T
  22   -502.4755860 -0.115747E+00  0.584E-01    0.00       1.0  T
  23   -502.5696544 -0.940685E-01  0.383E-01    0.00       1.0  T
  24   -502.5648076  0.484678E-02  0.387E-01    0.01       1.0  T
  25   -502.5803317 -0.155241E-01  0.347E-01    0.01       1.0  T
  26   -502.5740427  0.628903E-02  0.355E-01    0.00       1.0  T
  27   -502.5922082 -0.181655E-01  0.293E-01    0.00       1.0  T
  28   -502.5886150  0.359319E-02  0.301E-01    0.00       1.0  T
  29   -502.6016848 -0.130698E-01  0.243E-01    0.00       1.0  T
  30   -502.6139399 -0.122551E-01  0.172E-01    0.00       1.0  T
  31   -502.6107989  0.314095E-02  0.191E-01    0.00       1.0  T
  32   -502.6187569 -0.795798E-02  0.133E-01    0.00       1.0  T
  33   -502.6193354 -0.578461E-03  0.127E-01    0.00       1.0  T
  34   -502.6220673 -0.273192E-02  0.958E-02    0.00       1.0  T
  35   -502.6199160  0.215125E-02  0.119E-01    0.00       1.0  T
  36   -502.6213712 -0.145518E-02  0.103E-01    0.00       1.0  T
  37   -502.6210643  0.306934E-03  0.106E-01    0.00       1.0  T
  38   -502.6228181 -0.175383E-02  0.841E-02    0.00       1.0  T
  39   -502.6232888 -0.470724E-03  0.773E-02    0.00       1.0  T
  40   -502.6239657 -0.676845E-03  0.657E-02    0.00       1.0  T
  41   -502.6243541 -0.388367E-03  0.564E-02    0.00       1.0  T
  42   -502.6250278 -0.673739E-03  0.397E-02    0.00       1.0  T
  43   -502.6251663 -0.138459E-03  0.350E-02    0.00       1.0  T
  44   -502.6254884 -0.322141E-03  0.204E-02    0.00       1.0  T
  45   -502.6256022 -0.113816E-03  0.120E-02    0.00       1.0  T
  46   -502.6256261 -0.238438E-04  0.923E-03    0.00       1.0  T
  47   -502.6256370 -0.109156E-04  0.742E-03    0.00       1.0  T
  48   -502.6256408 -0.381754E-05  0.625E-03    0.00       1.0  T
  49   -502.6256376  0.320568E-05  0.650E-03    0.00       1.0  T
  50   -502.6256403 -0.274703E-05  0.599E-03    0.00       1.0  T
  51   -502.6256410 -0.675136E-06  0.574E-03    0.00       1.1  T
  52   -502.6256477 -0.674043E-05  0.393E-03    0.00       1.5  T
  53   -502.6256521 -0.439125E-05  0.203E-03    0.00       3.0  T
  54   -502.6256524 -0.301325E-06  0.179E-03    0.00       3.4  T
  55   -502.6256526 -0.159191E-06  0.164E-03    0.00       3.7  T
  56   -502.6256529 -0.276957E-06  0.142E-03    0.00       4.3  T
  57   -502.6256532 -0.376994E-06  0.107E-03    0.00       5.7  T
  58   -502.6256535 -0.284993E-06  0.682E-04    0.00       8.9  T
  59   -502.6256536 -0.904772E-07  0.457E-04    0.00      13.3  T
     SCC iter.                  ...        0 min, 15.305 sec
     gradient                   ...        0 min,  0.516 sec
 * total energy  :  -493.9099238 Eh     change       -0.4352412E+00 Eh
   gradient norm :     0.6000167 Eh/α   predicted    -0.3716832E+00 ( -14.60%)
   displ. norm   :     0.7072191 α      lambda       -0.3631800E+00
   maximum displ.:     0.1857059 α      in ANC's #278, #277, #275, ...

........................................................................
.............................. CYCLE    3 ..............................
........................................................................
   1   -502.6622393 -0.502662E+03  0.385E-01    0.00       0.0  T
   2   -499.1710257  0.349121E+01  0.268E+00    0.03       1.0  T
   3   -502.0951612 -0.292414E+01  0.111E+00    0.01       1.0  T
   4   -493.8412105  0.825395E+01  0.451E+00    0.07       1.0  T
   5   -496.2733414 -0.243213E+01  0.390E+00    0.07       1.0  T
   6   -500.0879073 -0.381457E+01  0.232E+00    0.01       1.0  T
   7   -499.3165999  0.771307E+00  0.269E+00    0.03       1.0  T
   8   -499.3949047 -0.783049E-01  0.267E+00    0.04       1.0  T
   9   -499.7810750 -0.386170E+00  0.255E+00    0.01       1.0  T
  10   -498.9576259  0.823449E+00  0.281E+00    0.03       1.0  T
  11   -499.8135519 -0.855926E+00  0.250E+00    0.01       1.0  T
  12   -501.6800549 -0.186650E+01  0.145E+00    0.01       1.0  T
  13   -502.3020724 -0.622017E+00  0.891E-01    0.00       1.0  T
  14   -501.3094363  0.992636E+00  0.164E+00    0.00       1.0  T
  15   -502.0392261 -0.729790E+00  0.120E+00    0.00       1.0  T
  16   -501.3027597  0.736466E+00  0.167E+00    0.00       1.0  T
  17   -502.2642477 -0.961488E+00  0.959E-01    0.00       1.0  T
  18   -502.1996035  0.646442E-01  0.100E+00    0.01       1.0  T
  19   -501.9800226  0.219581E+00  0.116E+00    0.00       1.0  T
  20   -502.0923934 -0.112371E+00  0.110E+00    0.01       1.0  T
  21   -502.3494668 -0.257073E+00  0.860E-01    0.00       1.0  T
  22   -502.3947577 -0.452909E-01  0.813E-01    0.01       1.0  T
  23   -502.3731942  0.215636E-01  0.803E-01    0.01       1.0  T
  24   -502.3271770  0.460172E-01  0.848E-01    0.00       1.0  T
  25   -502.3285549 -0.137786E-02  0.846E-01    0.00       1.0  T
  26   -502.2001369  0.128418E+00  0.979E-01    0.01       1.0  T
  27   -502.6001084 -0.399971E+00  0.456E-01    0.01       1.0  T
  28   -502.5326310  0.674774E-01  0.560E-01    0.00       1.0  T
  29   -502.6526541 -0.120023E+00  0.293E-01    0.00       1.0  T
  30   -502.6741778 -0.215237E-01  0.195E-01    0.01       1.0  T
  31   -502.6691023  0.507549E-02  0.212E-01    0.00       1.0  T
  32   -502.6860180 -0.169157E-01  0.104E-01    0.00       1.0  T
  33   -502.6867254 -0.707399E-03  0.934E-02    0.00       1.0  T
  34   -502.6883462 -0.162080E-02  0.700E-02    0.00       1.0  T
  35   -502.6881918  0.154374E-03  0.702E-02    0.00       1.0  T
  36   -502.6875120  0.679829E-03  0.785E-02    0.00       1.0  T
  37   -502.6876732 -0.161205E-03  0.769E-02    0.00       1.0  T
  38   -502.6877062 -0.330261E-04  0.767E-02    0.00       1.0  T
  39   -502.6888465 -0.114027E-02  0.574E-02    0.00       1.0  T
  40   -502.6896438 -0.797287E-03  0.387E-02    0.00       1.0  T
  41   -502.6898978 -0.254026E-03  0.301E-02    0.00       1.0  T
  42   -502.6900573 -0.159549E-03  0.231E-02    0.00       1.0  T
  43   -502.6900103  0.470719E-04  0.246E-02    0.00       1.0  T
  44   -502.6900233 -0.129970E-04  0.237E-02    0.00       1.0  T
  45   -502.6900447 -0.213919E-04  0.222E-02    0.00       1.0  T
  46   -502.6900566 -0.119356E-04  0.210E-02    0.00       1.0  T
  47   -502.6900870 -0.304075E-04  0.186E-02    0.00       1.0  T
  48   -502.6901532 -0.661608E-04  0.132E-02    0.00       1.0  T
  49   -502.6901882 -0.350105E-04  0.923E-03    0.00       1.0  T
  50   -502.6902078 -0.196530E-04  0.614E-03    0.00       1.0  T
  51   -502.6902187 -0.108782E-04  0.358E-03    0.00       1.7  T
  52   -502.6902217 -0.303801E-05  0.242E-03    0.00       2.5  T
  53   -502.6902220 -0.301186E-06  0.215E-03    0.00       2.8  T
  54   -502.6902217  0.333296E-06  0.225E-03    0.00       2.7  T
  55   -502.6902211  0.624741E-06  0.231E-03    0.00       2.6  T
  56   -502.6902215 -0.460656E-06  0.200E-03    0.00       3.0  T
  57   -502.6902219 -0.401534E-06  0.166E-03    0.00       3.7  T
  58   -502.6902223 -0.364849E-06  0.133E-03    0.00       4.6  T
  59   -502.6902228 -0.487256E-06  0.826E-04    0.00       7.4  T
  60   -502.6902230 -0.157818E-06  0.543E-04    0.00      11.2  T
     SCC iter.                  ...        0 min, 15.572 sec
     gradient                   ...        0 min,  0.518 sec
 * total energy  :  -494.1892470 Eh     change       -0.2793231E+00 Eh
   gradient norm :     0.2893202 Eh/α   predicted    -0.2724139E+00 (  -2.47%)
   displ. norm   :     0.7809857 α      lambda       -0.1982058E+00
   maximum displ.:     0.2341479 α      in ANC's #278, #269, #277, ...

........................................................................
.............................. CYCLE    4 ..............................
........................................................................
   1   -502.8040697 -0.502804E+03  0.349E-01    0.00       0.0  T
   2   -498.9334216  0.387065E+01  0.230E+00    0.05       1.0  T
   3   -501.2204324 -0.228701E+01  0.178E+00    0.00       1.0  T
   4   -500.1749130  0.104552E+01  0.236E+00    0.02       1.0  T
   5   -499.1270299  0.104788E+01  0.278E+00    0.05       1.0  T
   6   -498.6539113  0.473119E+00  0.313E+00    0.03       1.0  T
   7   -498.4524121  0.201499E+00  0.307E+00    0.04       1.0  T
   8   -501.0984227 -0.264601E+01  0.196E+00    0.02       1.0  T
   9   -501.5109609 -0.412538E+00  0.174E+00    0.01       1.0  T
  10   -499.7252414  0.178572E+01  0.254E+00    0.01       1.0  T
  11   -501.9018734 -0.217663E+01  0.142E+00    0.01       1.0  T
  12   -500.9315595  0.970314E+00  0.183E+00    0.01       1.0  T
  13   -502.2083884 -0.127683E+01  0.116E+00    0.01       1.0  T
  14   -502.4575703 -0.249182E+00  0.909E-01    0.01       1.0  T
  15   -502.0236680  0.433902E+00  0.121E+00    0.01       1.0  T
  16   -502.6055952 -0.581927E+00  0.714E-01    0.00       1.0  T
  17   -502.5821679  0.234273E-01  0.717E-01    0.00       1.0  T
  18   -502.6657575 -0.835895E-01  0.595E-01    0.00       1.0  T
  19   -502.7165948 -0.508373E-01  0.505E-01    0.00       1.0  T
  20   -502.7433681 -0.267733E-01  0.448E-01    0.00       1.0  T
  21   -502.7907855 -0.474174E-01  0.308E-01    0.00       1.0  T
  22   -502.7634732  0.273123E-01  0.393E-01    0.00       1.0  T
  23   -502.7647251 -0.125189E-02  0.389E-01    0.00       1.0  T
  24   -502.7867820 -0.220569E-01  0.315E-01    0.00       1.0  T
  25   -502.7351903  0.515918E-01  0.450E-01    0.00       1.0  T
  26   -502.7511714 -0.159811E-01  0.421E-01    0.00       1.0  T
  27   -502.7780129 -0.268415E-01  0.341E-01    0.00       1.0  T
  28   -502.7864143 -0.840135E-02  0.304E-01    0.01       1.0  T
  29   -502.8092655 -0.228512E-01  0.214E-01    0.00       1.0  T
  30   -502.8159414 -0.667595E-02  0.168E-01    0.00       1.0  T
  31   -502.8232384 -0.729702E-02  0.122E-01    0.00       1.0  T
  32   -502.8236865 -0.448035E-03  0.115E-01    0.00       1.0  T
  33   -502.8250309 -0.134446E-02  0.102E-01    0.00       1.0  T
  34   -502.8260762 -0.104528E-02  0.883E-02    0.00       1.0  T
  35   -502.8252455  0.830656E-03  0.950E-02    0.00       1.0  T
  36   -502.8263494 -0.110384E-02  0.788E-02    0.00       1.0  T
  37   -502.8272095 -0.860076E-03  0.656E-02    0.00       1.0  T
  38   -502.8279500 -0.740502E-03  0.528E-02    0.00       1.0  T
  39   -502.8288647 -0.914776E-03  0.313E-02    0.00       1.0  T
  40   -502.8291914 -0.326661E-03  0.176E-02    0.00       1.0  T
  41   -502.8292251 -0.337415E-04  0.149E-02    0.00       1.0  T
  42   -502.8292312 -0.607193E-05  0.138E-02    0.00       1.0  T
  43   -502.8292603 -0.291282E-04  0.101E-02    0.00       1.0  T
  44   -502.8292280  0.323106E-04  0.130E-02    0.00       1.0  T
  45   -502.8292228  0.523998E-05  0.132E-02    0.00       1.0  T
  46   -502.8292427 -0.199262E-04  0.112E-02    0.00       1.0  T
  47   -502.8292548 -0.121180E-04  0.974E-03    0.00       1.0  T
  48   -502.8292825 -0.276370E-04  0.573E-03    0.00       1.1  T
  49   -502.8292909 -0.839158E-05  0.376E-03    0.00       1.6  T
  50   -502.8292948 -0.397320E-05  0.231E-03    0.00       2.6  T
  51   -502.8292962 -0.131768E-05  0.165E-03    0.00       3.7  T
  52   -502.8292966 -0.491913E-06  0.128E-03    0.00       4.7  T
  53   -502.8292967 -0.329049E-07  0.123E-03    0.00       4.9  T
  54   -502.8292972 -0.509273E-06  0.617E-04    0.00       9.8  T
  55   -502.8292973 -0.122722E-06  0.322E-04    0.00      18.9  T
     SCC iter.                  ...        0 min, 14.272 sec
     gradient                   ...        0 min,  0.516 sec
 * total energy  :  -494.3549675 Eh     change       -0.1657205E+00 Eh
   gradient norm :     0.1773363 Eh/α   predicted    -0.1595498E+00 (  -3.72%)
   displ. norm   :     0.8403712 α      lambda       -0.1434957E+00
   maximum displ.:     0.2630076 α      in ANC's #143, #278, #269, ...

........................................................................
.............................. CYCLE    5 ..............................
........................................................................
   1   -502.9493754 -0.502949E+03  0.353E-01    0.00       0.0  T
   2   -497.9327731  0.501660E+01  0.245E+00    0.02       1.0  T
   3   -501.3933856 -0.346061E+01  0.181E+00    0.01       1.0  T
   4   -501.4234301 -0.300445E-01  0.183E+00    0.00       1.0  T
   5   -500.1632632  0.126017E+01  0.245E+00    0.04       1.0  T
   6   -501.0088351 -0.845572E+00  0.196E+00    0.01       1.0  T
   7   -499.0778908  0.193094E+01  0.296E+00    0.01       1.0  T
   8   -502.6565048 -0.357861E+01  0.811E-01    0.00       1.0  T
   9   -496.8442570  0.581225E+01  0.365E+00    0.03       1.0  T
  10   -500.7029953 -0.385874E+01  0.215E+00    0.03       1.0  T
  11   -502.3898920 -0.168690E+01  0.115E+00    0.00       1.0  T
  12   -501.3544204  0.103547E+01  0.165E+00    0.01       1.0  T
  13   -502.5888802 -0.123446E+01  0.911E-01    0.00       1.0  T
  14   -502.5709677  0.179125E-01  0.956E-01    0.00       1.0  T
  15   -502.6647392 -0.937715E-01  0.806E-01    0.00       1.0  T
  16   -502.0820733  0.582666E+00  0.131E+00    0.01       1.0  T
  17   -502.5614704 -0.479397E+00  0.895E-01    0.00       1.0  T
  18   -502.5990940 -0.376236E-01  0.881E-01    0.00       1.0  T
  19   -502.6353044 -0.362104E-01  0.822E-01    0.00       1.0  T
  20   -502.4859330  0.149371E+00  0.955E-01    0.00       1.0  T
  21   -502.7623125 -0.276379E+00  0.697E-01    0.00       1.0  T
  22   -502.7273012  0.350112E-01  0.752E-01    0.00       1.0  T
  23   -502.7428439 -0.155427E-01  0.722E-01    0.00       1.0  T
  24   -502.7757217 -0.328777E-01  0.674E-01    0.00       1.0  T
  25   -502.8946855 -0.118964E+00  0.432E-01    0.00       1.0  T
  26   -502.9437132 -0.490277E-01  0.268E-01    0.00       1.0  T
  27   -502.9477582 -0.404509E-02  0.253E-01    0.00       1.0  T
  28   -502.9461680  0.159019E-02  0.252E-01    0.00       1.0  T
  29   -502.9559719 -0.980387E-02  0.208E-01    0.00       1.0  T
  30   -502.8961032  0.598687E-01  0.390E-01    0.00       1.0  T
  31   -502.9402611 -0.441578E-01  0.268E-01    0.00       1.0  T
  32   -502.9269344  0.133266E-01  0.304E-01    0.00       1.0  T
  33   -502.9301560 -0.322156E-02  0.292E-01    0.00       1.0  T
  34   -502.9505309 -0.203749E-01  0.214E-01    0.00       1.0  T
  35   -502.9681950 -0.176641E-01  0.113E-01    0.00       1.0  T
  36   -502.9720073 -0.381230E-02  0.769E-02    0.00       1.0  T
  37   -502.9729147 -0.907326E-03  0.641E-02    0.00       1.0  T
  38   -502.9733654 -0.450744E-03  0.565E-02    0.00       1.0  T
  39   -502.9734292 -0.637775E-04  0.552E-02    0.00       1.0  T
  40   -502.9738003 -0.371177E-03  0.472E-02    0.00       1.0  T
  41   -502.9741194 -0.319010E-03  0.384E-02    0.00       1.0  T
  42   -502.9745208 -0.401421E-03  0.246E-02    0.00       1.0  T
  43   -502.9743750  0.145828E-03  0.296E-02    0.00       1.0  T
  44   -502.9742866  0.883532E-04  0.315E-02    0.00       1.0  T
  45   -502.9743937 -0.107126E-03  0.271E-02    0.00       1.0  T
  46   -502.9744833 -0.895959E-04  0.233E-02    0.00       1.0  T
  47   -502.9745881 -0.104804E-03  0.183E-02    0.00       1.0  T
  48   -502.9746217 -0.336051E-04  0.163E-02    0.00       1.0  T
  49   -502.9746082  0.135303E-04  0.168E-02    0.00       1.0  T
  50   -502.9746090 -0.839290E-06  0.164E-02    0.00       1.0  T
  51   -502.9746205 -0.114872E-04  0.152E-02    0.00       1.0  T
  52   -502.9746373 -0.167387E-04  0.136E-02    0.00       1.0  T
  53   -502.9746697 -0.324635E-04  0.108E-02    0.00       1.0  T
  54   -502.9747046 -0.348382E-04  0.663E-03    0.00       1.0  T
  55   -502.9747193 -0.147657E-04  0.350E-03    0.00       1.7  T
  56   -502.9747218 -0.250443E-05  0.259E-03    0.00       2.3  T
  57   -502.9747248 -0.298320E-05  0.743E-04    0.00       8.2  T
  58   -502.9747250 -0.137572E-06  0.507E-04    0.00      12.0  T
  59   -502.9747250 -0.794033E-07  0.225E-04    0.00      27.0  T
     SCC iter.                  ...        0 min, 15.267 sec
     gradient                   ...        0 min,  0.516 sec
 * total energy  :  -494.4809235 Eh     change       -0.1259560E+00 Eh
   gradient norm :     0.1400235 Eh/α   predicted    -0.1224189E+00 (  -2.81%)
   displ. norm   :     0.8630507 α      lambda       -0.1137718E+00
   maximum displ.:     0.3273817 α      in ANC's #143, #278, #269, ...

........................................................................
.............................. CYCLE    6 ..............................
........................................................................
   1   -503.0922320 -0.503092E+03  0.357E-01    0.00       0.0  T
   2   -498.0411319  0.505110E+01  0.243E+00    0.00       1.0  T
   3   -501.8470927 -0.380596E+01  0.155E+00    0.00       1.0  T
   4   -501.1212877  0.725805E+00  0.208E+00    0.00       1.0  T
   5   -497.0420045  0.407928E+01  0.364E+00    0.03       1.0  T
   6   -499.6241087 -0.258210E+01  0.283E+00    0.01       1.0  T
   7   -497.4499377  0.217417E+01  0.347E+00    0.04       1.0  T
   8   -502.4574808 -0.500754E+01  0.119E+00    0.01       1.0  T
   9   -497.1567735  0.530071E+01  0.361E+00    0.03       1.0  T
  10   -500.0971949 -0.294042E+01  0.236E+00    0.04       1.0  T
  11   -497.7501856  0.234701E+01  0.348E+00    0.04       1.0  T
  12   -502.2281729 -0.447799E+01  0.123E+00    0.01       1.0  T
  13   -502.4832491 -0.255076E+00  0.111E+00    0.01       1.0  T
  14   -502.1946869  0.288562E+00  0.140E+00    0.01       1.0  T
  15   -502.3061675 -0.111481E+00  0.130E+00    0.00       1.0  T
  16   -502.6389263 -0.332759E+00  0.104E+00    0.00       1.0  T
  17   -502.8341423 -0.195216E+00  0.775E-01    0.01       1.0  T
  18   -502.6556677  0.178475E+00  0.998E-01    0.02       1.0  T
  19   -502.8827259 -0.227058E+00  0.706E-01    0.00       1.0  T
  20   -502.9240826 -0.413566E-01  0.647E-01    0.00       1.0  T
  21   -502.8866857  0.373969E-01  0.681E-01    0.01       1.0  T
  22   -502.9222552 -0.355695E-01  0.633E-01    0.01       1.0  T
  23   -502.8557836  0.664716E-01  0.711E-01    0.00       1.0  T
  24   -503.0766588 -0.220875E+00  0.273E-01    0.00       1.0  T
  25   -503.0550726  0.215861E-01  0.338E-01    0.00       1.0  T
  26   -503.0751991 -0.201265E-01  0.273E-01    0.00       1.0  T
  27   -503.0746461  0.553048E-03  0.273E-01    0.00       1.0  T
  28   -503.0855882 -0.109422E-01  0.238E-01    0.00       1.0  T
  29   -503.0999641 -0.143758E-01  0.184E-01    0.00       1.0  T
  30   -503.0861148  0.138493E-01  0.245E-01    0.00       1.0  T
  31   -503.0967882 -0.106734E-01  0.189E-01    0.00       1.0  T
  32   -503.1061591 -0.937092E-02  0.136E-01    0.00       1.0  T
  33   -503.1061210  0.381286E-04  0.130E-01    0.00       1.0  T
  34   -503.1056019  0.519139E-03  0.131E-01    0.00       1.0  T
  35   -503.1110170 -0.541519E-02  0.840E-02    0.00       1.0  T
  36   -503.1104017  0.615365E-03  0.857E-02    0.00       1.0  T
  37   -503.1120065 -0.160483E-02  0.655E-02    0.00       1.0  T
  38   -503.1133125 -0.130598E-02  0.436E-02    0.00       1.0  T
  39   -503.1137615 -0.449026E-03  0.314E-02    0.00       1.0  T
  40   -503.1139347 -0.173177E-03  0.249E-02    0.00       1.0  T
  41   -503.1140058 -0.711492E-04  0.223E-02    0.00       1.0  T
  42   -503.1140266 -0.207196E-04  0.211E-02    0.00       1.0  T
  43   -503.1140052  0.213691E-04  0.215E-02    0.00       1.0  T
  44   -503.1141012 -0.960567E-04  0.165E-02    0.00       1.0  T
  45   -503.1141619 -0.606536E-04  0.123E-02    0.00       1.0  T
  46   -503.1141827 -0.207633E-04  0.102E-02    0.00       1.0  T
  47   -503.1142059 -0.232654E-04  0.747E-03    0.00       1.0  T
  48   -503.1142208 -0.149214E-04  0.476E-03    0.00       1.3  T
  49   -503.1142221 -0.124872E-05  0.427E-03    0.00       1.4  T
  50   -503.1142247 -0.260951E-05  0.345E-03    0.00       1.8  T
  51   -503.1142262 -0.144429E-05  0.288E-03    0.00       2.1  T
  52   -503.1142272 -0.102994E-05  0.248E-03    0.00       2.4  T
  53   -503.1142284 -0.119288E-05  0.202E-03    0.00       3.0  T
  54   -503.1142286 -0.216966E-06  0.196E-03    0.00       3.1  T
  55   -503.1142288 -0.213733E-06  0.184E-03    0.00       3.3  T
  56   -503.1142290 -0.228890E-06  0.168E-03    0.00       3.6  T
  57   -503.1142294 -0.329399E-06  0.141E-03    0.00       4.3  T
  58   -503.1142297 -0.297540E-06  0.113E-03    0.00       5.4  T
  59   -503.1142298 -0.168077E-06  0.927E-04    0.00       6.6  T
  60   -503.1142300 -0.160003E-06  0.676E-04    0.00       9.0  T
     SCC iter.                  ...        0 min, 15.540 sec
     gradient                   ...        0 min,  0.516 sec
 * total energy  :  -494.5819291 Eh     change       -0.1010055E+00 Eh
   gradient norm :     0.1136803 Eh/α   predicted    -0.9925937E-01 (  -1.73%)
   displ. norm   :     0.8674049 α      lambda       -0.9020010E-01
   maximum displ.:     0.3819427 α      in ANC's #143, #278, #269, ...

........................................................................
.............................. CYCLE    7 ..............................
........................................................................
   1   -503.2262807 -0.503226E+03  0.346E-01    0.00       0.0  T
   2   -498.9844616  0.424182E+01  0.229E+00    0.01       1.0  T
   3   -501.9512203 -0.296676E+01  0.153E+00    0.00       1.0  T
   4   -500.5226367  0.142858E+01  0.238E+00    0.02       1.0  T
   5   -501.3680867 -0.845450E+00  0.202E+00    0.02       1.0  T
   6   -500.3489686  0.101912E+01  0.267E+00    0.01       1.0  T
   7   -497.3283021  0.302067E+01  0.357E+00    0.03       1.0  T
   8   -497.7853082 -0.457006E+00  0.349E+00    0.01       1.0  T
   9   -500.9049728 -0.311966E+01  0.226E+00    0.01       1.0  T
  10   -502.3030484 -0.139808E+01  0.140E+00    0.01       1.0  T
  11   -501.0952373  0.120781E+01  0.205E+00    0.01       1.0  T
  12   -502.2358957 -0.114066E+01  0.145E+00    0.01       1.0  T
  13   -502.7393514 -0.503456E+00  0.104E+00    0.01       1.0  T
  14   -501.8943960  0.844955E+00  0.156E+00    0.02       1.0  T
  15   -502.9209238 -0.102653E+01  0.856E-01    0.00       1.0  T
  16   -503.0717118 -0.150788E+00  0.582E-01    0.00       1.0  T
  17   -503.1245976 -0.528858E-01  0.485E-01    0.00       1.0  T
  18   -503.0325279  0.920697E-01  0.680E-01    0.01       1.0  T
  19   -503.1114178 -0.788900E-01  0.546E-01    0.00       1.0  T
  20   -503.1325056 -0.210878E-01  0.491E-01    0.00       1.0  T
  21   -503.1051320  0.273736E-01  0.562E-01    0.00       1.0  T
  22   -503.1428157 -0.376837E-01  0.453E-01    0.00       1.0  T
  23   -503.2235110 -0.806952E-01  0.213E-01    0.00       1.0  T
  24   -503.2311723 -0.766130E-02  0.173E-01    0.00       1.0  T
  25   -503.2313184 -0.146131E-03  0.164E-01    0.00       1.0  T
  26   -503.2306050  0.713369E-03  0.168E-01    0.00       1.0  T
  27   -503.2233502  0.725484E-02  0.197E-01    0.00       1.0  T
  28   -503.2228899  0.460271E-03  0.212E-01    0.00       1.0  T
  29   -503.2169812  0.590871E-02  0.229E-01    0.00       1.0  T
  30   -503.2408850 -0.239038E-01  0.779E-02    0.00       1.0  T
  31   -503.2308561  0.100289E-01  0.154E-01    0.00       1.0  T
  32   -503.2408495 -0.999341E-02  0.765E-02    0.00       1.0  T
  33   -503.2407038  0.145705E-03  0.777E-02    0.00       1.0  T
  34   -503.2419031 -0.119923E-02  0.586E-02    0.00       1.0  T
  35   -503.2421231 -0.220017E-03  0.542E-02    0.00       1.0  T
  36   -503.2420266  0.964544E-04  0.553E-02    0.00       1.0  T
  37   -503.2419421  0.845045E-04  0.564E-02    0.00       1.0  T
  38   -503.2424741 -0.531970E-03  0.469E-02    0.00       1.0  T
  39   -503.2426137 -0.139624E-03  0.440E-02    0.00       1.0  T
  40   -503.2429346 -0.320842E-03  0.348E-02    0.00       1.0  T
  41   -503.2431444 -0.209868E-03  0.277E-02    0.00       1.0  T
  42   -503.2432410 -0.965759E-04  0.235E-02    0.00       1.0  T
  43   -503.2433568 -0.115826E-03  0.168E-02    0.00       1.0  T
  44   -503.2434099 -0.530546E-04  0.123E-02    0.00       1.0  T
  45   -503.2434211 -0.112572E-04  0.108E-02    0.00       1.0  T
  46   -503.2434169  0.423115E-05  0.110E-02    0.00       1.0  T
  47   -503.2434303 -0.133905E-04  0.953E-03    0.00       1.0  T
  48   -503.2434478 -0.174625E-04  0.747E-03    0.00       1.0  T
  49   -503.2434629 -0.151518E-04  0.511E-03    0.00       1.2  T
  50   -503.2434665 -0.362755E-05  0.420E-03    0.00       1.4  T
  51   -503.2434683 -0.170959E-05  0.367E-03    0.00       1.7  T
  52   -503.2434709 -0.261263E-05  0.249E-03    0.00       2.4  T
  53   -503.2434716 -0.754128E-06  0.188E-03    0.00       3.2  T
  54   -503.2434719 -0.258907E-06  0.159E-03    0.00       3.8  T
  55   -503.2434726 -0.689037E-06  0.933E-04    0.00       6.5  T
  56   -503.2434729 -0.292035E-06  0.451E-04    0.00      13.5  T
     SCC iter.                  ...        0 min, 14.509 sec
     gradient                   ...        0 min,  0.519 sec
 * total energy  :  -494.6618380 Eh     change       -0.7990892E-01 Eh
   gradient norm :     0.0882014 Eh/α   predicted    -0.7903295E-01 (  -1.10%)
   displ. norm   :     0.8629832 α      lambda       -0.6986587E-01
   maximum displ.:     0.4224775 α      in ANC's #143, #145, #144, ...

........................................................................
.............................. CYCLE    8 ..............................
........................................................................
   1   -503.3394692 -0.503339E+03  0.312E-01    0.00       0.0  T
   2   -500.1610483  0.317842E+01  0.211E+00    0.01       1.0  T
   3   -501.9541372 -0.179309E+01  0.163E+00    0.01       1.0  T
   4   -501.4338485  0.520289E+00  0.193E+00    0.01       1.0  T
   5   -500.0319250  0.140192E+01  0.289E+00    0.03       1.0  T
   6   -499.2999881  0.731937E+00  0.292E+00    0.01       1.0  T
   7   -497.5844453  0.171554E+01  0.358E+00    0.01       1.0  T
   8   -499.4670739 -0.188263E+01  0.294E+00    0.00       1.0  T
   9   -501.7960639 -0.232899E+01  0.189E+00    0.00       1.0  T
  10   -502.9186062 -0.112254E+01  0.967E-01    0.00       1.0  T
  11   -502.1490301  0.769576E+00  0.161E+00    0.01       1.0  T
  12   -502.6947640 -0.545734E+00  0.119E+00    0.01       1.0  T
  13   -502.7986191 -0.103855E+00  0.105E+00    0.01       1.0  T
  14   -502.7373319  0.612872E-01  0.107E+00    0.00       1.0  T
  15   -502.9789530 -0.241621E+00  0.812E-01    0.00       1.0  T
  16   -503.2455827 -0.266630E+00  0.491E-01    0.00       1.0  T
  17   -503.3265368 -0.809540E-01  0.252E-01    0.00       1.0  T
  18   -503.3039428  0.225939E-01  0.295E-01    0.00       1.0  T
  19   -503.3369542 -0.330114E-01  0.175E-01    0.00       1.0  T
  20   -503.3286261  0.832807E-02  0.224E-01    0.00       1.0  T
  21   -503.3289584 -0.332310E-03  0.228E-01    0.00       1.0  T
  22   -503.3279623  0.996132E-03  0.216E-01    0.00       1.0  T
  23   -503.3483205 -0.203582E-01  0.915E-02    0.00       1.0  T
  24   -503.3432900  0.503058E-02  0.137E-01    0.00       1.0  T
  25   -503.3300212  0.132687E-01  0.198E-01    0.00       1.0  T
  26   -503.3269872  0.303407E-02  0.204E-01    0.00       1.0  T
  27   -503.3482094 -0.212222E-01  0.857E-02    0.00       1.0  T
  28   -503.3497016 -0.149227E-02  0.701E-02    0.00       1.0  T
  29   -503.3477441  0.195753E-02  0.904E-02    0.00       1.0  T
  30   -503.3474791  0.264987E-03  0.910E-02    0.00       1.0  T
  31   -503.3503158 -0.283671E-02  0.613E-02    0.00       1.0  T
  32   -503.3508172 -0.501377E-03  0.524E-02    0.00       1.0  T
  33   -503.3510043 -0.187078E-03  0.485E-02    0.00       1.0  T
  34   -503.3513241 -0.319798E-03  0.411E-02    0.00       1.0  T
  35   -503.3516360 -0.311954E-03  0.321E-02    0.00       1.0  T
  36   -503.3517521 -0.116050E-03  0.277E-02    0.00       1.0  T
  37   -503.3518200 -0.678992E-04  0.247E-02    0.00       1.0  T
  38   -503.3519687 -0.148750E-03  0.164E-02    0.00       1.0  T
  39   -503.3520351 -0.664070E-04  0.104E-02    0.00       1.0  T
  40   -503.3520599 -0.248001E-04  0.706E-03    0.00       1.0  T
  41   -503.3520716 -0.116183E-04  0.452E-03    0.00       1.3  T
  42   -503.3520739 -0.230436E-05  0.354E-03    0.00       1.7  T
  43   -503.3520696  0.427213E-05  0.410E-03    0.00       1.5  T
  44   -503.3520694  0.194715E-06  0.399E-03    0.00       1.5  T
  45   -503.3520728 -0.336198E-05  0.288E-03    0.00       2.1  T
  46   -503.3520740 -0.128501E-05  0.214E-03    0.00       2.8  T
  47   -503.3520754 -0.139948E-05  0.124E-03    0.00       4.9  T
  48   -503.3520758 -0.337049E-06  0.885E-04    0.00       6.9  T
  49   -503.3520759 -0.857109E-07  0.747E-04    0.00       8.1  T
     SCC iter.                  ...        0 min, 12.681 sec
     gradient                   ...        0 min,  0.517 sec
 * total energy  :  -494.7232319 Eh     change       -0.6139389E-01 Eh
   gradient norm :     0.0658317 Eh/α   predicted    -0.6094891E-01 (  -0.72%)
   displ. norm   :     0.8511361 α      lambda       -0.5235533E-01
   maximum displ.:     0.4386821 α      in ANC's #143, #145, #45, ...

........................................................................
.............................. CYCLE    9 ..............................
........................................................................
   1   -503.4234850 -0.503423E+03  0.270E-01    0.00       0.0  T
   2   -501.3130741  0.211041E+01  0.181E+00    0.07       1.0  T
   3   -502.0945907 -0.781517E+00  0.164E+00    0.00       1.0  T
   4   -500.5333557  0.156123E+01  0.252E+00    0.01       1.0  T
   5   -499.2115457  0.132181E+01  0.300E+00    0.01       1.0  T
   6   -498.7920573  0.419488E+00  0.347E+00    0.07       1.0  T
   7   -501.7544065 -0.296235E+01  0.194E+00    0.01       1.0  T
   8   -503.0335265 -0.127912E+01  0.914E-01    0.00       1.0  T
   9   -499.6940508  0.333948E+01  0.285E+00    0.01       1.0  T
  10   -499.0887664  0.605284E+00  0.330E+00    0.03       1.0  T
  11   -501.7149751 -0.262621E+01  0.205E+00    0.00       1.0  T
  12   -501.3728930  0.342082E+00  0.228E+00    0.02       1.0  T
  13   -501.1173480  0.255545E+00  0.215E+00    0.01       1.0  T
  14   -503.0626973 -0.194535E+01  0.765E-01    0.00       1.0  T
  15   -502.9158086  0.146889E+00  0.108E+00    0.01       1.0  T
  16   -503.0746049 -0.158796E+00  0.840E-01    0.00       1.0  T
  17   -503.1325974 -0.579925E-01  0.776E-01    0.00       1.0  T
  18   -503.3259036 -0.193306E+00  0.455E-01    0.00       1.0  T
  19   -503.3613699 -0.354663E-01  0.402E-01    0.00       1.0  T
  20   -503.4079163 -0.465463E-01  0.250E-01    0.00       1.0  T
  21   -503.3922983  0.156179E-01  0.310E-01    0.00       1.0  T
  22   -503.4035870 -0.112887E-01  0.237E-01    0.00       1.0  T
  23   -503.3610510  0.425360E-01  0.350E-01    0.00       1.0  T
  24   -503.4009109 -0.398599E-01  0.254E-01    0.00       1.0  T
  25   -503.4194520 -0.185411E-01  0.163E-01    0.00       1.0  T
  26   -503.4138294  0.562261E-02  0.173E-01    0.00       1.0  T
  27   -503.4264962 -0.126669E-01  0.108E-01    0.00       1.0  T
  28   -503.4186370  0.785921E-02  0.150E-01    0.00       1.0  T
  29   -503.4254065 -0.676950E-02  0.110E-01    0.00       1.0  T
  30   -503.4304073 -0.500080E-02  0.567E-02    0.00       1.0  T
  31   -503.4312396 -0.832266E-03  0.356E-02    0.00       1.0  T
  32   -503.4313176 -0.780351E-04  0.371E-02    0.00       1.0  T
  33   -503.4316861 -0.368476E-03  0.244E-02    0.00       1.0  T
  34   -503.4315985  0.875809E-04  0.287E-02    0.00       1.0  T
  35   -503.4318141 -0.215609E-03  0.184E-02    0.00       1.0  T
  36   -503.4318937 -0.795823E-04  0.126E-02    0.00       1.0  T
  37   -503.4319136 -0.198941E-04  0.101E-02    0.00       1.0  T
  38   -503.4319180 -0.440017E-05  0.942E-03    0.00       1.0  T
  39   -503.4319282 -0.101710E-04  0.795E-03    0.00       1.0  T
  40   -503.4319302 -0.205188E-05  0.753E-03    0.00       1.0  T
  41   -503.4319388 -0.854293E-05  0.592E-03    0.00       1.0  T
  42   -503.4319424 -0.365325E-05  0.498E-03    0.00       1.2  T
  43   -503.4319462 -0.373294E-05  0.403E-03    0.00       1.5  T
  44   -503.4319498 -0.358532E-05  0.281E-03    0.00       2.2  T
  45   -503.4319509 -0.111919E-05  0.223E-03    0.00       2.7  T
  46   -503.4319516 -0.710480E-06  0.177E-03    0.00       3.4  T
  47   -503.4319526 -0.104376E-05  0.792E-04    0.00       7.7  T
  48   -503.4319527 -0.343902E-07  0.696E-04    0.00       8.7  T
  49   -503.4319527 -0.633428E-07  0.587E-04    0.00      10.3  T
     SCC iter.                  ...        0 min, 12.684 sec
     gradient                   ...        0 min,  0.519 sec
 * total energy  :  -494.7686479 Eh     change       -0.4541605E-01 Eh
   gradient norm :     0.0484656 Eh/α   predicted    -0.4514162E-01 (  -0.60%)
   displ. norm   :     0.8338476 α      lambda       -0.3775698E-01
   maximum displ.:     0.4195094 α      in ANC's #143, #45, #145, ...

........................................................................
.............................. CYCLE   10 ..............................
........................................................................
   1   -503.4804491 -0.503480E+03  0.235E-01    0.00       0.0  T
   2   -500.5345931  0.294586E+01  0.238E+00    0.01       1.0  T
   3   -502.5610524 -0.202646E+01  0.114E+00    0.00       1.0  T
   4   -501.7106222  0.850430E+00  0.201E+00    0.00       1.0  T
   5   -502.0300409 -0.319419E+00  0.184E+00    0.01       1.0  T
   6   -502.1917770 -0.161736E+00  0.166E+00    0.00       1.0  T
   7   -500.0311477  0.216063E+01  0.282E+00    0.03       1.0  T
   8   -502.1203286 -0.208918E+01  0.172E+00    0.01       1.0  T
   9   -501.0389264  0.108140E+01  0.227E+00    0.01       1.0  T
  10   -501.8070844 -0.768158E+00  0.172E+00    0.01       1.0  T
  11   -502.1838431 -0.376759E+00  0.160E+00    0.00       1.0  T
  12   -499.7644044  0.241944E+01  0.292E+00    0.01       1.0  T
  13   -499.1466476  0.617757E+00  0.310E+00    0.01       1.0  T
  14   -499.1116551  0.349926E-01  0.312E+00    0.01       1.0  T
  15   -500.4225432 -0.131089E+01  0.253E+00    0.00       1.0  T
  16   -500.8567332 -0.434190E+00  0.236E+00    0.00       1.0  T
  17   -501.8820201 -0.102529E+01  0.173E+00    0.01       1.0  T
  18   -499.4989049  0.238312E+01  0.294E+00    0.00       1.0  T
  19   -502.7388132 -0.323991E+01  0.120E+00    0.00       1.0  T
  20   -503.1674824 -0.428669E+00  0.798E-01    0.00       1.0  T
  21   -503.3516652 -0.184183E+00  0.572E-01    0.00       1.0  T
  22   -503.3312598  0.204054E-01  0.599E-01    0.00       1.0  T
  23   -503.2925479  0.387119E-01  0.650E-01    0.00       1.0  T
  24   -503.2221417  0.704062E-01  0.689E-01    0.01       1.0  T
  25   -503.3862444 -0.164103E+00  0.466E-01    0.00       1.0  T
  26   -503.4153415 -0.290970E-01  0.408E-01    0.00       1.0  T
  27   -503.4302878 -0.149463E-01  0.356E-01    0.00       1.0  T
  28   -503.4759307 -0.456429E-01  0.158E-01    0.00       1.0  T
  29   -503.4208620  0.550686E-01  0.366E-01    0.00       1.0  T
  30   -503.4573468 -0.364848E-01  0.224E-01    0.00       1.0  T
  31   -503.4631313 -0.578452E-02  0.233E-01    0.00       1.0  T
  32   -503.4714282 -0.829688E-02  0.173E-01    0.00       1.0  T
  33   -503.4654291  0.599915E-02  0.215E-01    0.00       1.0  T
  34   -503.4530196  0.124095E-01  0.275E-01    0.00       1.0  T
  35   -503.4484637  0.455587E-02  0.294E-01    0.00       1.0  T
  36   -503.4394850  0.897870E-02  0.332E-01    0.00       1.0  T
  37   -503.4370345  0.245046E-02  0.344E-01    0.01       1.0  T
  38   -503.4438751 -0.684054E-02  0.313E-01    0.00       1.0  T
  39   -503.4524222 -0.854714E-02  0.276E-01    0.00       1.0  T
  40   -503.4653985 -0.129763E-01  0.232E-01    0.01       1.0  T
  41   -503.4798275 -0.144290E-01  0.128E-01    0.00       1.0  T
  42   -503.4824438 -0.261624E-02  0.918E-02    0.00       1.0  T
  43   -503.4835622 -0.111839E-02  0.715E-02    0.00       1.0  T
  44   -503.4838144 -0.252236E-03  0.667E-02    0.00       1.0  T
  45   -503.4845964 -0.782012E-03  0.473E-02    0.00       1.0  T
  46   -503.4848225 -0.226097E-03  0.390E-02    0.00       1.0  T
  47   -503.4847719  0.506462E-04  0.399E-02    0.00       1.0  T
  48   -503.4848158 -0.439222E-04  0.379E-02    0.00       1.0  T
  49   -503.4850060 -0.190258E-03  0.297E-02    0.00       1.0  T
  50   -503.4851889 -0.182803E-03  0.184E-02    0.00       1.0  T
  51   -503.4852733 -0.844410E-04  0.946E-03    0.00       1.0  T
  52   -503.4852924 -0.191459E-04  0.504E-03    0.00       1.2  T
  53   -503.4852912  0.123753E-05  0.452E-03    0.00       1.3  T
  54   -503.4852915 -0.289947E-06  0.424E-03    0.00       1.4  T
  55   -503.4852957 -0.425241E-05  0.314E-03    0.00       1.9  T
  56   -503.4852982 -0.241362E-05  0.212E-03    0.00       2.9  T
  57   -503.4852988 -0.665978E-06  0.173E-03    0.00       3.5  T
  58   -503.4852996 -0.808264E-06  0.104E-03    0.00       5.8  T
  59   -503.4852999 -0.276322E-06  0.623E-04    0.00       9.8  T
  60   -503.4853000 -0.135577E-06  0.343E-04    0.00      17.7  T
     SCC iter.                  ...        0 min, 15.544 sec
     gradient                   ...        0 min,  0.517 sec
 * total energy  :  -494.8009331 Eh     change       -0.3228513E-01 Eh
   gradient norm :     0.0359676 Eh/α   predicted    -0.3200479E-01 (  -0.87%)
   displ. norm   :     0.8230249 α      lambda       -0.2653141E-01
   maximum displ.:     0.3587927 α      in ANC's #143, #45, #40, ...

........................................................................
.............................. CYCLE   11 ..............................
........................................................................
   1   -503.5185494 -0.503519E+03  0.207E-01    0.00       0.0  T
   2   -498.5337381  0.498481E+01  0.328E+00    0.01       1.0  T
   3   -502.5689133 -0.403518E+01  0.130E+00    0.00       1.0  T
   4   -501.4651927  0.110372E+01  0.214E+00    0.01       1.0  T
   5   -501.3515817  0.113611E+00  0.236E+00    0.00       1.0  T
   6   -501.6185312 -0.266949E+00  0.211E+00    0.00       1.0  T
   7   -502.3245573 -0.706026E+00  0.165E+00    0.01       1.0  T
   8   -497.8684778  0.445608E+01  0.363E+00    0.04       1.0  T
   9   -497.3175417  0.550936E+00  0.375E+00    0.01       1.0  T
  10   -502.1713762 -0.485383E+01  0.181E+00    0.00       1.0  T
  11   -502.3801623 -0.208786E+00  0.152E+00    0.00       1.0  T
  12   -502.3224009  0.577614E-01  0.160E+00    0.00       1.0  T
  13   -502.3316214 -0.922050E-02  0.150E+00    0.00       1.0  T
  14   -503.1554005 -0.823779E+00  0.839E-01    0.00       1.0  T
  15   -502.7453339  0.410067E+00  0.137E+00    0.00       1.0  T
  16   -502.7526935 -0.735951E-02  0.134E+00    0.00       1.0  T
  17   -502.6242121  0.128481E+00  0.141E+00    0.01       1.0  T
  18   -503.1928526 -0.568641E+00  0.865E-01    0.01       1.0  T
  19   -502.7787064  0.414146E+00  0.126E+00    0.01       1.0  T
  20   -502.7138690  0.648373E-01  0.133E+00    0.00       1.0  T
  21   -503.4401118 -0.726243E+00  0.403E-01    0.00       1.0  T
  22   -503.4064342  0.336776E-01  0.535E-01    0.00       1.0  T
  23   -503.4598236 -0.533894E-01  0.394E-01    0.00       1.0  T
  24   -503.4849623 -0.251387E-01  0.301E-01    0.00       1.0  T
  25   -503.4109757  0.739866E-01  0.486E-01    0.01       1.0  T
  26   -503.4434218 -0.324461E-01  0.433E-01    0.01       1.0  T
  27   -503.4656619 -0.222401E-01  0.368E-01    0.00       1.0  T
  28   -503.4846658 -0.190039E-01  0.297E-01    0.00       1.0  T
  29   -503.4249686  0.596972E-01  0.445E-01    0.01       1.0  T
  30   -503.4836224 -0.586538E-01  0.311E-01    0.00       1.0  T
  31   -503.4898621 -0.623975E-02  0.282E-01    0.00       1.0  T
  32   -503.4905809 -0.718749E-03  0.276E-01    0.00       1.0  T
  33   -503.5073473 -0.167664E-01  0.187E-01    0.00       1.0  T
  34   -503.5091989 -0.185163E-02  0.173E-01    0.00       1.0  T
  35   -503.5175497 -0.835080E-02  0.914E-02    0.00       1.0  T
  36   -503.5167973  0.752395E-03  0.973E-02    0.00       1.0  T
  37   -503.5183902 -0.159283E-02  0.775E-02    0.00       1.0  T
  38   -503.5190760 -0.685800E-03  0.694E-02    0.00       1.0  T
  39   -503.5206765 -0.160050E-02  0.403E-02    0.00       1.0  T
  40   -503.5203913  0.285120E-03  0.476E-02    0.00       1.0  T
  41   -503.5210071 -0.615719E-03  0.288E-02    0.00       1.0  T
  42   -503.5210983 -0.912260E-04  0.237E-02    0.00       1.0  T
  43   -503.5211776 -0.793294E-04  0.200E-02    0.00       1.0  T
  44   -503.5212442 -0.665940E-04  0.155E-02    0.00       1.0  T
  45   -503.5212638 -0.195917E-04  0.129E-02    0.00       1.0  T
  46   -503.5212850 -0.211987E-04  0.114E-02    0.00       1.0  T
  47   -503.5213105 -0.254953E-04  0.860E-03    0.00       1.0  T
  48   -503.5213236 -0.130559E-04  0.612E-03    0.00       1.0  T
  49   -503.5213296 -0.602318E-05  0.476E-03    0.00       1.3  T
  50   -503.5213311 -0.154059E-05  0.426E-03    0.00       1.4  T
  51   -503.5213329 -0.174764E-05  0.359E-03    0.00       1.7  T
  52   -503.5213340 -0.108706E-05  0.317E-03    0.00       1.9  T
  53   -503.5213358 -0.187383E-05  0.242E-03    0.00       2.5  T
  54   -503.5213367 -0.848239E-06  0.190E-03    0.00       3.2  T
  55   -503.5213374 -0.678377E-06  0.141E-03    0.00       4.3  T
  56   -503.5213379 -0.522708E-06  0.866E-04    0.00       7.0  T
  57   -503.5213380 -0.168614E-06  0.568E-04    0.00      10.7  T
     SCC iter.                  ...        0 min, 14.763 sec
     gradient                   ...        0 min,  0.520 sec
 * total energy  :  -494.8236071 Eh     change       -0.2267403E-01 Eh
   gradient norm :     0.0277005 Eh/α   predicted    -0.2225155E-01 (  -1.86%)
   displ. norm   :     0.8399080 α      lambda       -0.1952483E-01
   maximum displ.:     0.3830897 α      in ANC's #45, #143, #40, ...

........................................................................
.............................. CYCLE   12 ..............................
........................................................................
   1   -503.5448614 -0.503545E+03  0.192E-01    0.00       0.0  T
   2   -498.7874010  0.475746E+01  0.327E+00    0.01       1.0  T
   3   -502.3646055 -0.357720E+01  0.161E+00    0.01       1.0  T
   4   -500.9293396  0.143527E+01  0.239E+00    0.00       1.0  T
   5   -501.7008544 -0.771515E+00  0.216E+00    0.00       1.0  T
   6   -499.3172661  0.238359E+01  0.320E+00    0.04       1.0  T
   7   -502.8293493 -0.351208E+01  0.120E+00    0.01       1.0  T
   8   -498.5046572  0.432469E+01  0.339E+00    0.01       1.0  T
   9   -502.6175655 -0.411291E+01  0.139E+00    0.00       1.0  T
  10   -496.9825418  0.563502E+01  0.386E+00    0.01       1.0  T
  11   -502.3666966 -0.538415E+01  0.159E+00    0.01       1.0  T
  12   -502.8619478 -0.495251E+00  0.121E+00    0.00       1.0  T
  13   -503.2078094 -0.345862E+00  0.889E-01    0.00       1.0  T
  14   -503.1403657  0.674437E-01  0.961E-01    0.01       1.0  T
  15   -503.4295612 -0.289196E+00  0.554E-01    0.00       1.0  T
  16   -503.4742257 -0.446645E-01  0.430E-01    0.00       1.0  T
  17   -503.3876054  0.866203E-01  0.571E-01    0.01       1.0  T
  18   -503.4651878 -0.775824E-01  0.434E-01    0.00       1.0  T
  19   -503.4456854  0.195024E-01  0.508E-01    0.00       1.0  T
  20   -503.4386088  0.707660E-02  0.515E-01    0.00       1.0  T
  21   -503.4779135 -0.393047E-01  0.393E-01    0.00       1.0  T
  22   -503.5172807 -0.393671E-01  0.269E-01    0.00       1.0  T
  23   -503.5185956 -0.131496E-02  0.264E-01    0.00       1.0  T
  24   -503.5265600 -0.796439E-02  0.238E-01    0.00       1.0  T
  25   -503.5254632  0.109684E-02  0.226E-01    0.00       1.0  T
  26   -503.5407053 -0.152422E-01  0.135E-01    0.00       1.0  T
  27   -503.5432866 -0.258123E-02  0.101E-01    0.00       1.0  T
  28   -503.5410887  0.219790E-02  0.124E-01    0.00       1.0  T
  29   -503.5380603  0.302841E-02  0.140E-01    0.00       1.0  T
  30   -503.5469804 -0.892014E-02  0.516E-02    0.00       1.0  T
  31   -503.5480925 -0.111214E-02  0.210E-02    0.00       1.0  T
  32   -503.5481510 -0.584433E-04  0.184E-02    0.00       1.0  T
  33   -503.5482496 -0.986745E-04  0.117E-02    0.00       1.0  T
  34   -503.5481714  0.782242E-04  0.159E-02    0.00       1.0  T
  35   -503.5481615  0.987885E-05  0.176E-02    0.00       1.0  T
  36   -503.5482202 -0.586268E-04  0.121E-02    0.00       1.0  T
  37   -503.5482403 -0.201494E-04  0.950E-03    0.00       1.0  T
  38   -503.5482595 -0.191318E-04  0.734E-03    0.00       1.0  T
  39   -503.5482628 -0.330122E-05  0.632E-03    0.00       1.0  T
  40   -503.5482667 -0.393595E-05  0.539E-03    0.00       1.1  T
  41   -503.5482647  0.196779E-05  0.573E-03    0.00       1.1  T
  42   -503.5482693 -0.453500E-05  0.490E-03    0.00       1.2  T
  43   -503.5482733 -0.402152E-05  0.368E-03    0.00       1.7  T
  44   -503.5482769 -0.357877E-05  0.205E-03    0.00       3.0  T
  45   -503.5482773 -0.429296E-06  0.176E-03    0.00       3.4  T
  46   -503.5482776 -0.342535E-06  0.143E-03    0.00       4.2  T
  47   -503.5482779 -0.232867E-06  0.114E-03    0.00       5.3  T
  48   -503.5482782 -0.305547E-06  0.795E-04    0.00       7.6  T
  49   -503.5482784 -0.264202E-06  0.248E-04    0.00      24.5  T
     SCC iter.                  ...        0 min, 12.682 sec
     gradient                   ...        0 min,  0.518 sec
 * total energy  :  -494.8409639 Eh     change       -0.1735683E-01 Eh
   gradient norm :     0.0251580 Eh/α   predicted    -0.1664927E-01 (  -4.08%)
   displ. norm   :     0.8908240 α      lambda       -0.1701778E-01
   maximum displ.:     0.4263946 α      in ANC's #45, #21, #40, ...

........................................................................
.............................. CYCLE   13 ..............................
........................................................................
   1   -503.5633266 -0.503563E+03  0.207E-01    0.00       0.0  T
   2   -497.9446596  0.561867E+01  0.357E+00    0.03       1.0  T
   3   -502.5131426 -0.456848E+01  0.154E+00    0.00       1.0  T
   4   -500.9002785  0.161286E+01  0.243E+00    0.00       1.0  T
   5   -501.3883022 -0.488024E+00  0.240E+00    0.04       1.0  T
   6   -500.6778455  0.710457E+00  0.267E+00    0.02       1.0  T
   7   -502.8433197 -0.216547E+01  0.131E+00    0.00       1.0  T
   8   -501.4936987  0.134962E+01  0.224E+00    0.02       1.0  T
   9   -501.1902462  0.303453E+00  0.239E+00    0.00       1.0  T
  10   -502.1213825 -0.931136E+00  0.180E+00    0.01       1.0  T
  11   -502.7693860 -0.648003E+00  0.145E+00    0.01       1.0  T
  12   -503.1753724 -0.405986E+00  0.927E-01    0.00       1.0  T
  13   -503.3896909 -0.214319E+00  0.658E-01    0.00       1.0  T
  14   -503.4675434 -0.778525E-01  0.505E-01    0.00       1.0  T
  15   -503.5340257 -0.664823E-01  0.316E-01    0.00       1.0  T
  16   -503.4411826  0.928431E-01  0.511E-01    0.00       1.0  T
  17   -503.4791436 -0.379610E-01  0.443E-01    0.00       1.0  T
  18   -503.4413641  0.377795E-01  0.523E-01    0.01       1.0  T
  19   -503.5106357 -0.692715E-01  0.386E-01    0.00       1.0  T
  20   -503.4377496  0.728861E-01  0.511E-01    0.00       1.0  T
  21   -503.5133079 -0.755583E-01  0.356E-01    0.00       1.0  T
  22   -503.5219520 -0.864409E-02  0.318E-01    0.00       1.0  T
  23   -503.5363818 -0.144298E-01  0.268E-01    0.00       1.0  T
  24   -503.5444935 -0.811168E-02  0.238E-01    0.00       1.0  T
  25   -503.5600300 -0.155365E-01  0.164E-01    0.00       1.0  T
  26   -503.5691655 -0.913549E-02  0.707E-02    0.00       1.0  T
  27   -503.5676544  0.151112E-02  0.854E-02    0.00       1.0  T
  28   -503.5698258 -0.217149E-02  0.563E-02    0.00       1.0  T
  29   -503.5702587 -0.432819E-03  0.451E-02    0.00       1.0  T
  30   -503.5707154 -0.456780E-03  0.299E-02    0.00       1.0  T
  31   -503.5707582 -0.427597E-04  0.272E-02    0.00       1.0  T
  32   -503.5708563 -0.980848E-04  0.220E-02    0.00       1.0  T
  33   -503.5709639 -0.107586E-03  0.147E-02    0.00       1.0  T
  34   -503.5709281  0.357841E-04  0.175E-02    0.00       1.0  T
  35   -503.5709428 -0.147440E-04  0.166E-02    0.00       1.0  T
  36   -503.5709743 -0.314291E-04  0.138E-02    0.00       1.0  T
[...]
 457:  0.00 458:  0.00 459:  0.00 460:  0.00 461:  0.00 462:  0.00 463:  0.00 464:  0.00
 465:  0.00 466:  0.00 467:  0.00 468:  0.00 469:  0.00 470:  0.00 471:  0.00 472:  0.00
 473:  0.00 474:  0.00 475:  0.00 476:  0.00 477:  0.00 478:  0.00 479:  0.00 480:  0.00
 481:  0.00 482:  0.00 483:  0.00 484:  0.00 485:  0.00 486:  0.00 487:  0.00 488:  0.00
 489:  0.00 490:  0.00 491:  0.00 492:  0.00 493:  0.00 494:  0.00 495:  0.00 496:  0.00
 497:  0.00 498:  0.00 499:  0.00 500:  0.00 501:  0.00 502:  0.00 503:  0.00 504:  0.00
 505:  0.00 506:  0.00 507:  0.00 508:  0.00 509:  0.00 510:  0.00 511:  0.00 512:  0.00
 513:  0.00 514:  0.00 515:  0.00 516:  0.00 517:  0.00 518:  0.00 519:  0.00 520:  0.00
 521:  0.00 522:  0.00 523:  0.00 524:  0.00 525:  0.00 526:  0.00 527:  0.00 528:  0.00
 529:  0.00 530:  0.00 531:  0.00 532:  0.00 533:  0.00 534:  0.00 535:  0.00 536:  0.00
 537:  0.00 538:  0.00 539:  0.00 540:  0.00 541:  0.00 542:  0.00 543:  0.00 544:  0.00
 545:  0.00 546:  0.00 547:  0.00 548:  0.00 549:  0.00 550:  0.00 551:  0.00 552:  0.00
 553:  0.00 554:  0.00 555:  0.00 556:  0.00 557:  0.00 558:  0.00 559:  0.00 560:  0.00
 561:  0.00 562:  0.00 563:  0.00 564:  0.00 565:  0.00 566:  0.00 567:  0.00 568:  0.00
 569:  0.00 570:  0.00 571:  0.00 572:  0.00 573:  0.00 574:  0.00 575:  0.00 576:  0.00
 577:  0.00 578:  0.00 579:  0.00 580:  0.00 581:  0.00 582:  0.00 583:  0.00 584:  0.00
 585:  0.00 586:  0.00 587:  0.00 588:  0.00 589:  0.00 590:  0.00 591:  0.00 592:  0.00
 593:  0.00 594:  0.00 595:  0.00 596:  0.00 597:  0.00 598:  0.00 599:  0.00 600:  0.00
 601:  0.00 602:  0.00 603:  0.00 604:  0.00 605:  0.00 606:  0.00 607:  0.00 608:  0.00
 609:  0.00 610:  0.00 611:  0.00 612:  0.00 613:  0.00 614:  0.00 615:  0.00 616:  0.00
 617:  0.00 618:  0.00 619:  0.00 620:  0.00 621:  0.00 622:  0.00 623:  0.00 624:  0.00
 625:  0.00 626:  0.00 627:  0.00 628:  0.00 629:  0.00 630:  0.00 631:  0.00 632:  0.00
 633:  0.00 634:  0.00 635:  0.00 636:  0.00 637:  0.00 638:  0.00 639:  0.00 640:  0.00
 641:  0.00 642:  0.00 643:  0.00 644:  0.00 645:  0.00 646:  0.00 647:  0.00 648:  0.00
 649:  0.00 650:  0.00 651:  0.00 652:  0.00 653:  0.00 654:  0.00 655:  0.00 656:  0.00
 657:  0.00 658:  0.00 659:  0.00 660:  0.00 661:  0.00 662:  0.00 663:  0.00 664:  0.00
 665:  0.00 666:  0.00 667:  0.00 668:  0.00 669:  0.00 670:  0.00 671:  0.00 672:  0.00
 673:  0.00 674:  0.00 675:  0.00 676:  0.00 677:  0.00 678:  0.00 679:  0.00 680:  0.00
 681:  0.00 682:  0.00 683:  0.00 684:  0.00 685:  0.00 686:  0.00 687:  0.00 688:  0.00
 689:  0.00 690:  0.00 691:  0.00 692:  0.00 693:  0.00 694:  0.00 695:  0.00 696:  0.00
 697:  0.00 698:  0.00 699:  0.00 700:  0.00 701:  0.00 702:  0.00 703:  0.00 704:  0.00
 705:  0.00 706:  0.00 707:  0.00 708:  0.00 709:  0.00 710:  0.00 711:  0.00 712:  0.00
 713:  0.00 714:  0.00 715:  0.00 716:  0.00 717:  0.00 718:  0.00 719:  0.00 720:  0.00
 721:  0.00 722:  0.00 723:  0.00 724:  0.00 725:  0.00 726:  0.00 727:  0.00 728:  0.00
 729:  0.00 730:  0.00 731:  0.00 732:  0.00 733:  0.00 734:  0.00 735:  0.00 736:  0.00
 737:  0.00 738:  0.00 739:  0.00 740:  0.00 741:  0.00 742:  0.00 743:  0.00 744:  0.00
 745:  0.00 746:  0.00 747:  0.00 748:  0.00 749:  0.00 750:  0.00 751:  0.00 752:  0.00
 753:  0.00 754:  0.00 755:  0.00 756:  0.00 757:  0.00 758:  0.00 759:  0.00 760:  0.00
 761:  0.00 762:  0.00 763:  0.00 764:  0.00 765:  0.00 766:  0.00 767:  0.00 768:  0.00
 769:  0.00 770:  0.00 771:  0.00 772:  0.00 773:  0.00 774:  0.00 775:  0.00 776:  0.00
 777:  0.00 778:  0.00 779:  0.00 780:  0.00 781:  0.00 782:  0.00 783:  0.00 784:  0.00
 785:  0.00 786:  0.00 787:  0.00 788:  0.00 789:  0.00 790:  0.00 791:  0.00 792:  0.00
 793:  0.00 794:  0.00 795:  0.00 796:  0.00 797:  0.00 798:  0.00 799:  0.00 800:  0.00
 801:  0.00 802:  0.00 803:  0.00 804:  0.00 805:  0.00 806:  0.00 807:  0.00 808:  0.00
 809:  0.00 810:  0.00 811:  0.00 812:  0.00 813:  0.00
 output can be read by thermo (or use thermo option).
 writing <g98.out> molden fake output.
 recommended (thermochemical) frequency scaling factor: 1.0
           -------------------------------------------------
          |             Thermodynamic Functions             |
           -------------------------------------------------
 symmetry recognition skipped because # atoms >         200
 inverting freq            1   12.807297375192132     
 inverting freq            2   12.728895746348455     
 inverting freq            3   6.4825498105970203     
 inverting freq            4   5.7812165064222247     
 inverting freq            5   4.7080085763317694     
 inverting freq            6   3.3881342856351937     
 inverting freq            7   1.6444985699681578     

          ...................................................
          :                      SETUP                      :
          :.................................................:
          :  # frequencies                         806      :
          :  # imaginary freq.                       0      :
          :  linear?                             false      :
          :  only rotor calc.                    false      :
          :  symmetry                               C1      :
          :  rotational number                       1      :
          :  scaling factor                  1.0000000      :
          :  rotor cutoff                   50.0000000 cm⁻¹ :
          :  imag. cutoff                  -20.0000000 cm⁻¹ :
          :.................................................:

    mode    ω/cm⁻¹     T·S(HO)/kcal·mol⁻¹    T·S(FR)/kcal·mol⁻¹   T·S(vib)
   ------------------------------------------------------------------------
       1     12.81    -2.24193 (  0.43%)    -1.46003 ( 99.57%)    -1.46339
       2     12.73    -2.24557 (  0.42%)    -1.46185 ( 99.58%)    -1.46513
       3      6.48    -2.64528 (  0.03%)    -1.66175 ( 99.97%)    -1.66202
       4      5.78    -2.71312 (  0.02%)    -1.69567 ( 99.98%)    -1.69585
       5      4.71    -2.83478 (  0.01%)    -1.75650 ( 99.99%)    -1.75658
       6      3.39    -3.02969 (  0.00%)    -1.85396 (100.00%)    -1.85398
       7      1.64    -3.45796 (  0.00%)    -2.06809 (100.00%)    -2.06809
       8      1.46    -3.52888 (  0.00%)    -2.10355 (100.00%)    -2.10355
       9      1.75    -3.42206 (  0.00%)    -2.05014 (100.00%)    -2.05014
      10      2.44    -3.22343 (  0.00%)    -1.95083 (100.00%)    -1.95084
      11      3.39    -3.02861 (  0.00%)    -1.85342 (100.00%)    -1.85344
      12      3.44    -3.02032 (  0.00%)    -1.84927 (100.00%)    -1.84930
      13      4.48    -2.86378 (  0.01%)    -1.77100 ( 99.99%)    -1.77107
      14      5.23    -2.77225 (  0.01%)    -1.72523 ( 99.99%)    -1.72536
      15      5.63    -2.72849 (  0.02%)    -1.70335 ( 99.98%)    -1.70352
      16      5.76    -2.71546 (  0.02%)    -1.69684 ( 99.98%)    -1.69702
      17      6.08    -2.68304 (  0.02%)    -1.68063 ( 99.98%)    -1.68085
      18      8.09    -2.51378 (  0.07%)    -1.59599 ( 99.93%)    -1.59662
      19      8.30    -2.49865 (  0.08%)    -1.58842 ( 99.92%)    -1.58912
      20      9.94    -2.39197 (  0.16%)    -1.53508 ( 99.84%)    -1.53641
      21     10.26    -2.37305 (  0.18%)    -1.52561 ( 99.82%)    -1.52711
      22     11.34    -2.31422 (  0.26%)    -1.49619 ( 99.74%)    -1.49834
      23     11.88    -2.28651 (  0.32%)    -1.48233 ( 99.68%)    -1.48489
      24     12.73    -2.24555 (  0.42%)    -1.46184 ( 99.58%)    -1.46512
      25     20.29    -1.96950 (  2.64%)    -1.32375 ( 97.36%)    -1.34079
      26     20.58    -1.96120 (  2.79%)    -1.31960 ( 97.21%)    -1.33748
      27     21.03    -1.94830 (  3.03%)    -1.31314 ( 96.97%)    -1.33241
      28     21.43    -1.93698 (  3.27%)    -1.30747 ( 96.73%)    -1.32804
      29     21.79    -1.92725 (  3.48%)    -1.30260 ( 96.52%)    -1.32435
      30     22.00    -1.92162 (  3.61%)    -1.29979 ( 96.39%)    -1.32224
      31     23.19    -1.89042 (  4.42%)    -1.28417 ( 95.58%)    -1.31098
      32     23.29    -1.88781 (  4.50%)    -1.28287 ( 95.50%)    -1.31007
      33     23.45    -1.88390 (  4.61%)    -1.28091 ( 95.39%)    -1.30871
      34     27.85    -1.78204 (  8.78%)    -1.22992 ( 91.22%)    -1.27839
      35     32.48    -1.69111 ( 15.11%)    -1.18437 ( 84.89%)    -1.26095
      36     33.06    -1.68057 ( 16.05%)    -1.17909 ( 83.95%)    -1.25957
      37     35.40    -1.64010 ( 20.09%)    -1.15881 ( 79.91%)    -1.25550
      38     37.53    -1.60570 ( 24.09%)    -1.14156 ( 75.91%)    -1.25336
      39     39.24    -1.57933 ( 27.50%)    -1.12834 ( 72.50%)    -1.25237
      40     41.31    -1.54903 ( 31.78%)    -1.11314 ( 68.22%)    -1.25165
      41     43.62    -1.51687 ( 36.67%)    -1.09701 ( 63.33%)    -1.25098
      42     43.86    -1.51355 ( 37.20%)    -1.09534 ( 62.80%)    -1.25090
      43     44.09    -1.51051 ( 37.68%)    -1.09381 ( 62.32%)    -1.25083
      44     48.46    -1.45472 ( 46.88%)    -1.06581 ( 53.12%)    -1.24813
      45     52.15    -1.41148 ( 54.20%)    -1.04408 ( 45.80%)    -1.24321
      46     65.54    -1.27702 ( 74.69%)    -0.97639 ( 25.31%)    -1.20094
      47     77.14    -1.18137 ( 85.00%)    -0.92810 ( 15.00%)    -1.14337
      48     82.01    -1.14556 ( 87.86%)    -0.90997 ( 12.14%)    -1.11696
      49     86.76    -1.11264 ( 90.07%)    -0.89329 (  9.93%)    -1.09085
      50     88.29    -1.10246 ( 90.67%)    -0.88812 (  9.33%)    -1.08247
      51     93.97    -1.06607 ( 92.58%)    -0.86963 (  7.42%)    -1.05149
      52     97.38    -1.04535 ( 93.50%)    -0.85908 (  6.50%)    -1.03325
      53     98.62    -1.03798 ( 93.80%)    -0.85533 (  6.20%)    -1.02666
      54    100.80    -1.02530 ( 94.29%)    -0.84886 (  5.71%)    -1.01523
      55    100.89    -1.02477 ( 94.31%)    -0.84859 (  5.69%)    -1.01475
      56    102.58    -1.01511 ( 94.66%)    -0.84367 (  5.34%)    -1.00595
      57    103.28    -1.01113 ( 94.79%)    -0.84164 (  5.21%)    -1.00231
      58    105.21    -1.00043 ( 95.15%)    -0.83617 (  4.85%)    -0.99245
      59    107.37    -0.98867 ( 95.51%)    -0.83016 (  4.49%)    -0.98155
      60    109.81    -0.97562 ( 95.88%)    -0.82349 (  4.12%)    -0.96935
      61    116.65    -0.94072 ( 96.73%)    -0.80560 (  3.27%)    -0.93631
      62    117.40    -0.93702 ( 96.81%)    -0.80370 (  3.19%)    -0.93277
      63    117.44    -0.93682 ( 96.82%)    -0.80359 (  3.18%)    -0.93258
      64    117.49    -0.93657 ( 96.82%)    -0.80347 (  3.18%)    -0.93235
      65    117.53    -0.93634 ( 96.83%)    -0.80335 (  3.17%)    -0.93212
      66    117.60    -0.93602 ( 96.84%)    -0.80318 (  3.16%)    -0.93182
      67    119.13    -0.92856 ( 96.99%)    -0.79935 (  3.01%)    -0.92467
      68    119.16    -0.92842 ( 96.99%)    -0.79928 (  3.01%)    -0.92453
      69    123.34    -0.90855 ( 97.37%)    -0.78906 (  2.63%)    -0.90541
      70    125.24    -0.89978 ( 97.52%)    -0.78454 (  2.48%)    -0.89692
      71    133.38    -0.86364 ( 98.06%)    -0.76588 (  1.94%)    -0.86175
      72    141.52    -0.82982 ( 98.47%)    -0.74834 (  1.53%)    -0.82857
      73    145.91    -0.81244 ( 98.64%)    -0.73929 (  1.36%)    -0.81144
      74    147.79    -0.80514 ( 98.71%)    -0.73549 (  1.29%)    -0.80424
      75    149.71    -0.79781 ( 98.77%)    -0.73166 (  1.23%)    -0.79700
      76    150.06    -0.79650 ( 98.78%)    -0.73098 (  1.22%)    -0.79570
      77    152.48    -0.78743 ( 98.86%)    -0.72624 (  1.14%)    -0.78673
      78    154.69    -0.77927 ( 98.92%)    -0.72197 (  1.08%)    -0.77865
      79    155.75    -0.77543 ( 98.95%)    -0.71995 (  1.05%)    -0.77484
      80    157.22    -0.77013 ( 98.99%)    -0.71718 (  1.01%)    -0.76959
      81    162.23    -0.75241 ( 99.11%)    -0.70787 (  0.89%)    -0.75201
      82    166.02    -0.73943 ( 99.18%)    -0.70103 (  0.82%)    -0.73911
      83    175.04    -0.70980 ( 99.34%)    -0.68536 (  0.66%)    -0.70964
      84    186.58    -0.67428 ( 99.49%)    -0.66645 (  0.51%)    -0.67424
      85    188.94    -0.66732 ( 99.51%)    -0.66273 (  0.49%)    -0.66730
      86    189.03    -0.66706 ( 99.51%)    -0.66258 (  0.49%)    -0.66704
      87    189.15    -0.66671 ( 99.51%)    -0.66240 (  0.49%)    -0.66669
      88    189.26    -0.66639 ( 99.52%)    -0.66223 (  0.48%)    -0.66637
      89    189.38    -0.66603 ( 99.52%)    -0.66203 (  0.48%)    -0.66601
      90    189.50    -0.66569 ( 99.52%)    -0.66185 (  0.48%)    -0.66567
      91    189.56    -0.66550 ( 99.52%)    -0.66175 (  0.48%)    -0.66548
      92    204.26    -0.62445 ( 99.64%)    -0.63963 (  0.36%)    -0.62451
      93    222.70    -0.57753 ( 99.75%)    -0.61403 (  0.25%)    -0.57762
      94    223.39    -0.57586 ( 99.75%)    -0.61311 (  0.25%)    -0.57595
      95    224.14    -0.57405 ( 99.75%)    -0.61211 (  0.25%)    -0.57414
      96    225.51    -0.57078 ( 99.76%)    -0.61031 (  0.24%)    -0.57087
      97    225.96    -0.56971 ( 99.76%)    -0.60972 (  0.24%)    -0.56980
      98    226.14    -0.56928 ( 99.76%)    -0.60948 (  0.24%)    -0.56937
      99    226.29    -0.56894 ( 99.76%)    -0.60929 (  0.24%)    -0.56903
     100    226.34    -0.56881 ( 99.76%)    -0.60922 (  0.24%)    -0.56891
     101    226.55    -0.56830 ( 99.76%)    -0.60894 (  0.24%)    -0.56840
     102    226.59    -0.56821 ( 99.76%)    -0.60889 (  0.24%)    -0.56831
     103    226.73    -0.56789 ( 99.76%)    -0.60871 (  0.24%)    -0.56798
     104    226.76    -0.56781 ( 99.76%)    -0.60867 (  0.24%)    -0.56791
     105    226.87    -0.56754 ( 99.76%)    -0.60852 (  0.24%)    -0.56764
     106    226.90    -0.56749 ( 99.76%)    -0.60849 (  0.24%)    -0.56759
     107    231.27    -0.55726 ( 99.78%)    -0.60284 (  0.22%)    -0.55736
     108    231.34    -0.55711 ( 99.78%)    -0.60275 (  0.22%)    -0.55721
     109    238.86    -0.54005 ( 99.81%)    -0.59327 (  0.19%)    -0.54015
     110    239.80    -0.53796 ( 99.81%)    -0.59210 (  0.19%)    -0.53806
     111    239.88    -0.53779 ( 99.81%)    -0.59201 (  0.19%)    -0.53789
     112    240.02    -0.53749 ( 99.81%)    -0.59184 (  0.19%)    -0.53759
     113    240.13    -0.53724 ( 99.81%)    -0.59170 (  0.19%)    -0.53734
     114    240.24    -0.53700 ( 99.81%)    -0.59156 (  0.19%)    -0.53710
     115    241.12    -0.53506 ( 99.82%)    -0.59048 (  0.18%)    -0.53516
     116    242.77    -0.53145 ( 99.82%)    -0.58846 (  0.18%)    -0.53156
     117    243.20    -0.53051 ( 99.82%)    -0.58794 (  0.18%)    -0.53061
     118    243.23    -0.53044 ( 99.82%)    -0.58790 (  0.18%)    -0.53055
     119    244.34    -0.52803 ( 99.82%)    -0.58655 (  0.18%)    -0.52814
     120    247.59    -0.52107 ( 99.83%)    -0.58264 (  0.17%)    -0.52117
     121    248.99    -0.51810 ( 99.84%)    -0.58097 (  0.16%)    -0.51821
     122    249.03    -0.51802 ( 99.84%)    -0.58092 (  0.16%)    -0.51813
     123    249.49    -0.51705 ( 99.84%)    -0.58038 (  0.16%)    -0.51716
     124    249.72    -0.51655 ( 99.84%)    -0.58010 (  0.16%)    -0.51666
     125    250.02    -0.51594 ( 99.84%)    -0.57975 (  0.16%)    -0.51604
     126    250.03    -0.51590 ( 99.84%)    -0.57973 (  0.16%)    -0.51600
     127    250.32    -0.51531 ( 99.84%)    -0.57939 (  0.16%)    -0.51541
     128    250.54    -0.51483 ( 99.84%)    -0.57912 (  0.16%)    -0.51493
     129    250.71    -0.51448 ( 99.84%)    -0.57893 (  0.16%)    -0.51458
     130    261.11    -0.49324 ( 99.87%)    -0.56688 (  0.13%)    -0.49333
     131    262.27    -0.49094 ( 99.87%)    -0.56557 (  0.13%)    -0.49104
     132    262.82    -0.48986 ( 99.87%)    -0.56496 (  0.13%)    -0.48995
     133    263.43    -0.48865 ( 99.87%)    -0.56427 (  0.13%)    -0.48875
     134    264.06    -0.48740 ( 99.87%)    -0.56355 (  0.13%)    -0.48750
     135    264.47    -0.48661 ( 99.87%)    -0.56310 (  0.13%)    -0.48670
     136    264.97    -0.48561 ( 99.87%)    -0.56253 (  0.13%)    -0.48571
     137    265.09    -0.48538 ( 99.87%)    -0.56240 (  0.13%)    -0.48548
     138    265.25    -0.48507 ( 99.87%)    -0.56222 (  0.13%)    -0.48517
     139    265.31    -0.48497 ( 99.87%)    -0.56216 (  0.13%)    -0.48506
     140    265.40    -0.48478 ( 99.87%)    -0.56206 (  0.13%)    -0.48488
     141    266.02    -0.48357 ( 99.88%)    -0.56136 (  0.12%)    -0.48366
     142    266.19    -0.48325 ( 99.88%)    -0.56118 (  0.12%)    -0.48334
     143    266.82    -0.48202 ( 99.88%)    -0.56048 (  0.12%)    -0.48212
     144    266.90    -0.48187 ( 99.88%)    -0.56039 (  0.12%)    -0.48196
     145    277.77    -0.46135 ( 99.90%)    -0.54857 (  0.10%)    -0.46144
     146    289.16    -0.44092 ( 99.91%)    -0.53666 (  0.09%)    -0.44101
     147    289.92    -0.43961 ( 99.91%)    -0.53589 (  0.09%)    -0.43969
     148    291.00    -0.43772 ( 99.91%)    -0.53478 (  0.09%)    -0.43781
     149    292.24    -0.43558 ( 99.91%)    -0.53352 (  0.09%)    -0.43566
     150    293.27    -0.43382 ( 99.92%)    -0.53248 (  0.08%)    -0.43390
     151    293.80    -0.43290 ( 99.92%)    -0.53194 (  0.08%)    -0.43298
   ------------------------------------------------------------------------

   temp. (K)  partition function   enthalpy   heat capacity  entropy
                                   cal/mol     cal/K/mol   cal/K/mol   J/K/mol
 298.15  VIB  0.455E+92            98908.989    631.919    635.969
         ROT  0.174E+11              888.752      2.981     49.845
         INT  0.794+102            99797.742    634.900    685.814
         TR   0.147E+30             1481.254      4.968     49.678
         TOT                      101278.9955   639.8678   735.4918  3077.2978

       T/K    H(0)-H(T)+PV         H(T)/Eh          T*S/Eh         G(T)/Eh
   ------------------------------------------------------------------------
    298.15    0.161398E+00    0.201503E+01    0.349456E+00    0.166558E+01
   ------------------------------------------------------------------------

         :::::::::::::::::::::::::::::::::::::::::::::::::::::
         ::                  THERMODYNAMIC                  ::
         :::::::::::::::::::::::::::::::::::::::::::::::::::::
         :: total free energy        -493.756281777172 Eh   ::
         ::.................................................::
         :: total energy             -495.421858621390 Eh   ::
         :: zero point energy           1.853634389148 Eh   ::
         :: G(RRHO) w/o ZPVE           -0.188057544930 Eh   ::
         :: G(RRHO) contrib.            1.665576844218 Eh   ::
         :::::::::::::::::::::::::::::::::::::::::::::::::::::
imag cut-off (cm-1) :    5.00
 found            4  significant imaginary frequencies
 writing imag mode distorted coords to xtbhess.xyz
 for further optimization.

optimized geometry written to: xtbopt.xyz


           -------------------------------------------------
          | TOTAL ENERGY             -495.421858621390 Eh   |
          | TOTAL ENTHALPY           -493.406825879494 Eh   |
          | TOTAL FREE ENERGY        -493.756281777172 Eh   |
          | GRADIENT NORM               0.000734680733 Eh/α |
          | HOMO-LUMO GAP               0.000262835808 eV   |
           -------------------------------------------------

------------------------------------------------------------------------
 * finished run on 2021/11/20 at 16:58:15.607     
------------------------------------------------------------------------
 total:
 * wall-time:     0 d,  2 h,  9 min, 40.868 sec
 *  cpu-time:     0 d,  2 h,  9 min, 40.974 sec
 * ratio c/w:     1.000 speedup
 SCF:
 * wall-time:     0 d,  0 h,  1 min,  1.380 sec
 *  cpu-time:     0 d,  0 h,  1 min,  1.381 sec
 * ratio c/w:     1.000 speedup
 ANC optimizer:
 * wall-time:     0 d,  0 h, 11 min, 42.173 sec
 *  cpu-time:     0 d,  0 h, 11 min, 42.176 sec
 * ratio c/w:     1.000 speedup
 analytical hessian:
 * wall-time:     0 d,  1 h, 56 min, 56.887 sec
 *  cpu-time:     0 d,  1 h, 56 min, 56.989 sec
 * ratio c/w:     1.000 speedup

