271
 energy: -493.474682666198 gnorm: 1.014314018485 xtb: 6.4.1 (bd6e46d)
Co       42.10772900000000    0.04415900000000   -0.01372200000000
C        44.43672000000000   -3.10263400000000    1.30896700000000
C        45.35282700000000   -2.15842600000000    1.25868400000000
C        44.94164800000000   -1.10452200000000    0.33739300000000
C        45.56051800000000    0.01982400000000   -0.00901700000000
C        44.85647600000000    1.23977200000000   -0.37312300000000
C        45.18458700000000    2.19982700000000   -1.22059600000000
C        44.14980700000001    3.21611200000000   -1.23749400000000
C        43.21353900000000    2.83965000000000   -0.39060200000000
N        43.61552900000000    1.60663900000000    0.17321500000000
C        41.95246500000000    3.48465000000000   -0.01145100000000
C        40.85724700000000    2.84986700000000    0.33931000000000
C        39.78362200000000    3.16782300000000    1.30833800000000
C        38.94605900000001    2.17106900000000    1.23117100000000
C        39.38435700000000    1.16738600000000    0.25071900000000
N        40.48929500000000    1.60623900000000   -0.23357300000000
C        38.77352200000000   -0.08588500000000   -0.16282900000000
C        39.43768200000001   -1.19039100000000   -0.41725300000000
C        39.06383400000000   -2.25333300000000   -1.37478000000000
C        40.01258100000000   -3.14708900000000   -1.28576100000000
C        40.99830500000000   -2.70963900000000   -0.30288300000000
N        40.64525900000000   -1.56383400000000    0.19391400000000
C        42.22919300000000   -3.36570900000000    0.14283800000000
C        43.35223400000000   -2.71984800000000    0.40995900000000
N        43.68083400000000   -1.47240700000000   -0.18844500000000
H        44.49698200000000   -4.01241400000000    1.92651300000000
H        46.26915500000000   -2.19837600000000    1.83673300000000
H        46.11195200000001    2.21662300000000   -1.82174000000000
H        44.16670600000000    4.12080100000000   -1.85011500000000
H        41.90474200000001    4.57945200000000   -0.01522800000000
H        39.73080000000001    4.04654800000000    1.93333000000000
H        38.03442900000000    2.13539900000000    1.84849600000000
H        37.67527100000000   -0.08297400000000   -0.26209900000000
H        38.19497800000001   -2.30579800000000   -2.02373100000000
H        40.00973500000000   -4.06339700000000   -1.88452100000000
H        42.19371000000001   -4.46151100000000    0.25476300000000
Co      125.39376200000001   -0.00321700000000   -0.01815500000000
C       123.06477099999999    2.84357500000000    1.86534900000000
C       122.14866400000000    1.92508600000000    1.64077600000000
C       122.55984300000000    1.06038900000000    0.53996200000000
C       121.94097300000000    0.01982400000000   -0.00901700000000
C       122.64501500000000   -1.11140100000000   -0.59312000000000
C       122.31690400000001   -1.89757300000000   -1.60398700000000
C       123.35168400000001   -2.89308200000000   -1.80912700000000
C       124.28795200000000   -2.68026600000000   -0.90709700000000
N       123.88596200000001   -1.57325400000000   -0.12432600000000
C       125.54902700000001   -3.38440700000000   -0.65418400000000
C       126.64424400000000   -2.82571400000000   -0.19175100000000
C       127.71786899999999   -3.31791900000000    0.70147100000000
C       128.55543200000000   -2.32415200000000    0.81055700000000
C       128.11713499999999   -1.15600400000000    0.03332200000000
N       127.01219700000001   -1.49739600000000   -0.52397800000000
C       128.72796900000000    0.15223200000000   -0.14054800000000
C       128.06380899999999    1.28476500000000   -0.18565400000000
C       128.43765800000000    2.50689100000000   -0.92936900000000
C       127.48891000000000    3.36861800000000   -0.67609100000000
C       126.50318700000000    2.75642300000000    0.20857200000000
N       126.85623200000001    1.53834500000000    0.48418300000000
C       125.27229900000000    3.31841800000000    0.76826700000000
C       124.14925700000002    2.63421300000000    0.91093500000000
N       123.82065700000000    1.51943800000000    0.09150000000000
H       123.00450900000001    3.62300000000000    2.64095400000000
H       121.23233600000000    1.85710500000000    2.21620100000000
H       121.38953900000000   -1.80255600000000   -2.19781100000000
H       123.33478500000000   -3.66841600000000   -2.57894700000000
H       125.59674900000000   -4.45950500000000   -0.86099700000000
H       127.77069100000000   -4.29733600000000    1.15259800000000
H       129.46706300000000   -2.40362400000000    1.42378200000000
H       129.82622000000001    0.16778800000000   -0.23863600000000
H       129.30651300000000    2.67883500000000   -1.55732200000000
H       127.49175600000001    4.38009900000000   -1.09446800000000
H       125.30778100000001    4.37443400000000    1.08153600000000
C        48.45522200000000    0.01778800000000   -0.01012900000000
C        49.66319900000001    0.02524300000000   -0.00843400000000
C        51.08196700000000    0.02594000000000   -0.00329700000000
C        52.29748300000000    0.01778800000000   -0.01012900000000
C        61.80537300000000    0.01778800000000   -0.01012900000000
C        63.01335000000000    0.02524300000000   -0.00843400000000
C        64.43211700000001    0.02594000000000   -0.00329700000000
C        65.64763400000000    0.01778800000000   -0.01012900000000
C        75.15552300000000    0.01778800000000   -0.01012900000000
C        76.36350000000000    0.02524300000000   -0.00843400000000
C        77.78226800000002    0.02594000000000   -0.00329700000000
C        78.99778400000001    0.01778800000000   -0.01012900000000
C        88.50567400000000    0.01778800000000   -0.01012900000000
C        89.71365000000000    0.02524300000000   -0.00843400000000
C        91.13241800000002    0.02594000000000   -0.00329700000000
C        92.34793500000001    0.01778800000000   -0.01012900000000
C       101.85582400000000    0.01778800000000   -0.01012900000000
C       103.06380100000001    0.02524300000000   -0.00843400000000
C       104.48256900000000    0.02594000000000   -0.00329700000000
C       105.69808500000001    0.01778800000000   -0.01012900000000
C       115.20597500000000    0.01778800000000   -0.01012900000000
C       116.41395100000001    0.02524300000000   -0.00843400000000
C       117.83271900000000    0.02594000000000   -0.00329700000000
C       119.04823600000000    0.01778800000000   -0.01012900000000
Co       57.08606500000000    0.03792400000000    0.00200900000000
C        54.80625400000000   -3.22352300000000   -0.90765700000000
C        53.85004500000000   -2.32417300000000   -1.00968300000000
C        54.24241900000000   -1.16186800000000   -0.20716700000000
C        53.60730200000000   -0.01059600000000    0.00509900000000
C        54.29275900000000    1.26400400000000    0.23132800000000
C        53.95746900000000    2.34260400000000    0.93556900000000
C        54.98201000000001    3.36192100000000    0.84498700000000
C        55.93260800000001    2.86499600000000    0.07162200000000
N        55.55561400000001    1.54839100000000   -0.34452000000000
C        57.17974700000001    3.47669800000000   -0.34524300000000
C        58.28129900000000    2.80944100000000   -0.67701500000000
C        59.27484500000000    3.06142500000000   -1.71118400000000
C        60.16872900000000    2.10056600000000   -1.60970000000000
C        59.78903000000000    1.18868200000000   -0.50572300000000
N        58.69411500000000    1.63800100000000    0.00164300000000
C        60.44623700000001   -0.01059600000000    0.00509900000000
C        59.82282600000000   -1.07977800000000    0.46661600000000
C        60.20153900000000   -2.01189300000000    1.54209100000000
C        59.26087000000000   -2.92603900000000    1.62795800000000
C        58.25256900000000   -2.63026000000000    0.63053000000000
N        58.59034300000000   -1.57688300000000   -0.01876500000000
C        57.00017500000000   -3.33726700000000    0.29933700000000
C        55.88629900000000   -2.74057100000000   -0.04800400000000
N        55.50418700000001   -1.45781400000000    0.36967900000000
H        54.80659900000000   -4.21459700000000   -1.39889100000000
H        52.94151000000001   -2.44586700000000   -1.59083100000000
H        53.03261700000000    2.46095500000000    1.51249500000000
H        55.00930500000000    4.35108500000000    1.30163800000000
H        57.26568700000000    4.57407500000000   -0.40726600000000
H        59.30751800000000    3.86764100000000   -2.43800800000000
H        61.06179000000000    1.98759800000000   -2.24347500000000
H        61.11628900000000   -1.93748700000000    2.15226100000000
H        59.27991600000001   -3.73964700000000    2.33622500000000
H        57.03866000000001   -4.43722700000000    0.35837300000000
Co       70.43621500000002    0.03792400000000    0.00200900000000
C        68.15640399999999   -3.22352300000000   -0.90765700000000
C        67.20019499999999   -2.32417300000000   -1.00968300000000
C        67.59256900000000   -1.16186800000000   -0.20716700000000
C        66.95745300000000   -0.01059600000000    0.00509900000000
C        67.64291000000000    1.26400400000000    0.23132800000000
C        67.30762000000000    2.34260400000000    0.93556900000000
C        68.33216100000001    3.36192100000000    0.84498700000000
C        69.28275800000000    2.86499600000000    0.07162200000000
N        68.90576400000000    1.54839100000000   -0.34452000000000
C        70.52989800000000    3.47669800000000   -0.34524300000000
C        71.63144900000000    2.80944100000000   -0.67701500000000
C        72.62499600000000    3.06142500000000   -1.71118400000000
C        73.51887900000001    2.10056600000000   -1.60970000000000
C        73.13918099999999    1.18868200000000   -0.50572300000000
N        72.04426599999999    1.63800100000000    0.00164300000000
C        73.79638799999999   -0.01059600000000    0.00509900000000
C        73.17297600000002   -1.07977800000000    0.46661600000000
C        73.55168900000000   -2.01189300000000    1.54209100000000
C        72.61102000000000   -2.92603900000000    1.62795800000000
C        71.60271899999999   -2.63026000000000    0.63053000000000
N        71.94049400000000   -1.57688300000000   -0.01876500000000
C        70.35032600000000   -3.33726700000000    0.29933700000000
C        69.23644899999999   -2.74057100000000   -0.04800400000000
N        68.85433700000000   -1.45781400000000    0.36967900000000
H        68.15674900000000   -4.21459700000000   -1.39889100000000
H        66.29166100000000   -2.44586700000000   -1.59083100000000
H        66.38276700000000    2.46095500000000    1.51249500000000
H        68.35945599999999    4.35108500000000    1.30163800000000
H        70.61583800000000    4.57407500000000   -0.40726600000000
H        72.65766800000000    3.86764100000000   -2.43800800000000
H        74.41194000000002    1.98759800000000   -2.24347500000000
H        74.46643899999999   -1.93748700000000    2.15226100000000
H        72.63006700000000   -3.73964700000000    2.33622500000000
H        70.38881000000001   -4.43722700000000    0.35837300000000
Co       83.78636600000000    0.03792400000000    0.00200900000000
C        81.50655500000001   -3.22352300000000   -0.90765700000000
C        80.55034600000000   -2.32417300000000   -1.00968300000000
C        80.94271999999999   -1.16186800000000   -0.20716700000000
C        80.30760300000001   -0.01059600000000    0.00509900000000
C        80.99306000000000    1.26400400000000    0.23132800000000
C        80.65777000000001    2.34260400000000    0.93556900000000
C        81.68231100000001    3.36192100000000    0.84498700000000
C        82.63290900000000    2.86499600000000    0.07162200000000
N        82.25591400000000    1.54839100000000   -0.34452000000000
C        83.88004800000000    3.47669800000000   -0.34524300000000
C        84.98160000000000    2.80944100000000   -0.67701500000000
C        85.97514600000000    3.06142500000000   -1.71118400000000
C        86.86902900000001    2.10056600000000   -1.60970000000000
C        86.48933100000001    1.18868200000000   -0.50572300000000
N        85.39441600000001    1.63800100000000    0.00164300000000
C        87.14653800000001   -0.01059600000000    0.00509900000000
C        86.52312700000000   -1.07977800000000    0.46661600000000
C        86.90183900000001   -2.01189300000000    1.54209100000000
C        85.96117100000001   -2.92603900000000    1.62795800000000
C        84.95286900000001   -2.63026000000000    0.63053000000000
N        85.29064400000000   -1.57688300000000   -0.01876500000000
C        83.70047600000001   -3.33726700000000    0.29933700000000
C        82.58660000000002   -2.74057100000000   -0.04800400000000
N        82.20448700000000   -1.45781400000000    0.36967900000000
H        81.50689900000000   -4.21459700000000   -1.39889100000000
H        79.64181100000000   -2.44586700000000   -1.59083100000000
H        79.73291800000000    2.46095500000000    1.51249500000000
H        81.70960599999999    4.35108500000000    1.30163800000000
H        83.96598800000000    4.57407500000000   -0.40726600000000
H        86.00781900000001    3.86764100000000   -2.43800800000000
H        87.76209100000000    1.98759800000000   -2.24347500000000
H        87.81659000000002   -1.93748700000000    2.15226100000000
H        85.98021700000000   -3.73964700000000    2.33622500000000
H        83.73896100000002   -4.43722700000000    0.35837300000000
Co       97.13651600000000    0.03792400000000    0.00200900000000
C        94.85670500000001   -3.22352300000000   -0.90765700000000
C        93.90049600000000   -2.32417300000000   -1.00968300000000
C        94.29286999999999   -1.16186800000000   -0.20716700000000
C        93.65775400000000   -0.01059600000000    0.00509900000000
C        94.34321100000000    1.26400400000000    0.23132800000000
C        94.00792000000001    2.34260400000000    0.93556900000000
C        95.03246200000001    3.36192100000000    0.84498700000000
C        95.98305900000000    2.86499600000000    0.07162200000000
N        95.60606500000000    1.54839100000000   -0.34452000000000
C        97.23019900000000    3.47669800000000   -0.34524300000000
C        98.33175000000000    2.80944100000000   -0.67701500000000
C        99.32529700000002    3.06142500000000   -1.71118400000000
C       100.21917999999999    2.10056600000000   -1.60970000000000
C        99.83948200000000    1.18868200000000   -0.50572300000000
N        98.74456700000000    1.63800100000000    0.00164300000000
C       100.49668900000000   -0.01059600000000    0.00509900000000
C        99.87327700000002   -1.07977800000000    0.46661600000000
C       100.25199000000001   -2.01189300000000    1.54209100000000
C        99.31132100000002   -2.92603900000000    1.62795800000000
C        98.30302000000000   -2.63026000000000    0.63053000000000
N        98.64079500000000   -1.57688300000000   -0.01876500000000
C        97.05062700000001   -3.33726700000000    0.29933700000000
C        95.93675000000002   -2.74057100000000   -0.04800400000000
N        95.55463800000000   -1.45781400000000    0.36967900000000
H        94.85705000000000   -4.21459700000000   -1.39889100000000
H        92.99196200000000   -2.44586700000000   -1.59083100000000
H        93.08306800000001    2.46095500000000    1.51249500000000
H        95.05975700000000    4.35108500000000    1.30163800000000
H        97.31613900000001    4.57407500000000   -0.40726600000000
H        99.35796900000001    3.86764100000000   -2.43800800000000
H       101.11224100000000    1.98759800000000   -2.24347500000000
H       101.16674000000002   -1.93748700000000    2.15226100000000
H        99.33036800000001   -3.73964700000000    2.33622500000000
H        97.08911100000000   -4.43722700000000    0.35837300000000
Co      110.48666700000000    0.03792400000000    0.00200900000000
C       108.20685600000000   -3.22352300000000   -0.90765700000000
C       107.25064700000000   -2.32417300000000   -1.00968300000000
C       107.64302100000000   -1.16186800000000   -0.20716700000000
C       107.00790400000000   -0.01059600000000    0.00509900000000
C       107.69336100000000    1.26400400000000    0.23132800000000
C       107.35807100000000    2.34260400000000    0.93556900000000
C       108.38261200000001    3.36192100000000    0.84498700000000
C       109.33320999999999    2.86499600000000    0.07162200000000
N       108.95621500000000    1.54839100000000   -0.34452000000000
C       110.58034900000000    3.47669800000000   -0.34524300000000
C       111.68190100000000    2.80944100000000   -0.67701500000000
C       112.67544700000001    3.06142500000000   -1.71118400000000
C       113.56932999999999    2.10056600000000   -1.60970000000000
C       113.18963200000000    1.18868200000000   -0.50572300000000
N       112.09471700000000    1.63800100000000    0.00164300000000
C       113.84683900000000   -0.01059600000000    0.00509900000000
C       113.22342800000000   -1.07977800000000    0.46661600000000
C       113.60214000000001   -2.01189300000000    1.54209100000000
C       112.66147200000000   -2.92603900000000    1.62795800000000
C       111.65317000000000   -2.63026000000000    0.63053000000000
N       111.99094500000000   -1.57688300000000   -0.01876500000000
C       110.40077700000001   -3.33726700000000    0.29933700000000
C       109.28690100000000   -2.74057100000000   -0.04800400000000
N       108.90478800000000   -1.45781400000000    0.36967900000000
H       108.20720000000000   -4.21459700000000   -1.39889100000000
H       106.34211200000000   -2.44586700000000   -1.59083100000000
H       106.43321899999999    2.46095500000000    1.51249500000000
H       108.40990700000000    4.35108500000000    1.30163800000000
H       110.66628900000001    4.57407500000000   -0.40726600000000
H       112.70812000000001    3.86764100000000   -2.43800800000000
H       114.46239199999999    1.98759800000000   -2.24347500000000
H       114.51689100000000   -1.93748700000000    2.15226100000000
H       112.68051800000001   -3.73964700000000    2.33622500000000
H       110.43926200000001   -4.43722700000000    0.35837300000000
271
 energy: -493.909923832990 gnorm: 0.600016730484 xtb: 6.4.1 (bd6e46d)
Co       42.11662853156613    0.04224664388230   -0.01317598986142
C        44.43629594625551   -3.11059339537713    1.30238047022359
C        45.36515166210595   -2.15744314277039    1.25631527807493
C        44.93722807198717   -1.10751628422396    0.34171964022258
C        45.54302437735452    0.03797480970289   -0.01082226036433
C        44.84539352415452    1.23331086412998   -0.36475250232687
C        45.19474976893153    2.22507631730226   -1.23701600797490
C        44.17714854285207    3.21787024647239   -1.24992045617710
C        43.20628210423695    2.81817987680047   -0.38268403830590
N        43.58936637412059    1.58353540844842    0.17270559510929
C        41.96931948278390    3.48466512139897   -0.01248797820439
C        40.84729911942209    2.83551019785580    0.33999438940582
C        39.78604809697433    3.17483999061624    1.29464499869674
C        38.92359056924010    2.16400348996807    1.23393695240948
C        39.37937791265183    1.16730198713519    0.26427236846488
N        40.52371902414909    1.58515850589130   -0.21808821392360
C        38.76272442046545   -0.06632229555822   -0.15688103675512
C        39.44221738781619   -1.19439494843478   -0.42156677740856
C        39.05646941978543   -2.25188373753221   -1.36374339367791
C        40.01942837438443   -3.16558365288203   -1.28358393442944
C        41.00770799358683   -2.71780561926374   -0.30895124752606
N        40.65902999139529   -1.53832420177657    0.17228780600342
C        42.21234353516505   -3.37175247029719    0.13614299300134
C        43.35797199505239   -2.70446569614151    0.41194814538240
N        43.66939557480841   -1.46270190641975   -0.16400432491017
H        44.49050859588716   -4.00767943883929    1.91996966312252
H        46.27240890497404   -2.19114155554734    1.83447906712416
H        46.10926825854271    2.22315659643735   -1.82259061219079
H        44.17177285195764    4.11776564358630   -1.85072756922575
H        41.91660966794110    4.57623852386016   -0.01031669180818
H        39.73609839415151    4.04517164748806    1.92871986136366
H        38.03165978783404    2.12835441613613    1.84717307247960
H        37.67681864350460   -0.07704082233750   -0.26605825212271
H        38.19676322033182   -2.29854449057330   -2.01791546127285
H        40.01803924668930   -4.06592628289825   -1.88150541463963
H        42.19037834976779   -4.45787169896013    0.25473168625372
Co      125.38486426841384   -0.00142483812859   -0.01726906747766
C       123.06520049805479    2.85261636022576    1.86035696452192
C       122.13635419101473    1.92455878280831    1.63826276015450
C       122.56426438802441    1.06252694317952    0.54477280189560
C       121.95840137323360    0.00229845648720   -0.01405857540198
C       122.65610622884434   -1.10661501651590   -0.58370274554604
C       122.30674742123441   -1.91933303869831   -1.62478340309134
C       123.32435364237514   -2.89250924951441   -1.82165521708327
C       124.29521165314405   -2.66064033332849   -0.89534327262761
N       123.91210775461512   -1.55045946068943   -0.12055191978628
C       125.53217054882676   -3.38423347922340   -0.65520683200678
C       126.65419294580157   -2.81172832365297   -0.18841214937396
C       127.71544017947248   -3.32227216516541    0.68671273011234
C       128.57789997763211   -2.31771914168991    0.81458415747705
C       128.12211224439508   -1.15843637784961    0.04665445894378
N       126.97777668346019   -1.47956302857613   -0.50485431242636
C       128.73876391347835    0.13190476156972   -0.13833080003370
C       128.05926862801630    1.28950023794178   -0.18914971612091
C       128.44502061690676    2.50342039532255   -0.91879345742450
C       127.48206381643060    3.38638876824772   -0.67052068860776
C       126.49378206290977    2.76556979596708    0.20412549905094
N       126.84246800006488    1.51729342031464    0.45820659472995
C       125.28914890984454    3.32559903266793    0.76280810594314
C       124.14351538149036    2.61872280305489    0.91002845864535
N       123.83209547758437    1.50536285578990    0.11372479337144
H       123.01097996723612    3.61956322057232    2.63364584757845
H       121.22908318743445    1.85042651373671    2.21264439261814
H       121.39222670254384   -1.80880747547142   -2.19986347324818
H       123.32972419089006   -3.66532453998788   -2.57899353562888
H       125.58488522548390   -4.45726461203525   -0.85557891521180
H       127.76539370012632   -4.29513065495642    1.14832330576598
H       129.46983390279621   -2.39645658563266    1.42378953163129
H       129.82467172610887    0.16269251671425   -0.24362681769176
H       129.30472807686462    2.67062888105852   -1.55295331784085
H       127.48345108469654    4.38202620290887   -1.09103533616558
H       125.31111061694789    4.37086496384766    1.08082935798964
C        48.44633659867519    0.01802900406833   -0.00913233328364
C        49.66789407220410    0.02542351011960   -0.00845551698889
C        51.05612122285804    0.02638234966698   -0.00340639285953
C        52.27361676741592    0.02440703696943   -0.01240947351077
C        61.82023042059991    0.02358099137524   -0.00778574515594
C        63.03509830617600    0.02556372454186   -0.00707419420329
C        64.40887931485240    0.02629586888135   -0.00385633893326
C        65.62474956493314    0.02430238117992   -0.01321547787399
C        75.17034765894486    0.02361215210885   -0.00760032944680
C        76.38522428220652    0.02557333202612   -0.00703725990851
C        77.75905443630501    0.02629707387342   -0.00388292699889
C        78.97488555774366    0.02428859809739   -0.01327165635201
C        88.52047813191443    0.02361507651310   -0.00757472111145
C        89.73538856268927    0.02557694763331   -0.00702404249868
C        91.10918869379562    0.02629656776594   -0.00388581511297
C        92.32503451116047    0.02428085191739   -0.01328949809400
C       101.87057202364517    0.02360401951443   -0.00759302438349
C       103.08561911095499    0.02558492706351   -0.00699385988265
C       104.45925181533883    0.02629229811431   -0.00387538293046
C       105.67517037181219    0.02425032219008   -0.01332411004198
C       115.22258331839966    0.02383899414699   -0.00749828497688
C       116.43896824337439    0.02550833736401   -0.00739853169525
C       117.83038702787996    0.02541890414620   -0.00366505880625
C       119.05275481306786    0.01747144800601   -0.00967600113637
Co       57.07843598857560    0.03913738006093    0.00162948879992
C        54.80812638040946   -3.23947195125474   -0.90230684917133
C        53.84477647747187   -2.32258471470575   -1.00269871300940
C        54.26763940247509   -1.17627593555270   -0.20958718247919
C        53.62262458179839    0.00680118589239    0.00477685427982
C        54.31969762970764    1.26601909155604    0.22739333261684
C        53.94973230398305    2.36647007930160    0.94574510201429
C        54.95990854988497    3.36324662819263    0.85200398059453
C        55.94342686417877    2.84632650345549    0.06590634871733
N        55.58155621020262    1.53193403083375   -0.33185530776493
C        57.16666314248226    3.47747517438468   -0.34590699537419
C        58.28932559013661    2.79817609878667   -0.67741098203649
C        59.27912107454145    3.06815061455706   -1.70093924725801
C        60.18680798916547    2.08989975001824   -1.60831970781218
C        59.78990492942128    1.18806085088860   -0.51995927092025
N        58.65978735210219    1.61876858517042   -0.01265227468640
C        60.44893085515821    0.00526627251572   -0.00315340231978
C        59.80734899561524   -1.09232654610829    0.47402364010590
C        60.21246416716888   -2.00967749436287    1.53380775654439
C        59.25690121664901   -2.94024251064261    1.62730626947940
C        58.24202064299455   -2.63752787787875    0.63794495080769
N        58.57290577344514   -1.54186955560651   -0.00910838546576
C        57.01936935974739   -3.34425253466287    0.30803692451312
C        55.87499309633984   -2.72825604367577   -0.05453429703391
N        55.52012350655863   -1.44265179580003    0.34174898703743
H        54.81051344383965   -4.21117894306631   -1.39558722387683
H        52.94249381147976   -2.43795957252632   -1.58705578981676
H        53.03290119635754    2.46389665054882    1.51314531955046
H        55.00114868032620    4.34609934573242    1.30322266732563
H        57.25271233731560    4.56929040930818   -0.41143100122919
H        59.30176906907833    3.86611366577481   -2.43168006627182
H        61.06150911908755    1.98267800917753   -2.24053532016128
H        61.11141279316968   -1.93348666177427    2.14561906695548
H        59.27413018864612   -3.74412210474223    2.33658242294447
H        57.04302177664397   -4.43486946302071    0.35661049503805
Co       70.42825307536781    0.03911514950401    0.00165395685911
C        68.15777953329641   -3.23944986998088   -0.90247361985596
C        67.19467337328815   -2.32322828887598   -1.00244188619094
C        67.61772729933153   -1.17602830542058   -0.20874361263864
C        66.97372053519020    0.00642793814912    0.00468282739516
C        67.67003097739632    1.26633908189007    0.22727022829111
C        67.29991122495846    2.36664465565292    0.94583167436403
C        68.30982878497032    3.36326948671993    0.85200143690590
C        69.29368627349069    2.84607546179563    0.06574270232242
N        68.93177695817977    1.53191625879913   -0.33169910419969
C        70.51665446210338    3.47731739348135   -0.34573489560146
C        71.63959659232864    2.79796898128709   -0.67745291333827
C        72.62925378413043    3.06816097107710   -1.70100213855247
C        73.53700039150249    2.08991557174160   -1.60837648872727
C        73.13982307522427    1.18823809030845   -0.52005670662603
N        72.01000886427936    1.61879162655357   -0.01293874570012
C        73.79897385182673    0.00506698110915   -0.00302643387276
C        73.15755116177719   -1.09235111855730    0.47388741042060
C        73.56276951351650   -2.00986290082753    1.53388843987053
C        72.60724293859137   -2.94018483967000    1.62743922140459
C        71.59232801705279   -2.63697627288563    0.63796958101004
N        71.92307456807258   -1.54211098709248   -0.00897660528650
C        70.36918647949901   -3.34412916261727    0.30775566934626
C        69.22555600873454   -2.72795440928477   -0.05440588585850
N        68.87072090925233   -1.44257903883299    0.34164028279146
H        68.16057971698422   -4.21117346597888   -1.39566187458423
H        66.29263192846157   -2.43807498324461   -1.58719615649484
H        66.38303900457572    2.46397726592725    1.51324172388473
H        68.35121694529626    4.34614505339541    1.30316581126848
H        70.60285905392293    4.56923931700614   -0.41128728478619
H        72.65192301092775    3.86613131227612   -2.43168854067076
H        74.41167744827219    1.98268690793536   -2.24054068482169
H        74.46161170646054   -1.93351795993579    2.14566878236351
H        72.62428858284999   -3.74410000491938    2.33662551370841
H        70.39314740795966   -4.43480156691384    0.35642347673829
Co       83.77836057750038    0.03911221072693    0.00166046141647
C        81.50786959840808   -3.23945299151622   -0.90248728764045
C        80.54480840373751   -2.32330021513720   -1.00243260287664
C        80.96788090016125   -1.17598703039170   -0.20869639907390
C        80.32390971309000    0.00639597677547    0.00466518210653
C        81.02019843927648    1.26636819857354    0.22728933331237
C        80.65007344042597    2.36665934170276    0.94585637588139
C        81.65995567627505    3.36327278941223    0.85199936140960