 Entering Gaussian System
 *********************************************
 Gaussian 98:
 frequency output generated by the xtb code
 *********************************************
                         Standard orientation:
 --------------------------------------------------------------------
  Center     Atomic     Atomic              Coordinates (Angstroms)
  Number     Number      Type              X           Y           Z
 --------------------------------------------------------------------
    1         30             0        6.650554   -0.052433    0.030156
    2          6             0        9.138672   -3.518888    0.099778
    3          6             0       10.103971   -2.568455    0.128233
    4          6             0        9.431392   -1.300818    0.112700
    5          6             0       10.086324   -0.058470    0.138663
    6          6             0        9.436064    1.186727    0.125641
    7          6             0       10.112355    2.452106    0.156009
    8          6             0        9.150201    3.405823    0.128370
    9          6             0        7.889781    2.720714    0.080317
   10          7             0        8.095340    1.373493    0.081444
   11          6             0        6.657124    3.350563    0.035959
   12          6             0        5.423082    2.723878   -0.012110
   13          6             0        4.159313    3.408046   -0.059384
   14          6             0        3.200731    2.453317   -0.093431
   15          6             0        3.878084    1.184907   -0.066572
   16          7             0        5.221755    1.379986   -0.018682
   17          6             0        3.243667   -0.046557   -0.083604
   18          6             0        3.872970   -1.280467   -0.057336
   19          6             0        3.190820   -2.546469   -0.073791
   20          6             0        4.146100   -3.504554   -0.040422
   21          6             0        5.412610   -2.824780   -0.003900
   22          7             0        5.216091   -1.480259   -0.014043
   23          6             0        6.645036   -3.455433    0.032651
   24          6             0        7.880032   -2.829616    0.066240
   25          7             0        8.089935   -1.483038    0.074043
   26          1             0        9.253482   -4.585638    0.100849
   27          1             0       11.168922   -2.696093    0.156677
   28          1             0       11.177344    2.576460    0.192871
   29          1             0        9.268339    4.472208    0.138720
   30          1             0        6.659821    4.431750    0.039055
   31          1             0        4.040871    4.474645   -0.065438
   32          1             0        2.135436    2.576867   -0.132878
   33          1             0        2.163255   -0.044348   -0.119864
   34          1             0        2.124868   -2.666412   -0.106502
   35          1             0        4.023800   -4.570730   -0.040178
   36          1             0        6.644373   -4.536636    0.034339
   37          6             0       11.483804   -0.061233    0.179007
   38          6             0       12.703422   -0.053386    0.208444
   39          6             0       14.039829   -0.048447    0.233567
   40          6             0       15.264054   -0.040013    0.245792
   41          6             0       16.600701   -0.033075    0.237842
   42          6             0       17.820324   -0.014841    0.213268
   43         30             0       22.646753    0.053491   -0.053857
   44          6             0       20.112687    3.479006    0.171812
   45          6             0       19.162663    2.513531    0.209794
   46          6             0       19.852604    1.256929    0.144121
   47          6             0       19.217326    0.004109    0.163129
   48          6             0       19.886584   -1.230334    0.127092
   49          6             0       19.231642   -2.506310    0.175790
   50          6             0       20.207892   -3.444504    0.123437
   51          6             0       21.455266   -2.739410    0.037655
   52          7             0       21.228305   -1.395673    0.045166
   53          6             0       22.695360   -3.349520   -0.051691
   54          6             0       23.915824   -2.703247   -0.155574
   55          6             0       25.186530   -3.367096   -0.265741
   56          6             0       26.126234   -2.397127   -0.352987
   57          6             0       25.430701   -1.139723   -0.292809
   58          7             0       24.094719   -1.356389   -0.174600
   59          6             0       26.043326    0.101843   -0.342227
   60          6             0       25.397212    1.325378   -0.272683
   61          6             0       26.058085    2.602109   -0.312065
   62          6             0       25.092074    3.544513   -0.210352
   63          6             0       23.839985    2.844494   -0.112093
   64          7             0       24.055776    1.503473   -0.152125
   65          6             0       22.602044    3.455223   -0.000345
   66          6             0       21.379111    2.809982    0.077731
   67          7             0       21.189293    1.460416    0.065845
   68          1             0       19.982579    4.543616    0.201642
   69          1             0       18.097651    2.624511    0.277859
   70          1             0       18.170194   -2.647476    0.243216
   71          1             0       20.107257   -4.512631    0.138611
   72          1             0       22.710148   -4.430601   -0.046843
   73          1             0       25.321986   -4.431644   -0.275098
   74          1             0       27.189857   -2.503493   -0.448231
   75          1             0       27.119932    0.117270   -0.438613
   76          1             0       27.118433    2.739278   -0.404497
   77          1             0       25.198259    4.612397   -0.202623
   78          1             0       22.587133    4.536125    0.020801
 --------------------------------------------------------------------
     1 basis functions        1 primitive gaussians
     1 alpha electrons        1 beta electrons

 Harmonic frequencies (cm**-1), IR intensities (km*mol⁻¹),
 Raman scattering activities (A**4/amu), Raman depolarization ratios,
 reduced masses (AMU), force constants (mDyne/A) and normal coordinates:
                      1                      2                      3
                        a                      a                      a 
 Frequencies --     2.2815                 6.7127                 7.4962
 Red. masses --    11.2413                11.5952                11.7252
 Frc consts  --     0.0000                 0.0000                 0.0000
 IR Inten    --     0.0040                 0.0006                 0.0421
 Raman Activ --     0.0000                 0.0000                 0.0000
 Depolar     --     0.0000                 0.0000                 0.0000
 Atom AN      X      Y      Z        X      Y      Z        X      Y      Z
   1  30    -0.00   0.00   0.00    -0.00  -0.04  -0.00     0.02  -0.00  -0.04
   2   6     0.01   0.00  -0.20     0.12   0.07  -0.01     0.01   0.00   0.10
   3   6     0.00   0.00  -0.14     0.09   0.11  -0.01     0.00   0.00   0.14
   4   6     0.00   0.00  -0.07     0.04   0.08  -0.00     0.01   0.00   0.11
   5   6    -0.00   0.00  -0.00    -0.00   0.11  -0.00     0.00   0.00   0.13
   6   6    -0.00   0.00   0.07    -0.05   0.08   0.00     0.00   0.00   0.11
   7   6    -0.00   0.00   0.14    -0.09   0.11   0.00     0.00   0.00   0.15
   8   6    -0.01  -0.00   0.19    -0.13   0.07   0.01     0.00   0.00   0.11
   9   6    -0.01   0.00   0.16    -0.10   0.03   0.01     0.01  -0.00   0.05
  10   7    -0.00   0.00   0.09    -0.06   0.04   0.00     0.01   0.00   0.06
  11   6    -0.01   0.00   0.19    -0.12  -0.02   0.01     0.01  -0.00  -0.00
  12   6    -0.01   0.00   0.16    -0.10  -0.06   0.01     0.01  -0.00  -0.07
  13   6    -0.01   0.00   0.20    -0.13  -0.11   0.01     0.01  -0.00  -0.13
  14   6    -0.01   0.00   0.15    -0.09  -0.14   0.01     0.02  -0.00  -0.19
  15   6    -0.00   0.00   0.07    -0.05  -0.12   0.00     0.01  -0.00  -0.16
  16   7    -0.00   0.00   0.09    -0.06  -0.07   0.00     0.01  -0.00  -0.09
  17   6    -0.00   0.00   0.00    -0.00  -0.14   0.00     0.02  -0.00  -0.19
  18   6     0.00   0.00  -0.07     0.04  -0.12  -0.00     0.01  -0.00  -0.16
  19   6     0.00  -0.00  -0.14     0.09  -0.14  -0.00     0.01  -0.00  -0.20
  20   6     0.01  -0.00  -0.20     0.12  -0.11  -0.01     0.01  -0.00  -0.14
  21   6     0.01   0.00  -0.16     0.10  -0.06  -0.01     0.01  -0.00  -0.08
  22   7     0.00   0.00  -0.09     0.05  -0.07  -0.00     0.01  -0.00  -0.10
  23   6     0.01   0.00  -0.19     0.12  -0.02  -0.01     0.01  -0.00  -0.01
  24   6     0.01   0.00  -0.16     0.10   0.03  -0.01     0.01  -0.00   0.04
  25   7     0.00   0.00  -0.09     0.05   0.04  -0.00     0.01   0.00   0.06
  26   1     0.00   0.00  -0.07     0.05   0.02  -0.00     0.00   0.00   0.03
  27   1     0.00   0.00  -0.04     0.03   0.04  -0.00     0.00   0.00   0.05
  28   1    -0.00   0.00   0.04    -0.03   0.04   0.00     0.00   0.00   0.06
  29   1    -0.00  -0.00   0.07    -0.05   0.02   0.00     0.00  -0.00   0.04
  30   1    -0.00   0.00   0.07    -0.05  -0.00   0.00     0.00  -0.00   0.00
  31   1    -0.00   0.00   0.08    -0.05  -0.03   0.00     0.00  -0.00  -0.04
  32   1    -0.00   0.00   0.05    -0.03  -0.05   0.00     0.01  -0.00  -0.07
  33   1    -0.00   0.00   0.00    -0.00  -0.05   0.00     0.00  -0.00  -0.07
  34   1     0.00  -0.00  -0.04     0.03  -0.05  -0.00     0.00  -0.00  -0.07
  35   1     0.00  -0.00  -0.07     0.05  -0.03  -0.00     0.00  -0.00  -0.04
  36   1     0.00   0.00  -0.07     0.05  -0.00  -0.00     0.00  -0.00  -0.00
  37   6    -0.00   0.00  -0.00    -0.00   0.15  -0.00     0.00   0.00   0.18
  38   6    -0.00   0.00  -0.00    -0.00   0.18  -0.00     0.00   0.00   0.20
  39   6    -0.00   0.00  -0.00    -0.00   0.19  -0.00     0.00   0.00   0.21
  40   6    -0.00   0.00  -0.00    -0.00   0.19  -0.00     0.00   0.00   0.21
  41   6    -0.00   0.00  -0.00    -0.00   0.18  -0.00     0.00   0.00   0.20
  42   6    -0.00   0.00  -0.00    -0.00   0.15  -0.00     0.00   0.00   0.18
  43  30     0.00  -0.00   0.00     0.00  -0.04   0.00    -0.02  -0.00  -0.04
  44   6    -0.01   0.01  -0.20     0.12   0.07   0.01     0.00   0.00   0.11
  45   6    -0.01   0.01  -0.14     0.09   0.11   0.01     0.00   0.00   0.14
  46   6    -0.00   0.00  -0.07     0.04   0.08   0.00    -0.00   0.00   0.11
  47   6    -0.00   0.00  -0.00    -0.00   0.11  -0.00     0.00   0.00   0.13
  48   6     0.00   0.00   0.07    -0.04   0.08  -0.00    -0.00   0.00   0.11
  49   6     0.01   0.00   0.14    -0.09   0.11  -0.01     0.00   0.00   0.15
  50   6     0.01   0.00   0.19    -0.12   0.07  -0.01    -0.00   0.00   0.11
  51   6     0.01   0.00   0.16    -0.10   0.03  -0.01    -0.00   0.00   0.05
  52   7     0.00   0.00   0.09    -0.05   0.04  -0.01    -0.00   0.00   0.06
  53   6     0.01  -0.00   0.19    -0.12  -0.02  -0.01    -0.01   0.00  -0.01
  54   6     0.01  -0.00   0.16    -0.10  -0.06  -0.01    -0.01  -0.00  -0.07
  55   6     0.01  -0.01   0.20    -0.12  -0.11  -0.01    -0.02  -0.00  -0.14
  56   6     0.01  -0.01   0.15    -0.09  -0.14  -0.01    -0.02  -0.00  -0.19
  57   6     0.00  -0.01   0.07    -0.04  -0.12  -0.00    -0.02  -0.00  -0.16
  58   7     0.00  -0.00   0.09    -0.05  -0.07  -0.01    -0.02  -0.00  -0.09
  59   6     0.00  -0.01   0.00     0.00  -0.14   0.00    -0.02  -0.00  -0.19
  60   6    -0.00  -0.01  -0.07     0.05  -0.12   0.01    -0.02  -0.00  -0.16
  61   6    -0.01  -0.01  -0.14     0.09  -0.14   0.01    -0.02  -0.00  -0.19
  62   6    -0.01  -0.00  -0.20     0.13  -0.10   0.01    -0.02  -0.00  -0.14
  63   6    -0.01  -0.00  -0.16     0.10  -0.06   0.01    -0.01  -0.00  -0.08
  64   7    -0.00  -0.00  -0.09     0.06  -0.07   0.01    -0.02  -0.00  -0.10
  65   6    -0.01   0.00  -0.19     0.12  -0.02   0.01    -0.01  -0.00  -0.01
  66   6    -0.01   0.00  -0.16     0.10   0.03   0.01    -0.00  -0.00   0.05
  67   7    -0.00   0.00  -0.09     0.06   0.04   0.01    -0.00   0.00   0.06
  68   1    -0.00   0.00  -0.07     0.05   0.02   0.00     0.00  -0.00   0.03
  69   1    -0.00   0.00  -0.04     0.03   0.04   0.00     0.00   0.00   0.06
  70   1     0.00   0.00   0.04    -0.03   0.04  -0.00     0.00   0.00   0.06
  71   1     0.00   0.00   0.07    -0.05   0.02  -0.00     0.00   0.00   0.03
  72   1     0.00  -0.00   0.07    -0.05  -0.01  -0.00    -0.00   0.00  -0.00
  73   1     0.00  -0.00   0.08    -0.05  -0.03  -0.00    -0.01  -0.00  -0.04
  74   1     0.00  -0.00   0.04    -0.03  -0.05  -0.00    -0.01  -0.00  -0.07
  75   1     0.00  -0.00   0.00     0.00  -0.05   0.00    -0.01  -0.00  -0.07
  76   1    -0.00  -0.00  -0.04     0.03  -0.05   0.00    -0.01  -0.00  -0.07
  77   1    -0.00  -0.00  -0.07     0.05  -0.03   0.00    -0.00  -0.00  -0.04
  78   1    -0.00   0.00  -0.07     0.05  -0.00   0.00    -0.00  -0.00  -0.00
                      4                      5                      6
                        a                      a                      a 
 Frequencies --    16.9479                23.7227                37.9830
 Red. masses --    12.1181                12.4963                12.1790
 Frc consts  --     0.0000                 0.0000                 0.0000
 IR Inten    --     0.0147                 0.0014                 0.0670
 Raman Activ --     0.0000                 0.0000                 0.0000
 Depolar     --     0.0000                 0.0000                 0.0000
 Atom AN      X      Y      Z        X      Y      Z        X      Y      Z
   1  30     0.01   0.00  -0.08     0.00  -0.10  -0.00    -0.03  -0.00   0.07
   2   6     0.01   0.00  -0.18    -0.12  -0.13  -0.01    -0.02  -0.00   0.15
   3   6     0.01   0.00  -0.19    -0.09  -0.16  -0.01    -0.01  -0.00   0.05
   4   6     0.01   0.00  -0.15    -0.04  -0.14  -0.00    -0.01  -0.00   0.00
   5   6     0.01   0.00  -0.15     0.00  -0.16  -0.00    -0.01  -0.00  -0.06
   6   6     0.01   0.00  -0.15     0.04  -0.14   0.00    -0.01  -0.00   0.00
   7   6     0.01   0.00  -0.19     0.09  -0.17   0.00    -0.01  -0.00   0.05
   8   6     0.01   0.00  -0.18     0.12  -0.13   0.00    -0.02  -0.00   0.14
   9   6     0.01   0.00  -0.13     0.10  -0.09   0.00    -0.02  -0.00   0.14
  10   7     0.01   0.00  -0.12     0.05  -0.10   0.00    -0.01  -0.00   0.06
  11   6     0.00   0.00  -0.07     0.12  -0.04   0.00    -0.02  -0.00   0.16
  12   6     0.00   0.00   0.01     0.10   0.00   0.00    -0.01  -0.00   0.07
  13   6    -0.00  -0.00   0.09     0.12   0.05   0.01    -0.01  -0.00   0.01
  14   6    -0.01  -0.00   0.17     0.09   0.08   0.00    -0.01   0.00  -0.11
  15   6    -0.00  -0.00   0.14     0.04   0.06   0.00    -0.01  -0.00  -0.11
  16   7    -0.00  -0.00   0.05     0.06   0.01   0.00    -0.01  -0.00  -0.00
  17   6    -0.00  -0.00   0.19     0.00   0.08   0.00    -0.01   0.00  -0.17
  18   6    -0.00  -0.00   0.14    -0.04   0.06  -0.00    -0.01   0.00  -0.11
  19   6    -0.00  -0.00   0.17    -0.09   0.08  -0.00    -0.01   0.00  -0.11
  20   6     0.00  -0.00   0.09    -0.12   0.05  -0.00    -0.01   0.00   0.01
  21   6     0.00  -0.00   0.01    -0.10   0.00  -0.00    -0.01   0.00   0.07
  22   7     0.00  -0.00   0.05    -0.05   0.01  -0.00    -0.01   0.00  -0.00
  23   6     0.01   0.00  -0.07    -0.12  -0.04  -0.01    -0.02   0.00   0.16
  24   6     0.01   0.00  -0.12    -0.10  -0.09  -0.00    -0.02   0.00   0.14
  25   7     0.01   0.00  -0.12    -0.05  -0.10  -0.00    -0.01   0.00   0.06
  26   1     0.00   0.00  -0.06    -0.05  -0.04  -0.00    -0.01  -0.00   0.06
  27   1     0.00   0.00  -0.07    -0.03  -0.06  -0.00    -0.00  -0.00   0.01
  28   1     0.00   0.00  -0.07     0.03  -0.06   0.00    -0.00  -0.00   0.01
  29   1     0.00   0.00  -0.06     0.05  -0.04   0.00    -0.01  -0.00   0.06
  30   1     0.00   0.00  -0.03     0.05  -0.01   0.00    -0.01  -0.00   0.06
  31   1    -0.00  -0.00   0.02     0.05   0.02   0.00    -0.00   0.00   0.01
  32   1    -0.00  -0.00   0.07     0.03   0.04   0.00    -0.00   0.00  -0.05
  33   1    -0.00  -0.00   0.08     0.00   0.03   0.00    -0.00   0.00  -0.07
  34   1    -0.00  -0.00   0.07    -0.03   0.04  -0.00    -0.00  -0.00  -0.05
  35   1     0.00  -0.00   0.03    -0.05   0.02  -0.00    -0.00   0.00   0.01
  36   1     0.00   0.00  -0.03    -0.05  -0.01  -0.00    -0.01   0.00   0.06
  37   6     0.01   0.00  -0.13     0.00  -0.19  -0.00    -0.00   0.00  -0.18
  38   6     0.00   0.00  -0.09    -0.00  -0.13  -0.00    -0.00   0.00  -0.29
  39   6     0.00   0.00  -0.03    -0.00  -0.06  -0.00    -0.00   0.00  -0.34
  40   6     0.00  -0.00   0.03    -0.00   0.06   0.00    -0.00   0.00  -0.34
  41   6     0.00  -0.00   0.09    -0.00   0.13   0.00     0.00   0.00  -0.29
  42   6     0.00  -0.00   0.13    -0.00   0.19   0.00     0.00   0.00  -0.18
  43  30    -0.01  -0.00   0.08    -0.00   0.10   0.00     0.04  -0.00   0.08
  44   6     0.01  -0.00   0.18     0.12   0.13  -0.01     0.02  -0.00   0.14
  45   6     0.01  -0.00   0.19     0.09   0.17  -0.00     0.02  -0.00   0.05
  46   6     0.01  -0.00   0.15     0.04   0.14  -0.00     0.01  -0.00   0.00
  47   6     0.00  -0.00   0.15    -0.00   0.16   0.00     0.01   0.00  -0.06
  48   6     0.01  -0.00   0.15    -0.04   0.14   0.00     0.01   0.00   0.00
  49   6     0.01  -0.00   0.19    -0.09   0.16   0.01     0.02   0.00   0.05
  50   6     0.01  -0.00   0.18    -0.12   0.13   0.01     0.02   0.00   0.15
  51   6     0.00  -0.00   0.12    -0.10   0.08   0.00     0.02   0.00   0.14
  52   7     0.00  -0.00   0.12    -0.05   0.10   0.00     0.02   0.00   0.06
  53   6     0.00  -0.00   0.07    -0.12   0.04   0.00     0.02   0.00   0.16
  54   6    -0.01   0.00  -0.01    -0.10  -0.00  -0.00     0.02   0.00   0.07
  55   6    -0.01   0.00  -0.09    -0.12  -0.05  -0.00     0.01   0.00   0.01
  56   6    -0.02   0.00  -0.17    -0.09  -0.08  -0.00     0.00   0.00  -0.11
  57   6    -0.02   0.00  -0.14    -0.04  -0.06  -0.00     0.00   0.00  -0.11
  58   7    -0.01   0.00  -0.05    -0.05  -0.01  -0.00     0.01   0.00  -0.00
  59   6    -0.02   0.00  -0.19     0.00  -0.08  -0.00    -0.00   0.00  -0.17
  60   6    -0.02   0.00  -0.14     0.05  -0.06   0.00     0.00   0.00  -0.11
  61   6    -0.02   0.00  -0.17     0.09  -0.08   0.00     0.00   0.00  -0.11
  62   6    -0.01   0.00  -0.09     0.12  -0.05   0.00     0.01  -0.00   0.01
  63   6    -0.01  -0.00  -0.01     0.10  -0.00   0.00     0.02  -0.00   0.07
  64   7    -0.01   0.00  -0.05     0.06  -0.01   0.00     0.01  -0.00  -0.00
  65   6     0.00  -0.00   0.07     0.12   0.04  -0.00     0.02  -0.00   0.16
  66   6     0.00  -0.00   0.12     0.10   0.09  -0.00     0.02  -0.00   0.14
  67   7     0.00  -0.00   0.12     0.05   0.10  -0.00     0.02  -0.00   0.06
  68   1     0.00  -0.00   0.06     0.05   0.04  -0.00     0.01  -0.00   0.06
  69   1     0.00  -0.00   0.07     0.03   0.06  -0.00     0.00   0.00   0.01
  70   1     0.00  -0.00   0.07    -0.03   0.06   0.00     0.00  -0.00   0.01
  71   1     0.00  -0.00   0.06    -0.05   0.04   0.00     0.01   0.00   0.06
  72   1     0.00   0.00   0.03    -0.05   0.01   0.00     0.01   0.00   0.06
  73   1    -0.00   0.00  -0.03    -0.05  -0.02  -0.00     0.00   0.00   0.01
  74   1    -0.01   0.00  -0.07    -0.03  -0.04  -0.00    -0.00   0.00  -0.05
  75   1    -0.01   0.00  -0.08     0.00  -0.03  -0.00    -0.00   0.00  -0.07
  76   1    -0.01   0.00  -0.07     0.03  -0.03   0.00    -0.00   0.00  -0.05
  77   1    -0.00   0.00  -0.02     0.05  -0.01   0.00     0.00  -0.00   0.01
  78   1     0.00  -0.00   0.03     0.05   0.01  -0.00     0.01  -0.00   0.06
                      7                      8                      9
                        a                      a                      a 
 Frequencies --    41.0447                41.3097                60.4576
 Red. masses --    10.9748                10.9727                12.1832
 Frc consts  --     0.0000                 0.0000                 0.0000
 IR Inten    --     1.4091                 0.3441                 0.6887
 Raman Activ --     0.0000                 0.0000                 0.0000
 Depolar     --     0.0000                 0.0000                 0.0000
 Atom AN      X      Y      Z        X      Y      Z        X      Y      Z
   1  30     0.00  -0.00   0.00    -0.00  -0.00  -0.00     0.03   0.00  -0.10
   2   6     0.01  -0.00  -0.23    -0.01  -0.00   0.20     0.01  -0.00   0.10
   3   6     0.01  -0.00  -0.23    -0.01  -0.00   0.20     0.01   0.00  -0.07
   4   6     0.00  -0.00  -0.11    -0.00  -0.00   0.09     0.01  -0.00  -0.13
   5   6    -0.00  -0.00  -0.00     0.00  -0.00  -0.00     0.01   0.00  -0.20
   6   6    -0.00  -0.00   0.11     0.00  -0.00  -0.09     0.01   0.00  -0.13
   7   6    -0.01  -0.00   0.23     0.01  -0.00  -0.20     0.01  -0.00  -0.07
   8   6    -0.01  -0.00   0.23     0.01  -0.00  -0.20     0.01   0.00   0.10
   9   6    -0.00  -0.00   0.11     0.00  -0.00  -0.09     0.01   0.00   0.11
  10   7    -0.00  -0.00   0.06     0.00  -0.00  -0.05     0.01   0.00  -0.03
  11   6     0.00  -0.00  -0.00     0.00  -0.00   0.00     0.00   0.00   0.22
  12   6     0.01  -0.00  -0.11    -0.00   0.00   0.09     0.01   0.00   0.13
  13   6     0.01  -0.00  -0.22    -0.01   0.00   0.19     0.01   0.00   0.13
  14   6     0.01   0.00  -0.22    -0.01   0.00   0.19     0.01  -0.00  -0.03
  15   6     0.00   0.00  -0.11    -0.00   0.00   0.09     0.02  -0.00  -0.11
  16   7     0.00  -0.00  -0.07    -0.00   0.00   0.06     0.01   0.00  -0.01
  17   6     0.00   0.00  -0.00    -0.00   0.00  -0.00     0.02  -0.00  -0.19
  18   6    -0.00   0.00   0.11     0.00   0.00  -0.09     0.02  -0.00  -0.11
  19   6    -0.01   0.00   0.22     0.00   0.00  -0.19     0.01   0.00  -0.03
  20   6    -0.01   0.00   0.22     0.00   0.00  -0.19     0.01   0.00   0.13
  21   6    -0.00   0.00   0.11     0.00  -0.00  -0.09     0.01  -0.00   0.13
  22   7    -0.00   0.00   0.07     0.00  -0.00  -0.06     0.01  -0.00  -0.01
  23   6    -0.00  -0.00   0.00    -0.00  -0.00  -0.00     0.01  -0.00   0.22
  24   6     0.00  -0.00  -0.10    -0.00  -0.00   0.09     0.01  -0.00   0.11
  25   7     0.00  -0.00  -0.06    -0.00  -0.00   0.05     0.01  -0.00  -0.03
  26   1     0.00  -0.00  -0.09    -0.00  -0.00   0.07     0.00  -0.00   0.06
  27   1     0.00  -0.00  -0.09    -0.00  -0.00   0.07     0.00   0.00  -0.04
  28   1    -0.00  -0.00   0.09     0.00  -0.00  -0.07     0.00  -0.00  -0.04
  29   1    -0.00  -0.00   0.09     0.00  -0.00  -0.07     0.00  -0.00   0.06
  30   1     0.00  -0.00  -0.00     0.00  -0.00   0.00    -0.00   0.00   0.10
  31   1     0.00  -0.00  -0.08    -0.00   0.00   0.07     0.00   0.00   0.07
  32   1     0.00   0.00  -0.08    -0.00   0.00   0.07     0.00  -0.00  -0.03
  33   1     0.00   0.00  -0.00    -0.00   0.00  -0.00     0.01  -0.00  -0.08
  34   1    -0.00   0.00   0.08     0.00   0.00  -0.07     0.00   0.00  -0.03
  35   1    -0.00   0.00   0.08     0.00  -0.00  -0.07     0.00   0.00   0.07
  36   1    -0.00  -0.00   0.00    -0.00  -0.00   0.00     0.00  -0.00   0.10
  37   6    -0.00  -0.00  -0.00     0.00  -0.00  -0.00     0.01   0.00  -0.24
  38   6    -0.00   0.00  -0.00     0.00   0.00  -0.00     0.01  -0.00  -0.18
  39   6    -0.00   0.00  -0.00     0.00   0.00  -0.00     0.01  -0.00  -0.08
  40   6    -0.00   0.01  -0.00     0.00   0.01  -0.00     0.01  -0.00   0.07
  41   6    -0.00   0.01  -0.00     0.00   0.01  -0.00     0.01  -0.00   0.17
  42   6    -0.00   0.01  -0.00     0.00   0.01  -0.00     0.01  -0.00   0.23
  43  30    -0.00   0.00   0.00     0.00   0.00   0.00    -0.03  -0.00   0.10
  44   6     0.02  -0.00   0.20     0.02  -0.00   0.23    -0.02   0.01  -0.10
  45   6     0.01  -0.00   0.20     0.02  -0.00   0.23    -0.01   0.00   0.06
  46   6     0.01   0.00   0.09     0.01   0.00   0.11    -0.00   0.00   0.13
  47   6    -0.00   0.00  -0.00     0.00   0.00   0.00     0.00  -0.00   0.20
  48   6    -0.01   0.00  -0.09    -0.01   0.00  -0.11    -0.00  -0.00   0.13
  49   6    -0.01   0.00  -0.20    -0.02   0.00  -0.23    -0.01  -0.00   0.06
  50   6    -0.02   0.00  -0.19    -0.02   0.00  -0.23    -0.02  -0.00  -0.10
  51   6    -0.01  -0.00  -0.09    -0.01   0.00  -0.11    -0.02  -0.00  -0.11
  52   7    -0.00   0.00  -0.05    -0.01   0.00  -0.06    -0.01  -0.00   0.03
  53   6    -0.00  -0.00   0.00    -0.00  -0.00   0.00    -0.03  -0.01  -0.21
  54   6     0.01  -0.00   0.10     0.01  -0.00   0.11    -0.02  -0.00  -0.13
  55   6     0.01  -0.00   0.19     0.02  -0.00   0.22    -0.02  -0.00  -0.13
  56   6     0.02  -0.00   0.19     0.02  -0.00   0.22    -0.01  -0.00   0.04
  57   6     0.01  -0.00   0.09     0.01  -0.00   0.11    -0.00  -0.00   0.11
  58   7     0.00  -0.00   0.06     0.01  -0.00   0.07    -0.01  -0.00   0.01
  59   6    -0.00  -0.00  -0.00     0.00  -0.00  -0.00     0.00  -0.00   0.19
  60   6    -0.01  -0.00  -0.09    -0.01  -0.00  -0.11    -0.00  -0.00   0.11
  61   6    -0.02   0.00  -0.19    -0.02   0.00  -0.22    -0.01  -0.00   0.04
  62   6    -0.01   0.00  -0.19    -0.02   0.00  -0.22    -0.02   0.00  -0.13
  63   6    -0.01   0.00  -0.09    -0.01   0.00  -0.11    -0.02   0.00  -0.13
  64   7    -0.00  -0.00  -0.06    -0.00  -0.00  -0.07    -0.01   0.00   0.01
  65   6     0.00  -0.00  -0.00     0.00  -0.00  -0.00    -0.03   0.01  -0.21
  66   6     0.01  -0.00   0.09     0.01  -0.00   0.11    -0.02   0.01  -0.11
  67   7     0.00  -0.00   0.05     0.01   0.00   0.06    -0.01   0.00   0.03
  68   1     0.01  -0.00   0.07     0.01  -0.00   0.09    -0.01   0.00  -0.06
  69   1     0.01  -0.00   0.07     0.01  -0.00   0.09    -0.00  -0.00   0.04
  70   1    -0.01   0.00  -0.07    -0.01   0.00  -0.09    -0.00   0.00   0.04
  71   1    -0.01   0.00  -0.07    -0.01   0.00  -0.09    -0.01  -0.00  -0.06
  72   1    -0.00  -0.00   0.00    -0.00  -0.00  -0.00    -0.01  -0.00  -0.10
  73   1     0.01  -0.00   0.07     0.01  -0.00   0.08    -0.01  -0.00  -0.07
  74   1     0.01  -0.00   0.07     0.01  -0.00   0.08    -0.00   0.00   0.03
  75   1    -0.00  -0.00  -0.00     0.00  -0.00  -0.00     0.00  -0.00   0.08
  76   1    -0.01   0.00  -0.07    -0.01   0.00  -0.08    -0.00  -0.00   0.03
  77   1    -0.01   0.00  -0.07    -0.01   0.00  -0.08    -0.01   0.00  -0.07
  78   1     0.00  -0.00  -0.00     0.00  -0.00   0.00    -0.01   0.00  -0.10
                     10                     11                     12
                        a                      a                      a 
 Frequencies --    71.5783                73.1488                74.1787
 Red. masses --    35.7498                24.1006                36.7910
 Frc consts  --     0.0000                 0.0000                 0.0000
 IR Inten    --     0.8296                 0.0039                 0.4271
 Raman Activ --     0.0000                 0.0000                 0.0000
 Depolar     --     0.0000                 0.0000                 0.0000
 Atom AN      X      Y      Z        X      Y      Z        X      Y      Z
   1  30    -0.04  -0.00   0.47     0.31   0.00   0.16    -0.07  -0.00   0.48
   2   6    -0.01   0.00  -0.13     0.13  -0.01  -0.04    -0.02   0.00  -0.13
   3   6    -0.01  -0.00  -0.07     0.11   0.01  -0.04    -0.01  -0.00  -0.16
   4   6    -0.01   0.00   0.05     0.07  -0.01  -0.00    -0.01   0.00  -0.03
   5   6    -0.01  -0.00   0.06     0.04   0.00  -0.01    -0.01  -0.00  -0.05
   6   6    -0.01  -0.00   0.05     0.07   0.01  -0.00    -0.01  -0.00  -0.03
   7   6    -0.01   0.00  -0.07     0.10  -0.00  -0.04    -0.01   0.00  -0.16
   8   6    -0.01  -0.00  -0.13     0.12   0.02  -0.04    -0.02  -0.00  -0.13
   9   6    -0.01  -0.00  -0.03     0.11   0.04   0.00    -0.02  -0.01   0.01
  10   7    -0.01  -0.00   0.09     0.09   0.04   0.03    -0.02  -0.01   0.07
  11   6    -0.01  -0.00  -0.10     0.11   0.04  -0.00    -0.02  -0.01   0.01
  12   6    -0.01  -0.00  -0.06     0.12   0.02   0.00    -0.02  -0.00   0.02
  13   6    -0.00  -0.00  -0.18     0.12   0.01  -0.04    -0.02  -0.00  -0.11
  14   6    -0.01  -0.00  -0.12     0.13  -0.01  -0.04    -0.02   0.00  -0.15
  15   6    -0.01  -0.00   0.03     0.14   0.00   0.00    -0.02  -0.00  -0.03
  16   7    -0.02  -0.00   0.08     0.15   0.02   0.03    -0.03  -0.00   0.08
  17   6    -0.01   0.00   0.05     0.15  -0.00  -0.01    -0.02  -0.00  -0.06
  18   6    -0.01   0.00   0.03     0.15  -0.00   0.00    -0.03   0.00  -0.03
  19   6    -0.01  -0.00  -0.12     0.13   0.00  -0.04    -0.02  -0.00  -0.15
  20   6    -0.01  -0.00  -0.18     0.12  -0.01  -0.04    -0.02   0.00  -0.11
  21   6    -0.01   0.00  -0.06     0.13  -0.02   0.00    -0.02   0.00   0.02
  22   7    -0.02   0.00   0.08     0.15  -0.02   0.03    -0.03   0.00   0.08
  23   6    -0.01   0.00  -0.10     0.12  -0.04  -0.00    -0.02   0.01   0.01
  24   6    -0.01   0.00  -0.03     0.11  -0.04   0.00    -0.02   0.01   0.01
  25   7    -0.01   0.00   0.09     0.09  -0.03   0.03    -0.02   0.01   0.07
  26   1    -0.00   0.00  -0.07     0.04  -0.00  -0.02    -0.01   0.00  -0.06
  27   1    -0.00  -0.00  -0.04     0.03   0.01  -0.02    -0.00  -0.00  -0.07
  28   1    -0.00   0.00  -0.04     0.03  -0.01  -0.02    -0.00   0.00  -0.07
  29   1    -0.00   0.00  -0.07     0.04   0.00  -0.02    -0.00  -0.00  -0.06
  30   1    -0.00  -0.00  -0.06     0.03   0.01  -0.01    -0.00  -0.00  -0.01
  31   1     0.00  -0.00  -0.09     0.03   0.00  -0.02    -0.00  -0.00  -0.05
  32   1    -0.00   0.00  -0.05     0.04  -0.01  -0.02    -0.00   0.00  -0.07
  33   1    -0.00   0.00   0.00     0.04  -0.00  -0.01    -0.01  -0.00  -0.05
  34   1    -0.00  -0.00  -0.05     0.04   0.00  -0.02    -0.00  -0.00  -0.07
  35   1    -0.00  -0.00  -0.09     0.03  -0.00  -0.02    -0.00  -0.00  -0.05
  36   1    -0.00   0.00  -0.06     0.03  -0.01  -0.01    -0.01   0.00  -0.01
  37   6    -0.00  -0.00  -0.00     0.03   0.00  -0.03    -0.00  -0.00  -0.09
  38   6    -0.00   0.00  -0.07     0.02  -0.00  -0.04    -0.00  -0.00  -0.07
  39   6     0.00   0.00  -0.10     0.00  -0.01  -0.05     0.00   0.00  -0.03
  40   6     0.00   0.00  -0.10    -0.00  -0.01  -0.04     0.00   0.00   0.04
  41   6     0.00   0.00  -0.06    -0.02  -0.01  -0.04     0.01   0.00   0.08
  42   6     0.01  -0.00   0.00    -0.03   0.00  -0.04     0.01  -0.00   0.10
  43  30     0.06  -0.00   0.48    -0.32  -0.00  -0.04     0.02   0.00  -0.49
  44   6     0.00   0.00  -0.13    -0.12   0.02   0.01     0.03  -0.01   0.13
  45   6     0.00   0.00  -0.07    -0.10  -0.00  -0.01     0.03  -0.00   0.16
  46   6     0.01  -0.00   0.05    -0.08   0.01  -0.02     0.01  -0.00   0.04
  47   6     0.01  -0.00   0.06    -0.04   0.00  -0.03     0.01  -0.00   0.05
  48   6     0.01   0.00   0.05    -0.08  -0.01  -0.02     0.01   0.00   0.04
  49   6     0.00  -0.00  -0.07    -0.11   0.01  -0.01     0.03  -0.00   0.16
  50   6     0.00  -0.00  -0.13    -0.12  -0.01   0.01     0.03   0.00   0.13
  51   6     0.01   0.00  -0.04    -0.11  -0.04   0.01     0.02   0.01  -0.01
  52   7     0.01   0.00   0.09    -0.09  -0.03  -0.01     0.01   0.01  -0.07
  53   6     0.00   0.00  -0.10    -0.11  -0.04   0.03     0.02   0.01  -0.02
  54   6     0.01  -0.00  -0.06    -0.13  -0.02   0.03     0.02   0.00  -0.02
  55   6    -0.01  -0.00  -0.19    -0.12  -0.01   0.04     0.03   0.00   0.11
  56   6     0.00   0.00  -0.12    -0.13   0.00   0.02     0.04  -0.00   0.15
  57   6     0.01   0.00   0.03    -0.15  -0.01  -0.00     0.03   0.00   0.03
  58   7     0.02   0.00   0.08    -0.15  -0.02   0.00     0.02   0.00  -0.09
  59   6     0.02  -0.00   0.05    -0.15  -0.00  -0.01     0.04   0.00   0.07
  60   6     0.01  -0.00   0.03    -0.15   0.00  -0.00     0.03  -0.00   0.03
  61   6     0.00   0.00  -0.12    -0.13  -0.01   0.02     0.04  -0.00   0.15
  62   6    -0.01   0.00  -0.19    -0.11   0.00   0.04     0.03  -0.00   0.11
  63   6     0.01   0.00  -0.06    -0.12   0.02   0.03     0.02  -0.00  -0.02
  64   7     0.02  -0.00   0.08    -0.15   0.02   0.00     0.02  -0.00  -0.09
  65   6     0.00   0.00  -0.10    -0.11   0.04   0.03     0.02  -0.01  -0.02
  66   6     0.01  -0.00  -0.04    -0.11   0.04   0.01     0.02  -0.01  -0.01
  67   7     0.01  -0.00   0.09    -0.09   0.04  -0.01     0.01  -0.01  -0.07
  68   1    -0.00   0.00  -0.07    -0.04   0.00   0.01     0.01  -0.00   0.06
  69   1     0.00   0.00  -0.04    -0.03  -0.01  -0.00     0.01   0.00   0.08
  70   1     0.00  -0.00  -0.04    -0.03   0.01  -0.00     0.01  -0.00   0.08
  71   1    -0.00  -0.00  -0.07    -0.04  -0.00   0.01     0.01   0.00   0.06
  72   1    -0.00  -0.00  -0.06    -0.03  -0.01   0.02     0.01   0.00   0.01
  73   1    -0.00  -0.00  -0.09    -0.03  -0.00   0.02     0.01   0.00   0.05
  74   1    -0.00   0.00  -0.05    -0.04   0.00   0.01     0.01  -0.00   0.07
  75   1     0.00   0.00   0.00    -0.04  -0.00  -0.01     0.01  -0.00   0.05
  76   1    -0.00   0.00  -0.05    -0.04  -0.01   0.01     0.01   0.00   0.07
  77   1    -0.00   0.00  -0.09    -0.03   0.00   0.02     0.01  -0.00   0.05
  78   1    -0.00   0.00  -0.06    -0.03   0.01   0.02     0.01  -0.00   0.01
                     13                     14                     15
                        a                      a                      a 
 Frequencies --    86.1578                91.3820               117.5148
 Red. masses --    13.6816                12.8518                11.0693
 Frc consts  --     0.0000                 0.0000                 0.0000
 IR Inten    --     0.3149                 0.2086                 0.1154
 Raman Activ --     0.0000                 0.0000                 0.0000
 Depolar     --     0.0000                 0.0000                 0.0000
 Atom AN      X      Y      Z        X      Y      Z        X      Y      Z
   1  30     0.03  -0.00  -0.16     0.01  -0.09   0.00    -0.01  -0.00   0.03
   2   6     0.00  -0.00   0.11    -0.05  -0.07  -0.00    -0.01   0.00   0.19
   3   6    -0.00  -0.00   0.20    -0.03  -0.08  -0.00    -0.00  -0.00   0.12
   4   6    -0.00  -0.00   0.12    -0.01  -0.07  -0.00     0.00   0.00  -0.05
   5   6    -0.00  -0.00   0.12    -0.00  -0.08  -0.00     0.01   0.00  -0.14
   6   6    -0.00   0.00   0.12     0.01  -0.07  -0.00     0.00  -0.00  -0.05
   7   6    -0.00  -0.00   0.21     0.03  -0.09  -0.00    -0.01  -0.00   0.12
   8   6     0.00   0.00   0.11     0.05  -0.07  -0.00    -0.01  -0.00   0.19
   9   6     0.01   0.00  -0.03     0.04  -0.05   0.00    -0.00  -0.00   0.05
  10   7     0.00   0.00   0.01     0.02  -0.05   0.00     0.00  -0.00  -0.06
  11   6     0.01   0.00  -0.15     0.06  -0.02   0.00     0.00  -0.00  -0.05
  12   6     0.01   0.00  -0.13     0.05  -0.00   0.00     0.00  -0.00  -0.10
  13   6     0.01   0.00  -0.09     0.06   0.02   0.00     0.00  -0.00  -0.19
  14   6     0.00   0.00   0.08     0.05   0.03   0.00    -0.00   0.00  -0.03
  15   6     0.01   0.00   0.10     0.02   0.02   0.00    -0.01   0.00   0.12
  16   7     0.01   0.00  -0.03     0.03  -0.00   0.00    -0.01  -0.00   0.06
  17   6     0.00   0.00   0.20     0.00   0.03  -0.00    -0.01   0.00   0.22
  18   6     0.01   0.00   0.10    -0.02   0.02  -0.00    -0.01   0.00   0.12
  19   6     0.00   0.00   0.08    -0.04   0.03  -0.00    -0.00  -0.00  -0.03
  20   6     0.01  -0.00  -0.09    -0.06   0.02  -0.00     0.00  -0.00  -0.19
  21   6     0.01  -0.00  -0.13    -0.04  -0.01  -0.00    -0.00   0.00  -0.10
  22   7     0.01  -0.00  -0.03    -0.02  -0.00  -0.00    -0.01   0.00   0.06
  23   6     0.01  -0.00  -0.15    -0.05  -0.03  -0.00    -0.00   0.00  -0.05
  24   6     0.01  -0.00  -0.03    -0.04  -0.05  -0.00    -0.00   0.00   0.05
  25   7     0.00  -0.00   0.01    -0.01  -0.06  -0.00     0.00   0.00  -0.06
  26   1     0.00  -0.00   0.04    -0.02  -0.02  -0.00    -0.00   0.00   0.09
  27   1    -0.00   0.00   0.09    -0.01  -0.03  -0.00    -0.00  -0.00   0.05
  28   1    -0.00  -0.00   0.09     0.01  -0.03  -0.00    -0.00   0.00   0.05
  29   1     0.00   0.00   0.04     0.02  -0.02   0.00    -0.00  -0.00   0.09
  30   1     0.00   0.00  -0.06     0.02  -0.01   0.00     0.00  -0.00  -0.02
  31   1     0.00   0.00  -0.05     0.02   0.01   0.00     0.00  -0.00  -0.10
  32   1     0.00  -0.00   0.05     0.01   0.01   0.00    -0.00   0.00  -0.01
  33   1    -0.00   0.00   0.09     0.00   0.01  -0.00    -0.00   0.00   0.08
  34   1     0.00   0.00   0.05    -0.01   0.02  -0.00    -0.00  -0.00  -0.01
  35   1     0.00  -0.00  -0.05    -0.02   0.01  -0.00     0.00  -0.00  -0.10
  36   1     0.00  -0.00  -0.06    -0.02  -0.01  -0.00     0.00   0.00  -0.02
  37   6    -0.00   0.00   0.03    -0.00  -0.01  -0.00     0.01   0.00  -0.24
  38   6     0.00   0.00  -0.17    -0.00   0.36   0.00     0.01   0.00  -0.25
  39   6     0.00   0.00  -0.27    -0.00   0.51   0.00     0.01   0.00  -0.13
  40   6     0.00   0.00  -0.27    -0.00   0.51   0.00     0.01  -0.00   0.13
  41   6     0.00   0.00  -0.17    -0.00   0.36   0.00     0.01  -0.00   0.25
  42   6     0.01  -0.00   0.03     0.00  -0.01  -0.00     0.01  -0.00   0.24
  43  30    -0.04   0.00  -0.16    -0.01  -0.09  -0.00    -0.00   0.00  -0.03
  44   6    -0.00   0.00   0.10    -0.05  -0.07  -0.00    -0.01   0.00  -0.19
  45   6     0.01  -0.00   0.20    -0.03  -0.09  -0.00    -0.01   0.00  -0.12
  46   6     0.00  -0.00   0.12    -0.01  -0.07  -0.00     0.00  -0.00   0.05
  47   6     0.01  -0.00   0.12     0.00  -0.08  -0.00     0.01  -0.00   0.14
  48   6     0.00  -0.00   0.12     0.01  -0.07   0.00     0.00  -0.00   0.05
  49   6     0.01   0.00   0.20     0.03  -0.08   0.00    -0.01  -0.00  -0.12
  50   6    -0.00  -0.00   0.10     0.05  -0.07   0.00    -0.01  -0.00  -0.19
  51   6    -0.01  -0.00  -0.03     0.04  -0.05   0.00    -0.00   0.00  -0.05
  52   7    -0.00  -0.00   0.01     0.01  -0.06   0.00     0.00   0.00   0.06
  53   6    -0.02  -0.01  -0.15     0.05  -0.02   0.00     0.01   0.00   0.05
  54   6    -0.02  -0.00  -0.13     0.04  -0.01  -0.00     0.01   0.00   0.10
  55   6    -0.01  -0.00  -0.09     0.05   0.02  -0.01     0.02   0.00   0.19
  56   6     0.00  -0.00   0.08     0.04   0.03  -0.01     0.00   0.00   0.03
  57   6     0.00  -0.00   0.10     0.02   0.02  -0.00    -0.01   0.00  -0.12
  58   7    -0.01  -0.00  -0.03     0.02  -0.00  -0.00    -0.00   0.00  -0.06
  59   6     0.01  -0.00   0.20    -0.00   0.03  -0.00    -0.02   0.00  -0.22
  60   6     0.00  -0.00   0.10    -0.02   0.02   0.00    -0.01   0.00  -0.12
  61   6    -0.00  -0.00   0.08    -0.04   0.03   0.01     0.00  -0.00   0.03
  62   6    -0.01   0.00  -0.09    -0.06   0.02   0.01     0.02  -0.00   0.19
  63   6    -0.02   0.00  -0.13    -0.05  -0.01   0.00     0.01  -0.00   0.10
  64   7    -0.01   0.00  -0.03    -0.03  -0.00   0.00    -0.00  -0.00  -0.06
  65   6    -0.02   0.01  -0.15    -0.06  -0.02   0.00     0.01  -0.00   0.05
  66   6    -0.01   0.00  -0.03    -0.04  -0.05  -0.00    -0.00  -0.00  -0.05
  67   7    -0.00   0.00   0.01    -0.02  -0.05  -0.00     0.00  -0.00   0.06
  68   1    -0.00  -0.00   0.04    -0.02  -0.02  -0.00    -0.00   0.00  -0.09
  69   1     0.00  -0.00   0.09    -0.01  -0.03  -0.00    -0.00   0.00  -0.05
  70   1     0.00   0.00   0.09     0.01  -0.03  -0.00    -0.00  -0.00  -0.05
  71   1    -0.00  -0.00   0.04     0.02  -0.02   0.00    -0.00  -0.00  -0.09
  72   1    -0.01  -0.00  -0.06     0.02  -0.01   0.00     0.00   0.00   0.02
  73   1    -0.01  -0.00  -0.05     0.02   0.01  -0.00     0.01   0.00   0.10
  74   1     0.00   0.00   0.05     0.01   0.02  -0.00     0.00   0.00   0.01
  75   1     0.01  -0.00   0.09    -0.00   0.01  -0.00    -0.01   0.00  -0.08
  76   1     0.00  -0.00   0.05    -0.01   0.01   0.00     0.00  -0.00   0.01
  77   1    -0.01   0.00  -0.05    -0.02   0.01   0.00     0.01  -0.00   0.10
  78   1    -0.01   0.00  -0.06    -0.02  -0.01   0.00     0.00  -0.00   0.02
                     16                     17                     18
                        a                      a                      a 
 Frequencies --   127.4017               127.4319               135.9755
 Red. masses --    10.7102                10.7123                11.2889
 Frc consts  --     0.0000                 0.0000                 0.0000
 IR Inten    --     0.0247                 0.0748                 0.0513
 Raman Activ --     0.0000                 0.0000                 0.0000
 Depolar     --     0.0000                 0.0000                 0.0000
 Atom AN      X      Y      Z        X      Y      Z        X      Y      Z
   1  30    -0.00  -0.00  -0.00     0.00   0.00   0.00     0.00   0.00   0.03
   2   6    -0.00  -0.00   0.08     0.00   0.00  -0.05    -0.00  -0.00   0.18
   3   6    -0.01  -0.00   0.26     0.00   0.00  -0.16    -0.00   0.00   0.03
   4   6    -0.00  -0.00   0.07     0.00   0.00  -0.04     0.00  -0.00  -0.16
   5   6    -0.00   0.00  -0.00     0.00  -0.00  -0.00     0.00   0.00  -0.23
   6   6     0.00   0.00  -0.07    -0.00  -0.00   0.04     0.00   0.00  -0.16
   7   6     0.01   0.00  -0.26    -0.01  -0.00   0.16    -0.00  -0.00   0.03
   8   6     0.00   0.00  -0.08    -0.00  -0.00   0.05    -0.01  -0.00   0.18
   9   6    -0.01  -0.00   0.17     0.00   0.00  -0.10    -0.00   0.00   0.05
  10   7    -0.01  -0.00   0.15     0.00   0.00  -0.09     0.00   0.00  -0.14
  11   6    -0.01  -0.00   0.27     0.01   0.00  -0.17    -0.00   0.00   0.04
  12   6    -0.01  -0.00   0.15     0.00   0.00  -0.09     0.00   0.00  -0.03
  13   6     0.00  -0.00  -0.08    -0.00   0.00   0.05     0.01   0.00  -0.18
  14   6     0.01  -0.00  -0.25    -0.01   0.00   0.15     0.01  -0.00  -0.08
  15   6     0.00  -0.00  -0.08    -0.00   0.00   0.05    -0.00   0.00   0.11
  16   7    -0.00  -0.00   0.12     0.00   0.00  -0.07    -0.00   0.00   0.12
  17   6    -0.00   0.00   0.00     0.00  -0.00   0.00    -0.00   0.00   0.18
  18   6    -0.00   0.00   0.08     0.00  -0.00  -0.05    -0.00  -0.00   0.11
  19   6    -0.01   0.00   0.25     0.01  -0.00  -0.15     0.00  -0.00  -0.08
  20   6    -0.00   0.00   0.08     0.00  -0.00  -0.05     0.01  -0.00  -0.18
  21   6     0.00  -0.00  -0.15    -0.00   0.00   0.09     0.00  -0.00  -0.03
  22   7     0.00   0.00  -0.12    -0.00  -0.00   0.07    -0.00  -0.00   0.12
  23   6     0.01  -0.00  -0.27    -0.00   0.00   0.17     0.00  -0.00   0.04
  24   6     0.01  -0.00  -0.17    -0.00   0.00   0.10    -0.00  -0.00   0.05
  25   7     0.00   0.00  -0.15    -0.00   0.00   0.09     0.00  -0.00  -0.14
  26   1    -0.00  -0.00   0.04     0.00   0.00  -0.02    -0.00  -0.00   0.11
  27   1    -0.00  -0.00   0.14     0.00   0.00  -0.08    -0.00   0.00   0.02
  28   1     0.00   0.00  -0.14    -0.00  -0.00   0.08    -0.00  -0.00   0.02
  29   1     0.00   0.00  -0.04    -0.00  -0.00   0.02    -0.00  -0.00   0.11
  30   1    -0.00  -0.00   0.09     0.00   0.00  -0.06    -0.00   0.00   0.02
  31   1     0.00  -0.00  -0.04    -0.00   0.00   0.02     0.00  -0.00  -0.10
  32   1     0.01  -0.00  -0.14    -0.00   0.00   0.08     0.00  -0.00  -0.04
  33   1    -0.00   0.00   0.00     0.00  -0.00   0.00    -0.00   0.00   0.06
  34   1    -0.00   0.00   0.14     0.00  -0.00  -0.08     0.00  -0.00  -0.04
  35   1    -0.00   0.00   0.04     0.00  -0.00  -0.02     0.00  -0.00  -0.10
  36   1     0.00  -0.00  -0.09    -0.00   0.00   0.06    -0.00  -0.00   0.02
  37   6     0.00   0.00  -0.00     0.00  -0.00  -0.00     0.00   0.00  -0.16
  38   6     0.00  -0.00  -0.00     0.00  -0.00   0.00    -0.00  -0.00   0.06
  39   6     0.00  -0.00  -0.00     0.00  -0.00   0.00    -0.01  -0.00   0.17
  40   6     0.00  -0.00   0.00     0.00  -0.00   0.00    -0.01  -0.00   0.17
  41   6     0.00  -0.00   0.00     0.00  -0.00   0.00    -0.01   0.00   0.06
  42   6     0.00  -0.00   0.00     0.00  -0.00  -0.00    -0.01   0.00  -0.16
  43  30    -0.00   0.01   0.00    -0.00   0.01   0.00     0.01  -0.00   0.03
  44   6     0.00  -0.00   0.05     0.00  -0.00   0.08     0.01  -0.01   0.18
  45   6     0.01  -0.00   0.16     0.01  -0.01   0.26     0.00  -0.00   0.03
  46   6     0.00  -0.00   0.04     0.00  -0.00   0.07    -0.01   0.00  -0.16
  47   6     0.00  -0.00   0.00     0.00  -0.00  -0.00    -0.01   0.00  -0.23
  48   6    -0.00  -0.00  -0.04    -0.00  -0.00  -0.07    -0.01   0.00  -0.16
  49   6    -0.01  -0.00  -0.16    -0.01  -0.00  -0.26     0.00   0.00   0.03
  50   6    -0.00  -0.00  -0.05    -0.00  -0.00  -0.08     0.01   0.00   0.18
  51   6     0.01   0.00   0.10     0.01   0.00   0.17     0.00   0.00   0.05
  52   7     0.01   0.00   0.09     0.01   0.00   0.15    -0.01   0.00  -0.14
  53   6     0.01   0.00   0.16     0.02   0.00   0.27     0.00   0.00   0.04
  54   6     0.01   0.00   0.09     0.01   0.00   0.15    -0.00  -0.00  -0.03
  55   6    -0.01  -0.00  -0.05    -0.01  -0.00  -0.08    -0.02  -0.00  -0.18
  56   6    -0.02  -0.00  -0.15    -0.03  -0.00  -0.25    -0.01  -0.00  -0.08
  57   6    -0.01  -0.00  -0.05    -0.01  -0.00  -0.08     0.01  -0.00   0.11
  58   7     0.00   0.00   0.07     0.01   0.00   0.12     0.01  -0.00   0.12
  59   6     0.00  -0.00  -0.00     0.00  -0.00   0.00     0.02  -0.00   0.18
  60   6     0.01  -0.00   0.05     0.01  -0.00   0.08     0.01  -0.00   0.11
  61   6     0.02  -0.00   0.15     0.03  -0.01   0.25    -0.01   0.00  -0.08
  62   6     0.01  -0.00   0.05     0.01  -0.00   0.08    -0.02   0.00  -0.18
  63   6    -0.01   0.00  -0.09    -0.01   0.00  -0.15    -0.00   0.00  -0.03
  64   7    -0.00   0.00  -0.07    -0.01   0.00  -0.12     0.01  -0.00   0.12
  65   6    -0.01   0.00  -0.16    -0.02   0.01  -0.27     0.00  -0.00   0.04
  66   6    -0.01   0.00  -0.10    -0.01   0.00  -0.17     0.00  -0.00   0.05
  67   7    -0.01   0.00  -0.09    -0.01   0.00  -0.15    -0.01  -0.00  -0.14
  68   1     0.00  -0.00   0.02     0.00  -0.00   0.04     0.01  -0.00   0.11
  69   1     0.00  -0.00   0.09     0.01  -0.00   0.14     0.00  -0.00   0.02
  70   1    -0.00  -0.00  -0.09    -0.01  -0.00  -0.14     0.00   0.00   0.02
  71   1    -0.00  -0.00  -0.02    -0.00  -0.00  -0.04     0.01   0.00   0.11
  72   1     0.00   0.00   0.06     0.01   0.00   0.09     0.00   0.00   0.02
  73   1    -0.00  -0.00  -0.02    -0.00  -0.00  -0.04    -0.01  -0.00  -0.10
  74   1    -0.01  -0.00  -0.08    -0.01  -0.00  -0.13    -0.00  -0.00  -0.04
  75   1     0.00  -0.00  -0.00     0.00  -0.00   0.00     0.00  -0.00   0.06
  76   1     0.01  -0.00   0.08     0.01  -0.00   0.13    -0.00   0.00  -0.04
  77   1     0.00  -0.00   0.02     0.00  -0.00   0.04    -0.01   0.00  -0.10
  78   1    -0.00   0.00  -0.06    -0.01   0.00  -0.09     0.00  -0.00   0.02
                     19                     20                     21
                        a                      a                      a 
 Frequencies --   163.3196               166.9797               171.2199
 Red. masses --    20.3642                28.0096                15.7176
 Frc consts  --     0.0000                 0.0000                 0.0000
 IR Inten    --     0.0065                52.8088                 0.5712
 Raman Activ --     0.0000                 0.0000                 0.0000
 Depolar     --     0.0000                 0.0000                 0.0000
 Atom AN      X      Y      Z        X      Y      Z        X      Y      Z
   1  30     0.01   0.00  -0.29    -0.00  -0.00  -0.39     0.17   0.00  -0.09
   2   6    -0.00   0.00  -0.01    -0.00   0.01  -0.09     0.02  -0.05  -0.04
   3   6     0.00   0.00  -0.09     0.00   0.00  -0.10    -0.03   0.01  -0.02
   4   6    -0.00   0.00  -0.06     0.00   0.00   0.07    -0.11  -0.03   0.05
   5   6    -0.00   0.00  -0.02     0.01   0.00   0.09    -0.18   0.00   0.04
   6   6     0.00   0.00  -0.06     0.01  -0.00   0.07    -0.11   0.03   0.05
   7   6     0.00   0.00  -0.09     0.01   0.00  -0.10    -0.03  -0.01  -0.02
   8   6     0.00   0.00  -0.01     0.00  -0.00  -0.09     0.02   0.05  -0.04
   9   6    -0.00   0.00   0.06    -0.00  -0.01   0.08    -0.01   0.12   0.03
  10   7    -0.00   0.00   0.00     0.00  -0.01   0.17    -0.10   0.12   0.08
  11   6    -0.00   0.00   0.12    -0.00  -0.01   0.10     0.00   0.15   0.01
  12   6    -0.00   0.00   0.10    -0.00  -0.01   0.09     0.03   0.10   0.01
  13   6     0.01  -0.00  -0.13     0.01  -0.00  -0.11     0.00   0.03  -0.01
  14   6     0.01  -0.00  -0.14     0.00  -0.00  -0.11     0.05  -0.02  -0.00
  15   6    -0.00  -0.00   0.11    -0.01  -0.00   0.09     0.12   0.02   0.01
  16   7    -0.01   0.00   0.24    -0.01  -0.01   0.19     0.12   0.09   0.02
  17   6    -0.00  -0.00   0.12    -0.01  -0.00   0.10     0.16  -0.00   0.02
  18   6    -0.00  -0.00   0.11    -0.01  -0.00   0.09     0.12  -0.02   0.01
  19   6     0.00  -0.00  -0.14    -0.00  -0.00  -0.11     0.05   0.02  -0.00
  20   6     0.00  -0.00  -0.13     0.00  -0.00  -0.11    -0.00  -0.03  -0.01
  21   6    -0.00  -0.00   0.10    -0.01   0.01   0.09     0.03  -0.10   0.01
  22   7    -0.01  -0.00   0.24    -0.02   0.00   0.19     0.11  -0.09   0.02
  23   6    -0.00  -0.00   0.12    -0.00   0.01   0.10     0.00  -0.15   0.01
  24   6    -0.00  -0.00   0.06    -0.00   0.01   0.08    -0.02  -0.12   0.03
  25   7    -0.00  -0.00   0.00    -0.00   0.01   0.17    -0.10  -0.11   0.08
  26   1    -0.00   0.00  -0.00    -0.00   0.00  -0.06     0.03  -0.01  -0.03
  27   1     0.00   0.00  -0.05     0.00  -0.00  -0.06    -0.01   0.02  -0.02
  28   1     0.00   0.00  -0.05     0.00   0.00  -0.06    -0.01  -0.02  -0.02
  29   1     0.00   0.00  -0.00     0.00   0.00  -0.06     0.03   0.01  -0.03
  30   1    -0.00   0.00   0.03    -0.00  -0.00   0.01    -0.00   0.04  -0.01
  31   1     0.00  -0.00  -0.09     0.00  -0.00  -0.07    -0.02   0.01  -0.01
  32   1     0.00  -0.00  -0.09     0.00   0.00  -0.07     0.01  -0.02  -0.00
  33   1     0.00  -0.00   0.01    -0.00   0.00   0.01     0.04  -0.00   0.01
  34   1     0.00  -0.00  -0.09     0.00  -0.00  -0.07     0.01   0.02  -0.00
  35   1     0.00  -0.00  -0.09     0.00  -0.00  -0.07    -0.02  -0.01  -0.01
  36   1    -0.00  -0.00   0.03    -0.00   0.00   0.01    -0.00  -0.04  -0.01
  37   6    -0.01  -0.00   0.11     0.01  -0.00   0.05    -0.18  -0.00  -0.03
  38   6    -0.01  -0.00   0.22     0.01  -0.00   0.00    -0.19  -0.00  -0.09
  39   6    -0.01  -0.00   0.14     0.01   0.00  -0.03    -0.19  -0.00  -0.06
  40   6    -0.00   0.00  -0.14     0.02   0.00  -0.04    -0.19  -0.00   0.05
  41   6    -0.00   0.00  -0.22     0.02   0.00  -0.00    -0.19   0.00   0.08
  42   6    -0.00   0.00  -0.11     0.02  -0.00   0.05    -0.18  -0.00   0.05
  43  30     0.01  -0.00   0.29    -0.04   0.00  -0.39     0.17   0.00   0.04
  44   6     0.00   0.00   0.01    -0.01   0.01  -0.09     0.02  -0.05   0.02
  45   6     0.01  -0.00   0.09    -0.00   0.00  -0.10    -0.03   0.01   0.01
  46   6     0.00  -0.00   0.05     0.01   0.00   0.07    -0.11  -0.03  -0.03
  47   6     0.00  -0.00   0.02     0.02  -0.00   0.09    -0.18  -0.00  -0.01
  48   6     0.00  -0.00   0.05     0.01  -0.00   0.07    -0.11   0.03  -0.03
  49   6     0.01  -0.00   0.09    -0.00  -0.00  -0.10    -0.03  -0.01   0.01
  50   6     0.00  -0.00   0.01    -0.01  -0.01  -0.09     0.02   0.05   0.02
  51   6    -0.00  -0.00  -0.06     0.01  -0.01   0.08    -0.02   0.12  -0.01
  52   7    -0.00  -0.00  -0.00     0.02  -0.01   0.17    -0.10   0.11  -0.05
  53   6    -0.01  -0.00  -0.12     0.01  -0.01   0.10     0.00   0.15   0.00
  54   6    -0.01   0.00  -0.10     0.00  -0.01   0.08     0.03   0.10   0.00
  55   6     0.01   0.00   0.13    -0.01  -0.00  -0.11    -0.00   0.03   0.00
  56   6     0.01   0.00   0.14    -0.01   0.00  -0.10     0.05  -0.02  -0.01
  57   6    -0.01   0.00  -0.11    -0.00  -0.00   0.09     0.12   0.02  -0.01
  58   7    -0.02   0.00  -0.24     0.01  -0.01   0.19     0.11   0.09   0.00
  59   6    -0.01   0.00  -0.12    -0.00  -0.00   0.10     0.16   0.00  -0.02
  60   6    -0.01   0.00  -0.11    -0.00   0.00   0.09     0.12  -0.01  -0.01
  61   6     0.01  -0.00   0.14    -0.01   0.00  -0.10     0.05   0.02  -0.01
  62   6     0.01  -0.00   0.13    -0.01   0.00  -0.11    -0.00  -0.03  -0.00
  63   6    -0.01   0.00  -0.10     0.00   0.01   0.08     0.04  -0.10   0.00
  64   7    -0.02   0.00  -0.24     0.01   0.00   0.19     0.12  -0.09   0.00
  65   6    -0.01   0.00  -0.12     0.01   0.01   0.10     0.01  -0.15   0.00
  66   6    -0.00   0.00  -0.06     0.01   0.01   0.08    -0.01  -0.12  -0.02
  67   7    -0.00   0.00  -0.00     0.02   0.00   0.17    -0.10  -0.12  -0.05
  68   1    -0.00   0.00   0.00    -0.00   0.00  -0.06     0.03  -0.01   0.01
  69   1     0.00  -0.00   0.05    -0.00   0.00  -0.06    -0.01   0.02   0.01
  70   1     0.00   0.00   0.05    -0.00   0.00  -0.06    -0.01  -0.02   0.01
  71   1     0.00  -0.00   0.00    -0.01  -0.00  -0.06     0.03   0.01   0.01
  72   1    -0.00  -0.00  -0.03     0.00  -0.00   0.01    -0.00   0.04   0.01
  73   1     0.01   0.00   0.09    -0.01  -0.00  -0.07    -0.02   0.01   0.00
  74   1     0.01   0.00   0.09    -0.01   0.00  -0.07     0.01  -0.02  -0.01
  75   1    -0.00   0.00  -0.01    -0.00  -0.00   0.01     0.04   0.00  -0.01
  76   1     0.01  -0.00   0.09    -0.01  -0.00  -0.07     0.01   0.02  -0.01
  77   1     0.01  -0.00   0.09    -0.01   0.00  -0.07    -0.02  -0.01   0.00
  78   1    -0.00   0.00  -0.03     0.00   0.00   0.01    -0.00  -0.04   0.01
                     22                     23                     24
                        a                      a                      a 
 Frequencies --   172.8166               179.7565               180.9194
 Red. masses --    19.2155                16.6018                12.3455
 Frc consts  --     0.0000                 0.0000                 0.0000
 IR Inten    --     0.1374                 0.0044                 0.2981
 Raman Activ --     0.0000                 0.0000                 0.0000
 Depolar     --     0.0000                 0.0000                 0.0000
 Atom AN      X      Y      Z        X      Y      Z        X      Y      Z
   1  30     0.04   0.01   0.25    -0.00   0.21   0.00    -0.00  -0.06   0.01
   2   6     0.01  -0.02   0.11    -0.07   0.08  -0.00    -0.11   0.12  -0.00
   3   6    -0.01  -0.00   0.05    -0.07   0.09  -0.00    -0.11   0.12  -0.00
   4   6    -0.03  -0.01  -0.17    -0.08   0.08  -0.00    -0.09   0.12  -0.01
   5   6    -0.05  -0.00  -0.13     0.00   0.04  -0.00     0.00   0.07  -0.00
   6   6    -0.03   0.01  -0.16     0.08   0.08   0.00     0.09   0.12   0.00
   7   6    -0.01  -0.01   0.05     0.08   0.09   0.01     0.11   0.12   0.01
   8   6    -0.00   0.01   0.11     0.07   0.08   0.00     0.11   0.12   0.01
   9   6    -0.00   0.03  -0.08     0.07   0.07   0.00     0.11   0.10   0.00
  10   7    -0.02   0.03  -0.27     0.09   0.08   0.00     0.11   0.12  -0.00
  11   6    -0.00   0.04  -0.01     0.03  -0.01  -0.00     0.07   0.01   0.00
  12   6     0.01   0.03   0.01     0.05  -0.07   0.00     0.11  -0.10   0.00
  13   6    -0.00   0.01   0.02     0.04  -0.10   0.00     0.12  -0.11   0.01
  14   6     0.01  -0.00  -0.01     0.05  -0.10   0.00     0.12  -0.11   0.01
  15   6     0.03   0.01  -0.02     0.05  -0.10   0.00     0.10  -0.11   0.00
  16   7     0.03   0.03  -0.00     0.06  -0.08  -0.00     0.12  -0.11   0.00
  17   6     0.05   0.00  -0.03    -0.00  -0.08  -0.00     0.00  -0.06  -0.00
  18   6     0.04  -0.00  -0.02    -0.05  -0.10  -0.00    -0.10  -0.11  -0.01
  19   6     0.02   0.01  -0.01    -0.05  -0.10   0.00    -0.12  -0.11  -0.00
  20   6     0.00  -0.01   0.02    -0.04  -0.10   0.00    -0.12  -0.11  -0.00
  21   6     0.01  -0.03   0.01    -0.05  -0.07  -0.00    -0.11  -0.10  -0.01
  22   7     0.04  -0.02  -0.00    -0.06  -0.08  -0.01    -0.12  -0.11  -0.01
  23   6     0.00  -0.04  -0.01    -0.03  -0.01  -0.00    -0.07   0.01  -0.00
  24   6    -0.00  -0.04  -0.08    -0.07   0.07  -0.00    -0.11   0.10  -0.01
  25   7    -0.02  -0.03  -0.27    -0.09   0.09  -0.01    -0.11   0.12  -0.01
  26   1     0.01  -0.00   0.08    -0.02   0.02   0.00    -0.03   0.03   0.00
  27   1    -0.00   0.00   0.05    -0.02   0.03   0.00    -0.03   0.03   0.00
  28   1    -0.00  -0.01   0.05     0.02   0.03   0.00     0.03   0.03   0.00
  29   1     0.00   0.00   0.08     0.02   0.02   0.00     0.03   0.03   0.00
  30   1    -0.00   0.01   0.02    -0.01  -0.00  -0.00    -0.01   0.00  -0.00
  31   1    -0.01   0.00   0.01     0.01  -0.03   0.00     0.03  -0.03   0.00
  32   1     0.00  -0.01  -0.00     0.01  -0.03   0.00     0.03  -0.03   0.00
  33   1     0.01  -0.00  -0.02    -0.00  -0.01  -0.00     0.00   0.01  -0.00
  34   1     0.00   0.01  -0.00    -0.01  -0.03   0.00    -0.03  -0.03   0.00
  35   1    -0.00  -0.00   0.01    -0.01  -0.03   0.00    -0.03  -0.03   0.00
  36   1    -0.00  -0.01   0.02     0.01  -0.00   0.00     0.01   0.00   0.00
  37   6    -0.06  -0.00   0.10     0.00  -0.10  -0.00    -0.00  -0.02  -0.00
  38   6    -0.06  -0.01   0.27     0.00  -0.35  -0.00    -0.00   0.02   0.00
  39   6    -0.06  -0.00   0.18     0.00  -0.25  -0.00    -0.00   0.01   0.00
  40   6    -0.06   0.00  -0.18    -0.00   0.25   0.00    -0.00   0.01  -0.00
  41   6    -0.06   0.00  -0.27    -0.00   0.35   0.00    -0.00   0.02  -0.00
  42   6    -0.05   0.00  -0.10     0.00   0.10   0.00     0.00  -0.02  -0.00
  43  30     0.02   0.00  -0.26     0.00  -0.21  -0.00    -0.00  -0.05  -0.00
  44   6     0.00  -0.01  -0.11     0.07  -0.09  -0.01    -0.11   0.11   0.01
  45   6    -0.01   0.01  -0.06     0.08  -0.09  -0.01    -0.11   0.11   0.01
  46   6    -0.02  -0.01   0.17     0.08  -0.09  -0.01    -0.09   0.11   0.01
  47   6    -0.04  -0.00   0.13     0.00  -0.05  -0.00    -0.00   0.07   0.00
  48   6    -0.02   0.01   0.17    -0.08  -0.09   0.01     0.09   0.11  -0.01
  49   6    -0.01  -0.01  -0.06    -0.08  -0.09   0.01     0.10   0.11  -0.01
  50   6     0.00   0.01  -0.11    -0.07  -0.09   0.01     0.11   0.11  -0.01
  51   6     0.00   0.03   0.08    -0.07  -0.08   0.01     0.10   0.10  -0.01
  52   7    -0.01   0.03   0.28    -0.09  -0.09   0.01     0.10   0.11  -0.01
  53   6     0.00   0.04   0.01    -0.03   0.01   0.00     0.06   0.01  -0.00
  54   6     0.01   0.03  -0.00    -0.06   0.07   0.00     0.11  -0.09  -0.01
  55   6    -0.00   0.01  -0.02    -0.05   0.10   0.00     0.11  -0.10  -0.01
  56   6     0.02  -0.00   0.00    -0.06   0.11   0.01     0.11  -0.10  -0.01
  57   6     0.04   0.01   0.02    -0.06   0.10   0.00     0.10  -0.10  -0.01
  58   7     0.03   0.03   0.01    -0.06   0.08   0.01     0.11  -0.10  -0.01
  59   6     0.05   0.00   0.03    -0.00   0.08   0.00     0.00  -0.06  -0.00
  60   6     0.04  -0.00   0.02     0.05   0.10  -0.00    -0.09  -0.10   0.01
  61   6     0.02   0.01   0.00     0.05   0.11  -0.00    -0.11  -0.10   0.01
  62   6    -0.00  -0.01  -0.02     0.05   0.10  -0.00    -0.11  -0.10   0.01
  63   6     0.01  -0.03  -0.00     0.05   0.08  -0.00    -0.11  -0.09   0.01
  64   7     0.03  -0.02   0.00     0.06   0.09  -0.00    -0.11  -0.11   0.01
  65   6     0.00  -0.04   0.01     0.03   0.01  -0.00    -0.06   0.00   0.00
  66   6     0.00  -0.03   0.08     0.07  -0.07  -0.01    -0.11   0.10   0.01
  67   7    -0.01  -0.04   0.27     0.09  -0.09  -0.01    -0.11   0.11   0.02
  68   1     0.00  -0.00  -0.08     0.02  -0.03  -0.00    -0.03   0.03  -0.00
  69   1    -0.00   0.01  -0.05     0.02  -0.03  -0.00    -0.03   0.03   0.00
  70   1    -0.00  -0.01  -0.05    -0.02  -0.03   0.00     0.03   0.03  -0.00
  71   1     0.00   0.00  -0.08    -0.02  -0.03   0.00     0.03   0.03  -0.00
  72   1    -0.00   0.01  -0.02     0.01   0.00  -0.00    -0.01   0.00   0.00
  73   1    -0.01   0.00  -0.01    -0.01   0.03   0.00     0.03  -0.03  -0.00
  74   1     0.00  -0.01   0.00    -0.02   0.03   0.00     0.03  -0.03  -0.00
  75   1     0.01   0.00   0.02    -0.00   0.01   0.00     0.00   0.01   0.00
  76   1     0.00   0.01   0.00     0.01   0.03  -0.00    -0.03  -0.03   0.00
  77   1    -0.01  -0.00  -0.01     0.01   0.03  -0.00    -0.03  -0.03   0.00
  78   1    -0.00  -0.01  -0.02    -0.01   0.00   0.00     0.01   0.00  -0.00
                     25                     26                     27
                        a                      a                      a 
 Frequencies --   181.7817               196.2229               197.1368
 Red. masses --    20.2008                53.3904                51.3294
 Frc consts  --     0.0000                 0.0000                 0.0000
 IR Inten    --     0.0027                 6.2604                 3.1845
 Raman Activ --     0.0000                 0.0000                 0.0000
 Depolar     --     0.0000                 0.0000                 0.0000
 Atom AN      X      Y      Z        X      Y      Z        X      Y      Z
   1  30    -0.00  -0.28   0.00    -0.08  -0.62  -0.00    -0.84   0.05  -0.03
   2   6    -0.08   0.08  -0.00     0.04   0.05   0.00     0.09   0.01   0.01
   3   6    -0.07   0.07  -0.00     0.04   0.06  -0.00     0.06   0.04  -0.00
   4   6    -0.05   0.08  -0.00     0.03   0.05   0.00    -0.00   0.01  -0.01
   5   6     0.00   0.06  -0.00     0.00   0.07  -0.00     0.01  -0.01   0.00
   6   6     0.05   0.08  -0.00    -0.03   0.05  -0.00     0.00  -0.02   0.01
   7   6     0.07   0.07   0.00    -0.03   0.05  -0.00     0.06  -0.05   0.01
   8   6     0.08   0.08   0.00    -0.02   0.05   0.00     0.10  -0.01  -0.00
   9   6     0.08   0.07   0.00    -0.02   0.03   0.00     0.07   0.02   0.00
  10   7     0.06   0.08  -0.00    -0.04   0.03   0.00     0.01   0.01   0.01
  11   6     0.06   0.02   0.00     0.01   0.07   0.00     0.10   0.07  -0.00
  12   6     0.10  -0.06   0.00     0.02   0.05  -0.00     0.09   0.09   0.01
  13   6     0.11  -0.05   0.00     0.03   0.07  -0.00     0.08   0.05  -0.00
  14   6     0.10  -0.04   0.01     0.03   0.08   0.00     0.10   0.02   0.01
  15   6     0.09  -0.05   0.00     0.03   0.08   0.00     0.10   0.03   0.01
  16   7     0.10  -0.07   0.00     0.03   0.06  -0.00     0.10   0.09   0.02
  17   6     0.00  -0.00  -0.00     0.02   0.08   0.00     0.15  -0.01   0.00
  18   6    -0.09  -0.04  -0.00    -0.01   0.07  -0.00     0.11  -0.04  -0.01
  19   6    -0.10  -0.04  -0.00    -0.00   0.08   0.00     0.10  -0.04   0.00
  20   6    -0.11  -0.05  -0.00    -0.01   0.06  -0.00     0.09  -0.06   0.01
  21   6    -0.10  -0.06  -0.00    -0.00   0.04  -0.00     0.09  -0.09  -0.00
  22   7    -0.10  -0.07  -0.01    -0.01   0.04  -0.00     0.11  -0.10  -0.01
  23   6    -0.06   0.02  -0.00     0.01   0.05   0.00     0.10  -0.08   0.01
  24   6    -0.08   0.07  -0.00     0.03   0.03   0.00     0.07  -0.02   0.00
  25   7    -0.06   0.08  -0.01     0.04   0.03   0.00     0.00  -0.01  -0.01
  26   1    -0.02   0.02   0.00     0.02   0.02   0.00     0.04   0.00   0.00
  27   1    -0.02   0.02   0.00     0.01   0.02  -0.00     0.02   0.03  -0.00
  28   1     0.02   0.02   0.00    -0.01   0.01  -0.00     0.02  -0.03   0.00
  29   1     0.02   0.02   0.00    -0.01   0.01   0.00     0.04  -0.00  -0.00
  30   1    -0.00   0.00  -0.00     0.00   0.02   0.00     0.04   0.02  -0.00
  31   1     0.04  -0.01   0.00     0.01   0.02   0.00     0.01   0.01  -0.00
  32   1     0.03  -0.01   0.00     0.01   0.02   0.00     0.03   0.00   0.00
  33   1     0.00   0.02  -0.00     0.00   0.03   0.00     0.04  -0.00   0.00
  34   1    -0.03  -0.01  -0.00    -0.00   0.02   0.00     0.03  -0.01   0.00
  35   1    -0.04  -0.01  -0.00    -0.01   0.02  -0.00     0.02  -0.02   0.01
  36   1     0.00   0.00   0.00     0.00   0.01   0.00     0.04  -0.02   0.01
  37   6     0.00   0.07   0.00     0.00   0.10  -0.00     0.01  -0.01   0.00
  38   6    -0.00   0.32   0.00     0.00  -0.01   0.00     0.01  -0.00  -0.00
  39   6    -0.00   0.22   0.00     0.00  -0.05   0.00     0.01   0.00  -0.00
  40   6     0.00  -0.22  -0.00     0.00  -0.05  -0.00     0.01   0.01   0.00
  41   6     0.00  -0.32  -0.00     0.00  -0.01  -0.00     0.01   0.01   0.00
  42   6    -0.00  -0.07  -0.00    -0.00   0.10  -0.00     0.01  -0.01  -0.00
  43  30     0.00   0.28   0.00    -0.02  -0.62  -0.00    -0.17   0.07   0.01
  44   6     0.09  -0.08  -0.00     0.04   0.05  -0.00     0.02  -0.00  -0.00
  45   6     0.08  -0.07  -0.01     0.03   0.06  -0.00     0.01   0.00  -0.00
  46   6     0.05  -0.08  -0.01     0.03   0.05  -0.00     0.00  -0.00  -0.00
  47   6    -0.00  -0.06   0.00    -0.00   0.07   0.00     0.01  -0.01  -0.00
  48   6    -0.05  -0.08   0.01    -0.03   0.05   0.00     0.01  -0.01  -0.00
  49   6    -0.08  -0.08   0.01    -0.03   0.06   0.00     0.02  -0.02  -0.00
  50   6    -0.09  -0.08   0.00    -0.03   0.05   0.00     0.02  -0.01  -0.00
  51   6    -0.08  -0.07   0.01    -0.02   0.03   0.00     0.02  -0.01  -0.00
  52   7    -0.07  -0.08   0.01    -0.04   0.03   0.00     0.01  -0.01  -0.00
  53   6    -0.07  -0.02   0.00    -0.00   0.06   0.00     0.02  -0.00  -0.00
  54   6    -0.11   0.06   0.01     0.01   0.05   0.00     0.02   0.01  -0.00
  55   6    -0.12   0.05   0.01     0.02   0.07  -0.00     0.02   0.00  -0.00
  56   6    -0.11   0.04   0.01     0.02   0.08  -0.00     0.02  -0.00  -0.00
  57   6    -0.09   0.05   0.01     0.02   0.07   0.00     0.01  -0.00  -0.00
  58   7    -0.11   0.07   0.01     0.02   0.05   0.01     0.01   0.01  -0.00
  59   6     0.00   0.01   0.00     0.00   0.08   0.00     0.02  -0.01  -0.00
  60   6     0.09   0.05  -0.01    -0.02   0.07  -0.00     0.02  -0.01  -0.00
  61   6     0.11   0.05  -0.01    -0.01   0.08   0.01     0.02  -0.02  -0.00
  62   6     0.11   0.06  -0.01    -0.02   0.07   0.00     0.02  -0.02  -0.00
  63   6     0.10   0.06  -0.01    -0.01   0.04  -0.01     0.02  -0.02  -0.00
  64   7     0.10   0.07  -0.01    -0.02   0.05  -0.01     0.02  -0.02   0.00
  65   6     0.07  -0.02  -0.00     0.01   0.06  -0.00     0.02  -0.01  -0.00
  66   6     0.08  -0.07  -0.01     0.03   0.03   0.00     0.01  -0.00  -0.00
  67   7     0.07  -0.08  -0.01     0.04   0.03   0.00     0.00   0.00  -0.00
  68   1     0.02  -0.02   0.00     0.02   0.02  -0.00     0.00  -0.00  -0.00
  69   1     0.02  -0.02  -0.00     0.01   0.02  -0.00     0.00   0.00  -0.00
  70   1    -0.02  -0.02   0.00    -0.01   0.02   0.00     0.01  -0.01  -0.00
  71   1    -0.02  -0.02  -0.00    -0.01   0.01   0.00     0.01  -0.00   0.00
  72   1     0.00  -0.00  -0.00     0.00   0.02  -0.00     0.01  -0.00  -0.00
  73   1    -0.04   0.01   0.00     0.01   0.02  -0.00     0.00  -0.00  -0.00
  74   1    -0.03   0.01   0.00     0.00   0.02  -0.00     0.00   0.00  -0.00
  75   1     0.00  -0.02   0.00     0.00   0.03   0.00     0.01  -0.00  -0.00
  76   1     0.03   0.01  -0.00    -0.00   0.02   0.00     0.01  -0.01  -0.00
  77   1     0.04   0.02  -0.00    -0.01   0.02   0.00     0.01  -0.00  -0.00
  78   1    -0.00  -0.01   0.00    -0.00   0.02  -0.00     0.01  -0.00  -0.00
                     28                     29                     30
                        a                      a                      a 
 Frequencies --   197.1838               198.5244               198.5395
 Red. masses --    50.7787                12.5400                12.5375
 Frc consts  --     0.0000                 0.0000                 0.0000
 IR Inten    --     1.4100                 0.0730                 0.0332
 Raman Activ --     0.0000                 0.0000                 0.0000
 Depolar     --     0.0000                 0.0000                 0.0000
 Atom AN      X      Y      Z        X      Y      Z        X      Y      Z
   1  30     0.16   0.01   0.00    -0.01  -0.02  -0.00     0.01  -0.01   0.00
   2   6    -0.02  -0.00  -0.00     0.00   0.00   0.02     0.00   0.00  -0.06
   3   6    -0.01  -0.01  -0.00     0.00   0.00   0.04     0.00   0.00  -0.10
   4   6     0.01  -0.00   0.00     0.00   0.00  -0.04    -0.00  -0.00   0.11
   5   6     0.01  -0.00  -0.00     0.00   0.00   0.00     0.00   0.00  -0.00
   6   6     0.01  -0.00  -0.00    -0.00   0.00   0.04     0.00   0.00  -0.11
   7   6    -0.01   0.01  -0.00     0.00   0.00  -0.04    -0.00   0.00   0.10
   8   6    -0.02  -0.00   0.00     0.00   0.00  -0.02    -0.00   0.00   0.06
   9   6    -0.01  -0.01   0.00    -0.00   0.00   0.06     0.00   0.00  -0.14
  10   7     0.01  -0.01   0.00    -0.01   0.00   0.13     0.01   0.00  -0.32
  11   6    -0.02  -0.03   0.00     0.00   0.00   0.00    -0.00   0.00  -0.01
  12   6    -0.02  -0.03  -0.00     0.00   0.00  -0.07    -0.01  -0.00   0.16
  13   6    -0.01  -0.01   0.00    -0.00   0.00   0.05     0.00   0.00  -0.11
  14   6    -0.02  -0.01   0.00    -0.00   0.00   0.04     0.00   0.00  -0.10
  15   6    -0.03  -0.01  -0.00     0.00   0.00  -0.07    -0.01   0.00   0.17
  16   7    -0.03  -0.03  -0.01     0.01   0.00  -0.18    -0.02   0.00   0.41
  17   6    -0.04  -0.00  -0.00     0.00   0.00   0.00    -0.00   0.00  -0.00
  18   6    -0.03   0.01   0.00    -0.00   0.00   0.07     0.00   0.00  -0.17
  19   6    -0.02   0.00   0.00     0.00   0.00  -0.04    -0.00   0.00   0.10
  20   6    -0.01   0.01  -0.00     0.00   0.00  -0.05    -0.00   0.00   0.11
  21   6    -0.02   0.02  -0.00    -0.00   0.00   0.07     0.00   0.00  -0.16
  22   7    -0.03   0.02   0.00    -0.01   0.00   0.18     0.01   0.00  -0.41
  23   6    -0.02   0.02  -0.00     0.00   0.00  -0.00    -0.00   0.00   0.01
  24   6    -0.01   0.01   0.00     0.00   0.00  -0.06    -0.00  -0.00   0.14
  25   7     0.01   0.01   0.00     0.00   0.00  -0.13    -0.01  -0.00   0.32
  26   1    -0.01  -0.00  -0.00    -0.00   0.00   0.02     0.00   0.00  -0.06
  27   1    -0.00  -0.01  -0.00    -0.00   0.00   0.04     0.00   0.00  -0.08
  28   1    -0.00   0.01  -0.00     0.00   0.00  -0.04    -0.00  -0.00   0.08
  29   1    -0.01  -0.00  -0.00     0.00   0.00  -0.02    -0.00  -0.00   0.06
  30   1    -0.01  -0.01   0.00    -0.00   0.00   0.01    -0.00   0.00  -0.01
  31   1    -0.00  -0.00   0.00    -0.00   0.00   0.04     0.00  -0.00  -0.10
  32   1    -0.01  -0.00   0.00    -0.00   0.00   0.04     0.00  -0.00  -0.09
  33   1    -0.01  -0.00   0.00     0.00   0.00   0.00    -0.00   0.00  -0.00
  34   1    -0.01  -0.00  -0.00     0.00   0.00  -0.04    -0.00   0.00   0.09
  35   1    -0.00   0.00  -0.00     0.00   0.00  -0.04    -0.00   0.00   0.10
  36   1    -0.01   0.01  -0.00     0.00   0.00  -0.01    -0.00   0.00   0.01
  37   6     0.01  -0.00  -0.00     0.00   0.00  -0.00     0.00   0.00  -0.00
  38   6     0.01   0.00  -0.00     0.00  -0.00  -0.00     0.00  -0.00   0.00
  39   6     0.01   0.00  -0.00     0.00  -0.00  -0.00     0.00  -0.00   0.00
  40   6     0.01  -0.00   0.00     0.00   0.00   0.00     0.00   0.00   0.00
  41   6     0.00  -0.00   0.00     0.00   0.00   0.00     0.00   0.00  -0.00
  42   6     0.00  -0.00  -0.00     0.00  -0.00  -0.00     0.00  -0.00  -0.00
  43  30    -0.84  -0.01   0.07    -0.00  -0.01  -0.00    -0.00  -0.01   0.00
  44   6     0.10   0.01  -0.00     0.00  -0.00   0.06     0.00   0.00   0.03
  45   6     0.06   0.04  -0.01     0.00  -0.00   0.10     0.00   0.00   0.04
  46   6    -0.00   0.01  -0.00    -0.01   0.00  -0.11    -0.00   0.00  -0.05
  47   6     0.00  -0.00  -0.01     0.00   0.00   0.00     0.00   0.00  -0.00
  48   6    -0.01  -0.01  -0.01     0.01   0.00   0.11     0.00   0.00   0.05
  49   6     0.06  -0.04  -0.01    -0.00   0.00  -0.10    -0.00   0.00  -0.04
  50   6     0.10  -0.01  -0.00    -0.00   0.00  -0.06    -0.00   0.00  -0.03
  51   6     0.07   0.02  -0.00     0.01   0.00   0.14     0.00   0.00   0.06
  52   7     0.00   0.01  -0.01     0.02   0.00   0.31     0.01   0.00   0.14
  53   6     0.10   0.08  -0.00     0.00   0.00   0.01     0.00   0.00   0.00
  54   6     0.09   0.10  -0.01    -0.01   0.00  -0.16    -0.01   0.00  -0.07
  55   6     0.08   0.06  -0.01     0.01   0.00   0.11     0.00   0.00   0.05
  56   6     0.10   0.03  -0.01     0.01  -0.00   0.10     0.01  -0.00   0.04
  57   6     0.11   0.04  -0.01    -0.01  -0.00  -0.17    -0.00  -0.00  -0.07
  58   7     0.10   0.10  -0.01    -0.03  -0.00  -0.41    -0.01   0.00  -0.17
  59   6     0.16   0.00  -0.01     0.00  -0.00   0.00     0.00   0.00   0.00
  60   6     0.11  -0.03  -0.01     0.01  -0.00   0.17     0.01  -0.00   0.07
  61   6     0.10  -0.03  -0.01    -0.01   0.00  -0.10    -0.00   0.00  -0.04
  62   6     0.08  -0.05  -0.01    -0.01   0.00  -0.11    -0.00   0.00  -0.05
  63   6     0.10  -0.09  -0.01     0.01  -0.00   0.16     0.01  -0.00   0.07
  64   7     0.11  -0.09  -0.01     0.03  -0.01   0.41     0.01  -0.00   0.17
  65   6     0.10  -0.08  -0.01    -0.00   0.00  -0.01     0.00   0.00  -0.00
  66   6     0.07  -0.02  -0.00    -0.01   0.00  -0.14    -0.00   0.00  -0.06
  67   7     0.00  -0.01   0.00    -0.02   0.01  -0.31    -0.01   0.00  -0.14
  68   1     0.04   0.00  -0.00     0.00  -0.00   0.06     0.00  -0.00   0.03
  69   1     0.02   0.03  -0.00     0.00  -0.00   0.08     0.00  -0.00   0.04
  70   1     0.02  -0.03  -0.00    -0.00  -0.00  -0.08    -0.00  -0.00  -0.04
  71   1     0.04  -0.00   0.00    -0.00  -0.00  -0.06    -0.00  -0.00  -0.03
  72   1     0.04   0.02  -0.00     0.00   0.00   0.01     0.00   0.00   0.00
  73   1     0.01   0.01  -0.00     0.01   0.00   0.10     0.00   0.00   0.04
  74   1     0.03   0.01  -0.00     0.01  -0.00   0.09     0.00  -0.00   0.04
  75   1     0.05   0.00  -0.00     0.00   0.00   0.00     0.00   0.00   0.00
  76   1     0.03  -0.01  -0.00    -0.01   0.00  -0.09    -0.00   0.00  -0.04
  77   1     0.01  -0.01  -0.00    -0.01   0.00  -0.10    -0.00   0.00  -0.04
  78   1     0.04  -0.02  -0.00    -0.00   0.00  -0.01    -0.00   0.00  -0.00
                     31                     32                     33
                        a                      a                      a 
 Frequencies --   201.3230               202.5660               202.8439
 Red. masses --    41.4190                11.9464                11.9709
 Frc consts  --     0.0000                 0.0000                 0.0000
 IR Inten    --     0.0070                 0.0215                 0.0445
 Raman Activ --     0.0000                 0.0000                 0.0000
 Depolar     --     0.0000                 0.0000                 0.0000
 Atom AN      X      Y      Z        X      Y      Z        X      Y      Z
   1  30    -0.02   0.52  -0.00    -0.02  -0.02  -0.00    -0.02   0.03  -0.00
   2   6    -0.04  -0.06  -0.00     0.01   0.00  -0.12     0.00  -0.00  -0.11
   3   6    -0.03  -0.07   0.00     0.00   0.00   0.04    -0.00  -0.00   0.03
   4   6    -0.02  -0.06  -0.00    -0.01   0.00   0.19    -0.01  -0.00   0.18
   5   6     0.00  -0.07   0.00     0.00   0.00  -0.00     0.00  -0.00   0.00
   6   6     0.02  -0.06   0.00     0.01   0.00  -0.19     0.01  -0.00  -0.18
   7   6     0.03  -0.07   0.00     0.00   0.00  -0.04     0.00  -0.00  -0.03
   8   6     0.05  -0.06  -0.00    -0.00   0.00   0.12     0.00  -0.00   0.11
   9   6     0.03  -0.03  -0.00     0.00   0.00  -0.04     0.00  -0.00  -0.04
  10   7     0.03  -0.04  -0.00     0.01   0.00  -0.29     0.01  -0.00  -0.27
  11   6     0.02  -0.05  -0.00    -0.00   0.01   0.12    -0.00  -0.00   0.11
  12   6     0.01  -0.05   0.00     0.00   0.01   0.00     0.00   0.00   0.01
  13   6     0.01  -0.06   0.00    -0.00   0.00   0.12    -0.00  -0.00   0.10
  14   6     0.01  -0.07  -0.00     0.00   0.00  -0.07     0.01  -0.00  -0.06
  15   6    -0.00  -0.06  -0.00     0.01   0.00  -0.17     0.01  -0.00  -0.15
  16   7    -0.00  -0.05   0.00     0.01   0.01  -0.21     0.01  -0.00  -0.18
  17   6     0.00  -0.07  -0.00     0.01   0.00   0.00     0.01  -0.00  -0.00
  18   6     0.01  -0.06   0.00    -0.00   0.00   0.17    -0.00  -0.00   0.15
  19   6    -0.00  -0.07  -0.00     0.00   0.00   0.07    -0.00  -0.00   0.06
  20   6    -0.00  -0.06   0.00     0.00   0.00  -0.12     0.00  -0.01  -0.10
  21   6    -0.01  -0.05   0.00     0.00  -0.00  -0.00     0.00  -0.01  -0.00
  22   7     0.01  -0.05   0.01    -0.00  -0.00   0.21    -0.00  -0.01   0.19
  23   6    -0.01  -0.06  -0.00     0.01  -0.00  -0.12     0.00  -0.01  -0.11
  24   6    -0.03  -0.03  -0.01     0.00   0.00   0.04    -0.00  -0.00   0.04
  25   7    -0.03  -0.04  -0.01    -0.01   0.00   0.29    -0.01  -0.00   0.26
  26   1    -0.02  -0.02   0.00     0.00   0.00  -0.09     0.00  -0.00  -0.08
  27   1    -0.01  -0.02   0.00     0.00   0.00  -0.01    -0.00  -0.00  -0.01
  28   1     0.01  -0.02   0.00    -0.00   0.00   0.01     0.00  -0.00   0.01
  29   1     0.02  -0.02  -0.00    -0.00   0.00   0.09    -0.00  -0.00   0.08
  30   1     0.00  -0.02  -0.00    -0.00   0.00   0.11    -0.00  -0.00   0.10
  31   1    -0.00  -0.02   0.00    -0.00   0.00   0.08    -0.00  -0.00   0.07
  32   1     0.00  -0.02  -0.00     0.00   0.00  -0.02     0.00  -0.00  -0.02
  33   1     0.00  -0.02  -0.00     0.00   0.00   0.00     0.00  -0.00  -0.00
  34   1    -0.00  -0.02  -0.00     0.00   0.00   0.02    -0.00  -0.00   0.02
  35   1     0.00  -0.02   0.00     0.00   0.00  -0.08     0.00  -0.00  -0.07
  36   1    -0.00  -0.02  -0.00     0.00  -0.00  -0.11     0.00  -0.00  -0.10
  37   6     0.00  -0.04   0.00     0.00   0.00  -0.00     0.00  -0.00   0.00
  38   6    -0.00   0.28  -0.00     0.00  -0.02  -0.00     0.00   0.02   0.00
  39   6    -0.00   0.22  -0.00     0.00  -0.01   0.00     0.00   0.01  -0.00
  40   6     0.00  -0.22  -0.00     0.00   0.01   0.00     0.00  -0.02  -0.00
  41   6     0.00  -0.28  -0.00     0.00   0.02   0.00     0.00  -0.02  -0.00
  42   6    -0.00   0.04   0.00     0.00  -0.01  -0.00     0.00   0.01   0.00
  43  30     0.01  -0.53  -0.00    -0.00   0.03   0.00     0.00  -0.03  -0.00
  44   6     0.04   0.06   0.01     0.00  -0.00   0.11    -0.00   0.01  -0.12
  45   6     0.03   0.07  -0.00    -0.01  -0.00  -0.04     0.01   0.00   0.04
  46   6     0.02   0.06  -0.03    -0.01   0.00  -0.18     0.02  -0.00   0.19
  47   6    -0.00   0.07   0.00     0.00  -0.00  -0.00     0.00   0.00   0.00
  48   6    -0.02   0.06   0.02     0.01  -0.00   0.18    -0.01   0.00  -0.19
  49   6    -0.03   0.07   0.00     0.01  -0.00   0.03    -0.01   0.00  -0.04
  50   6    -0.04   0.06  -0.01    -0.00  -0.00  -0.11     0.00   0.00   0.12
  51   6    -0.03   0.04   0.01     0.01  -0.00   0.04    -0.01   0.00  -0.04
  52   7    -0.03   0.04   0.04     0.02  -0.00   0.26    -0.02  -0.00  -0.29
  53   6    -0.02   0.06  -0.01    -0.01  -0.01  -0.11     0.01   0.00   0.12
  54   6    -0.01   0.05   0.00     0.00  -0.01  -0.00    -0.00   0.00   0.01
  55   6    -0.00   0.06  -0.01    -0.01  -0.01  -0.11     0.01   0.01   0.11
  56   6    -0.00   0.07   0.01     0.01  -0.00   0.06    -0.01   0.01  -0.07
  57   6     0.01   0.06   0.02     0.01  -0.01   0.16    -0.02   0.01  -0.17
  58   7     0.01   0.05   0.02     0.02  -0.01   0.19    -0.02   0.00  -0.20
  59   6    -0.00   0.07  -0.00     0.00  -0.00   0.00    -0.00   0.00  -0.00
  60   6    -0.01   0.06  -0.02    -0.01  -0.00  -0.16     0.01   0.00   0.17
  61   6     0.00   0.07  -0.01    -0.01  -0.00  -0.06     0.01   0.00   0.07
  62   6     0.00   0.06   0.01     0.01  -0.01   0.11    -0.01   0.01  -0.11
  63   6     0.01   0.05   0.00    -0.00  -0.01  -0.00     0.00   0.01  -0.00
  64   7    -0.01   0.05  -0.02    -0.02  -0.00  -0.20     0.02   0.00   0.21
  65   6     0.02   0.05   0.01     0.01  -0.01   0.11    -0.01   0.01  -0.12
  66   6     0.03   0.03  -0.01    -0.00  -0.00  -0.03     0.01   0.00   0.04
  67   7     0.03   0.04  -0.04    -0.02   0.00  -0.26     0.02  -0.00   0.29
  68   1     0.02   0.02   0.01     0.00  -0.00   0.08    -0.00   0.00  -0.09
  69   1     0.01   0.02   0.00    -0.00  -0.00   0.01     0.00   0.00  -0.01
  70   1    -0.01   0.02  -0.00     0.00  -0.00  -0.01    -0.00   0.00   0.01
[...]
 Frc consts  --     0.0000                 0.0000                 0.0000
 IR Inten    --     4.2813                55.8747               222.3137
 Raman Activ --     0.0000                 0.0000                 0.0000
 Depolar     --     0.0000                 0.0000                 0.0000
 Atom AN      X      Y      Z        X      Y      Z        X      Y      Z
   1  30     0.00   0.00   0.00    -0.00  -0.00   0.00     0.00   0.00   0.00
   2   6    -0.02   0.15  -0.00     0.00  -0.00  -0.00    -0.00   0.01   0.00
   3   6     0.11  -0.01   0.00     0.01  -0.00   0.00    -0.02   0.00  -0.00
   4   6     0.00   0.00   0.00     0.00   0.00  -0.00    -0.00  -0.00   0.00
   5   6     0.00  -0.00   0.00     0.00  -0.00   0.00     0.00   0.00   0.00
   6   6     0.00  -0.00   0.00     0.00   0.00   0.00     0.00  -0.00  -0.00
   7   6     0.10   0.01   0.00    -0.00  -0.00  -0.00     0.02   0.00   0.00
   8   6    -0.02  -0.16  -0.00     0.00  -0.00  -0.00    -0.00   0.00   0.00
   9   6     0.00  -0.00   0.00     0.00   0.00   0.00    -0.00  -0.00  -0.00
  10   7    -0.00   0.00   0.00     0.00  -0.00  -0.00    -0.00   0.00   0.00
  11   6     0.00  -0.00  -0.00    -0.00   0.00  -0.00     0.00  -0.00   0.00
  12   6    -0.00  -0.00  -0.00     0.00   0.00   0.00    -0.00  -0.00  -0.00
  13   6     0.00  -0.00   0.00    -0.00   0.05  -0.00     0.01  -0.14   0.00
  14   6    -0.01   0.00  -0.00    -0.04   0.00  -0.00     0.13  -0.01   0.00
  15   6    -0.00  -0.00  -0.00    -0.00  -0.00  -0.00     0.00   0.00   0.00
  16   7     0.00   0.00   0.00     0.00  -0.00   0.00    -0.00   0.00  -0.00
  17   6    -0.00   0.00  -0.00     0.00   0.00  -0.00    -0.00  -0.00  -0.00
  18   6    -0.00   0.00  -0.00     0.00  -0.00   0.00    -0.00   0.01  -0.00
  19   6    -0.01  -0.00  -0.00     0.05   0.00   0.00    -0.14  -0.01  -0.00
  20   6     0.00   0.00   0.00     0.00   0.05  -0.00    -0.01  -0.15   0.00
  21   6    -0.00   0.00  -0.00    -0.00   0.00  -0.00     0.01  -0.00   0.00
  22   7     0.00  -0.00   0.00    -0.00  -0.00  -0.00     0.00   0.00   0.00
  23   6     0.00   0.00  -0.00     0.00   0.00   0.00    -0.00  -0.00  -0.00
  24   6     0.00   0.00   0.00    -0.00   0.00  -0.00     0.00  -0.00   0.00
  25   7    -0.00  -0.00  -0.00    -0.00  -0.00   0.00     0.00   0.00  -0.00
  26   1     0.06  -0.53   0.00    -0.00   0.01  -0.00     0.00  -0.02   0.00
  27   1    -0.40   0.05  -0.01    -0.02   0.00  -0.00     0.06  -0.01   0.00
  28   1    -0.39  -0.05  -0.01     0.02   0.00   0.00    -0.05  -0.01  -0.00
  29   1     0.06   0.57   0.01     0.00   0.00   0.00    -0.00  -0.01  -0.00
  30   1    -0.00   0.02   0.00    -0.00  -0.00  -0.00     0.00   0.01   0.00
  31   1    -0.00   0.01  -0.00     0.02  -0.15   0.00    -0.05   0.43  -0.00
  32   1     0.03  -0.00   0.00     0.14  -0.02   0.01    -0.43   0.05  -0.02
  33   1     0.00  -0.00   0.00    -0.00   0.00  -0.00     0.00  -0.00   0.00
  34   1     0.02   0.00   0.00    -0.15  -0.02  -0.00     0.46   0.05   0.01
  35   1    -0.00  -0.01   0.00    -0.02  -0.15   0.00     0.05   0.47  -0.00
  36   1    -0.00  -0.02  -0.00     0.00  -0.00   0.00    -0.00   0.01  -0.00
  37   6    -0.00  -0.00  -0.00    -0.00  -0.00  -0.00    -0.00   0.00  -0.00
  38   6     0.00   0.00   0.00     0.00   0.00   0.00     0.00  -0.00   0.00
  39   6    -0.00  -0.00  -0.00    -0.00   0.00  -0.00    -0.00  -0.00  -0.00
  40   6     0.00   0.00   0.00     0.00  -0.00   0.00     0.00  -0.00   0.00
  41   6     0.00   0.00  -0.00     0.00  -0.00  -0.00     0.00  -0.00  -0.00
  42   6    -0.00  -0.00   0.00    -0.00   0.00   0.00    -0.00   0.00   0.00
  43  30     0.00  -0.00   0.00     0.00   0.00   0.00     0.00   0.00   0.00
  44   6     0.00  -0.00  -0.00    -0.00   0.01   0.00    -0.00   0.00   0.00
  45   6    -0.00   0.00   0.00    -0.02   0.00   0.00    -0.01   0.00   0.00
  46   6    -0.00   0.00   0.00     0.00  -0.00  -0.00    -0.00  -0.00  -0.00
  47   6     0.00  -0.00  -0.00    -0.00   0.00  -0.00     0.00   0.00  -0.00
  48   6    -0.00  -0.00   0.00     0.00  -0.00   0.00     0.00  -0.00   0.00
  49   6     0.00   0.00  -0.00     0.02   0.00  -0.00     0.01   0.00  -0.00
  50   6     0.00   0.00  -0.00    -0.00   0.00  -0.00    -0.00   0.00  -0.00
  51   6    -0.00   0.00   0.00    -0.00  -0.00   0.00    -0.00  -0.00   0.00
  52   7     0.00  -0.00  -0.00    -0.00   0.00  -0.00    -0.00   0.00  -0.00
  53   6     0.00   0.00  -0.00     0.00  -0.00  -0.00     0.00  -0.00  -0.00
  54   6    -0.00  -0.00   0.00    -0.00  -0.00   0.00    -0.00  -0.00   0.00
  55   6     0.00  -0.00  -0.00     0.01  -0.14  -0.00     0.00  -0.04  -0.00
  56   6     0.00  -0.00  -0.00     0.13  -0.01  -0.01     0.04  -0.00  -0.00
  57   6    -0.00   0.00   0.00     0.00   0.00  -0.00     0.00   0.00  -0.00
  58   7     0.00   0.00  -0.00    -0.00   0.00   0.00    -0.00   0.00   0.00
  59   6     0.00   0.00  -0.00    -0.00  -0.00   0.00    -0.00  -0.00   0.00
  60   6     0.00  -0.00  -0.00    -0.00   0.01   0.00    -0.00   0.00   0.00
  61   6     0.00   0.00  -0.00    -0.14  -0.01   0.01    -0.05  -0.00   0.00
  62   6     0.00   0.00   0.00    -0.01  -0.15  -0.00    -0.00  -0.05  -0.00
  63   6    -0.00   0.00   0.00     0.01  -0.00  -0.00     0.00  -0.00  -0.00
  64   7     0.00  -0.00  -0.00     0.00   0.00  -0.00     0.00   0.00  -0.00
  65   6     0.00  -0.00  -0.00    -0.00  -0.00   0.00    -0.00  -0.00   0.00
  66   6    -0.00  -0.00   0.00     0.00   0.00  -0.00     0.00   0.00  -0.00
  67   7     0.00   0.00  -0.00     0.00   0.00   0.00     0.00   0.00   0.00
  68   1    -0.00   0.00   0.00     0.00  -0.02  -0.00     0.00  -0.01  -0.00
  69   1     0.00  -0.00  -0.00     0.06  -0.01  -0.00     0.02  -0.00  -0.00
  70   1    -0.00  -0.00   0.00    -0.05  -0.01   0.00    -0.02  -0.00   0.00
  71   1    -0.00  -0.00   0.00    -0.00  -0.01   0.00    -0.00  -0.00   0.00
  72   1     0.00  -0.00   0.00     0.00   0.01  -0.00     0.00   0.00  -0.00
  73   1    -0.00   0.00   0.00    -0.05   0.44   0.00    -0.02   0.14   0.00
  74   1    -0.00   0.00   0.00    -0.43   0.04   0.04    -0.14   0.01   0.01
  75   1    -0.00  -0.00   0.00     0.00  -0.00  -0.00     0.00  -0.00  -0.00
  76   1    -0.00  -0.00   0.00     0.46   0.06  -0.04     0.15   0.02  -0.01
  77   1    -0.00  -0.00  -0.00     0.05   0.47   0.00     0.02   0.16   0.00
  78   1     0.00   0.00   0.00    -0.00   0.01   0.00    -0.00   0.00   0.00
                    223                    224                    225
                        a                      a                      a 
 Frequencies --  3160.8288              3161.1861              3165.2645
 Red. masses --     1.9745                 1.9743                 1.9674
 Frc consts  --     0.0000                 0.0000                 0.0000
 IR Inten    --   470.9671                 1.6838                23.4126
 Raman Activ --     0.0000                 0.0000                 0.0000
 Depolar     --     0.0000                 0.0000                 0.0000
 Atom AN      X      Y      Z        X      Y      Z        X      Y      Z
   1  30     0.00  -0.00   0.00     0.00  -0.00   0.00     0.00  -0.00   0.00
   2   6    -0.00   0.00   0.00     0.00   0.00   0.00    -0.00   0.07   0.00
   3   6    -0.00   0.00  -0.00    -0.01   0.00  -0.00    -0.09   0.01  -0.00
   4   6     0.00  -0.00  -0.00    -0.00  -0.00  -0.00    -0.00  -0.00  -0.00
   5   6     0.00   0.00   0.00    -0.00   0.00  -0.00    -0.00   0.00   0.00
   6   6     0.00   0.00  -0.00    -0.00   0.00  -0.00     0.00  -0.00   0.00
   7   6    -0.00  -0.00  -0.00    -0.01  -0.00  -0.00     0.05   0.00   0.00
   8   6    -0.00  -0.00  -0.00     0.00  -0.00   0.00     0.00   0.03   0.00
   9   6     0.00  -0.00   0.00     0.00  -0.00   0.00    -0.00   0.00  -0.00
  10   7    -0.00  -0.00   0.00    -0.00  -0.00   0.00    -0.00  -0.00  -0.00
  11   6    -0.00   0.00  -0.00    -0.00   0.00  -0.00     0.00   0.00   0.00
  12   6     0.00   0.00   0.00     0.00   0.00   0.00     0.00   0.00   0.00
  13   6    -0.01   0.11  -0.00    -0.01   0.11  -0.00    -0.00   0.00  -0.00
  14   6    -0.11   0.01  -0.00    -0.11   0.01  -0.00    -0.00   0.00  -0.00
  15   6    -0.00  -0.00  -0.00    -0.00  -0.00  -0.00    -0.00  -0.00  -0.00
  16   7     0.00  -0.00   0.00     0.00  -0.00   0.00     0.00  -0.00   0.00
  17   6    -0.00   0.00  -0.00    -0.01   0.00  -0.00     0.00   0.00   0.00
  18   6    -0.00   0.00  -0.00    -0.00   0.00  -0.00     0.00  -0.00   0.00
  19   6    -0.10  -0.01  -0.00    -0.10  -0.01  -0.00     0.00   0.00   0.00
  20   6    -0.01  -0.10   0.00    -0.01  -0.10   0.00     0.00   0.01  -0.00
  21   6     0.00  -0.00   0.00     0.00  -0.00   0.00    -0.00   0.00  -0.00
  22   7     0.00   0.00   0.00     0.00   0.00   0.00    -0.00  -0.00  -0.00
  23   6    -0.00  -0.00  -0.00    -0.00  -0.00  -0.00    -0.00   0.00  -0.00
  24   6     0.00   0.00   0.00     0.00   0.00   0.00     0.00   0.00   0.00
  25   7    -0.00   0.00   0.00     0.00   0.00   0.00     0.00  -0.00   0.00
  26   1     0.00  -0.01   0.00     0.00  -0.01   0.00     0.02  -0.22   0.00
  27   1     0.01  -0.00   0.00     0.02  -0.00   0.00     0.29  -0.03   0.01
  28   1     0.02   0.00   0.00     0.02   0.00   0.00    -0.15  -0.02  -0.01
  29   1     0.00   0.01   0.00     0.00   0.00   0.00    -0.01  -0.10  -0.00
  30   1    -0.00  -0.01  -0.00    -0.00  -0.01  -0.00     0.00  -0.00  -0.00
  31   1     0.04  -0.34   0.00     0.04  -0.35   0.00     0.00  -0.01   0.00
  32   1     0.35  -0.04   0.01     0.36  -0.04   0.01     0.01  -0.00   0.00
  33   1     0.02   0.00   0.00     0.02   0.00   0.00    -0.00   0.00  -0.00
  34   1     0.31   0.03   0.01     0.33   0.04   0.01    -0.02  -0.00  -0.00
  35   1     0.03   0.31  -0.00     0.04   0.33  -0.00    -0.00  -0.02   0.00
  36   1    -0.00   0.01  -0.00    -0.00   0.01  -0.00    -0.00  -0.01  -0.00
  37   6    -0.00   0.00  -0.00    -0.00   0.00  -0.00    -0.00   0.00  -0.00
  38   6     0.00   0.00   0.00     0.00   0.00   0.00    -0.00  -0.00  -0.00
  39   6    -0.00   0.00  -0.00     0.00  -0.00   0.00     0.00  -0.00  -0.00
  40   6     0.00  -0.00   0.00    -0.00   0.00   0.00    -0.00   0.00   0.00
  41   6     0.00   0.00  -0.00    -0.00  -0.00   0.00     0.00   0.00   0.00
  42   6    -0.00  -0.00   0.00     0.00   0.00  -0.00     0.00  -0.00  -0.00
  43  30     0.00  -0.00  -0.00    -0.00   0.00   0.00    -0.00   0.00   0.00
  44   6    -0.00   0.00   0.00    -0.00  -0.00  -0.00     0.01  -0.12  -0.00
  45   6    -0.00   0.00   0.00     0.01  -0.00  -0.00     0.16  -0.01  -0.01
  46   6     0.00  -0.00   0.00     0.00   0.00  -0.00     0.00   0.01  -0.00
  47   6     0.00  -0.00  -0.00     0.00   0.00  -0.00     0.00  -0.00  -0.00
  48   6     0.00   0.00   0.00     0.00  -0.00  -0.00    -0.00   0.00   0.00
  49   6    -0.01  -0.00   0.00     0.01   0.00  -0.00    -0.14  -0.01   0.01
  50   6    -0.00  -0.00   0.00    -0.00   0.00  -0.00    -0.00  -0.10   0.00
  51   6     0.00  -0.00  -0.00    -0.00   0.00   0.00     0.00  -0.00  -0.00
  52   7    -0.00  -0.00  -0.00    -0.00   0.00   0.00     0.00   0.00  -0.00
  53   6    -0.00   0.00   0.00     0.00  -0.00  -0.00    -0.00  -0.00   0.00
  54   6     0.00   0.00  -0.00    -0.00  -0.00   0.00    -0.00  -0.00   0.00
  55   6    -0.01   0.11   0.00     0.01  -0.10  -0.00     0.00  -0.01  -0.00
  56   6    -0.11   0.01   0.01     0.11  -0.01  -0.01     0.01  -0.00  -0.00
  57   6    -0.00  -0.00   0.00     0.00   0.00  -0.00     0.00   0.00  -0.00
  58   7     0.00  -0.00  -0.00    -0.00   0.00   0.00    -0.00   0.00   0.00
  59   6    -0.00  -0.00   0.00     0.00   0.00  -0.00    -0.00  -0.00   0.00
  60   6    -0.00   0.00   0.00     0.00  -0.00  -0.00    -0.00   0.00   0.00
  61   6    -0.10  -0.01   0.01     0.10   0.01  -0.01    -0.01  -0.00   0.00
  62   6    -0.01  -0.10  -0.00     0.01   0.10   0.00    -0.00  -0.01  -0.00
  63   6     0.00  -0.00  -0.00    -0.00   0.00   0.00     0.00  -0.00  -0.00
  64   7     0.00   0.00  -0.00    -0.00  -0.00   0.00     0.00   0.00  -0.00
  65   6    -0.00  -0.00   0.00     0.00   0.00   0.00     0.00  -0.00  -0.00
  66   6     0.00   0.00  -0.00    -0.00  -0.00   0.00    -0.00  -0.00   0.00
  67   7    -0.00   0.00  -0.00    -0.00  -0.00   0.00    -0.00   0.00   0.00
  68   1     0.00  -0.01  -0.00    -0.00   0.00   0.00    -0.05   0.38   0.01
  69   1     0.01  -0.00  -0.00    -0.02   0.00   0.00    -0.52   0.05   0.03
  70   1     0.02   0.00  -0.00    -0.02  -0.00   0.00     0.45   0.06  -0.03
  71   1     0.00   0.01  -0.00    -0.00  -0.00   0.00     0.03   0.32  -0.00
  72   1    -0.00  -0.01   0.00     0.00   0.01  -0.00    -0.00   0.01  -0.00
  73   1     0.04  -0.35  -0.00    -0.04   0.33   0.00    -0.00   0.04   0.00
  74   1     0.36  -0.04  -0.03    -0.34   0.03   0.03    -0.03   0.00   0.00
  75   1     0.02   0.00  -0.00    -0.02  -0.00   0.00     0.00  -0.00  -0.00
  76   1     0.33   0.04  -0.03    -0.32  -0.04   0.03     0.03   0.00  -0.00
  77   1     0.03   0.32   0.00    -0.03  -0.31  -0.00     0.00   0.04   0.00
  78   1    -0.00   0.01   0.00     0.00  -0.01  -0.00     0.00   0.01   0.00
                    226                    227                    228
                        a                      a                      a 
 Frequencies --  3165.4741              3165.7402              3166.1110
 Red. masses --     1.9682                 1.9674                 1.9662
 Frc consts  --     0.0000                 0.0000                 0.0000
 IR Inten    --   146.2239                15.7106                21.8456
 Raman Activ --     0.0000                 0.0000                 0.0000
 Depolar     --     0.0000                 0.0000                 0.0000
 Atom AN      X      Y      Z        X      Y      Z        X      Y      Z
   1  30     0.00  -0.00   0.00     0.00   0.00  -0.00    -0.00  -0.00  -0.00
   2   6    -0.01   0.15   0.00     0.00  -0.01  -0.00     0.00  -0.06  -0.00
   3   6    -0.20   0.02  -0.01     0.02  -0.00   0.00     0.08  -0.01   0.00
   4   6    -0.00  -0.01  -0.00     0.00   0.00   0.00     0.00   0.00   0.00
   5   6    -0.00   0.00   0.00    -0.00  -0.00  -0.00     0.00   0.00   0.00
   6   6     0.00  -0.00   0.00    -0.00   0.00  -0.00     0.00  -0.01   0.00
   7   6     0.06   0.01   0.00    -0.04  -0.00  -0.00     0.22   0.02   0.01
   8   6     0.00   0.04   0.00    -0.00  -0.03  -0.00     0.01   0.16   0.00
   9   6    -0.00   0.00  -0.00     0.00  -0.00   0.00    -0.01   0.00  -0.00
  10   7    -0.00  -0.00  -0.00     0.00   0.00   0.00    -0.00  -0.00  -0.00
  11   6     0.00   0.00   0.00    -0.00  -0.00  -0.00     0.00   0.00   0.00
  12   6     0.00   0.00   0.00    -0.00  -0.00  -0.00     0.00   0.00   0.00
  13   6    -0.00   0.01  -0.00     0.00  -0.00   0.00    -0.00   0.01  -0.00
  14   6    -0.01   0.00  -0.00     0.00  -0.00   0.00    -0.01   0.00  -0.00
  15   6    -0.00  -0.00  -0.00     0.00   0.00   0.00    -0.00  -0.00  -0.00
  16   7     0.00  -0.00   0.00    -0.00   0.00  -0.00     0.00  -0.00  -0.00
  17   6     0.00   0.00   0.00     0.00  -0.00   0.00    -0.00   0.00  -0.00
  18   6     0.00  -0.00   0.00    -0.00   0.00  -0.00    -0.00   0.00   0.00
  19   6     0.01   0.00   0.00    -0.00  -0.00  -0.00    -0.00   0.00  -0.00
  20   6     0.00   0.01  -0.00    -0.00  -0.00   0.00    -0.00  -0.00  -0.00
  21   6    -0.00   0.00  -0.00     0.00   0.00   0.00     0.00  -0.00   0.00
  22   7    -0.00  -0.00  -0.00     0.00   0.00   0.00     0.00   0.00  -0.00
  23   6    -0.00   0.00  -0.00     0.00  -0.00   0.00     0.00  -0.00   0.00
  24   6     0.01   0.00   0.00    -0.00  -0.00  -0.00    -0.00  -0.00  -0.00
  25   7     0.00  -0.00   0.00    -0.00   0.00  -0.00    -0.00   0.00  -0.00
  26   1     0.05  -0.49   0.00    -0.00   0.04  -0.00    -0.02   0.19  -0.00
  27   1     0.65  -0.08   0.02    -0.05   0.01  -0.00    -0.26   0.03  -0.01
  28   1    -0.21  -0.02  -0.01     0.14   0.02   0.00    -0.73  -0.08  -0.03
  29   1    -0.02  -0.14  -0.00     0.01   0.10   0.00    -0.05  -0.49  -0.00
  30   1     0.00  -0.00  -0.00    -0.00   0.00   0.00     0.00  -0.01  -0.00
  31   1     0.00  -0.02   0.00    -0.00   0.01  -0.00     0.00  -0.03   0.00
  32   1     0.02  -0.00   0.00    -0.01   0.00  -0.00     0.03  -0.00   0.00
  33   1    -0.00   0.00  -0.00    -0.00  -0.00  -0.00     0.00   0.00   0.00
  34   1    -0.04  -0.00  -0.00     0.01   0.00   0.00     0.00   0.00   0.00
  35   1    -0.01  -0.04   0.00     0.00   0.01  -0.00     0.00   0.00   0.00
  36   1    -0.00  -0.01   0.00     0.00   0.00  -0.00     0.00   0.01   0.00
  37   6     0.00   0.00  -0.00     0.00  -0.00  -0.00    -0.00   0.00   0.00
  38   6    -0.00  -0.00  -0.00    -0.00   0.00   0.00     0.00  -0.00   0.00
  39   6     0.00  -0.00  -0.00    -0.00   0.00  -0.00    -0.00  -0.00   0.00
  40   6    -0.00  -0.00   0.00     0.00   0.00   0.00     0.00   0.00  -0.00
  41   6    -0.00  -0.00  -0.00    -0.00   0.00  -0.00    -0.00  -0.00   0.00
  42   6     0.00   0.00   0.00     0.00  -0.00   0.00    -0.00   0.00  -0.00
  43  30     0.00  -0.00  -0.00     0.00   0.00  -0.00     0.00  -0.00  -0.00
  44   6    -0.00   0.07   0.00    -0.01   0.10   0.00    -0.00   0.02   0.00
  45   6    -0.10   0.01   0.01    -0.14   0.01   0.01    -0.03   0.00   0.00
  46   6    -0.00  -0.00   0.00    -0.00  -0.00   0.00    -0.00  -0.00  -0.00
  47   6    -0.00   0.00   0.00    -0.00  -0.00   0.00     0.00   0.00   0.00
  48   6     0.00  -0.00  -0.00    -0.00   0.01   0.00    -0.00   0.00   0.00
  49   6     0.04   0.00  -0.00    -0.19  -0.02   0.01    -0.02  -0.00   0.00
  50   6     0.00   0.03  -0.00    -0.01  -0.14   0.00    -0.00  -0.01   0.00
  51   6    -0.00   0.00   0.00     0.01  -0.00  -0.00     0.00  -0.00  -0.00
  52   7    -0.00  -0.00   0.00     0.00   0.00  -0.00     0.00   0.00  -0.00
  53   6     0.00   0.00  -0.00    -0.00  -0.00   0.00    -0.00  -0.00   0.00
  54   6     0.00   0.00  -0.00    -0.00  -0.00   0.00     0.00   0.00  -0.00
  55   6    -0.00   0.00   0.00     0.00  -0.01  -0.00     0.00  -0.00  -0.00
  56   6    -0.00   0.00   0.00     0.01  -0.00  -0.00     0.00  -0.00  -0.00
  57   6    -0.00  -0.00   0.00     0.00   0.00   0.00     0.00   0.00   0.00
  58   7     0.00  -0.00  -0.00    -0.00   0.00  -0.00    -0.00   0.00   0.00
  59   6     0.00   0.00  -0.00     0.00  -0.00  -0.00     0.00   0.00  -0.00
  60   6     0.00  -0.00  -0.00     0.00  -0.00   0.00     0.00  -0.00  -0.00
  61   6     0.01   0.00  -0.00     0.00   0.00  -0.00     0.00   0.00  -0.00
  62   6     0.00   0.01   0.00     0.00   0.00   0.00     0.00   0.00   0.00
  63   6    -0.00   0.00   0.00    -0.00   0.00   0.00    -0.00   0.00   0.00
  64   7    -0.00  -0.00   0.00    -0.00  -0.00  -0.00    -0.00  -0.00   0.00
  65   6    -0.00   0.00   0.00    -0.00   0.00   0.00    -0.00   0.00   0.00
  66   6     0.00   0.00  -0.00     0.00   0.00  -0.00     0.00   0.00  -0.00
  67   7     0.00  -0.00  -0.00     0.00  -0.00  -0.00     0.00  -0.00  -0.00
  68   1     0.03  -0.23  -0.01     0.04  -0.33  -0.01     0.01  -0.08  -0.00
  69   1     0.31  -0.03  -0.02     0.45  -0.05  -0.03     0.11  -0.01  -0.01
  70   1    -0.13  -0.02   0.01     0.61   0.08  -0.04     0.06   0.01  -0.00
  71   1    -0.01  -0.09   0.00     0.04   0.43  -0.01     0.00   0.04  -0.00
  72   1     0.00  -0.00   0.00    -0.00   0.01  -0.00    -0.00   0.00  -0.00
  73   1     0.00  -0.02  -0.00    -0.00   0.03   0.00    -0.00   0.00   0.00
  74   1     0.01  -0.00  -0.00    -0.02   0.00   0.00    -0.00   0.00   0.00
  75   1    -0.00   0.00   0.00    -0.00  -0.00   0.00    -0.00   0.00   0.00
  76   1    -0.02  -0.00   0.00    -0.01  -0.00   0.00    -0.00  -0.00   0.00
  77   1    -0.00  -0.02  -0.00    -0.00  -0.02  -0.00    -0.00  -0.01  -0.00
  78   1    -0.00  -0.01  -0.00    -0.00  -0.01  -0.00    -0.00  -0.00  -0.00
