78
 energy: -134.232353052136 gnorm: 0.000662301102 xtb: 6.4.1 (bd6e46d)
Zn        6.65055377339381   -0.05243287324211    0.03015564605252
C         9.13867190903745   -3.51888811659917    0.09977820583158
C        10.10397122383158   -2.56845542897767    0.12823327804772
C         9.43139223965325   -1.30081829427455    0.11269967068308
C        10.08632352789728   -0.05846988416422    0.13866273608840
C         9.43606365444352    1.18672661851885    0.12564097269439
C        10.11235484577971    2.45210617313661    0.15600945826289
C         9.15020091574777    3.40582344726016    0.12836970477556
C         7.88978058716113    2.72071402432170    0.08031686416112
N         8.09534001358499    1.37349252488842    0.08144405600982
C         6.65712432327416    3.35056309062565    0.03595852904858
C         5.42308186232251    2.72387829628287   -0.01211036365076
C         4.15931301932908    3.40804648402413   -0.05938364105490
C         3.20073066795522    2.45331686529277   -0.09343055930210
C         3.87808402753880    1.18490746057054   -0.06657232494997
N         5.22175545623435    1.37998618627544   -0.01868225376158
C         3.24366738528606   -0.04655666072732   -0.08360365403029
C         3.87297021251988   -1.28046737839887   -0.05733615047437
C         3.19082030922030   -2.54646893577860   -0.07379145184860
C         4.14609990847855   -3.50455376579433   -0.04042180151405
C         5.41260964660116   -2.82477982470639   -0.00389954494935
N         5.21609052214843   -1.48025925219036   -0.01404326456676
C         6.64503597086737   -3.45543279863076    0.03265141127587
C         7.88003210979695   -2.82961642728373    0.06623976413909
N         8.08993472269938   -1.48303822341763    0.07404287360609
H         9.25348165978663   -4.58563810856439    0.10084867070596
H        11.16892198889645   -2.69609306582551    0.15667659457974
H        11.17734353890800    2.57646045947446    0.19287107618804
H         9.26833942789638    4.47220806756202    0.13871989332901
H         6.65982080993001    4.43174959490768    0.03905464529077
H         4.04087054724964    4.47464521388263   -0.06543787528683
H         2.13543635979608    2.57686695144437   -0.13287840486033
H         2.16325466159624   -0.04434826782929   -0.11986421044362
H         2.12486825967596   -2.66641204454438   -0.10650158098656
H         4.02379992474926   -4.57073046041988   -0.04017803448491
H         6.64437269852585   -4.53663601002654    0.03433894286835
C        11.48380432415285   -0.06123340902093    0.17900748729757
C        12.70342198771204   -0.05338648063099    0.20844380621136
C        14.03982903933800   -0.04844732798779    0.23356670623362
C        15.26405410235438   -0.04001331523148    0.24579239267185
C        16.60070118320261   -0.03307522447080    0.23784150862427
C        17.82032364937099   -0.01484070228392    0.21326792093712
Zn       22.64675295718312    0.05349065512305   -0.05385746521174
C        20.11268748094619    3.47900583321934    0.17181235931762
C        19.16266316487973    2.51353095635151    0.20979429015684
C        19.85260422578052    1.25692877523864    0.14412096131063
C        19.21732598651112    0.00410911410972    0.16312927560193
C        19.88658370603831   -1.23033378269289    0.12709167275365
C        19.23164187217872   -2.50630963810413    0.17578964279566
C        20.20789207161868   -3.44450351101645    0.12343746934956
C        21.45526597418649   -2.73940984918354    0.03765458430082
N        21.22830542821108   -1.39567328948596    0.04516550513468
C        22.69536029522920   -3.34951990316961   -0.05169102022486
C        23.91582421406891   -2.70324725940304   -0.15557377475626
C        25.18653030313104   -3.36709593170892   -0.26574146302720
C        26.12623353592650   -2.39712689385358   -0.35298663639703
C        25.43070147852561   -1.13972318575819   -0.29280899412852
N        24.09471894061448   -1.35638926171231   -0.17460002528558
C        26.04332572156802    0.10184343142679   -0.34222663028418
C        25.39721214768439    1.32537849093730   -0.27268323328092
C        26.05808506254920    2.60210887142860   -0.31206543600400
C        25.09207410259246    3.54451288040950   -0.21035237492769
C        23.83998496364758    2.84449352951923   -0.11209275186477
N        24.05577647624824    1.50347283063294   -0.15212458831207
C        22.60204358521480    3.45522292241320   -0.00034500194738
C        21.37911089599251    2.80998167706142    0.07773111962646
N        21.18929267979553    1.46041629219729    0.06584512222039
H        19.98257931253738    4.54361557982514    0.20164163636787
H        18.09765118129001    2.62451126181929    0.27785852352666
H        18.17019404848238   -2.64747581692962    0.24321576386810
H        20.10725691897816   -4.51263145256301    0.13861132777037
H        22.71014810817111   -4.43060116369736   -0.04684257830536
H        25.32198554490291   -4.43164443099243   -0.27509758086478
H        27.18985676202949   -2.50349285942927   -0.44823124457081
H        27.11993168731897    0.11726965544182   -0.43861251556051
H        27.11843288461162    2.73927751241565   -0.40449716017065
H        25.19825926247304    4.61239690471659   -0.20262318776972
H        22.58713301562737    4.53612505847278    0.02080149055914
