78
 energy: -133.509401217746 gnorm: 1.603317156869 xtb: 6.4.1 (bd6e46d)
Zn        6.92102300000000    0.02323200000000   -0.00510600000000
C         9.25001400000000   -3.12356100000000    1.31758300000000
C        10.16612100000000   -2.17935300000000    1.26730100000000
C         9.75494200000000   -1.12544900000000    0.34600900000000
C        10.37381200000000   -0.00110300000000   -0.00040100000000
C         9.66977000000000    1.21884500000000   -0.36450600000000
C         9.99788000000000    2.17890000000000   -1.21197900000000
C         8.96310100000000    3.19518500000000   -1.22887700000000
C         8.02683300000000    2.81872300000000   -0.38198600000000
N         8.42882300000000    1.58571200000000    0.18183100000000
C         6.76575800000000    3.46372300000000   -0.00283400000000
C         5.67054100000000    2.82894000000000    0.34792600000000
C         4.59691500000000    3.14689600000000    1.31695400000000
C         3.75935300000000    2.15014200000000    1.23978800000000
C         4.19765000000000    1.14645900000000    0.25933600000000
N         5.30258800000000    1.58531200000000   -0.22495600000000
C         3.58681500000000   -0.10681200000000   -0.15421200000000
C         4.25097600000000   -1.21131800000000   -0.40863600000000
C         3.87712700000000   -2.27426000000000   -1.36616400000000
C         4.82587400000000   -3.16801600000000   -1.27714400000000
C         5.81159800000000   -2.73056600000000   -0.29426700000000
N         5.45855200000000   -1.58476100000000    0.20253100000000
C         7.04248600000000   -3.38663600000000    0.15145400000000
C         8.16552800000000   -2.74077500000000    0.41857500000000
N         8.49412800000000   -1.49333400000000   -0.17982800000000
H         9.31027600000000   -4.03334100000000    1.93513000000000
H        11.08244800000000   -2.21930300000000    1.84534900000000
H        10.92524600000000    2.19569600000000   -1.81312300000000
H         8.98000000000000    4.09987400000000   -1.84149900000000
H         6.71803500000000    4.55852500000000   -0.00661100000000
H         4.54409400000000    4.02562100000000    1.94194700000000
H         2.84772200000000    2.11447200000000    1.85711200000000
H         2.48856500000000   -0.10390100000000   -0.25348300000000
H         3.00827100000000   -2.32672500000000   -2.01511400000000
H         4.82302800000000   -4.08432400000000   -1.87590400000000
H         7.00700400000000   -4.48243800000000    0.26337900000000
C        11.41616500000000    0.01324000000000    0.00480700000000
C        12.63169800000000   -0.01210300000000   -0.00567300000000
C        14.05321500000000   -0.03352700000000   -0.00984800000000
C        15.26177600000000   -0.03573800000000   -0.00974300000000
C        16.68285200000000   -0.01677800000000   -0.01037000000000
C        17.89399400000000    0.01324000000000    0.00480700000000
Zn       22.42156600000000   -0.01037000000000   -0.16405400000000
C        19.87569700000000    3.22697400000000    1.12779700000000
C        18.94933700000000    2.29979900000000    0.98324900000000
C        19.55135000000000    1.13101900000000    0.32650500000000
C        18.95839800000000   -0.00110300000000   -0.00040100000000
C        19.59071200000000   -1.31429000000000   -0.02229200000000
C        19.07004900000000   -2.53385200000000    0.09922000000000
C        20.10559600000000   -3.53513400000000    0.01065300000000
C        21.25897100000000   -2.87966500000000   -0.16705900000000
N        20.97251800000000   -1.50894000000000   -0.19138400000000
C        22.60059500000000   -3.45128700000000   -0.31539800000000
C        23.74278900000000   -2.84605700000000   -0.14605100000000
C        25.02150100000000   -3.26490900000000    0.49050500000000
C        25.82137700000000   -2.25926100000000    0.35229500000000
C        25.17301500000000   -1.13369100000000   -0.35704900000000
N        23.98288600000000   -1.53123500000000   -0.61536200000000
C        25.68234000000000    0.18066200000000   -0.74387000000000
C        25.02295800000000    1.30982300000000   -0.64694100000000
C        25.42076500000000    2.59452800000000   -1.26735100000000
C        24.51356800000000    3.45765400000000   -0.92621000000000
C        23.50701000000000    2.78944100000000   -0.08781600000000
N        23.83693400000000    1.55074300000000    0.04962200000000
C        22.31156200000000    3.36070000000000    0.52574400000000
C        21.14493900000000    2.75031500000000    0.58523800000000
N        20.89392400000000    1.44795100000000    0.10090800000000
H        19.68407300000000    4.20917500000000    1.59557200000000
H        17.90702200000000    2.42465100000000    1.31518600000000
H        17.98403300000000   -2.70087600000000    0.24739700000000
H        19.93352000000000   -4.59664400000000    0.08019800000000
H        22.66152300000000   -4.51940300000000   -0.60147600000000
H        25.17465000000000   -4.22822900000000    0.95160700000000
H        26.84368300000000   -2.26201800000000    0.71926400000000
H        26.71640600000000    0.14733300000000   -1.14081700000000
H        26.29683000000000    2.79720700000000   -1.89031800000000
H        24.55322000000000    4.50889400000000   -1.24783700000000
H        22.39816000000000    4.35037600000000    0.95630400000000
78
 energy: -133.938185862960 gnorm: 0.407304491034 xtb: 6.4.1 (bd6e46d)
Zn        6.92634501746659    0.02471349740960   -0.00428531866106
C         9.24544639186138   -3.13358673090618    1.31289199422705
C        10.17250718657857   -2.17652346118581    1.26338434260642
C         9.70547330554792   -1.15071386518709    0.35490518024762
C        10.27094591334789    0.00977246960874   -0.00016296405731
C         9.62699136539546    1.22768158957156   -0.36364651653353
C        10.00257704678408    2.19839610749144   -1.22490000650516
C         8.98257992448107    3.20006722342021   -1.23904605655760
C         8.01833933296931    2.80840268501439   -0.37593985418434
N         8.40574106908886    1.57852715630542    0.18202798164936
C         6.77943352259026    3.46629328361982   -0.00437057216284
C         5.66022673449647    2.81746984253627    0.34948417029624
C         4.60112417184083    3.15306912071036    1.30605074763317
C         3.74041090071454    2.14266494958649    1.24227061962236
C         4.19054084252539    1.14724355610177    0.27037306417157
N         5.32487589658541    1.57538344309733   -0.21694473026863
C         3.57765404541809   -0.08920482395062   -0.14880746428740
C         4.25489711968145   -1.21721804051324   -0.41301079397735
C         3.87104363168066   -2.27067722178937   -1.35774006299412
C         4.83301368490887   -3.18396315457121   -1.27516421481829
C         5.81888262017898   -2.74058698809845   -0.29960232215059
N         5.46189817476915   -1.56901231954677    0.18857767574583
C         7.02609816709935   -3.39399228667977    0.14554599042689
C         8.17033178697959   -2.73394481529600    0.42159264955594
N         8.48175086216258   -1.49961009017592   -0.16046086337292
H         9.30555895910060   -4.03003385091762    1.93036303105983
H        11.08370073124724   -2.21202774527125    1.84224393374694
H        10.92194176736129    2.19811808891338   -1.81210339512420
H         8.98327864173843    4.09807892021949   -1.84163056221570
H         6.72582932895976    4.55683706652372   -0.00325072422723
H         4.54802443395513    4.02449449981597    1.93876293168062
H         2.84639390285032    2.10916905206277    1.85558096456859
H         2.49040386334494   -0.09991213349450   -0.25584714258892
H         3.00979249663581   -2.32115939610844   -2.01076383937210
H         4.82925480790150   -4.08568402876892   -1.87324867640925
H         7.00411734445622   -4.48001733681546    0.26335938299921
C        11.53089752289999    0.02400579690150    0.00385843803332
C        12.70905975938393   -0.01125586286231   -0.00497187288194
C        14.04891909971427   -0.03296565424031   -0.01032207966082
C        15.26681265315792   -0.03525106494841   -0.01030979943037
C        16.61008559156660   -0.02004582226172   -0.01256289681746
C        17.78923156789901    0.00499022479452    0.00202843534487
Zn       22.41602437795778   -0.01120986618275   -0.16525041844655
C        19.87979831234398    3.23667285512662    1.13073081219542
C        18.94594632089114    2.29758374353451    0.97875085837329
C        19.59688453799775    1.15870895852973    0.33284929707159
C        19.05052141669213   -0.01615678777569    0.00387061022521
C        19.63237792196036   -1.32178775658927   -0.02731817416300
C        19.06331499194019   -2.55193936314547    0.09961800804139
C        20.08637492317890   -3.53637286968447    0.01039293953818
C        21.26606984897334   -2.86979417186561   -0.17661565988823
N        20.99158747183472   -1.50546132187192   -0.19002856543083
C        22.58221311409480   -3.45659607583866   -0.31664986501243
C        23.75615770980617   -2.83210960841710   -0.14949283066713
C        25.01110426160928   -3.27125050372484    0.47892479592199
C        25.83981620265751   -2.24742933459571    0.34930452119526
C        25.18151475136163   -1.13659619950520   -0.35061949012400
N        23.96214914830794   -1.52217163303089   -0.60168482464274
C        25.69190624539114    0.16196146505132   -0.74257216754261
C        25.02130604437335    1.31601285001012   -0.65120424794376
C        25.42786599582558    2.58745461647252   -1.26577056238498
C        24.50609219635590    3.47314368880640   -0.91959735721179
C        23.50492431127114    2.79928848886606   -0.08688485166414
N        23.83468008666075    1.53754113747212    0.03917076942478
C        22.32461038198634    3.36518557517177    0.52222002838707
C        21.13658282113121    2.74056090494028    0.58820463405336
N        20.90421011792418    1.45474423897655    0.10675424808949
H        19.68970422358187    4.20623153084577    1.59327752146944
H        17.91168880773036    2.41741817378673    1.31084784315489
H        17.98953020136006   -2.70411187018473    0.24738522089502
H        19.93128043003597   -4.59656954807084    0.08057846726731
H        22.65364611541492   -4.51912329882626   -0.58934945110435
H        25.17109392526989   -4.22676968261472    0.95013977784977
H        26.84803822980632   -2.25686903872501    0.72007598432579
H        26.71352335425217    0.14754890852436   -1.13933137852658
H        26.29450984013458    2.79091336124195   -1.88743862762009
H        24.54674323028077    4.50858844455630   -1.24375862386350
H        22.39985094228022    4.35366410862062    0.95139495440077
78
 energy: -134.047094561596 gnorm: 0.197949969286 xtb: 6.4.1 (bd6e46d)
Zn        6.93211277683198    0.02584149725166   -0.00136957459903
C         9.24141898933320   -3.14961166162875    1.29687322194685
C        10.17823296279072   -2.18102503515386    1.25089802292517
C         9.66857963358479   -1.16198782428679    0.36966495063541
C        10.23330501745504    0.03340665210113    0.00499004045169
C         9.58049759905284    1.23699317012504   -0.36723626706421
C        10.00254637396625    2.22851871744620   -1.23473263722830
C         9.00817420500820    3.20978659979940   -1.24121987750582
C         8.00642067966832    2.79468492560472   -0.37740657755469
N         8.35459316803675    1.55728672045229    0.15403918526562
C         6.79890468656342    3.45957667680976   -0.00311316513921
C         5.65880963983499    2.79450864485226    0.35528320900859
C         4.59831222547230    3.15561826787728    1.27713340621002
C         3.71137319101079    2.13969239971252    1.23485859233771
C         4.18723998114361    1.14444454482118    0.29501640814135
N         5.36871174960694    1.54090623656526   -0.17260043370313
C         3.57021734074714   -0.06663859416806   -0.13997890739375
C         4.26010876180961   -1.21184698126583   -0.42537975096799
C         3.86513648721597   -2.27381655195038   -1.33428669524771
C         4.83438749949464   -3.20796153327310   -1.26209681452828
C         5.82729411159779   -2.74801299471356   -0.31536962778220
N         5.48097699369979   -1.53540016749248    0.13760763790886
C         7.00161138935199   -3.40486784238038    0.13818620467312
C         8.15824859485788   -2.73351091964693    0.43425743377136
N         8.44516552740272   -1.49866847082552   -0.09840157325680
H         9.29096046725167   -4.03093709636533    1.91583617566374
H        11.08663819484050   -2.19349786153138    1.82913446511001
H        10.91513630842153    2.20972111321543   -1.81016968815699
H         8.99432015508734    4.10012417159950   -1.84106241556356
H         6.75065775441880    4.54743158836798    0.00393892827413
H         4.55925616851742    4.01972128991441    1.92031922240009
H         2.83354664161756    2.09466824439863    1.85141290745086
H         2.49201088750332   -0.08516639217309   -0.25962801778611
H         3.01241492969131   -2.30677658690326   -1.99309586731016
H         4.84623683258007   -4.09723173162668   -1.86406911170967
H         6.99124271929812   -4.48152154244004    0.25909431614585
C        11.53719481926544    0.04463538591921    0.00246305676957
C        12.75058322505643   -0.00703103028977   -0.00240361726935
C        14.05219390797221   -0.03136351680840   -0.01157130644831
C        15.26260177972672   -0.03615476312757   -0.01491091373617
C        16.56519498142320   -0.02911270313127   -0.01678395863664
C        17.77646379811791   -0.01761582751644    0.01156349794853
Zn       22.40586272913491   -0.00943016110272   -0.16952965259894
C        19.89218652773941    3.24717149413212    1.13165858863343
C        18.95229266996326    2.29977919701879    0.96373571646601
C        19.63192501503907    1.17649789521728    0.33548484059483
C        19.08678767663465   -0.04219421795527    0.02160331220821
C        19.67995737945492   -1.32987541894987   -0.03732110421025
C        19.06534389156585   -2.57377186020065    0.09148570348568
C        20.06452868273947   -3.53492048223207   -0.00088337435234
C        21.27430857448323   -2.85992603734370   -0.19630234593793
N        21.02605417443123   -1.50198360151858   -0.18520219663598
C        22.55892805673796   -3.45367952081746   -0.31479885243648
C        23.75989254730424   -2.80796332782836   -0.15627900779314
C        25.00061093306357   -3.26778820192832    0.44453213124653
C        25.86295913712155   -2.23711042572637    0.33114772174202
C        25.18885418913951   -1.13729604820118   -0.33370530076318
N        23.92772287279014   -1.49284539175004   -0.55190503934724
C        25.70214747074781    0.13843986705902   -0.73627587100249
C        25.01900715794298    1.31366503228072   -0.66558630059481
C        25.43130799676167    2.58046170299136   -1.25410198097161
C        24.50434549411617    3.48873281597676   -0.89926862203634
C        23.50647646587654    2.80654731876688   -0.08852771876128
N        23.82296548679143    1.51663763400810    0.00052087531847
C        22.34411292690043    3.37199988285562    0.51748646957270
C        21.14296056539457    2.73379493696686    0.60004718718952
N        20.92629764076595    1.46222410639552    0.12778519337870
H        19.71002393026469    4.20607264957641    1.58923998645230
H        17.92526706639503    2.39604383649018    1.29457753536758
H        18.00438935085813   -2.71475468456493    0.24782085531678
H        19.92481063187444   -4.59565670381958    0.07998574464127
H        22.62795849180690   -4.51927199352933   -0.54450909180107
H        25.15724140451461   -4.21556285791694    0.93539436900989
H        26.86172884221152   -2.24281867609283    0.71861730564994
H        26.71358100410810    0.14497157181567   -1.13094344365103
H        26.28970787314494    2.77308346320439   -1.87771020323835
H        24.52808198124441    4.51333414435877   -1.22731386791980
H        22.40641400460970    4.36847884422879    0.92848935332797
78
 energy: -134.102713241516 gnorm: 0.076961898822 xtb: 6.4.1 (bd6e46d)
Zn        6.92326622240751    0.02695864419705    0.00251827195718
C         9.23424640795469   -3.16417325207700    1.28137682046069
C        10.17373027085848   -2.18184357432683    1.23950359721556
C         9.62562915052329   -1.15944938606385    0.39501228652147
C        10.19806823709201    0.05577571228606    0.00917107383905
C         9.52710129992813    1.23681924293830   -0.37649526948106
C         9.99780122558101    2.25684550993536   -1.23419849208045
C         9.03032311860930    3.22424899690834   -1.23482403907938
C         7.98610106362884    2.78269446327254   -0.38393741801118
N         8.29318969079795    1.53082049173080    0.10030762188832
C         6.81391170172542    3.44849933576701   -0.00096839202241
C         5.66756801876480    2.76027479175889    0.37497984795414
C         4.59865391148874    3.15183198296534    1.24928815359779
C         3.68474488470654    2.14094881012409    1.21853484141648
C         4.18769925290298    1.13570788779443    0.32407987894159
N         5.41774920696158    1.49843382068485   -0.11154898679013
C         3.57022690391709   -0.04809195916735   -0.13153154036368
C         4.27442050685533   -1.19920678450123   -0.45163186401590
C         3.86115582020202   -2.27509007753647   -1.31344407793596
C         4.82779333280652   -3.22895026387460   -1.24315884292957
C         5.83366216727519   -2.74978105309462   -0.33534838721369
N         5.50737224600185   -1.49310762974357    0.07238756953261
C         6.97591771159860   -3.41291242715830    0.13248332327831
C         8.13565675792551   -2.72971802200281    0.45977445133579
N         8.39387769987158   -1.48476462363632   -0.02364174107624
H         9.27819294847916   -4.04351356604203    1.89156495109558
H        11.08968746964045   -2.17267001618259    1.80176285127267
H        10.90997225212872    2.22046781256363   -1.79825551010650
H         9.00424493432789    4.11320601652427   -1.83100869732469
H         6.77087352286416    4.53285921965240    0.00304124419115
H         4.56797882833794    4.01792965887148    1.88845161375573
H         2.81184055563015    2.08288533488839    1.83361451617076
H         2.49622760536344   -0.07413156363853   -0.25189998303095
H         3.00781080739445   -2.29375722081462   -1.96670683128527
H         4.85823589517564   -4.11635405318886   -1.84182655793970
H         6.97712009184731   -4.48571176331600    0.24449829214493
C        11.54073250987117    0.06387618914654   -0.00132085015599
C        12.75138685653003   -0.00293428474751   -0.00154561114048
C        14.04424625767851   -0.02974393856138   -0.01280940795834
C        15.26414171444839   -0.03676893963711   -0.02214314436352
C        16.55770897589699   -0.03945745931389   -0.02037552983072
C        17.76719364554367   -0.04250055656268    0.02597909266401
Zn       22.40603922595311   -0.01203651246469   -0.17341506424165
C        19.91302839258655    3.25312381699274    1.13074566147835
C        18.97121779740734    2.29592821787651    0.94906209365305
C        19.66658110194522    1.18345604317167    0.34047535011922
C        19.11757040566089   -0.06907679906926    0.04851483603727
C        19.73150470442423   -1.33202429681967   -0.04093656643634
C        19.07547938662794   -2.58874806390272    0.07855557372574
C        20.04908809194027   -3.53384807585429   -0.02031752696241
C        21.28952745492503   -2.85348412241617   -0.20908057719522
N        21.06196305286277   -1.50184721127631   -0.17960852413002
C        22.54104896533986   -3.44801337460963   -0.30146760837666
C        23.75643163338530   -2.77471571194453   -0.15124261886934
C        24.98689761915482   -3.25726702975518    0.40778664740620
C        25.88018455717774   -2.22983036489098    0.30243594175985
C        25.19396506054432   -1.13123953431409   -0.31281340260780
N        23.89442713008828   -1.45903752527104   -0.49559319512342
C        25.70725485046867    0.11940509022813   -0.72594342455274
C        25.00788508766851    1.30967033017690   -0.69136648206673
C        25.43195533845354    2.57187143177270   -1.24311500946470
C        24.50935330830496    3.49839087046295   -0.87258408457318
C        23.50888381208686    2.81009436008431   -0.09556367158785
N        23.80394451881512    1.49241997460270   -0.05161160667646
C        22.36679257019352    3.37935141330575    0.50903792621496
C        21.15959826599006    2.72743867815994    0.61672934228936
N        20.95754440930555    1.46044895294941    0.15768469314831
H        19.73969221731703    4.20940004871910    1.58201317814559
H        17.94447466182436    2.36722584184297    1.26609411547895
H        18.02241510729943   -2.71896632916895    0.24469001809049
H        19.92563424016454   -4.59618170481449    0.07121839212449
H        22.60540476566640   -4.51747867464177   -0.48415725109980
H        25.14263391358251   -4.20197908063330    0.90455611935166
H        26.87459648283063   -2.22975844833612    0.70131189662935
H        26.71906357750771    0.14623351135400   -1.10532994246699
H        26.28913707069902    2.75262810045432   -1.86421366437714
H        24.51225120871140    4.52056750684145   -1.19533472452258
H        22.41514233154401    4.39032316436615    0.88820703458022
78
 energy: -134.131344091304 gnorm: 0.054338373837 xtb: 6.4.1 (bd6e46d)
Zn        6.89750363984208    0.02560778336835    0.01054854642995
C         9.22556718949190   -3.17511832639373    1.27158281023295
C        10.15804872886214   -2.18070355996761    1.23157292238648
C         9.58072117927385   -1.14009268877046    0.43042058881977
C        10.16460493181255    0.07020519170913    0.01318454398357
C         9.48357495847812    1.22701785976067   -0.39668160606221
C         9.99114869652935    2.27371865327706   -1.22979961100211
C         9.03909234602678    3.24451311999769   -1.22779739499390
C         7.96194738706391    2.77720207384457   -0.40339830651273
N         8.23898088666165    1.50790748176005    0.03398951628192
C         6.81363639349753    3.43926399249902    0.00176133303606
C         5.67847409119306    2.72947253827630    0.40434670164051
C         4.59101706607003    3.14889414622522    1.23261045668898
C         3.66399008343764    2.14566255203748    1.20388053694514
C         4.19234719637656    1.11806365025175    0.35659267273442
N         5.45092725553635    1.45959607308129   -0.04605806597742
C         3.57460821327350   -0.04214539619599   -0.12631106134187
C         4.28769531333309   -1.18623961340281   -0.48414766207710
C         3.85075905727180   -2.27977324836081   -1.30325019779473
C         4.81050145852579   -3.24390455114731   -1.22841834734855
C         5.83562869463196   -2.74464266459238   -0.36120342677560
N         5.52976433294401   -1.46211012427459    0.00945933247358
C         6.95459313041422   -3.41678686062397    0.13185421425024
C         8.10443021266784   -2.72565313163704    0.49433646959811
N         8.33255298963387   -1.45733104693550    0.05426504575980
H         9.27610450647663   -4.07235275635346    1.85466536949740
H        11.09437215809463   -2.15946534766267    1.75919274183418
H        10.91474462261215    2.23437146148758   -1.77453946937503
H         9.01778499797829    4.14641618845146   -1.80560121865895
H         6.77668931531360    4.52059002536370   -0.00086037901010
H         4.56052935016542    4.03094326266049    1.84563206704561
H         2.77475606324586    2.08463545604449    1.79704444657521
H         2.49970639033652   -0.06823799441637   -0.23333453198192
H         2.98334650589424   -2.29254722904535   -1.93437425664449
H         4.85026786047930   -4.14801839587973   -1.80255502273080
H         6.95960033786004   -4.49215976353024    0.21917720180865
C        11.52714692898188    0.07638406167388   -0.00510625471750
C        12.73882007860800   -0.00092484426971   -0.00224472023543
C        14.04263920881172   -0.02835680682026   -0.01786497943496
C        15.25675918437742   -0.03678132485697   -0.03422352122013
C        16.56134443877985   -0.04812861137318   -0.02007247937203
C        17.77179004782042   -0.06293290214262    0.04970939633489
Zn       22.41791719531401   -0.01529644263110   -0.17154797795828
C        19.93930282073473    3.25316526259273    1.12886358978097
C        19.00072287884618    2.28966496033573    0.93979880395325
C        19.69920217235445    1.17392766407045    0.35714153787667
C        19.14124810138215   -0.08722118407742    0.07971737591056
C        19.76731433001636   -1.32987389406324   -0.03745598872198
C        19.08799603527551   -2.59297156538707    0.06215415021920
C        20.04786531664132   -3.53939474861666   -0.04476711024677
C        21.30398338165141   -2.85465290992849   -0.21533815759390
N        21.08973236880613   -1.50460256493209   -0.17330987146091
C        22.54143672622134   -3.44667043257415   -0.27909136471370
C        23.75253129207887   -2.74745169724206   -0.13508409998635
C        24.98703250255749   -3.24838737362178    0.37792593438590
C        25.89306976373453   -2.22736671531673    0.27458834451839
C        25.19507867732835   -1.11533097157088   -0.28986685160806
N        23.87622029700002   -1.42938618665079   -0.44431480225185
C        25.70872335617167    0.11531290291810   -0.71713815489715
C        24.99542691192181    1.30744500360543   -0.72138415502815
C        25.43851095380749    2.56967338411706   -1.23757765003422
C        24.52457291878308    3.50360857905652   -0.85184281835951
C        23.51162190867723    2.80971084425162   -0.11277142488009
N        23.78562701490540    1.47773217996434   -0.10339463318569
C        22.38722678829624    3.38707715018345    0.49622397224221
C        21.18582294880063    2.72327709288899    0.63477682085187
N        20.99570295455324    1.44686260130724    0.19516541360702
H        19.77467565101590    4.21631919369944    1.56995144341710
H        17.96597547826424    2.34175062006680    1.22832053825649
H        18.03626245326574   -2.71589557808441    0.23550054213692
H        19.93367722349079   -4.60263888466895    0.04798095325569
H        22.59949349920082   -4.52471687463402   -0.40341710081359
H        25.14099595204904   -4.19992870911304    0.85483892781041
H        26.89338879474727   -2.22394482602175    0.65992728430530
H        26.73406142329765    0.15161478859086   -1.06034680562185
H        26.30367297007208    2.73855856900609   -1.84847243238799
H        24.51430671018423    4.53476675387821   -1.14610803019281
H        22.42715679986826    4.41810162548459    0.82750239632505
78
 energy: -134.150839418377 gnorm: 0.045739934202 xtb: 6.4.1 (bd6e46d)
Zn        6.87242981377051    0.01699071733986    0.02125231401777
C         9.21610274211972   -3.17985477470797    1.26434927816330
C        10.14141788975170   -2.17992675095059    1.22560997162987
C         9.54377650551842   -1.11560990669943    0.47108255963433
C        10.14187122175390    0.07709777912363    0.01640862409226
C         9.45602843930730    1.21411232284667   -0.42463943811517
C         9.98833211210793    2.28759067886177   -1.22347737059951
C         9.04142009313876    3.26084360414227   -1.22148964554671
C         7.93799132101097    2.76846220093450   -0.43168526726787
N         8.19872904107311    1.48559151044639   -0.03658847068281
C         6.80289025252174    3.42787013969407    0.00465151514308
C         5.68398060735816    2.70351796862677    0.43545212788894
C         4.57313789966691    3.14951229413618    1.21959009931973
C         3.64326458489476    2.15184910986567    1.19241638226784
C         4.19252911526010    1.09752626293338    0.38999413649820
N         5.46889545404067    1.42345998378117    0.02252673167625
C         3.57510928522794   -0.04427283657066   -0.12049813904629
C         4.29078388689831   -1.17724304991494   -0.51503193088247
C         3.83120446871508   -2.28820033793868   -1.29727377552142
C         4.78644715434400   -3.25464658581388   -1.21808660096190
C         5.83281850206484   -2.73600066934296   -0.38957766225173
N         5.54240280943470   -1.44120264691978   -0.05049325209862
C         6.93776329782931   -3.41032893473081    0.12894068677168
C         8.07108047093104   -2.71413807402166    0.53276440722836
N         8.28095929091741   -1.42604168454498    0.13140974695638
H         9.28036915960223   -4.10676440406921    1.80410052938755
H        11.10203731075171   -2.15551054024071    1.70994157062918
H        10.92735731089843    2.25814480299037   -1.74303281466415
H         9.03687279861141    4.18553471649397   -1.76652053732863
H         6.77229544967679    4.50744625325879   -0.00103564075459
H         4.53822388504509    4.05657550088152    1.79427446583479
H         2.72570248007069    2.09865253578780    1.74704221610596
H         2.49861221315229   -0.06587124163011   -0.21018021043458
H         2.94163967516101   -2.30178346674832   -1.89663587087334
H         4.82519789443651   -4.18655334500744   -1.75107887010668
H         6.94085815338259   -4.48908173884372    0.18937643416255
C        11.51480583207521    0.08301597130404   -0.00717705372033
C        12.72469308260470    0.00363450907552   -0.00802855132677
C        14.03759823600841   -0.02610894263902   -0.02349465829597
C        15.25155615007232   -0.03690922085054   -0.04606336360168
C        16.56498343750801   -0.05697479484626   -0.01314973392743
C        17.77290335634762   -0.07883073646901    0.07943543923207
Zn       22.43144127430873   -0.01573062514347   -0.16156141838812
C        19.96458839780253    3.25046337479420    1.12544493260800
C        19.02855671456442    2.28544358780442    0.93633615073205
C        19.72398547279498    1.15800302358662    0.38316210431781
C        19.15146018878094   -0.09778048205506    0.11356843557833
C        19.78539233844080   -1.32811595625942   -0.03325056049926
C        19.09828974745738   -2.59489565196073    0.04360312055883
C        20.05326616371332   -3.54469149978880   -0.06785698453159
C        21.31497318789824   -2.85547875538121   -0.21527981516059