      -----------------------------------------------------------      
     |                   =====================                   |     
     |                           x T B                           |     
     |                   =====================                   |     
     |                         S. Grimme                         |     
     |          Mulliken Center for Theoretical Chemistry        |     
     |                    University of Bonn                     |     
      -----------------------------------------------------------      

   * xtb version 6.4.1 (bd6e46d) compiled by 'conda@4901f00b25ba' on 2021-06-10

   xtb is free software: you can redistribute it and/or modify it under
   the terms of the GNU Lesser General Public License as published by
   the Free Software Foundation, either version 3 of the License, or
   (at your option) any later version.
   
   xtb is distributed in the hope that it will be useful,
   but WITHOUT ANY WARRANTY; without even the implied warranty of
   MERCHANTABILITY or FITNESS FOR A PARTICULAR PURPOSE.  See the
   GNU Lesser General Public License for more details.
   
   Cite this work as:
   * C. Bannwarth, E. Caldeweyher, S. Ehlert, A. Hansen, P. Pracht,
     J. Seibert, S. Spicher, S. Grimme, WIREs Comput. Mol. Sci., 2020, 11,
     e01493. DOI: 10.1002/wcms.1493
   
   for GFN2-xTB:
   * C. Bannwarth, S. Ehlert and S. Grimme., J. Chem. Theory Comput., 2019,
     15, 1652-1671. DOI: 10.1021/acs.jctc.8b01176
   for GFN1-xTB:
   * S. Grimme, C. Bannwarth, P. Shushkov, J. Chem. Theory Comput., 2017,
     13, 1989-2009. DOI: 10.1021/acs.jctc.7b00118
   for GFN0-xTB:
   * P. Pracht, E. Caldeweyher, S. Ehlert, S. Grimme, ChemRxiv, 2019, preprint.
     DOI: 10.26434/chemrxiv.8326202.v1
   for GFN-FF:
   * S. Spicher and S. Grimme, Angew. Chem. Int. Ed., 2020, 59, 15665-15673.
     DOI: 10.1002/anie.202004239
   
   for DFT-D4:
   * E. Caldeweyher, C. Bannwarth and S. Grimme, J. Chem. Phys., 2017,
     147, 034112. DOI: 10.1063/1.4993215
   * E. Caldeweyher, S. Ehlert, A. Hansen, H. Neugebauer, S. Spicher,
     C. Bannwarth and S. Grimme, J. Chem. Phys., 2019, 150, 154122.
     DOI: 10.1063/1.5090222
   * E. Caldeweyher, J.-M. Mewes, S. Ehlert and S. Grimme, Phys. Chem. Chem. Phys.
     2020, 22, 8499-8512. DOI: 10.1039/D0CP00502A
   
   for sTDA-xTB:
   * S. Grimme and C. Bannwarth, J. Chem. Phys., 2016, 145, 054103.
     DOI: 10.1063/1.4959605
   
   in the mass-spec context:
   * V. Asgeirsson, C. Bauer and S. Grimme, Chem. Sci., 2017, 8, 4879.
     DOI: 10.1039/c7sc00601b
   * J. Koopman and S. Grimme, ACS Omega 2019, 4, 12, 15120-15133.
     DOI: 10.1021/acsomega.9b02011
   
   for metadynamics refer to:
   * S. Grimme, J. Chem. Theory Comput., 2019, 155, 2847-2862
     DOI: 10.1021/acs.jctc.9b00143
   
   for SPH calculations refer to:
   * S. Spicher and S. Grimme, J. Chem. Theory Comput., 2021, 17, 1701-1714
     DOI: 10.1021/acs.jctc.0c01306
   
   with help from (in alphabetical order)
   P. Atkinson, C. Bannwarth, F. Bohle, G. Brandenburg, E. Caldeweyher
   M. Checinski, S. Dohm, S. Ehlert, S. Ehrlich, I. Gerasimov, J. Koopman
   C. Lavigne, S. Lehtola, F. März, M. Müller, F. Musil, H. Neugebauer
   J. Pisarek, C. Plett, P. Pracht, J. Seibert, P. Shushkov, S. Spicher
   M. Stahn, M. Steiner, T. Strunk, J. Stückrath, T. Rose, and J. Unsleber
   
 * started run on 2021/11/20 at 19:05:02.657     

           -------------------------------------------------
          |                Calculation Setup                |
           -------------------------------------------------

          program call               : /home/jeff/miniconda3/bin/xtb input_structure_1.xyz --gfn 2 --ohess normal --parallel 1 --etemp 300 --chrg 0 --uhf 0 -I det_control.in
          hostname                   : jelfscompute1
          coordinate file            : input_structure_1.xyz
          omp threads                :                     1
          number of atoms            :                   283
          number of electrons        :                   993
          charge                     :                     0
          spin                       :                   0.5
          first test random number   :      0.01582419083277

   ID    Z sym.   atoms
    1   29 Cu     1, 37, 109, 144, 179, 214, 249
    2    6 C      2-9, 11-15, 17-21, 23, 24, 38-45, 47-51, 53-57, 59, 60,
                  73-108, 110-117, 119-123, 125-129, 131, 132, 145-152,
                  154-158, 160-164, 166, 167, 180-187, 189-193, 195-199, 201,
                  202, 215-222, 224-228, 230-234, 236, 237, 250-257, 259-263,
                  265-269, 271, 272
    3    7 N      10, 16, 22, 25, 46, 52, 58, 61, 118, 124, 130, 133, 153,
                  159, 165, 168, 188, 194, 200, 203, 223, 229, 235, 238, 258,
                  264, 270, 273
    4    1 H      26-36, 62-72, 134-143, 169-178, 204-213, 239-248, 274-283

molecular fragmentation (1/2 indicates fragments):
111111111111111111111111111111111111222222222222222222222222222222222222
222222222222222222222222222222222222222222222222222222222222222222222222
222222222222222222222222222222222222222222222222222222222222222222222222
2222222222222222222222222222222222222222222222222222222222222222222
# atoms in fragment 1/2:    36   247
 fragment masses (1/2) :      370.87     2652.60
CMA distance (Bohr)    : 104.720
constraining FC (au)   :  0.0500

           -------------------------------------------------
          |                 G F N 2 - x T B                 |
           -------------------------------------------------

        Reference                      10.1021/acs.jctc.8b01176
      * Hamiltonian:
        H0-scaling (s, p, d)           1.850000    2.230000    2.230000
        zeta-weighting                 0.500000
      * Dispersion:
        s8                             2.700000
        a1                             0.520000
        a2                             5.000000
        s9                             5.000000
      * Repulsion:
        kExp                           1.500000    1.000000
        rExp                           1.000000
      * Coulomb:
        alpha                          2.000000
        third order                    shell-resolved
        anisotropic                    true
        a3                             3.000000
        a5                             4.000000
        cn-shift                       1.200000
        cn-exp                         4.000000
        max-rad                        5.000000


          ...................................................
          :                      SETUP                      :
          :.................................................:
          :  # basis functions                 958          :
          :  # atomic orbitals                 951          :
          :  # shells                          501          :
          :  # electrons                       993          :
          :  max. iterations                   250          :
          :  Hamiltonian                  GFN2-xTB          :
          :  restarted?                      false          :
          :  GBSA solvation                  false          :
          :  PC potential                    false          :
          :  electronic temp.          300.0000000     K    :
          :  accuracy                    1.0000000          :
          :  -> integral cutoff          0.2500000E+02      :
          :  -> integral neglect         0.1000000E-07      :
          :  -> SCF convergence          0.1000000E-05 Eh   :
          :  -> wf. convergence          0.1000000E-03 e    :
          :  Broyden damping             0.4000000          :
          ...................................................

 iter      E             dE          RMSdq      gap      omega  full diag
   1   -530.0455303 -0.530046E+03  0.644E+00    0.08       0.0  T
   2   -510.3978286  0.196477E+02  0.491E+00    0.03       1.0  T
   3   -144.8933204  0.365505E+03  0.142E+01    0.00       1.0  T
   4   -317.8811397 -0.172988E+03  0.119E+01    0.02       1.0  T
   5   -469.9953293 -0.152114E+03  0.649E+00    0.08       1.0  T
   6   -486.6688898 -0.166736E+02  0.564E+00    0.05       1.0  T
   7   -508.9057330 -0.222368E+02  0.386E+00    0.03       1.0  T
   8   -447.0729886  0.618327E+02  0.691E+00    0.04       1.0  T
   9   -514.7164834 -0.676435E+02  0.313E+00    0.09       1.0  T
  10   -528.3914261 -0.136749E+02  0.210E+00    0.01       1.0  T
  11   -529.6076919 -0.121627E+01  0.162E+00    0.14       1.0  T
  12   -529.6550467 -0.473548E-01  0.140E+00    0.07       1.0  T
  13   -529.7646827 -0.109636E+00  0.137E+00    0.09       1.0  T
  14   -529.9781184 -0.213436E+00  0.122E+00    0.05       1.0  T
  15   -530.0449384 -0.668201E-01  0.111E+00    0.15       1.0  T
  16   -529.9956464  0.492920E-01  0.104E+00    0.02       1.0  T
  17   -530.0027962 -0.714978E-02  0.977E-01    0.00       1.0  T
  18   -530.0571870 -0.543908E-01  0.856E-01    0.02       1.0  T
  19   -530.3247481 -0.267561E+00  0.642E-01    0.01       1.0  T
  20   -530.4135314 -0.887833E-01  0.552E-01    0.08       1.0  T
  21   -530.4828995 -0.693681E-01  0.543E-01    0.04       1.0  T
  22   -530.4490750  0.338245E-01  0.471E-01    0.03       1.0  T
  23   -530.5592309 -0.110156E+00  0.466E-01    0.00       1.0  T
  24   -530.4716626  0.875684E-01  0.467E-01    0.04       1.0  T
  25   -530.5899956 -0.118333E+00  0.421E-01    0.02       1.0  T
  26   -530.6747883 -0.847927E-01  0.309E-01    0.04       1.0  T
  27   -530.6768712 -0.208294E-02  0.286E-01    0.02       1.0  T
  28   -530.6767889  0.823342E-04  0.283E-01    0.02       1.0  T
  29   -530.6938132 -0.170243E-01  0.273E-01    0.04       1.0  T
  30   -530.6797346  0.140786E-01  0.262E-01    0.03       1.0  T
  31   -530.7136024 -0.338678E-01  0.213E-01    0.01       1.0  T
  32   -530.6963623  0.172401E-01  0.225E-01    0.02       1.0  T
  33   -530.7204564 -0.240941E-01  0.179E-01    0.02       1.0  T
  34   -530.7213337 -0.877282E-03  0.170E-01    0.02       1.0  T
  35   -530.7413459 -0.200122E-01  0.121E-01    0.02       1.0  T
  36   -530.7436910 -0.234513E-02  0.900E-02    0.02       1.0  T
  37   -530.7438269 -0.135899E-03  0.868E-02    0.02       1.0  T
  38   -530.7452797 -0.145279E-02  0.668E-02    0.02       1.0  T
  39   -530.7437761  0.150361E-02  0.727E-02    0.01       1.0  T
  40   -530.7453553 -0.157920E-02  0.562E-02    0.01       1.0  T
  41   -530.7453261  0.292100E-04  0.511E-02    0.01       1.0  T
  42   -530.7466550 -0.132893E-02  0.364E-02    0.02       1.0  T
  43   -530.7469839 -0.328914E-03  0.299E-02    0.02       1.0  T
  44   -530.7455558  0.142814E-02  0.384E-02    0.02       1.0  T
  45   -530.7469679 -0.141207E-02  0.237E-02    0.02       1.0  T
  46   -530.7471970 -0.229083E-03  0.179E-02    0.02       1.0  T
  47   -530.7468383  0.358651E-03  0.221E-02    0.02       1.0  T
  48   -530.7472997 -0.461373E-03  0.118E-02    0.02       1.0  T
  49   -530.7473999 -0.100172E-03  0.797E-03    0.02       1.0  T
  50   -530.7474201 -0.202370E-04  0.611E-03    0.02       1.0  T
  51   -530.7474247 -0.462416E-05  0.583E-03    0.02       1.0  T
  52   -530.7474275 -0.278935E-05  0.489E-03    0.02       1.2  T
  53   -530.7474295 -0.198823E-05  0.346E-03    0.02       1.7  T
  54   -530.7474319 -0.239421E-05  0.243E-03    0.02       2.4  T
  55   -530.7474346 -0.268923E-05  0.164E-03    0.02       3.6  T
  56   -530.7474332  0.137293E-05  0.181E-03    0.02       3.3  T
  57   -530.7474336 -0.401934E-06  0.161E-03    0.02       3.7  T
  58   -530.7474344 -0.832653E-06  0.132E-03    0.02       4.5  T
  59   -530.7474344  0.811997E-08  0.115E-03    0.02       5.2  T
  60   -530.7474354 -0.961079E-06  0.691E-04    0.02       8.6  T
  61   -530.7474359 -0.496883E-06  0.343E-04    0.02      17.3  T

   *** convergence criteria satisfied after 61 iterations ***

         #    Occupation            Energy/Eh            Energy/eV
      -------------------------------------------------------------
         1        2.0000           -0.6868414             -18.6899
       ...           ...                  ...                  ...
       491        2.0000           -0.3556763              -9.6784
       492        2.0000           -0.3544091              -9.6440
       493        2.0000           -0.3539478              -9.6314
       494        1.6519           -0.3393445              -9.2340
       495        1.4669           -0.3388097              -9.2195
       496        1.3566           -0.3385463              -9.2123
       497        1.3019           -0.3384247              -9.2090 (HOMO)
       498        0.9629           -0.3377295              -9.1901 (LUMO)
       499        0.2400           -0.3358397              -9.1387
       500        0.0083           -0.3325031              -9.0479
       501        0.0077           -0.3324312              -9.0459
       502        0.0037           -0.3317449              -9.0272
       ...           ...                  ...                  ...
       951                          2.2594282              61.4822
      -------------------------------------------------------------
                  HL-Gap            0.0006952 Eh            0.0189 eV
             Fermi-level           -0.3378036 Eh           -9.1921 eV

 SCC (total)                   0 d,  0 h,  0 min, 18.112 sec
 SCC setup                      ...        0 min,  0.016 sec (  0.089%)
 Dispersion                     ...        0 min,  0.031 sec (  0.171%)
 classical contributions        ...        0 min,  0.002 sec (  0.014%)
 integral evaluation            ...        0 min,  0.229 sec (  1.263%)
 iterations                     ...        0 min, 17.292 sec ( 95.472%)
 molecular gradient             ...        0 min,  0.503 sec (  2.780%)
 printout                       ...        0 min,  0.038 sec (  0.211%)

         :::::::::::::::::::::::::::::::::::::::::::::::::::::
         ::                     SUMMARY                     ::
         :::::::::::::::::::::::::::::::::::::::::::::::::::::
         :: total energy            -519.581342274964 Eh    ::
         :: gradient norm              2.219652173667 Eh/a0 ::
         :: HOMO-LUMO gap              0.018917063352 eV    ::
         ::.................................................::
         :: SCC energy              -530.747435884206 Eh    ::
         :: -> isotropic ES            0.273865392436 Eh    ::
         :: -> anisotropic ES          0.061688487463 Eh    ::
         :: -> anisotropic XC          0.295811935067 Eh    ::
         :: -> dispersion             -0.443605083171 Eh    ::
         :: repulsion energy          11.167432906717 Eh    ::
         :: add. restraining           0.000000000000 Eh    ::
         :: total charge              -0.000000000001 e     ::
         :::::::::::::::::::::::::::::::::::::::::::::::::::::

      ----------------------------------------------------------- 
     |                   =====================                   |
     |                        A N C O P T                        |
     |                   =====================                   |
     |               Approximate Normal Coordinate               |
     |                Rational Function Optimizer                |
      ----------------------------------------------------------- 

          ...................................................
          :                      SETUP                      :
          :.................................................:
          :   optimization level            normal          :
          :   max. optcycles                   849          :
          :   ANC micro-cycles                  20          :
          :   degrees of freedom               843          :
          :.................................................:
          :   RF solver                   davidson          :
          :   write xtbopt.log                true          :
          :   linear?                        false          :
          :   energy convergence         0.5000000E-05 Eh   :
          :   grad. convergence          0.1000000E-02 Eh/α :
          :   maximium RF displ.         1.0000000          :
          :   Hlow (freq-cutoff)         0.1000000E-01      :
          :   Hmax (freq-cutoff)         5.0000000          :
          :   S6 in model hess.         20.0000000          :
          ...................................................

generating ANC from model Hessian ...
Using Lindh-Hessian (1995)
 Shifting diagonal of input Hessian by    1.0134368291478421E-002
 Lowest  eigenvalues of input Hessian
    0.010000    0.010034    0.010099    0.010100    0.010100    0.010100
    0.010101    0.010105    0.010109    0.010113    0.010115    0.010119
    0.010120    0.010121    0.010126    0.010126    0.010127    0.010130
 Highest eigenvalues
    3.327668    3.495154    3.495768    3.495768    3.495768    3.495772


........................................................................
.............................. CYCLE    1 ..............................
........................................................................
   1   -530.7474359 -0.530747E+03  0.255E-04    0.02       0.0  T
   2   -530.7474115  0.244503E-04  0.396E-03    0.02       1.5  T
   3   -530.7474295 -0.180267E-04  0.199E-03    0.02       3.0  T
   4   -530.7474341 -0.463823E-05  0.107E-03    0.02       5.6  T
   5   -530.7474341 -0.251116E-07  0.110E-03    0.02       5.4  T
   6   -530.7474345 -0.385747E-06  0.928E-04    0.02       6.4  T
   7   -530.7474357 -0.118192E-05  0.412E-04    0.02      14.4  T
   8   -530.7474358 -0.439235E-07  0.400E-04    0.02      14.8  T
     SCC iter.                  ...        0 min,  2.270 sec
     gradient                   ...        0 min,  0.503 sec
 * total energy  :  -519.5813422 Eh     change        0.1226948E-06 Eh
   gradient norm :     2.2196542 Eh/α   predicted     0.0000000E+00 (-100.00%)
   displ. norm   :     0.6589940 α      lambda       -0.1384249E+01
   maximum displ.:     0.2457206 α      in ANC's #669, #826, #840, ...

........................................................................
.............................. CYCLE    2 ..............................
........................................................................
   1   -530.7969407 -0.530797E+03  0.364E-01    0.03       0.0  T
   2   -529.4509172  0.134602E+01  0.104E+00    0.17       1.0  T
   3   -529.4535590 -0.264183E-02  0.949E-01    0.07       1.0  T
   4   -530.3881124 -0.934553E+00  0.731E-01    0.05       1.0  T
   5   -530.7304599 -0.342347E+00  0.324E-01    0.01       1.0  T
   6   -529.6624767  0.106798E+01  0.904E-01    0.10       1.0  T
   7   -530.3729407 -0.710464E+00  0.562E-01    0.08       1.0  T
   8   -530.6448298 -0.271889E+00  0.373E-01    0.03       1.0  T
   9   -530.1062447  0.538585E+00  0.642E-01    0.05       1.0  T
  10   -530.7953314 -0.689087E+00  0.214E-01    0.01       1.0  T
  11   -530.7178284  0.775030E-01  0.296E-01    0.08       1.0  T
  12   -530.8025516 -0.847232E-01  0.170E-01    0.04       1.0  T
  13   -530.8074981 -0.494645E-02  0.147E-01    0.04       1.0  T
  14   -530.8150226 -0.752447E-02  0.128E-01    0.01       1.0  T
  15   -530.7900815  0.249411E-01  0.168E-01    0.01       1.0  T
  16   -530.8283306 -0.382491E-01  0.831E-02    0.03       1.0  T
  17   -530.8287731 -0.442495E-03  0.732E-02    0.03       1.0  T
  18   -530.8249313  0.384175E-02  0.836E-02    0.03       1.0  T
  19   -530.8295596 -0.462830E-02  0.557E-02    0.03       1.0  T
  20   -530.8325628 -0.300316E-02  0.335E-02    0.03       1.0  T
  21   -530.8330943 -0.531510E-03  0.219E-02    0.02       1.0  T
  22   -530.8336234 -0.529145E-03  0.112E-02    0.02       1.0  T
  23   -530.8333358  0.287650E-03  0.181E-02    0.02       1.0  T
  24   -530.8335585 -0.222738E-03  0.124E-02    0.02       1.0  T
  25   -530.8336499 -0.913267E-04  0.833E-03    0.02       1.0  T
  26   -530.8336420  0.786772E-05  0.781E-03    0.02       1.0  T
  27   -530.8336503 -0.831355E-05  0.697E-03    0.02       1.0  T
  28   -530.8336853 -0.349678E-04  0.391E-03    0.02       1.5  T
  29   -530.8336962 -0.108973E-04  0.318E-03    0.02       1.9  T
  30   -530.8337054 -0.922705E-05  0.134E-03    0.02       4.4  T
  31   -530.8337035  0.192302E-05  0.164E-03    0.02       3.6  T
  32   -530.8337055 -0.205843E-05  0.862E-04    0.02       6.9  T
  33   -530.8337060 -0.430775E-06  0.662E-04    0.02       9.0  T
  34   -530.8337062 -0.288224E-06  0.344E-04    0.02      17.3  T
     SCC iter.                  ...        0 min,  9.618 sec
     gradient                   ...        0 min,  0.501 sec
 * total energy  :  -520.5490459 Eh     change       -0.9677038E+00 Eh
   gradient norm :     0.9773848 Eh/α   predicted    -0.9926971E+00 (   2.58%)
   displ. norm   :     0.6255341 α      lambda       -0.5472213E+00
   maximum displ.:     0.2071826 α      in ANC's #669, #294, #804, ...

........................................................................
.............................. CYCLE    3 ..............................
........................................................................
   1   -530.8027200 -0.530803E+03  0.376E-01    0.03       0.0  T
   2   -528.9796531  0.182307E+01  0.132E+00    0.11       1.0  T
   3   -529.5119988 -0.532346E+00  0.902E-01    0.12       1.0  T
   4   -530.0809782 -0.568979E+00  0.910E-01    0.09       1.0  T
   5   -530.5328968 -0.451919E+00  0.510E-01    0.08       1.0  T
   6   -530.0989520  0.433945E+00  0.684E-01    0.04       1.0  T
   7   -530.5243424 -0.425390E+00  0.508E-01    0.03       1.0  T
   8   -530.4746188  0.497236E-01  0.482E-01    0.03       1.0  T
   9   -530.7004651 -0.225846E+00  0.376E-01    0.01       1.0  T
  10   -530.6113843  0.890807E-01  0.393E-01    0.00       1.0  T
  11   -530.6997491 -0.883647E-01  0.320E-01    0.08       1.0  T
  12   -530.8135342 -0.113785E+00  0.171E-01    0.04       1.0  T
  13   -530.8214241 -0.788992E-02  0.130E-01    0.01       1.0  T
  14   -530.8207626  0.661518E-03  0.135E-01    0.03       1.0  T
  15   -530.8177306  0.303203E-02  0.147E-01    0.03       1.0  T
  16   -530.7966695  0.210611E-01  0.165E-01    0.03       1.0  T
  17   -530.8282725 -0.316031E-01  0.110E-01    0.03       1.0  T
  18   -530.7933309  0.349416E-01  0.167E-01    0.01       1.0  T
  19   -530.8387084 -0.453775E-01  0.531E-02    0.03       1.0  T
  20   -530.8322726  0.643580E-02  0.703E-02    0.02       1.0  T
  21   -530.8407396 -0.846700E-02  0.237E-02    0.03       1.0  T
  22   -530.8406270  0.112580E-03  0.203E-02    0.03       1.0  T
  23   -530.8410840 -0.456919E-03  0.130E-02    0.03       1.0  T
  24   -530.8408298  0.254150E-03  0.168E-02    0.03       1.0  T
  25   -530.8407889  0.409408E-04  0.177E-02    0.03       1.0  T
  26   -530.8410309 -0.242026E-03  0.126E-02    0.03       1.0  T
  27   -530.8410716 -0.407185E-04  0.109E-02    0.03       1.0  T
  28   -530.8411069 -0.352454E-04  0.902E-03    0.03       1.0  T
  29   -530.8411787 -0.718571E-04  0.583E-03    0.03       1.0  T
  30   -530.8411883 -0.962165E-05  0.397E-03    0.03       1.5  T
  31   -530.8411820  0.635284E-05  0.471E-03    0.03       1.3  T
  32   -530.8411938 -0.118255E-04  0.306E-03    0.03       1.9  T
  33   -530.8412047 -0.108353E-04  0.126E-03    0.03       4.7  T
  34   -530.8412056 -0.906035E-06  0.978E-04    0.03       6.1  T
  35   -530.8412062 -0.591367E-06  0.786E-04    0.03       7.6  T
     SCC iter.                  ...        0 min, 10.021 sec
     gradient                   ...        0 min,  0.502 sec
 * total energy  :  -520.9691448 Eh     change       -0.4200989E+00 Eh
   gradient norm :     0.5024297 Eh/α   predicted    -0.3806726E+00 (  -9.38%)
   displ. norm   :     0.6798411 α      lambda       -0.2875031E+00
   maximum displ.:     0.2269232 α      in ANC's #294, #290, #323, ...

........................................................................
.............................. CYCLE    4 ..............................
........................................................................
   1   -530.7869295 -0.530787E+03  0.521E-01    0.02       0.0  T
   2   -515.4742308  0.153127E+02  0.308E+00    0.01       1.0  T
   3   -530.5239881 -0.150498E+02  0.944E-01    0.10       1.0  T
   4   -530.6371960 -0.113208E+00  0.486E-01    0.04       1.0  T
   5   -529.6712273  0.965969E+00  0.923E-01    0.15       1.0  T
   6   -530.1512529 -0.480026E+00  0.650E-01    0.04       1.0  T
   7   -530.2849504 -0.133698E+00  0.673E-01    0.05       1.0  T
   8   -530.5628382 -0.277888E+00  0.494E-01    0.05       1.0  T
   9   -530.6357832 -0.729450E-01  0.484E-01    0.01       1.0  T
  10   -530.7919467 -0.156164E+00  0.367E-01    0.02       1.0  T
  11   -530.8569347 -0.649880E-01  0.248E-01    0.02       1.0  T
  12   -530.7506379  0.106297E+00  0.316E-01    0.01       1.0  T
  13   -530.9056521 -0.155014E+00  0.174E-01    0.03       1.0  T
  14   -530.8936167  0.120354E-01  0.187E-01    0.05       1.0  T
  15   -530.9142690 -0.206523E-01  0.153E-01    0.04       1.0  T
  16   -530.8812739  0.329952E-01  0.195E-01    0.01       1.0  T
  17   -530.9142976 -0.330238E-01  0.134E-01    0.05       1.0  T
  18   -530.9072816  0.701599E-02  0.118E-01    0.03       1.0  T
  19   -530.9309911 -0.237094E-01  0.584E-02    0.03       1.0  T
  20   -530.9316173 -0.626183E-03  0.511E-02    0.03       1.0  T
  21   -530.9276151  0.400214E-02  0.796E-02    0.01       1.0  T
  22   -530.9266161  0.999061E-03  0.695E-02    0.03       1.0  T
  23   -530.9303855 -0.376944E-02  0.540E-02    0.03       1.0  T
  24   -530.9310496 -0.664052E-03  0.471E-02    0.02       1.0  T
  25   -530.9318374 -0.787838E-03  0.386E-02    0.02       1.0  T
  26   -530.9331911 -0.135375E-02  0.257E-02    0.02       1.0  T
  27   -530.9338015 -0.610308E-03  0.148E-02    0.03       1.0  T
  28   -530.9340064 -0.204927E-03  0.966E-03    0.03       1.0  T
  29   -530.9339592  0.471602E-04  0.102E-02    0.03       1.0  T
  30   -530.9339044  0.548122E-04  0.115E-02    0.03       1.0  T
  31   -530.9339620 -0.575827E-04  0.869E-03    0.03       1.0  T
  32   -530.9340285 -0.665495E-04  0.509E-03    0.03       1.2  T
  33   -530.9340207  0.785313E-05  0.519E-03    0.03       1.1  T
  34   -530.9340629 -0.421916E-04  0.198E-03    0.03       3.0  T
  35   -530.9340491  0.137706E-04  0.317E-03    0.03       1.9  T
  36   -530.9340654 -0.163356E-04  0.104E-03    0.03       5.7  T
  37   -530.9340638  0.161561E-05  0.121E-03    0.03       4.9  T
  38   -530.9340642 -0.402277E-06  0.105E-03    0.03       5.6  T
  39   -530.9340659 -0.171285E-05  0.516E-04    0.03      11.5  T
  40   -530.9340660 -0.106655E-06  0.329E-04    0.03      18.1  T
  41   -530.9340662 -0.181759E-06  0.135E-04    0.03      43.9  T
     SCC iter.                  ...        0 min, 11.692 sec
     gradient                   ...        0 min,  0.502 sec
 * total energy  :  -521.1878734 Eh     change       -0.2187286E+00 Eh
   gradient norm :     0.2325684 Eh/α   predicted    -0.2101915E+00 (  -3.90%)
   displ. norm   :     0.7676524 α      lambda       -0.1571858E+00
   maximum displ.:     0.2946322 α      in ANC's #294, #290, #323, ...

........................................................................
.............................. CYCLE    5 ..............................
........................................................................
   1   -530.7626089 -0.530763E+03  0.651E-01    0.01       0.0  T
   2   -510.9945311  0.197681E+02  0.341E+00    0.03       1.0  T
   3   -529.9865382 -0.189920E+02  0.124E+00    0.11       1.0  T
   4   -530.2571951 -0.270657E+00  0.860E-01    0.05       1.0  T
   5   -530.2389934  0.182016E-01  0.711E-01    0.04       1.0  T
   6   -530.6683003 -0.429307E+00  0.527E-01    0.02       1.0  T
   7   -530.0216881  0.646612E+00  0.816E-01    0.05       1.0  T
   8   -530.1346009 -0.112913E+00  0.744E-01    0.08       1.0  T
   9   -530.7181042 -0.583503E+00  0.514E-01    0.02       1.0  T
  10   -530.8471519 -0.129048E+00  0.372E-01    0.05       1.0  T
  11   -530.4613269  0.385825E+00  0.535E-01    0.00       1.0  T
  12   -530.8964094 -0.435083E+00  0.349E-01    0.02       1.0  T
  13   -530.9669260 -0.705166E-01  0.225E-01    0.01       1.0  T
  14   -531.0170479 -0.501219E-01  0.162E-01    0.03       1.0  T
  15   -530.9862425  0.308055E-01  0.217E-01    0.02       1.0  T
  16   -531.0171083 -0.308659E-01  0.146E-01    0.02       1.0  T
  17   -531.0129294  0.417898E-02  0.152E-01    0.03       1.0  T
  18   -531.0307984 -0.178690E-01  0.981E-02    0.03       1.0  T
  19   -531.0229007  0.789765E-02  0.122E-01    0.01       1.0  T
  20   -531.0402999 -0.173991E-01  0.854E-02    0.02       1.0  T
  21   -531.0393767  0.923144E-03  0.699E-02    0.02       1.0  T
  22   -531.0436355 -0.425882E-02  0.478E-02    0.02       1.0  T
  23   -531.0432794  0.356094E-03  0.441E-02    0.03       1.0  T
  24   -531.0445361 -0.125665E-02  0.275E-02    0.02       1.0  T
  25   -531.0447001 -0.163977E-03  0.236E-02    0.02       1.0  T
  26   -531.0451607 -0.460668E-03  0.180E-02    0.03       1.0  T
  27   -531.0450149  0.145799E-03  0.213E-02    0.03       1.0  T
  28   -531.0454400 -0.425096E-03  0.110E-02    0.03       1.0  T
  29   -531.0454788 -0.387492E-04  0.871E-03    0.03       1.0  T
  30   -531.0454429  0.358435E-04  0.817E-03    0.03       1.0  T
  31   -531.0453796  0.632988E-04  0.930E-03    0.03       1.0  T
  32   -531.0455138 -0.134141E-03  0.398E-03    0.02       1.5  T
  33   -531.0455119  0.189384E-05  0.422E-03    0.02       1.4  T
  34   -531.0455226 -0.107391E-04  0.274E-03    0.03       2.2  T
  35   -531.0455331 -0.105214E-04  0.140E-03    0.03       4.2  T
  36   -531.0455355 -0.238742E-05  0.713E-04    0.02       8.3  T
  37   -531.0455353  0.246511E-06  0.736E-04    0.03       8.1  T
  38   -531.0455354 -0.751346E-07  0.679E-04    0.02       8.8  T
     SCC iter.                  ...        0 min, 10.862 sec
     gradient                   ...        0 min,  0.585 sec
 * total energy  :  -521.3184476 Eh     change       -0.1305742E+00 Eh
   gradient norm :     0.1446120 Eh/α   predicted    -0.1249080E+00 (  -4.34%)
   displ. norm   :     0.8195319 α      lambda       -0.1118731E+00
   maximum displ.:     0.3060908 α      in ANC's #294, #290, #162, ...

........................................................................
.............................. CYCLE    6 ..............................
........................................................................
   1   -530.8541396 -0.530854E+03  0.670E-01    0.00       0.0  T
   2   -511.2416637  0.196125E+02  0.342E+00    0.03       1.0  T
   3   -530.1523779 -0.189107E+02  0.126E+00    0.02       1.0  T
   4   -530.4741460 -0.321768E+00  0.806E-01    0.02       1.0  T
   5   -530.3989749  0.751711E-01  0.711E-01    0.06       1.0  T
   6   -530.5119214 -0.112946E+00  0.596E-01    0.02       1.0  T
   7   -530.0647590  0.447162E+00  0.818E-01    0.07       1.0  T
   8   -530.6178486 -0.553090E+00  0.607E-01    0.03       1.0  T
   9   -530.4812476  0.136601E+00  0.605E-01    0.03       1.0  T
  10   -531.0182016 -0.536954E+00  0.316E-01    0.01       1.0  T
  11   -530.9555533  0.626483E-01  0.336E-01    0.03       1.0  T
  12   -530.9073534  0.481999E-01  0.382E-01    0.01       1.0  T
  13   -531.1051637 -0.197810E+00  0.181E-01    0.03       1.0  T
  14   -531.1186703 -0.135066E-01  0.150E-01    0.02       1.0  T
  15   -531.1177902  0.880112E-03  0.131E-01    0.03       1.0  T
  16   -530.9876223  0.130168E+00  0.315E-01    0.03       1.0  T
  17   -530.9954306 -0.780833E-02  0.286E-01    0.01       1.0  T
  18   -531.0906987 -0.952681E-01  0.186E-01    0.02       1.0  T
  19   -531.1206114 -0.299127E-01  0.116E-01    0.01       1.0  T
  20   -531.1321806 -0.115692E-01  0.735E-02    0.02       1.0  T
  21   -531.1332782 -0.109764E-02  0.662E-02    0.02       1.0  T
  22   -531.1353052 -0.202703E-02  0.456E-02    0.02       1.0  T
  23   -531.1329528  0.235241E-02  0.612E-02    0.02       1.0  T
  24   -531.1359465 -0.299371E-02  0.294E-02    0.02       1.0  T
  25   -531.1316448  0.430172E-02  0.567E-02    0.02       1.0  T
  26   -531.1348897 -0.324483E-02  0.353E-02    0.02       1.0  T
  27   -531.1357961 -0.906437E-03  0.249E-02    0.02       1.0  T
  28   -531.1364323 -0.636259E-03  0.121E-02    0.02       1.0  T
  29   -531.1365648 -0.132427E-03  0.793E-03    0.02       1.0  T
  30   -531.1366070 -0.422398E-04  0.596E-03    0.02       1.0  T
  31   -531.1363518  0.255260E-03  0.134E-02    0.02       1.0  T
  32   -531.1363970 -0.452214E-04  0.124E-02    0.02       1.0  T
  33   -531.1365485 -0.151533E-03  0.856E-03    0.02       1.0  T
  34   -531.1366227 -0.742121E-04  0.511E-03    0.02       1.2  T
  35   -531.1366431 -0.203537E-04  0.274E-03    0.02       2.2  T
  36   -531.1366281  0.149319E-04  0.337E-03    0.02       1.8  T
  37   -531.1366343 -0.612729E-05  0.280E-03    0.02       2.1  T
  38   -531.1366418 -0.754925E-05  0.200E-03    0.02       3.0  T
  39   -531.1366468 -0.493641E-05  0.109E-03    0.02       5.4  T
  40   -531.1366485 -0.170736E-05  0.673E-04    0.02       8.8  T
  41   -531.1366490 -0.538207E-06  0.402E-04    0.02      14.8  T
  42   -531.1366491 -0.123483E-06  0.197E-04    0.02      30.1  T
     SCC iter.                  ...        0 min, 11.907 sec
     gradient                   ...        0 min,  0.502 sec
 * total energy  :  -521.4147741 Eh     change       -0.9632653E-01 Eh
   gradient norm :     0.1100608 Eh/α   predicted    -0.9350534E-01 (  -2.93%)
   displ. norm   :     0.8345127 α      lambda       -0.8423258E-01
   maximum displ.:     0.2806575 α      in ANC's #294, #162, #290, ...

........................................................................
.............................. CYCLE    7 ..............................
........................................................................
   1   -530.9696397 -0.530970E+03  0.643E-01    0.01       0.0  T
   2   -511.8134325  0.191562E+02  0.339E+00    0.02       1.0  T
   3   -530.2266085 -0.184132E+02  0.127E+00    0.13       1.0  T
   4   -530.2531388 -0.265303E-01  0.791E-01    0.06       1.0  T
   5   -530.2125568  0.405820E-01  0.771E-01    0.08       1.0  T
   6   -530.4545340 -0.241977E+00  0.777E-01    0.07       1.0  T
   7   -530.9900515 -0.535517E+00  0.439E-01    0.04       1.0  T
   8   -530.5061377  0.483914E+00  0.728E-01    0.02       1.0  T
   9   -530.5574423 -0.513046E-01  0.627E-01    0.06       1.0  T
  10   -530.8320463 -0.274604E+00  0.528E-01    0.01       1.0  T
  11   -530.8002354  0.318109E-01  0.479E-01    0.02       1.0  T
  12   -530.9034547 -0.103219E+00  0.438E-01    0.07       1.0  T
  13   -531.1202415 -0.216787E+00  0.302E-01    0.00       1.0  T
  14   -531.1309120 -0.106705E-01  0.262E-01    0.01       1.0  T
  15   -531.1659798 -0.350678E-01  0.227E-01    0.02       1.0  T
  16   -531.1732342 -0.725448E-02  0.205E-01    0.02       1.0  T
  17   -531.1824335 -0.919931E-02  0.181E-01    0.02       1.0  T
  18   -531.1914695 -0.903592E-02  0.128E-01    0.02       1.0  T
  19   -531.1973260 -0.585657E-02  0.888E-02    0.02       1.0  T
  20   -531.2016919 -0.436588E-02  0.719E-02    0.02       1.0  T
  21   -531.1836113  0.180806E-01  0.121E-01    0.01       1.0  T
  22   -531.2015480 -0.179367E-01  0.689E-02    0.02       1.0  T
  23   -531.1887272  0.128208E-01  0.104E-01    0.01       1.0  T
  24   -531.2046072 -0.158800E-01  0.395E-02    0.02       1.0  T
  25   -531.2062177 -0.161046E-02  0.277E-02    0.02       1.0  T
  26   -531.2060149  0.202794E-03  0.268E-02    0.02       1.0  T
  27   -531.2068885 -0.873571E-03  0.166E-02    0.02       1.0  T
  28   -531.2061412  0.747302E-03  0.248E-02    0.02       1.0  T
  29   -531.2072050 -0.106382E-02  0.812E-03    0.02       1.0  T
  30   -531.2072060 -0.104650E-05  0.811E-03    0.02       1.0  T
  31   -531.2072899 -0.839147E-04  0.406E-03    0.02       1.5  T
  32   -531.2072923 -0.235634E-05  0.351E-03    0.02       1.7  T
  33   -531.2073043 -0.120539E-04  0.259E-03    0.02       2.3  T
  34   -531.2073119 -0.757250E-05  0.143E-03    0.02       4.2  T
  35   -531.2073102  0.169644E-05  0.155E-03    0.02       3.8  T
  36   -531.2073131 -0.287877E-05  0.102E-03    0.02       5.8  T
  37   -531.2073077  0.535534E-05  0.181E-03    0.02       3.3  T
  38   -531.2073123 -0.458233E-05  0.108E-03    0.02       5.5  T
  39   -531.2073139 -0.159086E-05  0.599E-04    0.02       9.9  T
  40   -531.2073146 -0.654993E-06  0.124E-04    0.02      48.0  T
  41   -531.2073146  0.143331E-07  0.151E-04    0.02      39.3  T
     SCC iter.                  ...        0 min, 11.597 sec
     gradient                   ...        0 min,  0.503 sec
 * total energy  :  -521.4878059 Eh     change       -0.7303185E-01 Eh
   gradient norm :     0.0854276 Eh/α   predicted    -0.7144659E-01 (  -2.17%)
   displ. norm   :     0.8357819 α      lambda       -0.6318365E-01
   maximum displ.:     0.2809895 α      in ANC's #162, #294, #225, ...

........................................................................
.............................. CYCLE    8 ..............................
........................................................................
   1   -531.0595462 -0.531060E+03  0.597E-01    0.01       0.0  T
   2   -512.4778831  0.185817E+02  0.337E+00    0.04       1.0  T
   3   -530.2740962 -0.177962E+02  0.104E+00    0.01       1.0  T
   4   -530.1500597  0.124036E+00  0.952E-01    0.06       1.0  T
   5   -530.7641985 -0.614139E+00  0.599E-01    0.04       1.0  T
   6   -530.0159522  0.748246E+00  0.842E-01    0.06       1.0  T
   7   -530.4698338 -0.453882E+00  0.719E-01    0.07       1.0  T
   8   -530.7142623 -0.244428E+00  0.640E-01    0.06       1.0  T
   9   -530.8695370 -0.155275E+00  0.497E-01    0.02       1.0  T
  10   -530.5007157  0.368821E+00  0.626E-01    0.04       1.0  T
  11   -530.9488623 -0.448147E+00  0.502E-01    0.00       1.0  T
  12   -531.0830616 -0.134199E+00  0.372E-01    0.00       1.0  T
  13   -531.0753423  0.771934E-02  0.361E-01    0.03       1.0  T
  14   -531.0056810  0.696613E-01  0.369E-01    0.01       1.0  T
  15   -531.1794723 -0.173791E+00  0.261E-01    0.02       1.0  T
  16   -531.2288756 -0.494032E-01  0.176E-01    0.01       1.0  T
  17   -531.2234426  0.543300E-02  0.163E-01    0.01       1.0  T
  18   -531.2443961 -0.209535E-01  0.108E-01    0.01       1.0  T
  19   -531.2284820  0.159141E-01  0.142E-01    0.01       1.0  T
  20   -531.2505113 -0.220292E-01  0.926E-02    0.01       1.0  T
  21   -531.2535220 -0.301074E-02  0.829E-02    0.02       1.0  T
  22   -531.2560067 -0.248472E-02  0.753E-02    0.02       1.0  T
  23   -531.2545786  0.142810E-02  0.809E-02    0.01       1.0  T
  24   -531.2568854 -0.230681E-02  0.641E-02    0.01       1.0  T
  25   -531.2489651  0.792029E-02  0.822E-02    0.01       1.0  T
  26   -531.2551725 -0.620739E-02  0.549E-02    0.01       1.0  T
  27   -531.2585762 -0.340365E-02  0.363E-02    0.01       1.0  T
  28   -531.2593986 -0.822395E-03  0.303E-02    0.01       1.0  T
  29   -531.2604592 -0.106061E-02  0.138E-02    0.01       1.0  T
  30   -531.2606745 -0.215320E-03  0.782E-03    0.01       1.0  T
  31   -531.2606963 -0.217445E-04  0.639E-03    0.01       1.0  T
  32   -531.2607404 -0.440994E-04  0.334E-03    0.01       1.8  T
  33   -531.2607351  0.529569E-05  0.338E-03    0.01       1.8  T
  34   -531.2607494 -0.143662E-04  0.179E-03    0.01       3.3  T
  35   -531.2607502 -0.819072E-06  0.145E-03    0.01       4.1  T
  36   -531.2607528 -0.257296E-05  0.639E-04    0.01       9.3  T
  37   -531.2607530 -0.137140E-06  0.489E-04    0.01      12.2  T
  38   -531.2607531 -0.191066E-06  0.351E-04    0.01      16.9  T
     SCC iter.                  ...        0 min, 10.785 sec
     gradient                   ...        0 min,  0.504 sec
 * total energy  :  -521.5424840 Eh     change       -0.5467808E-01 Eh
   gradient norm :     0.0635187 Eh/α   predicted    -0.5365973E-01 (  -1.86%)
   displ. norm   :     0.8316266 α      lambda       -0.4652959E-01
   maximum displ.:     0.2878464 α      in ANC's #162, #155, #156, ...

........................................................................
.............................. CYCLE    9 ..............................
........................................................................
   1   -531.1322987 -0.531132E+03  0.536E-01    0.01       0.0  T
   2   -513.1823356  0.179500E+02  0.332E+00    0.07       1.0  T
   3   -530.2389315 -0.170566E+02  0.935E-01    0.03       1.0  T
   4   -530.1402562  0.986753E-01  0.105E+00    0.03       1.0  T
   5   -530.8431314 -0.702875E+00  0.588E-01    0.06       1.0  T
   6   -530.5398272  0.303304E+00  0.748E-01    0.11       1.0  T
   7   -530.6385147 -0.986875E-01  0.684E-01    0.04       1.0  T
   8   -530.8332621 -0.194747E+00  0.569E-01    0.05       1.0  T
   9   -530.9788396 -0.145577E+00  0.488E-01    0.03       1.0  T
  10   -530.7680013  0.210838E+00  0.573E-01    0.01       1.0  T
  11   -530.6676906  0.100311E+00  0.577E-01    0.05       1.0  T
  12   -530.9924832 -0.324793E+00  0.440E-01    0.00       1.0  T
  13   -530.9970683 -0.458504E-02  0.445E-01    0.01       1.0  T
  14   -531.0505016 -0.534333E-01  0.394E-01    0.02       1.0  T
  15   -531.2093838 -0.158882E+00  0.281E-01    0.02       1.0  T
  16   -531.2275831 -0.181993E-01  0.236E-01    0.01       1.0  T
  17   -531.2764588 -0.488757E-01  0.146E-01    0.00       1.0  T
  18   -531.2689249  0.753391E-02  0.169E-01    0.01       1.0  T
  19   -531.2736098 -0.468491E-02  0.146E-01    0.01       1.0  T
  20   -531.2833769 -0.976714E-02  0.105E-01    0.01       1.0  T
  21   -531.2903932 -0.701623E-02  0.805E-02    0.01       1.0  T
  22   -531.2916894 -0.129629E-02  0.743E-02    0.01       1.0  T
  23   -531.2938501 -0.216060E-02  0.568E-02    0.01       1.0  T
  24   -531.2920879  0.176220E-02  0.604E-02    0.01       1.0  T
  25   -531.2970889 -0.500106E-02  0.283E-02    0.01       1.0  T
  26   -531.2964883  0.600647E-03  0.349E-02    0.01       1.0  T
  27   -531.2968328 -0.344573E-03  0.306E-02    0.01       1.0  T
  28   -531.2973870 -0.554145E-03  0.231E-02    0.01       1.0  T
  29   -531.2977371 -0.350085E-03  0.180E-02    0.01       1.0  T
  30   -531.2979753 -0.238211E-03  0.125E-02    0.01       1.0  T
  31   -531.2979010  0.742590E-04  0.131E-02    0.01       1.0  T
  32   -531.2980666 -0.165597E-03  0.872E-03    0.01       1.0  T
  33   -531.2981046 -0.379831E-04  0.606E-03    0.01       1.0  T
  34   -531.2981427 -0.380513E-04  0.309E-03    0.01       1.9  T
  35   -531.2981451 -0.244969E-05  0.236E-03    0.01       2.5  T
  36   -531.2981537 -0.855839E-05  0.112E-03    0.01       5.3  T
  37   -531.2981527  0.942104E-06  0.126E-03    0.01       4.7  T
  38   -531.2981537 -0.101281E-05  0.934E-04    0.01       6.4  T
  39   -531.2981543 -0.581517E-06  0.673E-04    0.01       8.8  T
  40   -531.2981545 -0.137964E-06  0.539E-04    0.01      11.0  T
     SCC iter.                  ...        0 min, 11.307 sec
     gradient                   ...        0 min,  0.503 sec
 * total energy  :  -521.5825084 Eh     change       -0.4002436E-01 Eh
   gradient norm :     0.0462308 Eh/α   predicted    -0.3935479E-01 (  -1.67%)
   displ. norm   :     0.8232266 α      lambda       -0.3348784E-01
   maximum displ.:     0.2683009 α      in ANC's #162, #58, #155, ...

........................................................................
.............................. CYCLE   10 ..............................
........................................................................
   1   -531.1987295 -0.531199E+03  0.462E-01    0.01       0.0  T
   2   -514.2514926  0.169472E+02  0.325E+00    0.03       1.0  T
   3   -530.3111641 -0.160597E+02  0.867E-01    0.05       1.0  T
   4   -530.1241499  0.187014E+00  0.108E+00    0.03       1.0  T
   5   -530.8285221 -0.704372E+00  0.606E-01    0.03       1.0  T
   6   -530.4872878  0.341234E+00  0.793E-01    0.09       1.0  T
   7   -530.6658718 -0.178584E+00  0.681E-01    0.06       1.0  T
   8   -530.8036025 -0.137731E+00  0.600E-01    0.04       1.0  T
   9   -530.8050854 -0.148298E-02  0.581E-01    0.01       1.0  T
  10   -530.8445734 -0.394879E-01  0.552E-01    0.03       1.0  T
  11   -530.6237446  0.220829E+00  0.612E-01    0.07       1.0  T
  12   -530.5747937  0.489509E-01  0.589E-01    0.04       1.0  T
  13   -531.1186193 -0.543826E+00  0.399E-01    0.02       1.0  T
  14   -530.9893641  0.129255E+00  0.461E-01    0.03       1.0  T
  15   -531.2606607 -0.271297E+00  0.245E-01    0.00       1.0  T
  16   -531.2090398  0.516209E-01  0.287E-01    0.02       1.0  T
  17   -531.2881126 -0.790728E-01  0.186E-01    0.00       1.0  T
  18   -531.2936380 -0.552543E-02  0.171E-01    0.00       1.0  T
  19   -531.2926007  0.103732E-02  0.164E-01    0.01       1.0  T
  20   -531.3103802 -0.177795E-01  0.101E-01    0.00       1.0  T
  21   -531.3120054 -0.162517E-02  0.915E-02    0.00       1.0  T
  22   -531.3163463 -0.434086E-02  0.890E-02    0.01       1.0  T
  23   -531.3224389 -0.609260E-02  0.471E-02    0.00       1.0  T
  24   -531.3220004  0.438493E-03  0.482E-02    0.00       1.0  T
  25   -531.3229726 -0.972229E-03  0.398E-02    0.00       1.0  T
  26   -531.3237229 -0.750348E-03  0.336E-02    0.00       1.0  T
  27   -531.3246794 -0.956449E-03  0.231E-02    0.00       1.0  T
  28   -531.3244905  0.188853E-03  0.264E-02    0.00       1.0  T
  29   -531.3248376 -0.347100E-03  0.220E-02    0.00       1.0  T
  30   -531.3250631 -0.225434E-03  0.170E-02    0.00       1.0  T
  31   -531.3251813 -0.118212E-03  0.131E-02    0.00       1.0  T
  32   -531.3253115 -0.130203E-03  0.905E-03    0.00       1.0  T
  33   -531.3253948 -0.832832E-04  0.436E-03    0.00       1.4  T
  34   -531.3254037 -0.888922E-05  0.251E-03    0.01       2.4  T
  35   -531.3254036  0.688340E-07  0.214E-03    0.01       2.8  T
  36   -531.3254099 -0.635473E-05  0.772E-04    0.01       7.7  T
  37   -531.3254084  0.156089E-05  0.119E-03    0.01       5.0  T
  38   -531.3254091 -0.709715E-06  0.107E-03    0.01       5.5  T
  39   -531.3254099 -0.845722E-06  0.831E-04    0.01       7.2  T
  40   -531.3254101 -0.169956E-06  0.623E-04    0.01       9.5  T
     SCC iter.                  ...        0 min, 11.448 sec
     gradient                   ...        0 min,  0.506 sec
 * total energy  :  -521.6111173 Eh     change       -0.2860893E-01 Eh
   gradient norm :     0.0345139 Eh/α   predicted    -0.2809130E-01 (  -1.81%)
   displ. norm   :     0.8176039 α      lambda       -0.2387032E-01
   maximum displ.:     0.3241617 α      in ANC's #58, #162, #53, ...

........................................................................
.............................. CYCLE   11 ..............................
........................................................................
   1   -531.2718412 -0.531272E+03  0.366E-01    0.01       0.0  T
   2   -516.4161811  0.148557E+02  0.309E+00    0.02       1.0  T
   3   -530.4545466 -0.140384E+02  0.760E-01    0.04       1.0  T
   4   -530.2170916  0.237455E+00  0.104E+00    0.02       1.0  T
   5   -530.6693584 -0.452267E+00  0.706E-01    0.01       1.0  T
   6   -530.3362950  0.333063E+00  0.905E-01    0.08       1.0  T
   7   -530.7191531 -0.382858E+00  0.611E-01    0.04       1.0  T
   8   -530.9284111 -0.209258E+00  0.541E-01    0.02       1.0  T
   9   -530.9110537  0.173574E-01  0.513E-01    0.00       1.0  T
  10   -530.9450303 -0.339767E-01  0.512E-01    0.06       1.0  T
  11   -531.0695898 -0.124559E+00  0.423E-01    0.04       1.0  T
  12   -530.9914089  0.781809E-01  0.450E-01    0.01       1.0  T
  13   -530.7833564  0.208052E+00  0.555E-01    0.01       1.0  T
  14   -531.2526281 -0.469272E+00  0.288E-01    0.01       1.0  T
  15   -531.1973216  0.553066E-01  0.305E-01    0.02       1.0  T
  16   -531.3097117 -0.112390E+00  0.198E-01    0.01       1.0  T
  17   -531.3327939 -0.230822E-01  0.139E-01    0.00       1.0  T
  18   -531.3183638  0.144301E-01  0.172E-01    0.01       1.0  T
  19   -531.3230623 -0.469847E-02  0.159E-01    0.01       1.0  T
  20   -531.3283887 -0.532646E-02  0.142E-01    0.00       1.0  T
  21   -531.3310132 -0.262450E-02  0.128E-01    0.01       1.0  T
  22   -531.3416286 -0.106154E-01  0.781E-02    0.01       1.0  T
  23   -531.3431156 -0.148697E-02  0.661E-02    0.00       1.0  T
  24   -531.3469486 -0.383302E-02  0.562E-02    0.00       1.0  T
  25   -531.3468528  0.958638E-04  0.502E-02    0.00       1.0  T
  26   -531.3491412 -0.228840E-02  0.354E-02    0.00       1.0  T
  27   -531.3495444 -0.403207E-03  0.334E-02    0.00       1.0  T
  28   -531.3497878 -0.243448E-03  0.283E-02    0.00       1.0  T
  29   -531.3498301 -0.422746E-04  0.254E-02    0.00       1.0  T
  30   -531.3503114 -0.481276E-03  0.158E-02    0.00       1.0  T
  31   -531.3505272 -0.215881E-03  0.843E-03    0.00       1.0  T
  32   -531.3505430 -0.157701E-04  0.675E-03    0.00       1.0  T
  33   -531.3505916 -0.485920E-04  0.377E-03    0.00       1.6  T
  34   -531.3505813  0.103283E-04  0.386E-03    0.00       1.5  T
  35   -531.3505991 -0.178496E-04  0.190E-03    0.00       3.1  T
  36   -531.3505921  0.701685E-05  0.295E-03    0.00       2.0  T
  37   -531.3506007 -0.855127E-05  0.160E-03    0.00       3.7  T
  38   -531.3506023 -0.160691E-05  0.138E-03    0.00       4.3  T
  39   -531.3506039 -0.159334E-05  0.812E-04    0.00       7.3  T
  40   -531.3506040 -0.119354E-06  0.752E-04    0.00       7.9  T
  41   -531.3506043 -0.365500E-06  0.340E-04    0.00      17.5  T
     SCC iter.                  ...        0 min, 11.655 sec
     gradient                   ...        0 min,  0.562 sec
 * total energy  :  -521.6315784 Eh     change       -0.2046110E-01 Eh
   gradient norm :     0.0275688 Eh/α   predicted    -0.1991354E-01 (  -2.68%)
   displ. norm   :     0.8293485 α      lambda       -0.1775143E-01
   maximum displ.:     0.4003216 α      in ANC's #58, #53, #65, ...

........................................................................
.............................. CYCLE   12 ..............................
........................................................................
   1   -531.3547390 -0.531355E+03  0.237E-01    0.00       0.0  T
   2   -524.6164098  0.673833E+01  0.219E+00    0.00       1.0  T
   3   -530.3725606 -0.575615E+01  0.738E-01    0.00       1.0  T
   4   -530.3163854  0.561752E-01  0.865E-01    0.03       1.0  T
   5   -530.5877778 -0.271392E+00  0.726E-01    0.03       1.0  T
   6   -530.9186526 -0.330875E+00  0.550E-01    0.01       1.0  T
   7   -530.9774479 -0.587953E-01  0.508E-01    0.03       1.0  T
   8   -530.9220188  0.554291E-01  0.572E-01    0.04       1.0  T
   9   -531.1014303 -0.179412E+00  0.421E-01    0.02       1.0  T
  10   -530.9304604  0.170970E+00  0.539E-01    0.03       1.0  T
  11   -530.7956544  0.134806E+00  0.638E-01    0.02       1.0  T
  12   -531.1822259 -0.386572E+00  0.385E-01    0.02       1.0  T
  13   -531.2512851 -0.690592E-01  0.280E-01    0.01       1.0  T
  14   -531.2771697 -0.258846E-01  0.225E-01    0.01       1.0  T
  15   -531.3350538 -0.578841E-01  0.191E-01    0.00       1.0  T
  16   -531.3465617 -0.115079E-01  0.165E-01    0.01       1.0  T
  17   -531.3487678 -0.220610E-02  0.160E-01    0.00       1.0  T
  18   -531.3606913 -0.119235E-01  0.131E-01    0.00       1.0  T
  19   -531.3667876 -0.609631E-02  0.994E-02    0.01       1.0  T
  20   -531.3706033 -0.381568E-02  0.777E-02    0.00       1.0  T
  21   -531.3706297 -0.263779E-04  0.761E-02    0.00       1.0  T
  22   -531.3724350 -0.180536E-02  0.647E-02    0.00       1.0  T
  23   -531.3704177  0.201736E-02  0.662E-02    0.00       1.0  T
  24   -531.3754373 -0.501966E-02  0.352E-02    0.00       1.0  T
  25   -531.3762641 -0.826826E-03  0.274E-02    0.00       1.0  T
  26   -531.3759976  0.266571E-03  0.306E-02    0.01       1.0  T
  27   -531.3764602 -0.462598E-03  0.247E-02    0.01       1.0  T
  28   -531.3762911  0.169032E-03  0.261E-02    0.00       1.0  T
  29   -531.3769469 -0.655750E-03  0.148E-02    0.00       1.0  T
  30   -531.3770922 -0.145313E-03  0.118E-02    0.00       1.0  T
  31   -531.3770778  0.144122E-04  0.122E-02    0.00       1.0  T
  32   -531.3771710 -0.931960E-04  0.879E-03    0.00       1.0  T
  33   -531.3772215 -0.505394E-04  0.505E-03    0.00       1.2  T
  34   -531.3772125  0.905338E-05  0.525E-03    0.00       1.1  T
  35   -531.3772347 -0.222712E-04  0.356E-03    0.00       1.7  T
  36   -531.3772517 -0.169071E-04  0.160E-03    0.00       3.7  T
  37   -531.3772527 -0.100324E-05  0.121E-03    0.00       4.9  T
  38   -531.3772545 -0.183751E-05  0.580E-04    0.00      10.2  T
  39   -531.3772549 -0.362658E-06  0.468E-04    0.00      12.7  T
  40   -531.3772550 -0.113956E-06  0.378E-04    0.00      15.7  T
     SCC iter.                  ...        0 min, 11.310 sec
     gradient                   ...        0 min,  0.504 sec
 * total energy  :  -521.6471899 Eh     change       -0.1561153E-01 Eh
   gradient norm :     0.0247615 Eh/α   predicted    -0.1498061E-01 (  -4.04%)
   displ. norm   :     0.8628153 α      lambda       -0.1471780E-01
   maximum displ.:     0.4644324 α      in ANC's #58, #53, #65, ...

........................................................................
.............................. CYCLE   13 ..............................
........................................................................
   1   -531.3866518 -0.531387E+03  0.180E-01    0.00       0.0  T
   2   -529.9157956  0.147086E+01  0.925E-01    0.20       1.0  T
   3   -530.8078121 -0.892016E+00  0.669E-01    0.03       1.0  T
   4   -530.9914066 -0.183595E+00  0.527E-01    0.05       1.0  T
   5   -531.1900262 -0.198620E+00  0.428E-01    0.03       1.0  T
   6   -530.8110970  0.378929E+00  0.697E-01    0.01       1.0  T
   7   -530.5969336  0.214163E+00  0.692E-01    0.01       1.0  T
   8   -530.7263715 -0.129438E+00  0.608E-01    0.05       1.0  T
   9   -531.0148833 -0.288512E+00  0.513E-01    0.01       1.0  T
  10   -531.2610406 -0.246157E+00  0.330E-01    0.01       1.0  T
  11   -530.8301538  0.430887E+00  0.567E-01    0.04       1.0  T
  12   -531.2481717 -0.418018E+00  0.300E-01    0.01       1.0  T
  13   -531.2522126 -0.404095E-02  0.278E-01    0.01       1.0  T
  14   -531.3820875 -0.129875E+00  0.131E-01    0.01       1.0  T
  15   -531.3939337 -0.118462E-01  0.107E-01    0.01       1.0  T
  16   -531.3809795  0.129541E-01  0.156E-01    0.00       1.0  T
  17   -531.3875209 -0.654137E-02  0.131E-01    0.01       1.0  T
  18   -531.3766386  0.108823E-01  0.146E-01    0.00       1.0  T
  19   -531.3881687 -0.115301E-01  0.112E-01    0.00       1.0  T
  20   -531.3997439 -0.115752E-01  0.614E-02    0.00       1.0  T
  21   -531.4015870 -0.184312E-02  0.444E-02    0.00       1.0  T
  22   -531.4025636 -0.976643E-03  0.367E-02    0.00       1.0  T
  23   -531.4036152 -0.105153E-02  0.255E-02    0.00       1.0  T
  24   -531.4044124 -0.797261E-03  0.146E-02    0.00       1.0  T
  25   -531.4045340 -0.121580E-03  0.108E-02    0.00       1.0  T
  26   -531.4045947 -0.606713E-04  0.959E-03    0.00       1.0  T
  27   -531.4046209 -0.262802E-04  0.869E-03    0.00       1.0  T
  28   -531.4047026 -0.816198E-04  0.463E-03    0.00       1.3  T
  29   -531.4047153 -0.127358E-04  0.285E-03    0.00       2.1  T
  30   -531.4047245 -0.916424E-05  0.163E-03    0.00       3.6  T
  31   -531.4047209  0.352338E-05  0.211E-03    0.00       2.8  T
  32   -531.4047245 -0.360245E-05  0.156E-03    0.00       3.8  T
  33   -531.4047279 -0.332115E-05  0.597E-04    0.00      10.0  T
  34   -531.4047277  0.185624E-06  0.674E-04    0.00       8.8  T
  35   -531.4047280 -0.272776E-06  0.455E-04    0.00      13.1  T
     SCC iter.                  ...        0 min,  9.906 sec
     gradient                   ...        0 min,  0.504 sec
 * total energy  :  -521.6607103 Eh     change       -0.1352038E-01 Eh
   gradient norm :     0.0246426 Eh/α   predicted    -0.1283724E-01 (  -5.05%)
   displ. norm   :     0.9076160 α      lambda       -0.1384632E-01
   maximum displ.:     0.5080923 α      in ANC's #58, #53, #37, ...

........................................................................
.............................. CYCLE   14 ..............................
........................................................................
   1   -531.3039157 -0.531304E+03  0.353E-01    0.01       0.0  T
   2   -529.0203373  0.228358E+01  0.144E+00    0.17       1.0  T
   3   -530.9124139 -0.189208E+01  0.721E-01    0.01       1.0  T
   4   -530.2000182  0.712396E+00  0.767E-01    0.07       1.0  T
   5   -530.3233425 -0.123324E+00  0.799E-01    0.12       1.0  T
   6   -530.9513859 -0.628043E+00  0.555E-01    0.02       1.0  T
   7   -530.8763664  0.750195E-01  0.579E-01    0.03       1.0  T
   8   -530.5940449  0.282322E+00  0.693E-01    0.01       1.0  T
   9   -530.9166786 -0.322634E+00  0.544E-01    0.00       1.0  T
  10   -530.9888408 -0.721622E-01  0.524E-01    0.02       1.0  T
  11   -531.2776162 -0.288775E+00  0.351E-01    0.01       1.0  T
  12   -531.2848121 -0.719585E-02  0.333E-01    0.01       1.0  T
  13   -531.3337908 -0.489787E-01  0.272E-01    0.00       1.0  T
  14   -531.3245358  0.925493E-02  0.283E-01    0.01       1.0  T
  15   -531.3320462 -0.751036E-02  0.278E-01    0.01       1.0  T
  16   -531.3741485 -0.421023E-01  0.211E-01    0.00       1.0  T
  17   -531.3637299  0.104186E-01  0.229E-01    0.01       1.0  T
  18   -531.3652252 -0.149533E-02  0.206E-01    0.01       1.0  T
  19   -531.3945231 -0.292979E-01  0.156E-01    0.01       1.0  T
  20   -531.4116388 -0.171157E-01  0.114E-01    0.01       1.0  T
  21   -531.4268876 -0.152488E-01  0.580E-02    0.00       1.0  T
  22   -531.4195517  0.733590E-02  0.780E-02    0.01       1.0  T
  23   -531.4303254 -0.107738E-01  0.333E-02    0.00       1.0  T
  24   -531.4303419 -0.164916E-04  0.298E-02    0.00       1.0  T
  25   -531.4316108 -0.126885E-02  0.112E-02    0.00       1.0  T
  26   -531.4313756  0.235206E-03  0.170E-02    0.00       1.0  T
  27   -531.4316933 -0.317748E-03  0.973E-03    0.00       1.0  T
  28   -531.4316967 -0.336998E-05  0.857E-03    0.00       1.0  T
  29   -531.4318240 -0.127362E-03  0.249E-03    0.00       2.4  T
  30   -531.4318241 -0.246987E-07  0.233E-03    0.00       2.5  T
  31   -531.4318244 -0.281187E-06  0.245E-03    0.00       2.4  T
  32   -531.4318309 -0.650357E-05  0.117E-03    0.00       5.1  T
  33   -531.4318317 -0.855205E-06  0.891E-04    0.00       6.7  T
  34   -531.4318316  0.104430E-06  0.903E-04    0.00       6.6  T
     SCC iter.                  ...        0 min,  9.617 sec
     gradient                   ...        0 min,  0.504 sec
 * total energy  :  -521.6739999 Eh     change       -0.1328959E-01 Eh
   gradient norm :     0.0246528 Eh/α   predicted    -0.1262624E-01 (  -4.99%)
   displ. norm   :     0.9470614 α      lambda       -0.1422004E-01
   maximum displ.:     0.5242857 α      in ANC's #58, #37, #53, ...

........................................................................
.............................. CYCLE   15 ..............................
........................................................................
   1   -531.2286789 -0.531229E+03  0.489E-01    0.02       0.0  T
   2   -527.9791057  0.324957E+01  0.181E+00    0.08       1.0  T
   3   -530.6285496 -0.264944E+01  0.910E-01    0.03       1.0  T
   4   -530.7892033 -0.160654E+00  0.723E-01    0.03       1.0  T
   5   -530.6925333  0.966700E-01  0.722E-01    0.03       1.0  T
   6   -530.5000918  0.192442E+00  0.724E-01    0.05       1.0  T
   7   -530.8044889 -0.304397E+00  0.573E-01    0.03       1.0  T
   8   -530.6908141  0.113675E+00  0.705E-01    0.06       1.0  T
   9   -531.1014078 -0.410594E+00  0.484E-01    0.00       1.0  T
  10   -530.6026656  0.498742E+00  0.645E-01    0.02       1.0  T
  11   -530.9187869 -0.316121E+00  0.527E-01    0.02       1.0  T
  12   -531.1237110 -0.204924E+00  0.449E-01    0.03       1.0  T
  13   -531.1828731 -0.591621E-01  0.430E-01    0.03       1.0  T
  14   -531.3860660 -0.203193E+00  0.261E-01    0.01       1.0  T
  15   -531.4114344 -0.253684E-01  0.187E-01    0.00       1.0  T
  16   -531.3515827  0.598517E-01  0.253E-01    0.00       1.0  T
  17   -531.4387631 -0.871805E-01  0.109E-01    0.00       1.0  T
  18   -531.4149691  0.237940E-01  0.168E-01    0.01       1.0  T
  19   -531.4415591 -0.265900E-01  0.117E-01    0.01       1.0  T
  20   -531.4473897 -0.583062E-02  0.809E-02    0.00       1.0  T
  21   -531.4511491 -0.375935E-02  0.586E-02    0.00       1.0  T
  22   -531.4530080 -0.185889E-02  0.515E-02    0.00       1.0  T
  23   -531.4542212 -0.121326E-02  0.444E-02    0.00       1.0  T
  24   -531.4560052 -0.178398E-02  0.290E-02    0.00       1.0  T
  25   -531.4562511 -0.245902E-03  0.259E-02    0.00       1.0  T
  26   -531.4572710 -0.101992E-02  0.101E-02    0.00       1.0  T
  27   -531.4573446 -0.735316E-04  0.704E-03    0.00       1.0  T
  28   -531.4573813 -0.367071E-04  0.582E-03    0.00       1.0  T
  29   -531.4574125 -0.312300E-04  0.422E-03    0.00       1.4  T
  30   -531.4574291 -0.166287E-04  0.273E-03    0.00       2.2  T
  31   -531.4574332 -0.406085E-05  0.218E-03    0.00       2.7  T
  32   -531.4574385 -0.531045E-05  0.144E-03    0.00       4.1  T
  33   -531.4574410 -0.248364E-05  0.665E-04    0.00       8.9  T
  34   -531.4574413 -0.328488E-06  0.471E-04    0.00      12.6  T
  35   -531.4574409  0.376859E-06  0.643E-04    0.00       9.2  T
     SCC iter.                  ...        0 min,  9.907 sec
     gradient                   ...        0 min,  0.503 sec
 * total energy  :  -521.6881154 Eh     change       -0.1411548E-01 Eh
   gradient norm :     0.0237949 Eh/α   predicted    -0.1348720E-01 (  -4.45%)
   displ. norm   :     0.9747323 α      lambda       -0.1532966E-01
   maximum displ.:     0.5296692 α      in ANC's #58, #37, #53, ...

........................................................................
.............................. CYCLE   16 ..............................
........................................................................
   1   -531.2507805 -0.531251E+03  0.526E-01    0.00       0.0  T
   2   -527.9669400  0.328384E+01  0.185E+00    0.11       1.0  T
   3   -530.1593720 -0.219243E+01  0.104E+00    0.12       1.0  T
   4   -530.3411417 -0.181770E+00  0.100E+00    0.17       1.0  T
   5   -530.7490589 -0.407917E+00  0.732E-01    0.03       1.0  T
   6   -530.5200527  0.229006E+00  0.809E-01    0.00       1.0  T
   7   -530.4501435  0.699093E-01  0.754E-01    0.02       1.0  T
   8   -531.1321515 -0.682008E+00  0.515E-01    0.00       1.0  T
   9   -530.6644348  0.467717E+00  0.674E-01    0.04       1.0  T
  10   -530.7217408 -0.573060E-01  0.656E-01    0.01       1.0  T
  11   -531.1163593 -0.394619E+00  0.441E-01    0.00       1.0  T
  12   -531.1771059 -0.607466E-01  0.421E-01    0.02       1.0  T
  13   -531.0924891  0.846168E-01  0.508E-01    0.02       1.0  T
  14   -531.2705840 -0.178095E+00  0.379E-01    0.02       1.0  T
  15   -531.3155695 -0.449855E-01  0.302E-01    0.00       1.0  T
  16   -531.3936443 -0.780748E-01  0.257E-01    0.00       1.0  T
  17   -531.4199956 -0.263513E-01  0.198E-01    0.01       1.0  T
  18   -531.4509134 -0.309178E-01  0.180E-01    0.01       1.0  T
  19   -531.4354444  0.154691E-01  0.177E-01    0.00       1.0  T
  20   -531.4501123 -0.146679E-01  0.143E-01    0.01       1.0  T
  21   -531.4806751 -0.305628E-01  0.666E-02    0.00       1.0  T
  22   -531.4805167  0.158421E-03  0.609E-02    0.00       1.0  T
  23   -531.4870622 -0.654555E-02  0.243E-02    0.00       1.0  T
  24   -531.4851006  0.196161E-02  0.377E-02    0.00       1.0  T
  25   -531.4861658 -0.106515E-02  0.317E-02    0.00       1.0  T
  26   -531.4870632 -0.897458E-03  0.219E-02    0.00       1.0  T
  27   -531.4876584 -0.595141E-03  0.116E-02    0.00       1.0  T
  28   -531.4878410 -0.182678E-03  0.637E-03    0.00       1.0  T
  29   -531.4878825 -0.414626E-04  0.324E-03    0.00       1.8  T
  30   -531.4878943 -0.118477E-04  0.184E-03    0.00       3.2  T
  31   -531.4878926  0.173195E-05  0.193E-03    0.00       3.1  T
  32   -531.4878980 -0.537414E-05  0.839E-04    0.00       7.1  T
  33   -531.4878989 -0.956138E-06  0.431E-04    0.00      13.8  T
  34   -531.4878989  0.473881E-07  0.410E-04    0.00      14.5  T
     SCC iter.                  ...        0 min,  9.620 sec
     gradient                   ...        0 min,  0.503 sec
 * total energy  :  -521.7035455 Eh     change       -0.1543010E-01 Eh
   gradient norm :     0.0264889 Eh/α   predicted    -0.1494720E-01 (  -3.13%)
   displ. norm   :     0.9760227 α      lambda       -0.1588305E-01
   maximum displ.:     0.5198793 α      in ANC's #58, #37, #53, ...

........................................................................
.............................. CYCLE   17 ..............................
........................................................................
   1   -531.3100492 -0.531310E+03  0.455E-01    0.00       0.0  T
   2   -528.2329346  0.307711E+01  0.172E+00    0.10       1.0  T
   3   -530.2058273 -0.197289E+01  0.981E-01    0.10       1.0  T
   4   -530.3432948 -0.137468E+00  0.987E-01    0.15       1.0  T
   5   -530.7616822 -0.418387E+00  0.719E-01    0.02       1.0  T
   6   -530.4766190  0.285063E+00  0.799E-01    0.03       1.0  T
   7   -530.4670432  0.957581E-02  0.748E-01    0.06       1.0  T
   8   -531.1977071 -0.730664E+00  0.454E-01    0.01       1.0  T
   9   -531.0633176  0.134390E+00  0.569E-01    0.01       1.0  T
  10   -530.8068005  0.256517E+00  0.579E-01    0.00       1.0  T
  11   -530.9569949 -0.150194E+00  0.574E-01    0.05       1.0  T
  12   -531.2180563 -0.261061E+00  0.403E-01    0.00       1.0  T
  13   -531.0445525  0.173504E+00  0.514E-01    0.00       1.0  T
  14   -531.1148806 -0.703281E-01  0.431E-01    0.02       1.0  T
  15   -531.2129690 -0.980884E-01  0.407E-01    0.01       1.0  T
  16   -531.4257760 -0.212807E+00  0.212E-01    0.00       1.0  T
  17   -531.4860438 -0.602678E-01  0.750E-02    0.00       1.0  T
  18   -531.4488704  0.371734E-01  0.177E-01    0.01       1.0  T
  19   -531.4575734 -0.870303E-02  0.140E-01    0.00       1.0  T
  20   -531.4838154 -0.262420E-01  0.720E-02    0.00       1.0  T
  21   -531.4763946  0.742082E-02  0.916E-02    0.00       1.0  T
  22   -531.4904995 -0.141049E-01  0.295E-02    0.00       1.0  T
  23   -531.4900994  0.400122E-03  0.360E-02    0.00       1.0  T
  24   -531.4915790 -0.147963E-02  0.160E-02    0.00       1.0  T
  25   -531.4911618  0.417203E-03  0.212E-02    0.00       1.0  T
  26   -531.4917831 -0.621226E-03  0.975E-03    0.00       1.0  T
  27   -531.4918941 -0.111058E-03  0.501E-03    0.00       1.2  T
  28   -531.4919177 -0.235465E-04  0.334E-03    0.00       1.8  T
  29   -531.4919290 -0.113416E-04  0.191E-03    0.00       3.1  T
  30   -531.4919242  0.481570E-05  0.218E-03    0.00       2.7  T
  31   -531.4919185  0.569371E-05  0.281E-03    0.00       2.1  T
  32   -531.4919256 -0.712277E-05  0.212E-03    0.00       2.8  T
  33   -531.4919322 -0.661402E-05  0.107E-03    0.00       5.6  T
  34   -531.4919333 -0.108838E-05  0.598E-04    0.00       9.9  T
  35   -531.4919333 -0.212030E-07  0.508E-04    0.00      11.7  T
  36   -531.4919336 -0.295673E-06  0.254E-04    0.00      23.4  T
     SCC iter.                  ...        0 min, 10.183 sec
     gradient                   ...        0 min,  0.503 sec
 * total energy  :  -521.7200342 Eh     change       -0.1648868E-01 Eh
   gradient norm :     0.0337562 Eh/α   predicted    -0.1550678E-01 (  -5.96%)
   displ. norm   :     0.9556236 α      lambda       -0.1747737E-01
   maximum displ.:     0.4775290 α      in ANC's #58, #37, #53, ...

........................................................................
.............................. CYCLE   18 ..............................
........................................................................
   1   -531.3457656 -0.531346E+03  0.420E-01    0.00       0.0  T
   2   -527.8626811  0.348308E+01  0.238E+00    0.03       1.0  T
   3   -530.4546679 -0.259199E+01  0.979E-01    0.05       1.0  T
   4   -530.3118776  0.142790E+00  0.103E+00    0.03       1.0  T
   5   -530.7277439 -0.415866E+00  0.673E-01    0.02       1.0  T
   6   -530.4735685  0.254175E+00  0.713E-01    0.09       1.0  T
   7   -530.5853423 -0.111774E+00  0.691E-01    0.02       1.0  T
   8   -530.6402787 -0.549364E-01  0.703E-01    0.03       1.0  T
   9   -531.1997282 -0.559450E+00  0.482E-01    0.00       1.0  T
  10   -530.8793955  0.320333E+00  0.610E-01    0.04       1.0  T
  11   -531.0738393 -0.194444E+00  0.523E-01    0.01       1.0  T
  12   -530.9849572  0.888821E-01  0.521E-01    0.04       1.0  T
  13   -531.1378271 -0.152870E+00  0.442E-01    0.02       1.0  T
  14   -531.2022929 -0.644658E-01  0.438E-01    0.04       1.0  T
  15   -531.3873061 -0.185013E+00  0.283E-01    0.00       1.0  T
  16   -531.3527547  0.345514E-01  0.283E-01    0.01       1.0  T
  17   -531.4634029 -0.110648E+00  0.165E-01    0.01       1.0  T
  18   -531.4872481 -0.238452E-01  0.106E-01    0.00       1.0  T
  19   -531.4810004  0.624773E-02  0.117E-01    0.00       1.0  T
  20   -531.4539387  0.270616E-01  0.172E-01    0.00       1.0  T
  21   -531.4464380  0.750072E-02  0.163E-01    0.00       1.0  T
  22   -531.4966785 -0.502405E-01  0.664E-02    0.00       1.0  T
  23   -531.4987708 -0.209226E-02  0.532E-02    0.00       1.0  T
  24   -531.5019726 -0.320184E-02  0.227E-02    0.00       1.0  T
  25   -531.5010944  0.878253E-03  0.308E-02    0.00       1.0  T
  26   -531.5010204  0.740058E-04  0.284E-02    0.00       1.0  T
  27   -531.5023319 -0.131152E-02  0.167E-02    0.00       1.0  T
  28   -531.5026502 -0.318274E-03  0.801E-03    0.00       1.0  T
  29   -531.5026753 -0.251714E-04  0.590E-03    0.00       1.0  T
  30   -531.5026923 -0.169983E-04  0.525E-03    0.00       1.1  T
  31   -531.5026974 -0.506642E-05  0.492E-03    0.00       1.2  T
  32   -531.5027072 -0.975980E-05  0.353E-03    0.00       1.7  T
  33   -531.5026980  0.912166E-05  0.373E-03    0.00       1.6  T
  34   -531.5027129 -0.148171E-04  0.244E-03    0.00       2.4  T
  35   -531.5027224 -0.951620E-05  0.111E-03    0.00       5.3  T
  36   -531.5027235 -0.117546E-05  0.674E-04    0.00       8.8  T
  37   -531.5027233  0.197869E-06  0.650E-04    0.00       9.1  T
  38   -531.5027240 -0.663274E-06  0.306E-04    0.00      19.4  T
     SCC iter.                  ...        0 min, 10.745 sec
     gradient                   ...        0 min,  0.502 sec
 * total energy  :  -521.7389082 Eh     change       -0.1887405E-01 Eh
   gradient norm :     0.0462135 Eh/α   predicted    -0.1671899E-01 ( -11.42%)
   displ. norm   :     0.9186896 α      lambda       -0.2107907E-01
   maximum displ.:     0.4145487 α      in ANC's #58, #37, #53, ...

........................................................................
.............................. CYCLE   19 ..............................
........................................................................
   1   -531.3580563 -0.531358E+03  0.396E-01    0.00       0.0  T
   2   -505.9367420  0.254213E+02  0.548E+00    0.03       1.0  T
   3   -530.1650034 -0.242283E+02  0.112E+00    0.04       1.0  T
   4   -530.3778456 -0.212842E+00  0.905E-01    0.00       1.0  T
   5   -530.8155124 -0.437667E+00  0.724E-01    0.02       1.0  T
   6   -530.4185320  0.396980E+00  0.789E-01    0.06       1.0  T
   7   -530.8800695 -0.461537E+00  0.650E-01    0.02       1.0  T
   8   -530.9525445 -0.724750E-01  0.634E-01    0.04       1.0  T
   9   -530.9017804  0.507641E-01  0.634E-01    0.00       1.0  T
  10   -530.8676721  0.341083E-01  0.631E-01    0.03       1.0  T
  11   -530.7262515  0.141421E+00  0.684E-01    0.04       1.0  T
  12   -531.0511538 -0.324902E+00  0.539E-01    0.00       1.0  T
  13   -531.2612800 -0.210126E+00  0.390E-01    0.01       1.0  T
  14   -531.4043144 -0.143034E+00  0.268E-01    0.01       1.0  T
  15   -531.4286542 -0.243398E-01  0.234E-01    0.02       1.0  T
  16   -531.4096678  0.189864E-01  0.253E-01    0.00       1.0  T
  17   -531.3694467  0.402210E-01  0.277E-01    0.00       1.0  T
  18   -531.4537606 -0.843139E-01  0.170E-01    0.01       1.0  T
  19   -531.4734419 -0.196812E-01  0.164E-01    0.01       1.0  T
  20   -531.4754491 -0.200724E-02  0.139E-01    0.00       1.0  T
  21   -531.5035158 -0.280667E-01  0.643E-02    0.00       1.0  T
  22   -531.4966250  0.689085E-02  0.839E-02    0.01       1.0  T
  23   -531.5056068 -0.898180E-02  0.496E-02    0.00       1.0  T
  24   -531.5074925 -0.188578E-02  0.366E-02    0.00       1.0  T
  25   -531.5076918 -0.199300E-03  0.343E-02    0.00       1.0  T
  26   -531.5090894 -0.139761E-02  0.218E-02    0.00       1.0  T
  27   -531.5088409  0.248569E-03  0.233E-02    0.00       1.0  T
  28   -531.5091453 -0.304460E-03  0.204E-02    0.00       1.0  T
  29   -531.5094579 -0.312544E-03  0.164E-02    0.00       1.0  T
  30   -531.5096464 -0.188480E-03  0.125E-02    0.00       1.0  T
  31   -531.5097017 -0.553297E-04  0.113E-02    0.00       1.0  T
  32   -531.5097275 -0.258641E-04  0.101E-02    0.00       1.0  T
  33   -531.5097595 -0.319851E-04  0.870E-03    0.00       1.0  T
  34   -531.5098418 -0.822798E-04  0.590E-03    0.00       1.0  T
  35   -531.5098973 -0.555055E-04  0.198E-03    0.00       3.0  T
  36   -531.5099015 -0.421402E-05  0.189E-03    0.00       3.1  T
  37   -531.5099025 -0.101386E-05  0.131E-03    0.00       4.5  T
  38   -531.5099032 -0.640974E-06  0.879E-04    0.00       6.8  T
  39   -531.5099032 -0.605486E-07  0.114E-03    0.00       5.2  T
  40   -531.5099040 -0.727283E-06  0.881E-04    0.00       6.7  T
     SCC iter.                  ...        0 min, 11.327 sec
     gradient                   ...        0 min,  0.502 sec
 * total energy  :  -521.7632249 Eh     change       -0.2431665E-01 Eh
   gradient norm :     0.0674897 Eh/α   predicted    -0.1943480E-01 ( -20.08%)
   displ. norm   :     0.8577587 α      lambda       -0.2985283E-01
   maximum displ.:     0.3602893 α      in ANC's #37, #58, #26, ...

........................................................................
.............................. CYCLE   20 ..............................
........................................................................
   1   -531.3450134 -0.531345E+03  0.386E-01    0.00       0.0  T
   2   -498.3093558  0.330357E+02  0.564E+00    0.03       1.0  T
   3   -530.2310530 -0.319217E+02  0.109E+00    0.10       1.0  T
   4   -530.3021511 -0.710981E-01  0.875E-01    0.09       1.0  T
   5   -530.6527740 -0.350623E+00  0.744E-01    0.06       1.0  T
   6   -530.8306503 -0.177876E+00  0.657E-01    0.03       1.0  T
   7   -530.9878741 -0.157224E+00  0.606E-01    0.05       1.0  T
   8   -530.9239583  0.639159E-01  0.612E-01    0.03       1.0  T
   9   -531.0344132 -0.110455E+00  0.614E-01    0.01       1.0  T
  10   -531.0889810 -0.545677E-01  0.534E-01    0.01       1.0  T
  11   -530.8875405  0.201440E+00  0.624E-01    0.01       1.0  T
  12   -531.1208318 -0.233291E+00  0.442E-01    0.03       1.0  T
  13   -531.1510930 -0.302612E-01  0.528E-01    0.01       1.0  T
  14   -531.2157213 -0.646283E-01  0.396E-01    0.00       1.0  T
  15   -531.4734791 -0.257758E+00  0.185E-01    0.00       1.0  T
  16   -531.4848145 -0.113353E-01  0.140E-01    0.00       1.0  T
  17   -531.4184913  0.663232E-01  0.257E-01    0.01       1.0  T
  18   -531.4790803 -0.605890E-01  0.158E-01    0.01       1.0  T
  19   -531.5033120 -0.242317E-01  0.115E-01    0.00       1.0  T
  20   -531.5161246 -0.128126E-01  0.569E-02    0.00       1.0  T
  21   -531.5169416 -0.816966E-03  0.498E-02    0.00       1.0  T
  22   -531.5196544 -0.271288E-02  0.292E-02    0.00       1.0  T
  23   -531.5205978 -0.943316E-03  0.218E-02    0.00       1.0  T
  24   -531.5213200 -0.722277E-03  0.745E-03    0.00       1.0  T
  25   -531.5213256 -0.558510E-05  0.687E-03    0.00       1.0  T
  26   -531.5213686 -0.429450E-04  0.427E-03    0.00       1.4  T
  27   -531.5213862 -0.176469E-04  0.242E-03    0.00       2.5  T
  28   -531.5213921 -0.584855E-05  0.138E-03    0.00       4.3  T
  29   -531.5213940 -0.191007E-05  0.678E-04    0.00       8.8  T
  30   -531.5213939  0.861814E-07  0.687E-04    0.00       8.7  T
  31   -531.5213932  0.729248E-06  0.974E-04    0.00       6.1  T
     SCC iter.                  ...        0 min,  8.765 sec
     gradient                   ...        0 min,  0.502 sec
 * total energy  :  -521.7967372 Eh     change       -0.3351234E-01 Eh
   gradient norm :     0.0879160 Eh/α   predicted    -0.2590853E-01 ( -22.69%)
   displ. norm   :     0.8319284 α      lambda       -0.3705004E-01
   maximum displ.:     0.3457414 α      in ANC's #37, #58, #26, ...
 * RMSD in coord.:     0.7652805 α      energy gain  -0.2215395E+01 Eh

generating ANC from model Hessian ...
Using Lindh-Hessian (1995)
 Shifting diagonal of input Hessian by    1.0037190995163472E-002
 Lowest  eigenvalues of input Hessian
    0.010000    0.010000    0.010006    0.010012    0.010020    0.010022
    0.010023    0.010024    0.010025    0.010028    0.010028    0.010029
    0.010031    0.010032    0.010034    0.010035    0.010036    0.010036
 Highest eigenvalues
    2.758540    2.856010    3.073565    3.075543    3.101509    3.102051


........................................................................
.............................. CYCLE   21 ..............................
........................................................................
   1   -531.4031277 -0.531403E+03  0.315E-01    0.00       0.0  T
   2   -502.0778041  0.293253E+02  0.554E+00    0.01       1.0  T
   3   -530.2216953 -0.281439E+02  0.109E+00    0.10       1.0  T
   4   -530.3307240 -0.109029E+00  0.874E-01    0.10       1.0  T
   5   -530.7423472 -0.411623E+00  0.690E-01    0.02       1.0  T
   6   -530.6588137  0.835334E-01  0.741E-01    0.07       1.0  T
   7   -531.2476557 -0.588842E+00  0.425E-01    0.02       1.0  T
   8   -530.8014235  0.446232E+00  0.693E-01    0.02       1.0  T
   9   -530.9329605 -0.131537E+00  0.631E-01    0.06       1.0  T
  10   -531.0390554 -0.106095E+00  0.549E-01    0.03       1.0  T
  11   -530.9956709  0.433846E-01  0.600E-01    0.02       1.0  T
  12   -531.3182177 -0.322547E+00  0.385E-01    0.01       1.0  T
  13   -531.2803900  0.378277E-01  0.411E-01    0.02       1.0  T
  14   -531.2984603 -0.180703E-01  0.331E-01    0.01       1.0  T
  15   -531.4265258 -0.128066E+00  0.232E-01    0.01       1.0  T
  16   -531.4714892 -0.449634E-01  0.188E-01    0.01       1.0  T
  17   -531.5072888 -0.357995E-01  0.115E-01    0.00       1.0  T
  18   -531.5032895  0.399924E-02  0.124E-01    0.00       1.0  T
  19   -531.5118496 -0.856007E-02  0.910E-02    0.01       1.0  T
  20   -531.5214545 -0.960490E-02  0.513E-02    0.00       1.0  T
  21   -531.5225388 -0.108434E-02  0.404E-02    0.00       1.0  T
  22   -531.5234783 -0.939434E-03  0.339E-02    0.00       1.0  T
  23   -531.5239868 -0.508571E-03  0.274E-02    0.00       1.0  T
  24   -531.5249976 -0.101075E-02  0.118E-02    0.00       1.0  T
  25   -531.5249445  0.530842E-04  0.128E-02    0.00       1.0  T
  26   -531.5248914  0.530791E-04  0.130E-02    0.00       1.0  T
  27   -531.5248931 -0.163329E-05  0.134E-02    0.00       1.0  T
  28   -531.5249720 -0.789645E-04  0.116E-02    0.00       1.0  T
  29   -531.5250180 -0.459620E-04  0.103E-02    0.00       1.0  T
  30   -531.5250610 -0.429860E-04  0.858E-03    0.00       1.0  T
[...]
 585:  0.00 586:  0.00 587:  0.00 588:  0.00 589:  0.00 590:  0.00 591:  0.00 592:  0.00
 593:  0.00 594:  0.00 595:  0.00 596:  0.00 597:  0.00 598:  0.00 599:  0.00 600:  0.00
 601:  0.00 602:  0.00 603:  0.00 604:  0.00 605:  0.00 606:  0.00 607:  0.00 608:  0.00
 609:  0.00 610:  0.00 611:  0.00 612:  0.00 613:  0.00 614:  0.00 615:  0.00 616:  0.00
 617:  0.00 618:  0.00 619:  0.00 620:  0.00 621:  0.00 622:  0.00 623:  0.00 624:  0.00
 625:  0.00 626:  0.00 627:  0.00 628:  0.00 629:  0.00 630:  0.00 631:  0.00 632:  0.00
 633:  0.00 634:  0.00 635:  0.00 636:  0.00 637:  0.00 638:  0.00 639:  0.00 640:  0.00
 641:  0.00 642:  0.00 643:  0.00 644:  0.00 645:  0.00 646:  0.00 647:  0.00 648:  0.00
 649:  0.00 650:  0.00 651:  0.00 652:  0.00 653:  0.00 654:  0.00 655:  0.00 656:  0.00
 657:  0.00 658:  0.00 659:  0.00 660:  0.00 661:  0.00 662:  0.00 663:  0.00 664:  0.00
 665:  0.00 666:  0.00 667:  0.00 668:  0.00 669:  0.00 670:  0.00 671:  0.00 672:  0.00
 673:  0.00 674:  0.00 675:  0.00 676:  0.00 677:  0.00 678:  0.00 679:  0.00 680:  0.00
 681:  0.00 682:  0.00 683:  0.00 684:  0.00 685:  0.00 686:  0.00 687:  0.00 688:  0.00
 689:  0.00 690:  0.00 691:  0.00 692:  0.00 693:  0.00 694:  0.00 695:  0.00 696:  0.00
 697:  0.00 698:  0.00 699:  0.00 700:  0.00 701:  0.00 702:  0.00 703:  0.00 704:  0.00
 705:  0.00 706:  0.00 707:  0.00 708:  0.00 709:  0.00 710:  0.00 711:  0.00 712:  0.00
 713:  0.00 714:  0.00 715:  0.00 716:  0.00 717:  0.00 718:  0.00 719:  0.00 720:  0.00
 721:  0.00 722:  0.00 723:  0.00 724:  0.00 725:  0.00 726:  0.00 727:  0.00 728:  0.00
 729:  0.00 730:  0.00 731:  0.00 732:  0.00 733:  0.00 734:  0.00 735:  0.00 736:  0.00
 737:  0.00 738:  0.00 739:  0.00 740:  0.00 741:  0.00 742:  0.00 743:  0.00 744:  0.00
 745:  0.00 746:  0.00 747:  0.00 748:  0.00 749:  0.00 750:  0.00 751:  0.00 752:  0.00
 753:  0.00 754:  0.00 755:  0.00 756:  0.00 757:  0.00 758:  0.00 759:  0.00 760:  0.00
 761:  0.00 762:  0.00 763:  0.00 764:  0.00 765:  0.00 766:  0.00 767:  0.00 768:  0.00
 769:  0.00 770:  0.00 771:  0.00 772:  0.00 773:  0.00 774:  0.00 775:  0.00 776:  0.00
 777:  0.00 778:  0.00 779:  0.00 780:  0.00 781:  0.00 782:  0.00 783:  0.00 784:  0.00
 785:  0.00 786:  0.00 787:  0.00 788:  0.00 789:  0.00 790:  0.00 791:  0.00 792:  0.00
 793:  0.00 794:  0.00 795:  0.00 796:  0.00 797:  0.00 798:  0.00 799:  0.00 800:  0.00
 801:  0.00 802:  0.00 803:  0.00 804:  0.00 805:  0.00 806:  0.00 807:  0.00 808:  0.00
 809:  0.00 810:  0.00 811:  0.00 812:  0.00 813:  0.00 814:  0.00 815:  0.00 816:  0.00
 817:  0.00 818:  0.00 819:  0.00 820:  0.00 821:  0.00 822:  0.00 823:  0.00 824:  0.00
 825:  0.00 826:  0.00 827:  0.00 828:  0.00 829:  0.00 830:  0.00 831:  0.00 832:  0.00
 833:  0.00 834:  0.00 835:  0.00 836:  0.00 837:  0.00 838:  0.00 839:  0.00 840:  0.00
 841:  0.00 842:  0.00 843:  0.00 844:  0.00 845:  0.00 846:  0.00 847:  0.00 848:  0.00
 849:  0.00
 output can be read by thermo (or use thermo option).
 writing <g98.out> molden fake output.
 recommended (thermochemical) frequency scaling factor: 1.0
           -------------------------------------------------
          |             Thermodynamic Functions             |
           -------------------------------------------------
 symmetry recognition skipped because # atoms >         200
 inverting freq            1   17.537004266795581     
 inverting freq            2   8.1009210124692803     
 inverting freq            3   7.2502278543785730     
 inverting freq            4   3.1024545554401608     
 inverting freq            5   1.9567755596769991     
 inverting freq            6   1.4901854232357652     

          ...................................................
          :                      SETUP                      :
          :.................................................:
          :  # frequencies                         841      :
          :  # imaginary freq.                       0      :
          :  linear?                             false      :
          :  only rotor calc.                    false      :
          :  symmetry                               C1      :
          :  rotational number                       1      :
          :  scaling factor                  1.0000000      :
          :  rotor cutoff                   50.0000000 cm⁻¹ :
          :  imag. cutoff                  -20.0000000 cm⁻¹ :
          :.................................................:

    mode    ω/cm⁻¹     T·S(HO)/kcal·mol⁻¹    T·S(FR)/kcal·mol⁻¹   T·S(vib)
   ------------------------------------------------------------------------
       1     17.54    -2.05579 (  1.49%)    -1.36693 ( 98.51%)    -1.37720
       2      8.10    -2.51325 (  0.07%)    -1.59572 ( 99.93%)    -1.59636
       3      7.25    -2.57898 (  0.04%)    -1.62859 ( 99.96%)    -1.62901
       4      3.10    -3.08188 (  0.00%)    -1.88005 (100.00%)    -1.88007
       5      1.96    -3.35495 (  0.00%)    -2.01659 (100.00%)    -2.01659
       6      1.49    -3.51634 (  0.00%)    -2.09728 (100.00%)    -2.09729
       7      1.06    -3.71840 (  0.00%)    -2.19832 (100.00%)    -2.19832
       8      1.79    -3.40693 (  0.00%)    -2.04258 (100.00%)    -2.04258
       9      1.89    -3.37526 (  0.00%)    -2.02675 (100.00%)    -2.02675
      10      2.60    -3.18701 (  0.00%)    -1.93262 (100.00%)    -1.93263
      11      2.93    -3.11503 (  0.00%)    -1.89663 (100.00%)    -1.89664
      12      3.02    -3.09833 (  0.00%)    -1.88828 (100.00%)    -1.88829
      13      3.49    -3.01216 (  0.00%)    -1.84519 (100.00%)    -1.84522
      14      5.52    -2.74012 (  0.01%)    -1.70917 ( 99.99%)    -1.70932
      15      6.69    -2.62618 (  0.03%)    -1.65220 ( 99.97%)    -1.65251
      16      7.05    -2.59568 (  0.04%)    -1.63695 ( 99.96%)    -1.63732
      17      8.10    -2.51306 (  0.07%)    -1.59563 ( 99.93%)    -1.59626
      18      9.54    -2.41641 (  0.13%)    -1.54730 ( 99.87%)    -1.54845
      19     12.43    -2.25986 (  0.38%)    -1.46900 ( 99.62%)    -1.47201
      20     13.80    -2.19764 (  0.58%)    -1.43788 ( 99.42%)    -1.44227
      21     15.69    -2.12154 (  0.96%)    -1.39982 ( 99.04%)    -1.40675
      22     16.83    -2.08007 (  1.27%)    -1.37907 ( 98.73%)    -1.38796
      23     17.32    -2.06331 (  1.42%)    -1.37069 ( 98.58%)    -1.38051
      24     18.43    -2.02653 (  1.81%)    -1.35229 ( 98.19%)    -1.36449
      25     20.86    -1.95316 (  2.94%)    -1.31557 ( 97.06%)    -1.33431
      26     22.31    -1.91328 (  3.81%)    -1.29562 ( 96.19%)    -1.31916
      27     23.93    -1.87171 (  4.99%)    -1.27481 ( 95.01%)    -1.30458
      28     25.83    -1.82650 (  6.65%)    -1.25218 ( 93.35%)    -1.29038
      29     27.50    -1.78947 (  8.39%)    -1.23364 ( 91.61%)    -1.28025
      30     28.90    -1.76007 ( 10.04%)    -1.21891 ( 89.96%)    -1.27327
      31     30.04    -1.73718 ( 11.53%)    -1.20745 ( 88.47%)    -1.26854
      32     33.34    -1.67557 ( 16.51%)    -1.17658 ( 83.49%)    -1.25897
      33     34.94    -1.64790 ( 19.25%)    -1.16272 ( 80.75%)    -1.25614
      34     35.54    -1.63785 ( 20.34%)    -1.15768 ( 79.66%)    -1.25532
      35     35.93    -1.63142 ( 21.05%)    -1.15446 ( 78.95%)    -1.25485
      36     36.87    -1.61612 ( 22.82%)    -1.14679 ( 77.18%)    -1.25390
      37     36.93    -1.61515 ( 22.94%)    -1.14630 ( 77.06%)    -1.25384
      38     37.20    -1.61091 ( 23.45%)    -1.14417 ( 76.55%)    -1.25362
      39     37.92    -1.59949 ( 24.86%)    -1.13845 ( 75.14%)    -1.25309
      40     38.25    -1.59441 ( 25.51%)    -1.13590 ( 74.49%)    -1.25288
      41     39.60    -1.57398 ( 28.23%)    -1.12566 ( 71.77%)    -1.25222
      42     44.28    -1.50795 ( 38.09%)    -1.09253 ( 61.91%)    -1.25076
      43     49.46    -1.44266 ( 48.92%)    -1.05975 ( 51.08%)    -1.24707
      44     53.72    -1.39404 ( 57.12%)    -1.03531 ( 42.88%)    -1.24022
      45     53.76    -1.39353 ( 57.21%)    -1.03505 ( 42.79%)    -1.24012
      46     61.55    -1.31393 ( 69.66%)    -0.99499 ( 30.34%)    -1.21716
      47     66.86    -1.26525 ( 76.18%)    -0.97046 ( 23.82%)    -1.19502
      48     71.57    -1.22528 ( 80.77%)    -0.95029 ( 19.23%)    -1.17238
      49     71.87    -1.22282 ( 81.02%)    -0.94905 ( 18.98%)    -1.17087
      50     75.65    -1.19277 ( 83.98%)    -0.93386 ( 16.02%)    -1.15129
      51     77.78    -1.17657 ( 85.41%)    -0.92567 ( 14.59%)    -1.13996
      52     78.73    -1.16944 ( 86.01%)    -0.92206 ( 13.99%)    -1.13483
      53     84.19    -1.13021 ( 88.94%)    -0.90219 ( 11.06%)    -1.10498
      54     84.44    -1.12847 ( 89.05%)    -0.90131 ( 10.95%)    -1.10360
      55     85.17    -1.12345 ( 89.38%)    -0.89876 ( 10.62%)    -1.09959
      56     85.40    -1.12185 ( 89.49%)    -0.89796 ( 10.51%)    -1.09831
      57     86.30    -1.11573 ( 89.87%)    -0.89485 ( 10.13%)    -1.09336
      58     86.92    -1.11155 ( 90.13%)    -0.89273 (  9.87%)    -1.08996
      59     88.78    -1.09924 ( 90.86%)    -0.88648 (  9.14%)    -1.07979
      60     89.32    -1.09570 ( 91.06%)    -0.88469 (  8.94%)    -1.07683
      61     89.34    -1.09551 ( 91.07%)    -0.88459 (  8.93%)    -1.07667
      62     91.40    -1.08224 ( 91.78%)    -0.87785 (  8.22%)    -1.06544
      63     93.27    -1.07046 ( 92.37%)    -0.87186 (  7.63%)    -1.05531
      64     93.79    -1.06720 ( 92.53%)    -0.87020 (  7.47%)    -1.05248
      65     95.31    -1.05783 ( 92.96%)    -0.86543 (  7.04%)    -1.04428
      66     98.23    -1.04031 ( 93.71%)    -0.85652 (  6.29%)    -1.02875
      67    106.47    -0.99352 ( 95.36%)    -0.83264 (  4.64%)    -0.98606
      68    107.03    -0.99050 ( 95.45%)    -0.83110 (  4.55%)    -0.98325
      69    111.91    -0.96469 ( 96.17%)    -0.81789 (  3.83%)    -0.95906
      70    114.27    -0.95263 ( 96.46%)    -0.81171 (  3.54%)    -0.94764
      71    115.26    -0.94764 ( 96.58%)    -0.80915 (  3.42%)    -0.94291
      72    116.20    -0.94292 ( 96.69%)    -0.80672 (  3.31%)    -0.93840
      73    116.39    -0.94200 ( 96.71%)    -0.80625 (  3.29%)    -0.93753
      74    116.45    -0.94171 ( 96.71%)    -0.80610 (  3.29%)    -0.93725
      75    117.43    -0.93687 ( 96.82%)    -0.80362 (  3.18%)    -0.93263
      76    120.94    -0.91989 ( 97.16%)    -0.79489 (  2.84%)    -0.91634
      77    120.98    -0.91969 ( 97.17%)    -0.79479 (  2.83%)    -0.91615
      78    122.57    -0.91217 ( 97.31%)    -0.79092 (  2.69%)    -0.90891
      79    127.06    -0.89148 ( 97.66%)    -0.78026 (  2.34%)    -0.88887
      80    129.85    -0.87903 ( 97.85%)    -0.77383 (  2.15%)    -0.87677
      81    130.21    -0.87742 ( 97.87%)    -0.77300 (  2.13%)    -0.87520
      82    131.31    -0.87260 ( 97.94%)    -0.77051 (  2.06%)    -0.87050
      83    145.79    -0.81289 ( 98.64%)    -0.73953 (  1.36%)    -0.81189
      84    160.53    -0.75836 ( 99.07%)    -0.71100 (  0.93%)    -0.75791
      85    160.71    -0.75772 ( 99.07%)    -0.71067 (  0.93%)    -0.75729
      86    160.75    -0.75757 ( 99.07%)    -0.71058 (  0.93%)    -0.75713
      87    160.88    -0.75711 ( 99.08%)    -0.71034 (  0.92%)    -0.75668
      88    161.00    -0.75670 ( 99.08%)    -0.71013 (  0.92%)    -0.75627
      89    161.39    -0.75534 ( 99.09%)    -0.70941 (  0.91%)    -0.75492
      90    162.58    -0.75121 ( 99.11%)    -0.70724 (  0.89%)    -0.75082
      91    165.07    -0.74267 ( 99.17%)    -0.70274 (  0.83%)    -0.74233
      92    165.29    -0.74189 ( 99.17%)    -0.70233 (  0.83%)    -0.74157
      93    165.45    -0.74135 ( 99.17%)    -0.70205 (  0.83%)    -0.74102
      94    165.74    -0.74038 ( 99.18%)    -0.70153 (  0.82%)    -0.74006
      95    165.78    -0.74025 ( 99.18%)    -0.70146 (  0.82%)    -0.73993
      96    166.16    -0.73895 ( 99.19%)    -0.70078 (  0.81%)    -0.73864
      97    166.27    -0.73859 ( 99.19%)    -0.70059 (  0.81%)    -0.73828
      98    178.30    -0.69949 ( 99.39%)    -0.67989 (  0.61%)    -0.69937
      99    178.88    -0.69770 ( 99.39%)    -0.67894 (  0.61%)    -0.69759
     100    179.72    -0.69509 ( 99.40%)    -0.67755 (  0.60%)    -0.69499
     101    181.68    -0.68904 ( 99.43%)    -0.67433 (  0.57%)    -0.68896
     102    183.70    -0.68292 ( 99.45%)    -0.67106 (  0.55%)    -0.68285
     103    183.95    -0.68216 ( 99.46%)    -0.67066 (  0.54%)    -0.68210
     104    184.07    -0.68179 ( 99.46%)    -0.67046 (  0.54%)    -0.68173
     105    184.24    -0.68126 ( 99.46%)    -0.67018 (  0.54%)    -0.68120
     106    184.34    -0.68099 ( 99.46%)    -0.67003 (  0.54%)    -0.68093
     107    184.63    -0.68010 ( 99.47%)    -0.66956 (  0.53%)    -0.68004
     108    185.09    -0.67871 ( 99.47%)    -0.66882 (  0.53%)    -0.67866
     109    185.26    -0.67821 ( 99.47%)    -0.66855 (  0.53%)    -0.67816
     110    186.12    -0.67565 ( 99.48%)    -0.66718 (  0.52%)    -0.67561
     111    187.63    -0.67117 ( 99.50%)    -0.66479 (  0.50%)    -0.67114
     112    194.95    -0.65005 ( 99.57%)    -0.65345 (  0.43%)    -0.65006
     113    197.02    -0.64422 ( 99.59%)    -0.65031 (  0.41%)    -0.64424
     114    197.59    -0.64263 ( 99.59%)    -0.64946 (  0.41%)    -0.64265
     115    201.14    -0.63285 ( 99.62%)    -0.64418 (  0.38%)    -0.63290
     116    203.04    -0.62771 ( 99.63%)    -0.64140 (  0.37%)    -0.62776
     117    203.69    -0.62596 ( 99.64%)    -0.64045 (  0.36%)    -0.62601
     118    203.73    -0.62587 ( 99.64%)    -0.64040 (  0.36%)    -0.62592
     119    203.88    -0.62547 ( 99.64%)    -0.64019 (  0.36%)    -0.62552
     120    204.42    -0.62401 ( 99.64%)    -0.63940 (  0.36%)    -0.62406
     121    204.46    -0.62389 ( 99.64%)    -0.63933 (  0.36%)    -0.62395
     122    204.53    -0.62372 ( 99.64%)    -0.63924 (  0.36%)    -0.62378
     123    205.50    -0.62113 ( 99.65%)    -0.63783 (  0.35%)    -0.62118
     124    207.12    -0.61683 ( 99.66%)    -0.63550 (  0.34%)    -0.61690
     125    208.24    -0.61391 ( 99.67%)    -0.63392 (  0.33%)    -0.61398
     126    208.36    -0.61359 ( 99.67%)    -0.63374 (  0.33%)    -0.61365
     127    209.22    -0.61133 ( 99.67%)    -0.63251 (  0.33%)    -0.61140
     128    209.49    -0.61064 ( 99.68%)    -0.63214 (  0.32%)    -0.61071
     129    213.15    -0.60124 ( 99.70%)    -0.62701 (  0.30%)    -0.60132
     130    214.25    -0.59843 ( 99.70%)    -0.62548 (  0.30%)    -0.59851
     131    215.73    -0.59471 ( 99.71%)    -0.62345 (  0.29%)    -0.59479
     132    215.85    -0.59441 ( 99.71%)    -0.62328 (  0.29%)    -0.59449
     133    216.02    -0.59397 ( 99.71%)    -0.62304 (  0.29%)    -0.59405
     134    216.93    -0.59169 ( 99.72%)    -0.62179 (  0.28%)    -0.59177
     135    217.52    -0.59022 ( 99.72%)    -0.62099 (  0.28%)    -0.59031
     136    218.51    -0.58777 ( 99.73%)    -0.61965 (  0.27%)    -0.58785
     137    218.74    -0.58721 ( 99.73%)    -0.61934 (  0.27%)    -0.58730
     138    219.59    -0.58512 ( 99.73%)    -0.61819 (  0.27%)    -0.58521
     139    220.54    -0.58277 ( 99.74%)    -0.61691 (  0.26%)    -0.58286
     140    221.16    -0.58127 ( 99.74%)    -0.61608 (  0.26%)    -0.58136
     141    221.30    -0.58092 ( 99.74%)    -0.61589 (  0.26%)    -0.58101
     142    221.73    -0.57988 ( 99.74%)    -0.61532 (  0.26%)    -0.57997
     143    224.03    -0.57432 ( 99.75%)    -0.61226 (  0.25%)    -0.57442
     144    226.40    -0.56866 ( 99.76%)    -0.60914 (  0.24%)    -0.56876
     145    226.86    -0.56758 ( 99.76%)    -0.60854 (  0.24%)    -0.56767
     146    227.58    -0.56588 ( 99.77%)    -0.60761 (  0.23%)    -0.56598
     147    229.60    -0.56113 ( 99.78%)    -0.60498 (  0.22%)    -0.56123
     148    232.58    -0.55424 ( 99.79%)    -0.60116 (  0.21%)    -0.55434
     149    240.37    -0.53670 ( 99.81%)    -0.59140 (  0.19%)    -0.53680
     150    258.40    -0.49868 ( 99.86%)    -0.56998 (  0.14%)    -0.49878
     151    258.62    -0.49822 ( 99.86%)    -0.56972 (  0.14%)    -0.49832
     152    258.87    -0.49773 ( 99.86%)    -0.56944 (  0.14%)    -0.49783
     153    259.01    -0.49745 ( 99.86%)    -0.56928 (  0.14%)    -0.49755
     154    259.06    -0.49734 ( 99.86%)    -0.56922 (  0.14%)    -0.49744
     155    259.34    -0.49677 ( 99.86%)    -0.56890 (  0.14%)    -0.49687
     156    259.40    -0.49666 ( 99.86%)    -0.56883 (  0.14%)    -0.49676
     157    270.92    -0.47415 ( 99.88%)    -0.55596 (  0.12%)    -0.47425
     158    273.97    -0.46840 ( 99.89%)    -0.55264 (  0.11%)    -0.46849
     159    278.59    -0.45983 ( 99.90%)    -0.54769 (  0.10%)    -0.45992
     160    284.02    -0.45001 ( 99.90%)    -0.54197 (  0.10%)    -0.45009
     161    287.28    -0.44422 ( 99.91%)    -0.53859 (  0.09%)    -0.44430
     162    289.99    -0.43948 ( 99.91%)    -0.53581 (  0.09%)    -0.43956
     163    295.73    -0.42961 ( 99.92%)    -0.53000 (  0.08%)    -0.42969
     164    295.90    -0.42934 ( 99.92%)    -0.52983 (  0.08%)    -0.42942
     165    299.10    -0.42395 ( 99.92%)    -0.52665 (  0.08%)    -0.42403
   ------------------------------------------------------------------------

   temp. (K)  partition function   enthalpy   heat capacity  entropy
                                   cal/mol     cal/K/mol   cal/K/mol   J/K/mol
 298.15  VIB  0.145+100           109161.684    680.409    707.346
         ROT  0.262E+11              888.752      2.981     50.651
         INT  0.378+110           110050.436    683.390    757.997
         TR   0.161E+30             1481.254      4.968     49.857
         TOT                      111531.6899   688.3577   807.8538  3380.0601

       T/K    H(0)-H(T)+PV         H(T)/Eh          T*S/Eh         G(T)/Eh
   ------------------------------------------------------------------------
    298.15    0.177737E+00    0.207829E+01    0.383837E+00    0.169445E+01
   ------------------------------------------------------------------------

         :::::::::::::::::::::::::::::::::::::::::::::::::::::
         ::                  THERMODYNAMIC                  ::
         :::::::::::::::::::::::::::::::::::::::::::::::::::::
         :: total free energy        -520.590971123800 Eh   ::
         ::.................................................::
         :: total energy             -522.285421449271 Eh   ::
         :: zero point energy           1.900550650900 Eh   ::
         :: G(RRHO) w/o ZPVE           -0.206100325429 Eh   ::
         :: G(RRHO) contrib.            1.694450325471 Eh   ::
         :::::::::::::::::::::::::::::::::::::::::::::::::::::
imag cut-off (cm-1) :    5.00
 found            3  significant imaginary frequencies
 writing imag mode distorted coords to xtbhess.xyz
 for further optimization.

optimized geometry written to: xtbopt.xyz


           -------------------------------------------------
          | TOTAL ENERGY             -522.285421449271 Eh   |
          | TOTAL ENTHALPY           -520.207133737083 Eh   |
          | TOTAL FREE ENERGY        -520.590971123800 Eh   |
          | GRADIENT NORM               0.000551690586 Eh/α |
          | HOMO-LUMO GAP               0.000122601379 eV   |
           -------------------------------------------------

------------------------------------------------------------------------
 * finished run on 2021/11/20 at 21:28:36.904     
------------------------------------------------------------------------
 total:
 * wall-time:     0 d,  2 h, 23 min, 34.247 sec
 *  cpu-time:     0 d,  2 h, 23 min, 34.368 sec
 * ratio c/w:     1.000 speedup
 SCF:
 * wall-time:     0 d,  0 h,  0 min, 18.118 sec
 *  cpu-time:     0 d,  0 h,  0 min, 18.118 sec
 * ratio c/w:     1.000 speedup
 ANC optimizer:
 * wall-time:     0 d,  0 h, 11 min, 43.460 sec
 *  cpu-time:     0 d,  0 h, 11 min, 43.467 sec
 * ratio c/w:     1.000 speedup
 analytical hessian:
 * wall-time:     0 d,  2 h, 11 min, 32.199 sec
 *  cpu-time:     0 d,  2 h, 11 min, 32.314 sec
 * ratio c/w:     1.000 speedup

