283
 energy: -519.581342152269 gnorm: 2.219654157668 xtb: 6.4.1 (bd6e46d)
Cu       35.14570000000000    0.03885600000000   -0.01261500000000
C        37.47469100000001   -3.10793700000000    1.31007400000000
C        38.39079900000000   -2.16373000000000    1.25979200000000
C        37.97961900000000   -1.10982600000000    0.33850000000000
C        38.59849000000000    0.01452000000000   -0.00791000000000
C        37.89444700000000    1.23446800000000   -0.37201500000000
C        38.22255800000000    2.19452300000000   -1.21948800000000
C        37.18777800000001    3.21080900000000   -1.23638600000000
C        36.25151000000000    2.83434700000000   -0.38949500000000
N        36.65350000000000    1.60133600000000    0.17432300000000
C        34.99043600000001    3.47934600000000   -0.01034300000000
C        33.89521800000000    2.84456400000000    0.34041700000000
C        32.82159300000000    3.16251900000000    1.30944600000000
C        31.98403000000000    2.16576600000000    1.23227900000000
C        32.42232800000000    1.16208300000000    0.25182700000000
N        33.52726600000000    1.60093600000000   -0.23246500000000
C        31.81149300000000   -0.09118800000000   -0.16172100000000
C        32.47565300000000   -1.19569500000000   -0.41614500000000
C        32.10180500000000   -2.25863700000000   -1.37367300000000
C        33.05055200000000   -3.15239200000000   -1.28465300000000
C        34.03627600000000   -2.71494200000000   -0.30177600000000
N        33.68323000000000   -1.56913700000000    0.19502200000000
C        35.26716400000000   -3.37101300000000    0.14394600000000
C        36.39020500000000   -2.72515100000000    0.41106700000000
N        36.71880500000000   -1.47771000000000   -0.18733700000000
H        37.53495300000000   -4.01771800000000    1.92762100000000
H        39.30712600000000   -2.20367900000000    1.83784100000000
H        39.14992300000000    2.21131900000000   -1.82063200000000
H        37.20467700000000    4.11549700000000   -1.84900800000000
H        34.94271300000000    4.57414900000000   -0.01412000000000
H        32.76877100000000    4.04124400000000    1.93443800000000
H        31.07240000000000    2.13009600000000    1.84960300000000
H        30.71324200000000   -0.08827800000000   -0.26099100000000
H        31.23294900000000   -2.31110100000000   -2.02262300000000
H        33.04770600000000   -4.06870100000000   -1.88341300000000
H        35.23168100000000   -4.46681400000000    0.25587000000000
Cu      132.35036700000001   -0.00852000000000   -0.01704700000000
C       130.02137600000000    2.83827200000000    1.86645700000000
C       129.10526899999999    1.91978200000000    1.64188400000000
C       129.51644899999999    1.05508500000000    0.54107000000000
C       128.89757800000001    0.01452000000000   -0.00791000000000
C       129.60162099999999   -1.11670500000000   -0.59201300000000
C       129.27350999999999   -1.90287600000000   -1.60287900000000
C       130.30829000000000   -2.89838600000000   -1.80801900000000
C       131.24455800000001   -2.68556900000000   -0.90598900000000
N       130.84256700000000   -1.57855700000000   -0.12321800000000
C       132.50563199999999   -3.38971000000000   -0.65307600000000
C       133.60084900000001   -2.83101800000000   -0.19064300000000
C       134.67447500000000   -3.32322300000000    0.70257900000000
C       135.51203799999999   -2.32945600000000    0.81166400000000
C       135.07373999999999   -1.16130700000000    0.03442900000000
N       133.96880200000001   -1.50269900000000   -0.52287000000000
C       135.68457500000000    0.14692800000000   -0.13944000000000
C       135.02041399999999    1.27946100000000   -0.18454700000000
C       135.39426300000000    2.50158700000000   -0.92826200000000
C       134.44551600000000    3.36331400000000   -0.67498300000000
C       133.45979199999999    2.75112000000000    0.20968000000000
N       133.81283800000000    1.53304100000000    0.48529000000000
C       132.22890400000000    3.31311400000000    0.76937500000000
C       131.10586300000000    2.62890900000000    0.91204200000000
N       130.77726300000000    1.51413400000000    0.09260800000000
H       129.96111500000001    3.61769600000000    2.64206100000000
H       128.18894200000000    1.85180200000000    2.21730900000000
H       128.34614500000001   -1.80785900000000   -2.19670400000000
H       130.29139100000000   -3.67372000000000   -2.57783900000000
H       132.55335500000001   -4.46480800000000   -0.85988900000000
H       134.72729600000000   -4.30264000000000    1.15370600000000
H       136.42366799999999   -2.40892800000000    1.42489000000000
H       136.78282500000000    0.16248400000000   -0.23752800000000
H       136.26311899999999    2.67353100000000   -1.55621400000000
H       134.44836200000000    4.37479600000000   -1.09336100000000
H       132.26438600000000    4.36913100000000    1.08264400000000
C        41.57050100000001    0.02565100000000   -0.00386800000000
C        42.78603400000000    0.00030800000000   -0.01434800000000
C        44.20755100000001   -0.02111600000000   -0.01852400000000
C        45.41611300000000   -0.02332600000000   -0.01841800000000
C        46.83718800000000   -0.00436700000000   -0.01904600000000
C        48.04833000000000    0.02565100000000   -0.00386800000000
C        57.14567700000001    0.02565100000000   -0.00386800000000
C        58.36121000000000    0.00030800000000   -0.01434800000000
C        59.78272700000001   -0.02111600000000   -0.01852400000000
C        60.99128800000000   -0.02332600000000   -0.01841800000000
C        62.41236400000000   -0.00436700000000   -0.01904600000000
C        63.62350600000000    0.02565100000000   -0.00386800000000
C        72.72085199999999    0.02565100000000   -0.00386800000000
C        73.93638500000000    0.00030800000000   -0.01434800000000
C        75.35790200000000   -0.02111600000000   -0.01852400000000
C        76.56646400000000   -0.02332600000000   -0.01841800000000
C        77.98753900000000   -0.00436700000000   -0.01904600000000
C        79.19868099999999    0.02565100000000   -0.00386800000000
C        88.29602800000001    0.02565100000000   -0.00386800000000
C        89.51156100000001    0.00030800000000   -0.01434800000000
C        90.93307800000001   -0.02111600000000   -0.01852400000000
C        92.14163900000000   -0.02332600000000   -0.01841800000000
C        93.56271500000000   -0.00436700000000   -0.01904600000000
C        94.77385700000001    0.02565100000000   -0.00386800000000
C       103.87120299999999    0.02565100000000   -0.00386800000000
C       105.08673600000000    0.00030800000000   -0.01434800000000
C       106.50825300000000   -0.02111600000000   -0.01852400000000
C       107.71681500000000   -0.02332600000000   -0.01841800000000
C       109.13789000000001   -0.00436700000000   -0.01904600000000
C       110.34903199999999    0.02565100000000   -0.00386800000000
C       119.44637900000001    0.02565100000000   -0.00386800000000
C       120.66191200000000    0.00030800000000   -0.01434800000000
C       122.08342900000001   -0.02111600000000   -0.01852400000000
C       123.29199000000000   -0.02332600000000   -0.01841800000000
C       124.71306600000000   -0.00436700000000   -0.01904600000000
C       125.92420800000001    0.02565100000000   -0.00386800000000
Cu       52.63692000000000    0.03726900000000    0.00096000000000
C        50.35711000000001   -3.22417900000000   -0.90870600000000
C        49.40090000000000   -2.32482800000000   -1.01073200000000
C        49.79327400000000   -1.16252400000000   -0.20821600000000
C        49.15815800000000   -0.01125100000000    0.00405000000000
C        49.84361500000000    1.26334900000000    0.23027900000000
C        49.50832500000000    2.34194900000000    0.93452000000000
C        50.53286600000000    3.36126500000000    0.84393800000000
C        51.48346300000001    2.86434100000000    0.07057300000000
N        51.10646900000000    1.54773600000000   -0.34557000000000
C        52.73060300000000    3.47604200000000   -0.34629200000000
C        53.83215500000000    2.80878500000000   -0.67806400000000
C        54.82570100000001    3.06077000000000   -1.71223400000000
C        55.71958400000000    2.09991000000000   -1.61075000000000
C        55.33988600000001    1.18802700000000   -0.50677300000000
N        54.24497100000000    1.63734500000000    0.00059400000000
C        55.99709300000000   -0.01125100000000    0.00405000000000
C        55.37368200000001   -1.08043300000000    0.46556700000000
C        55.75239400000001   -2.01254800000000    1.54104200000000
C        54.81172600000000   -2.92669400000000    1.62690800000000
C        53.80342400000000   -2.63091600000000    0.62948100000000
N        54.14119900000000   -1.57753800000000   -0.01981400000000
C        52.55103100000000   -3.33792300000000    0.29828800000000
C        51.43715400000000   -2.74122600000000   -0.04905300000000
N        51.05504200000001   -1.45846900000000    0.36862900000000
H        50.35745400000000   -4.21525300000000   -1.39994000000000
H        48.49236600000000   -2.44652300000000   -1.59188000000000
H        48.58347300000000    2.46030000000000    1.51144500000000
H        50.56016100000000    4.35043000000000    1.30058800000000
H        52.81654300000001    4.57342000000000   -0.40831500000000
H        54.85837300000000    3.86698600000000   -2.43905800000000
H        56.61264600000001    1.98694200000000   -2.24452400000000
H        56.66714400000000   -1.93814200000000    2.15121200000000
H        54.83077200000000   -3.74030300000000    2.33517600000000
H        52.58951500000001   -4.43788200000000    0.35732400000000
Cu       68.21209600000000    0.03726900000000    0.00096000000000
C        65.93228499999999   -3.22417900000000   -0.90870600000000
C        64.97607600000001   -2.32482800000000   -1.01073200000000
C        65.36845000000000   -1.16252400000000   -0.20821600000000
C        64.73333300000000   -0.01125100000000    0.00405000000000
C        65.41879000000000    1.26334900000000    0.23027900000000
C        65.08350000000000    2.34194900000000    0.93452000000000
C        66.10804200000000    3.36126500000000    0.84393800000000
C        67.05863900000000    2.86434100000000    0.07057300000000
N        66.68164500000000    1.54773600000000   -0.34557000000000
C        68.30577800000000    3.47604200000000   -0.34629200000000
C        69.40733000000000    2.80878500000000   -0.67806400000000
C        70.40087699999999    3.06077000000000   -1.71223400000000
C        71.29476000000000    2.09991000000000   -1.61075000000000
C        70.91506200000001    1.18802700000000   -0.50677300000000
N        69.82014599999999    1.63734500000000    0.00059400000000
C        71.57226900000002   -0.01125100000000    0.00405000000000
C        70.94885700000000   -1.08043300000000    0.46556700000000
C        71.32756999999999   -2.01254800000000    1.54104200000000
C        70.38690099999999   -2.92669400000000    1.62690800000000
C        69.37860000000002   -2.63091600000000    0.62948100000000
N        69.71637500000001   -1.57753800000000   -0.01981400000000
C        68.12620699999999   -3.33792300000000    0.29828800000000
C        67.01233000000001   -2.74122600000000   -0.04905300000000
N        66.63021800000000   -1.45846900000000    0.36862900000000
H        65.93263000000000   -4.21525300000000   -1.39994000000000
H        64.06754100000001   -2.44652300000000   -1.59188000000000
H        64.15864800000000    2.46030000000000    1.51144500000000
H        66.13533600000000    4.35043000000000    1.30058800000000
H        68.39171800000000    4.57342000000000   -0.40831500000000
H        70.43354900000000    3.86698600000000   -2.43905800000000
H        72.18782100000000    1.98694200000000   -2.24452400000000
H        72.24232000000001   -1.93814200000000    2.15121200000000
H        70.40594800000001   -3.74030300000000    2.33517600000000
H        68.16469100000000   -4.43788200000000    0.35732400000000
Cu       83.78727100000000    0.03726900000000    0.00096000000000
C        81.50746100000001   -3.22417900000000   -0.90870600000000
C        80.55125099999999   -2.32482800000000   -1.01073200000000
C        80.94362500000001   -1.16252400000000   -0.20821600000000
C        80.30850900000002   -0.01125100000000    0.00405000000000
C        80.99396600000000    1.26334900000000    0.23027900000000
C        80.65867600000001    2.34194900000000    0.93452000000000
C        81.68321700000000    3.36126500000000    0.84393800000000
C        82.63381400000000    2.86434100000000    0.07057300000000
N        82.25682000000000    1.54773600000000   -0.34557000000000
C        83.88095400000000    3.47604200000000   -0.34629200000000
C        84.98250600000000    2.80878500000000   -0.67806400000000
C        85.97605200000000    3.06077000000000   -1.71223400000000
C        86.86993500000001    2.09991000000000   -1.61075000000000
C        86.49023699999999    1.18802700000000   -0.50677300000000
N        85.39532199999999    1.63734500000000    0.00059400000000
C        87.14744399999999   -0.01125100000000    0.00405000000000
C        86.52403300000002   -1.08043300000000    0.46556700000000
C        86.90274500000001   -2.01254800000000    1.54104200000000
C        85.96207700000001   -2.92669400000000    1.62690800000000
C        84.95377499999999   -2.63091600000000    0.62948100000000
N        85.29155000000000   -1.57753800000000   -0.01981400000000
C        83.70138200000001   -3.33792300000000    0.29828800000000
C        82.58750499999999   -2.74122600000000   -0.04905300000000
N        82.20539300000002   -1.45846900000000    0.36862900000000
H        81.50780500000000   -4.21525300000000   -1.39994000000000
H        79.64271700000000   -2.44652300000000   -1.59188000000000
H        79.73382400000001    2.46030000000000    1.51144500000000
H        81.71051199999999    4.35043000000000    1.30058800000000
H        83.96689400000001    4.57342000000000   -0.40831500000000
H        86.00872400000000    3.86698600000000   -2.43905800000000
H        87.76299700000000    1.98694200000000   -2.24452400000000
H        87.81749600000002   -1.93814200000000    2.15121200000000
H        85.98112300000000   -3.74030300000000    2.33517600000000
H        83.73986700000000   -4.43788200000000    0.35732400000000
Cu       99.36244700000000    0.03726900000000    0.00096000000000
C        97.08263599999999   -3.22417900000000   -0.90870600000000
C        96.12642700000001   -2.32482800000000   -1.01073200000000
C        96.51880100000000   -1.16252400000000   -0.20821600000000
C        95.88368500000000   -0.01125100000000    0.00405000000000
C        96.56914200000001    1.26334900000000    0.23027900000000
C        96.23385100000000    2.34194900000000    0.93452000000000
C        97.25839300000000    3.36126500000000    0.84393800000000
C        98.20899000000000    2.86434100000000    0.07057300000000
N        97.83199600000000    1.54773600000000   -0.34557000000000
C        99.45613000000000    3.47604200000000   -0.34629200000000
C       100.55768100000000    2.80878500000000   -0.67806400000000
C       101.55122800000001    3.06077000000000   -1.71223400000000
C       102.44511100000000    2.09991000000000   -1.61075000000000
C       102.06541300000002    1.18802700000000   -0.50677300000000
N       100.97049699999999    1.63734500000000    0.00059400000000
C       102.72262000000001   -0.01125100000000    0.00405000000000
C       102.09920800000000   -1.08043300000000    0.46556700000000
C       102.47792099999999   -2.01254800000000    1.54104200000000
C       101.53725200000000   -2.92669400000000    1.62690800000000
C       100.52895100000001   -2.63091600000000    0.62948100000000
N       100.86672600000000   -1.57753800000000   -0.01981400000000
C        99.27655799999999   -3.33792300000000    0.29828800000000
C        98.16268100000001   -2.74122600000000   -0.04905300000000
N        97.78056900000000   -1.45846900000000    0.36862900000000
H        97.08298100000000   -4.21525300000000   -1.39994000000000
H        95.21789300000000   -2.44652300000000   -1.59188000000000
H        95.30899900000000    2.46030000000000    1.51144500000000
H        97.28568700000000    4.35043000000000    1.30058800000000
H        99.54206900000000    4.57342000000000   -0.40831500000000
H       101.58390000000000    3.86698600000000   -2.43905800000000
H       103.33817200000000    1.98694200000000   -2.24452400000000
H       103.39267100000001   -1.93814200000000    2.15121200000000
H       101.55629900000000   -3.74030300000000    2.33517600000000
H        99.31504200000002   -4.43788200000000    0.35732400000000
Cu      114.93762200000000    0.03726900000000    0.00096000000000
C       112.65781200000001   -3.22417900000000   -0.90870600000000
C       111.70160199999999   -2.32482800000000   -1.01073200000000
C       112.09397700000001   -1.16252400000000   -0.20821600000000
C       111.45886000000000   -0.01125100000000    0.00405000000000
C       112.14431700000000    1.26334900000000    0.23027900000000
C       111.80902700000000    2.34194900000000    0.93452000000000
C       112.83356800000000    3.36126500000000    0.84393800000000
C       113.78416500000002    2.86434100000000    0.07057300000000
N       113.40717100000002    1.54773600000000   -0.34557000000000
C       115.03130500000000    3.47604200000000   -0.34629200000000
C       116.13285700000002    2.80878500000000   -0.67806400000000
C       117.12640300000000    3.06077000000000   -1.71223400000000
C       118.02028600000000    2.09991000000000   -1.61075000000000
C       117.64058799999999    1.18802700000000   -0.50677300000000
N       116.54567300000001    1.63734500000000    0.00059400000000
C       118.29779500000001   -0.01125100000000    0.00405000000000
C       117.67438400000000   -1.08043300000000    0.46556700000000
C       118.05309600000000   -2.01254800000000    1.54104200000000
C       117.11242799999999   -2.92669400000000    1.62690800000000
C       116.10412600000001   -2.63091600000000    0.62948100000000
N       116.44190100000000   -1.57753800000000   -0.01981400000000
C       114.85173300000000   -3.33792300000000    0.29828800000000
C       113.73785700000001   -2.74122600000000   -0.04905300000000
N       113.35574400000000   -1.45846900000000    0.36862900000000
H       112.65815600000002   -4.21525300000000   -1.39994000000000
H       110.79306800000002   -2.44652300000000   -1.59188000000000
H       110.88417500000000    2.46030000000000    1.51144500000000
H       112.86086300000001    4.35043000000000    1.30058800000000
H       115.11724500000000    4.57342000000000   -0.40831500000000
H       117.15907600000000    3.86698600000000   -2.43905800000000
H       118.91334800000001    1.98694200000000   -2.24452400000000
H       118.96784700000001   -1.93814200000000    2.15121200000000
H       117.13147400000000   -3.74030300000000    2.33517600000000
H       114.89021800000000   -4.43788200000000    0.35732400000000
283
 energy: -520.549045928332 gnorm: 0.977384806002 xtb: 6.4.1 (bd6e46d)
Cu       35.14932150890196    0.03902572427635   -0.01201493888883
C        37.47288612578358   -3.11385438098731    1.30744420950941
C        38.39750009880946   -2.16180967935464    1.25980845302857
C        37.97470444796661   -1.11272877208104    0.34144072104794
C        38.58985344381181    0.02481593065999   -0.01166707506231
C        37.88853746215766    1.22831587210937   -0.36400692739727
C        38.22874424030280    2.21110106532037   -1.23141520370529
C        37.20535297640777    3.21194537434588   -1.24632882994289
C        36.24489676728645    2.82220170830259   -0.38221687497655
N        36.64178749692936    1.59365997205784    0.17637431956069
C        35.00100339128994    3.48141869123879   -0.01171596443504
C        33.88630619658653    2.83624145107059    0.34180080662129
C        32.82584427850193    3.16812176674615    1.30263639364856
C        31.97074466840734    2.15945637977342    1.23557205783050
C        32.41776767310253    1.16327665617249    0.25918313283112
N        33.54363834036958    1.59440820445847   -0.22915533780756
C        31.80466723252761   -0.07924745698214   -0.15870040370711
C        32.47841526841870   -1.20112671682166   -0.41872222919604
C        32.09616575590574   -2.25551478135505   -1.36839512778655
C        33.05601055685668   -3.16321266972715   -1.28516504380536
C        34.04153583676922   -2.72113592513961   -0.30470213776315
N        33.68705076570494   -1.55780147017170    0.18722919013830
C        35.25573824277190   -3.37604404865158    0.14024489130294
C        36.39692128855170   -2.71595456279190    0.41050415197747
N        36.71716741939456   -1.47756736599067   -0.17623503430963
H        37.53230236122731   -4.01504457793537    1.92461158299895
H        39.30793654522580   -2.20052146160262    1.83658017800795
H        39.14746771346525    2.21350895899074   -1.82030998145039
H        37.20635585798374    4.11374356651671   -1.84879937905664
H        34.94725048367163    4.57297217148137   -0.01189190581816
H        32.77077445869472    4.04060939332718    1.93288713140811
H        31.07245556578310    2.12713580081984    1.84830323139295
H        30.71489057391232   -0.08625805650113   -0.26305559823532
H        31.23389399566517   -2.30803172486783   -2.02023408400044
H        33.05115995507612   -4.06878369053360   -1.88168905852943
H        35.23031581031501   -4.46463419408803    0.25674468373807
Cu      132.34674792421822   -0.00880908524327   -0.01648051029994
C       130.02319992101968    2.84455835806293    1.86498871024608
C       129.09854616301715    1.91790611539318    1.64151375644267
C       129.52131746031972    1.05750910465978    0.54445197235463
C       128.90588764761861    0.00509004828539   -0.01340057198888
C       129.60752361667394   -1.11211865568856   -0.58306444680713
C       129.26733966335826   -1.91693892470762   -1.61764566055029
C       130.29074525846383   -2.89768724473270   -1.81797924101477
C       131.25116387741627   -2.67502812140745   -0.89659403077581
N       130.85423094523358   -1.57134753027976   -0.11982755893497
C       132.49504975022509   -3.39149409690469   -0.65482384413140
C       133.60976859543740   -2.82307562216344   -0.18773585800542
C       134.67021598528038   -3.32745171871082    0.69485900642318
C       135.52534097390327   -2.32387110865712    0.81604734227024
C       135.07831828257514   -1.16382538519755    0.04143226776283
N       133.95240741777539   -1.49692728784756   -0.51839311353801
C       135.69140159929481    0.13460185834221   -0.13867046528920
C       135.01762376288841    1.28529500922777   -0.18607104076606
C       135.39988411834508    2.49753146939694   -0.92366937019199
C       134.44005926842448    3.37405737958145   -0.67345957780857
C       133.45453086939426    2.75776900338113    0.20796401031370
N       133.80904928957631    1.52332781975709    0.47552175786384
C       132.24034548817383    3.31873967841570    0.76665160529664
C       131.09914789846906    2.61992986869250    0.90983203578533
N       130.77891490158424    1.51192645023312    0.10349775545965
H       129.96376834793310    3.61562375139469    2.63860690649074
H       128.18812843801118    1.84893937730320    2.21549044846139
H       128.34859584838830   -1.81007486034717   -2.19679769564168
H       130.28971448838240   -3.67203720642862   -2.57731180200203
H       132.54882078359307   -4.46406385231729   -0.85749581823295
H       134.72529189301122   -4.30172777387301    1.15230000753629
H       136.42361314071638   -2.40577669366429    1.42416226396092
H       136.78117733857823    0.16088075156557   -0.23991423015067
H       136.26217149492331    2.67007130875954   -1.55443568798951
H       134.44490642567510    4.37455877763575   -1.09165084998075
H       132.26574021638518    4.36683630191647    1.08306350937315
C        41.56880986963694    0.02554934420823   -0.00360114983813
C        42.79591276048938    0.00004037152150   -0.01431686741218
C        44.19592148302304   -0.02073559458498   -0.01856036535237
C        45.42274993255786   -0.02288605721762   -0.01843082015458
C        46.79310545744161   -0.00481463712954   -0.01890493826233
C        47.98355022918062    0.03238800818421   -0.00486942061132
C        57.20148145990153    0.03079988984523   -0.00358137128329
C        58.39869346599639   -0.00016034001232   -0.01404812319879
C        59.77329951606144   -0.02061456436938   -0.01894931640478
C        60.99907830763951   -0.02282866016208   -0.01843760836047
C        62.36841374746482   -0.00478967552474   -0.01891049041405
C        63.55876106545269    0.03233145515580   -0.00515016989997
C        72.77688943746564    0.03081795445581   -0.00344568538656
C        73.97344772920225   -0.00012560270187   -0.01404265907488
C        75.34880639075222   -0.02062202905430   -0.01897837349498
C        76.57393699592723   -0.02283582241132   -0.01842944084103
C        77.94392464726342   -0.00478185839586   -0.01891143392207
C        79.13377203331166    0.03232685496285   -0.00517745152158
C        88.35205182646123    0.03081785873418   -0.00343596136016
C        89.54864124439743   -0.00012313897673   -0.01404413760263
C        90.92396956214743   -0.02062175453501   -0.01898062713694
C        92.14912348731832   -0.02283576426268   -0.01843042105305
C        93.51909141480954   -0.00478344679310   -0.01890902850404
C        94.70895579194310    0.03232969167856   -0.00516830486446
C       103.92711379479951    0.03081224947660   -0.00347212464788
C       105.12402503520823   -0.00013403908676   -0.01404101455044
C       106.49895218957207   -0.02061917335038   -0.01897245626207
C       107.72450026168117   -0.02283307390083   -0.01843763986050
C       109.09400664915215   -0.00479178063192   -0.01890837220798
C       110.28423947279943    0.03231618690236   -0.00514413578365
C       119.50264445570794    0.03088048526019   -0.00337895456117
C       120.69895445852244   -0.00002745187629   -0.01390343256946
C       122.07642340637344   -0.02063205662304   -0.01895833556501
C       123.30209265052063   -0.02295679086254   -0.01861313616558
C       124.70350842476468   -0.00471201196121   -0.01885614769886
C       125.92650190805738    0.02540765323005   -0.00363457052168
Cu       52.63399129083014    0.03815538222749   -0.00015996748647
C        50.36000539651319   -3.23497849187136   -0.90708938516543
C        49.39766359652056   -2.32158304708204   -1.00853784746171
C        49.82339247627050   -1.18126844651161   -0.20959142689337
C        49.21888360348818   -0.00131703295623    0.00535987726910
C        49.86899356475188    1.26739511608933    0.22657251155816
C        49.50372144702705    2.35716343815380    0.94227782120853
C        50.51857346621069    3.36270402096924    0.85007692611223
C        51.49132889466978    2.85358651677262    0.06482758581817
N        51.11797746897080    1.54388558848317   -0.34149996625843
C        52.72241463062515    3.47817280959662   -0.34574510653277
C        53.83869956331205    2.80265944868553   -0.67869956511366
C        54.82558911349103    3.06612658436779   -1.70799391750669
C        55.72984717175827    2.09185872607448   -1.61089430242173
C        55.33300902313206    1.19322367392786   -0.51593425126415
N        54.22725756886428    1.63388172992286   -0.00307039459518
C        55.95483952922288   -0.00157464861147   -0.00114494107630
C        55.35082233781473   -1.09745361707902    0.47304484494359
C        55.75931146856681   -2.00765748387381    1.53739386567618
C        54.80763621640793   -2.93606707071737    1.62757675870398
C        53.79688085813962   -2.63956566591694    0.63454397340698
N        54.13550779406793   -1.56120543339593   -0.01866023690954
C        52.56472405666425   -3.34312534554694    0.30393643002086
C        51.42677228569804   -2.73350224024717   -0.05289103524406
N        51.05918973970209   -1.45550285603934    0.35769916116546
H        50.35896965670025   -4.21267626768664   -1.39818491250014
H        48.49303402171205   -2.44299388705177   -1.59029993720839
H        48.58433590965045    2.46086337397119    1.51120271669762
H        50.55698265554075    4.34790978101476    1.30105235316052
H        52.81135277956297    4.57120812514315   -0.41014956941093
H        54.85588429641276    3.86625997523177   -2.43655160089835
H        56.61128662426157    1.98503933400086   -2.24262421442882
H        56.66422483954022   -1.93635224996759    2.14802042693183
H        54.82835767102599   -3.74194041188268    2.33520915042309
H        52.59093521965367   -4.43624711739773    0.35637285064162
Cu       68.20898289239339    0.03820116851188   -0.00008535690490
C        65.93473478393484   -3.23502322427018   -0.90711364357493
C        64.97287553008300   -2.32199697367834   -1.00855357554292
C        65.39855563342938   -1.18103925281877   -0.20882817315307
C        64.79412620175347   -0.00174686127570    0.00522549902975
C        65.44449625905433    1.26772708219330    0.22624377953245
C        65.07906234901500    2.35714401325631    0.94240014807846
C        66.09370609739358    3.36287326527028    0.84998670493005
C        67.06661269411494    2.85376667584691    0.06479573322013
N        66.69264922088175    1.54387257108878   -0.34157836088973
C        68.29739643199042    3.47812377293905   -0.34555550367508
C        69.41404034417432    2.80248566693363   -0.67866223973493
C        70.40072273863998    3.06604432952196   -1.70807977161028
C        71.30509504129463    2.09187959667309   -1.61091125561482
C        70.90824313248497    1.19314339078702   -0.51608937510722
N        69.80245323777393    1.63408429405351   -0.00300248632823
C        71.52969430806863   -0.00170633144708   -0.00102041673464
C        70.92630832457817   -1.09719531953445    0.47304392202321
C        71.33473521318710   -2.00785227907910    1.53735197559729