      -----------------------------------------------------------      
     |                   =====================                   |     
     |                           x T B                           |     
     |                   =====================                   |     
     |                         S. Grimme                         |     
     |          Mulliken Center for Theoretical Chemistry        |     
     |                    University of Bonn                     |     
      -----------------------------------------------------------      

   * xtb version 6.4.1 (bd6e46d) compiled by 'conda@4901f00b25ba' on 2021-06-10

   xtb is free software: you can redistribute it and/or modify it under
   the terms of the GNU Lesser General Public License as published by
   the Free Software Foundation, either version 3 of the License, or
   (at your option) any later version.
   
   xtb is distributed in the hope that it will be useful,
   but WITHOUT ANY WARRANTY; without even the implied warranty of
   MERCHANTABILITY or FITNESS FOR A PARTICULAR PURPOSE.  See the
   GNU Lesser General Public License for more details.
   
   Cite this work as:
   * C. Bannwarth, E. Caldeweyher, S. Ehlert, A. Hansen, P. Pracht,
     J. Seibert, S. Spicher, S. Grimme, WIREs Comput. Mol. Sci., 2020, 11,
     e01493. DOI: 10.1002/wcms.1493
   
   for GFN2-xTB:
   * C. Bannwarth, S. Ehlert and S. Grimme., J. Chem. Theory Comput., 2019,
     15, 1652-1671. DOI: 10.1021/acs.jctc.8b01176
   for GFN1-xTB:
   * S. Grimme, C. Bannwarth, P. Shushkov, J. Chem. Theory Comput., 2017,
     13, 1989-2009. DOI: 10.1021/acs.jctc.7b00118
   for GFN0-xTB:
   * P. Pracht, E. Caldeweyher, S. Ehlert, S. Grimme, ChemRxiv, 2019, preprint.
     DOI: 10.26434/chemrxiv.8326202.v1
   for GFN-FF:
   * S. Spicher and S. Grimme, Angew. Chem. Int. Ed., 2020, 59, 15665-15673.
     DOI: 10.1002/anie.202004239
   
   for DFT-D4:
   * E. Caldeweyher, C. Bannwarth and S. Grimme, J. Chem. Phys., 2017,
     147, 034112. DOI: 10.1063/1.4993215
   * E. Caldeweyher, S. Ehlert, A. Hansen, H. Neugebauer, S. Spicher,
     C. Bannwarth and S. Grimme, J. Chem. Phys., 2019, 150, 154122.
     DOI: 10.1063/1.5090222
   * E. Caldeweyher, J.-M. Mewes, S. Ehlert and S. Grimme, Phys. Chem. Chem. Phys.
     2020, 22, 8499-8512. DOI: 10.1039/D0CP00502A
   
   for sTDA-xTB:
   * S. Grimme and C. Bannwarth, J. Chem. Phys., 2016, 145, 054103.
     DOI: 10.1063/1.4959605
   
   in the mass-spec context:
   * V. Asgeirsson, C. Bauer and S. Grimme, Chem. Sci., 2017, 8, 4879.
     DOI: 10.1039/c7sc00601b
   * J. Koopman and S. Grimme, ACS Omega 2019, 4, 12, 15120-15133.
     DOI: 10.1021/acsomega.9b02011
   
   for metadynamics refer to:
   * S. Grimme, J. Chem. Theory Comput., 2019, 155, 2847-2862
     DOI: 10.1021/acs.jctc.9b00143
   
   for SPH calculations refer to:
   * S. Spicher and S. Grimme, J. Chem. Theory Comput., 2021, 17, 1701-1714
     DOI: 10.1021/acs.jctc.0c01306
   
   with help from (in alphabetical order)
   P. Atkinson, C. Bannwarth, F. Bohle, G. Brandenburg, E. Caldeweyher
   M. Checinski, S. Dohm, S. Ehlert, S. Ehrlich, I. Gerasimov, J. Koopman
   C. Lavigne, S. Lehtola, F. März, M. Müller, F. Musil, H. Neugebauer
   J. Pisarek, C. Plett, P. Pracht, J. Seibert, P. Shushkov, S. Spicher
   M. Stahn, M. Steiner, T. Strunk, J. Stückrath, T. Rose, and J. Unsleber
   
 * started run on 2021/11/19 at 17:16:56.982     

           -------------------------------------------------
          |                Calculation Setup                |
           -------------------------------------------------

          program call               : /home/jeff/miniconda3/bin/xtb input_structure_1.xyz --gfn 2 --ohess normal --parallel 1 --etemp 300 --chrg 0 --uhf 0 -I det_control.in
          hostname                   : jelfscompute1
          coordinate file            : input_structure_1.xyz
          omp threads                :                     1
          number of atoms            :                   238
          number of electrons        :                   754
          charge                     :                     0
          spin                       :                   0.0
          first test random number   :      0.45924634200093

   ID    Z sym.   atoms
    1    6 C      1-8, 10-14, 16-20, 22, 23, 38-45, 47-51, 53-57, 59, 60,
                  75-102, 104-108, 110-114, 116, 117, 131-138, 140-144,
                  146-150, 152, 153, 167-174, 176-180, 182-186, 188, 189,
                  203-210, 212-216, 218-222, 224, 225
    2    7 N      9, 15, 21, 24, 46, 52, 58, 61, 103, 109, 115, 118, 139,
                  145, 151, 154, 175, 181, 187, 190, 211, 217, 223, 226
    3    1 H      25-37, 62-74, 119-130, 155-166, 191-202, 227-238

molecular fragmentation (1/2 indicates fragments):
111111111111111111111111111111111111122222222222222222222222222222222222
222222222222222222222222222222222222222222222222222222222222222222222222
222222222222222222222222222222222222222222222222222222222222222222222222
2222222222222222222222
# atoms in fragment 1/2:    37   201
 fragment masses (1/2) :      309.34     1782.91
CMA distance (Bohr)    :  73.121
constraining FC (au)   :  0.0500

           -------------------------------------------------
          |                 G F N 2 - x T B                 |
           -------------------------------------------------

        Reference                      10.1021/acs.jctc.8b01176
      * Hamiltonian:
        H0-scaling (s, p, d)           1.850000    2.230000    2.230000
        zeta-weighting                 0.500000
      * Dispersion:
        s8                             2.700000
        a1                             0.520000
        a2                             5.000000
        s9                             5.000000
      * Repulsion:
        kExp                           1.500000    1.000000
        rExp                           1.000000
      * Coulomb:
        alpha                          2.000000
        third order                    shell-resolved
        anisotropic                    true
        a3                             3.000000
        a5                             4.000000
        cn-shift                       1.200000
        cn-exp                         4.000000
        max-rad                        5.000000


          ...................................................
          :                      SETUP                      :
          :.................................................:
          :  # basis functions                 730          :
          :  # atomic orbitals                 730          :
          :  # shells                          402          :
          :  # electrons                       754          :
          :  max. iterations                   250          :
          :  Hamiltonian                  GFN2-xTB          :
          :  restarted?                      false          :
          :  GBSA solvation                  false          :
          :  PC potential                    false          :
          :  electronic temp.          300.0000000     K    :
          :  accuracy                    1.0000000          :
          :  -> integral cutoff          0.2500000E+02      :
          :  -> integral neglect         0.1000000E-07      :
          :  -> SCF convergence          0.1000000E-05 Eh   :
          :  -> wf. convergence          0.1000000E-03 e    :
          :  Broyden damping             0.4000000          :
          ...................................................

 iter      E             dE          RMSdq      gap      omega  full diag
   1   -413.0957811 -0.413096E+03  0.523E+00    0.03       0.0  T
   2   -413.0685234  0.272578E-01  0.359E+00    0.07       1.0  T
   3   -391.9012515  0.211673E+02  0.415E+00    0.02       1.0  T
   4   -272.1306207  0.119771E+03  0.808E+00    0.16       1.0  T
   5   -396.2747989 -0.124144E+03  0.365E+00    0.12       1.0  T
   6   -403.7444170 -0.746962E+01  0.320E+00    0.24       1.0  T
   7   -410.0837944 -0.633938E+01  0.216E+00    0.04       1.0  T
   8   -412.2670681 -0.218327E+01  0.169E+00    0.18       1.0  T
   9   -413.6636785 -0.139661E+01  0.110E+00    0.14       1.0  T
  10   -413.6747225 -0.110440E-01  0.898E-01    0.33       1.0  T
  11   -413.8354577 -0.160735E+00  0.762E-01    0.11       1.0  T
  12   -413.8550584 -0.196008E-01  0.584E-01    0.11       1.0  T
  13   -413.8487726  0.628582E-02  0.509E-01    0.02       1.0  T
  14   -413.9132694 -0.644968E-01  0.457E-01    0.07       1.0  T
  15   -413.9608056 -0.475362E-01  0.329E-01    0.05       1.0  T
  16   -413.9155773  0.452283E-01  0.358E-01    0.08       1.0  T
  17   -413.9616252 -0.460479E-01  0.237E-01    0.06       1.0  T
  18   -413.9704993 -0.887412E-02  0.174E-01    0.06       1.0  T
  19   -413.9715541 -0.105476E-02  0.147E-01    0.06       1.0  T
  20   -413.9774519 -0.589788E-02  0.909E-02    0.05       1.0  T
  21   -413.9808601 -0.340814E-02  0.520E-02    0.05       1.0  T
  22   -413.9812819 -0.421859E-03  0.632E-02    0.05       1.0  T
  23   -413.9814793 -0.197322E-03  0.603E-02    0.05       1.0  T
  24   -413.9817431 -0.263872E-03  0.547E-02    0.05       1.0  T
  25   -413.9822902 -0.547063E-03  0.384E-02    0.05       1.0  T
  26   -413.9824998 -0.209588E-03  0.288E-02    0.05       1.0  T
  27   -413.9825983 -0.985033E-04  0.245E-02    0.05       1.0  T
  28   -413.9826746 -0.762682E-04  0.183E-02    0.05       1.0  T
  29   -413.9827263 -0.517731E-04  0.137E-02    0.05       1.0  T
  30   -413.9827674 -0.410855E-04  0.734E-03    0.05       1.0  T
  31   -413.9827793 -0.118992E-04  0.322E-03    0.05       2.0  T
  32   -413.9827780  0.130280E-05  0.342E-03    0.05       1.9  T
  33   -413.9827840 -0.594500E-05  0.149E-03    0.04       4.3  T
  34   -413.9827843 -0.307407E-06  0.108E-03    0.04       6.0  T
  35   -413.9827846 -0.369446E-06  0.362E-04    0.04      17.9  T
  36   -413.9827847 -0.236568E-07  0.251E-04    0.04      25.8  T

   *** convergence criteria satisfied after 36 iterations ***

         #    Occupation            Energy/Eh            Energy/eV
      -------------------------------------------------------------
         1        2.0000           -0.6961190             -18.9424
       ...           ...                  ...                  ...
       371        2.0000           -0.3482554              -9.4765
       372        2.0000           -0.3478164              -9.4646
       373        2.0000           -0.3473148              -9.4509
       374        2.0000           -0.3470436              -9.4435
       375        2.0000           -0.3452896              -9.3958
       376        2.0000           -0.3371834              -9.1752
       377        1.3796           -0.3206416              -8.7251 (HOMO)
       378        0.5618           -0.3189893              -8.6801 (LUMO)
       379        0.0320           -0.3159696              -8.5980
       380        0.0266           -0.3157894              -8.5931
       381        0.0000           -0.3073930              -8.3646
       382        0.0000           -0.3073432              -8.3632
       ...           ...                  ...                  ...
       730                          3.8756053             105.4606
      -------------------------------------------------------------
                  HL-Gap            0.0016523 Eh            0.0450 eV
             Fermi-level           -0.3198823 Eh           -8.7044 eV

 SCC (total)                   0 d,  0 h,  0 min,  5.937 sec
 SCC setup                      ...        0 min,  0.010 sec (  0.162%)
 Dispersion                     ...        0 min,  0.022 sec (  0.376%)
 classical contributions        ...        0 min,  0.002 sec (  0.035%)
 integral evaluation            ...        0 min,  0.149 sec (  2.511%)
 iterations                     ...        0 min,  5.318 sec ( 89.574%)
 molecular gradient             ...        0 min,  0.417 sec (  7.022%)
 printout                       ...        0 min,  0.019 sec (  0.320%)

         :::::::::::::::::::::::::::::::::::::::::::::::::::::
         ::                     SUMMARY                     ::
         :::::::::::::::::::::::::::::::::::::::::::::::::::::
         :: total energy            -403.605181586531 Eh    ::
         :: gradient norm              4.436604153555 Eh/a0 ::
         :: HOMO-LUMO gap              0.044961872242 eV    ::
         ::.................................................::
         :: SCC energy              -413.982784655360 Eh    ::
         :: -> isotropic ES            0.240170505160 Eh    ::
         :: -> anisotropic ES         -0.014103470674 Eh    ::
         :: -> anisotropic XC          0.292189749137 Eh    ::
         :: -> dispersion             -0.332434091462 Eh    ::
         :: repulsion energy          10.380543719110 Eh    ::
         :: add. restraining           0.000000000000 Eh    ::
         :: total charge              -0.000000001109 e     ::
         :::::::::::::::::::::::::::::::::::::::::::::::::::::

      ----------------------------------------------------------- 
     |                   =====================                   |
     |                        A N C O P T                        |
     |                   =====================                   |
     |               Approximate Normal Coordinate               |
     |                Rational Function Optimizer                |
      ----------------------------------------------------------- 

          ...................................................
          :                      SETUP                      :
          :.................................................:
          :   optimization level            normal          :
          :   max. optcycles                   714          :
          :   ANC micro-cycles                  20          :
          :   degrees of freedom               708          :
          :.................................................:
          :   RF solver                   davidson          :
          :   write xtbopt.log                true          :
          :   linear?                        false          :
          :   energy convergence         0.5000000E-05 Eh   :
          :   grad. convergence          0.1000000E-02 Eh/α :
          :   maximium RF displ.         1.0000000          :
          :   Hlow (freq-cutoff)         0.1000000E-01      :
          :   Hmax (freq-cutoff)         5.0000000          :
          :   S6 in model hess.         20.0000000          :
          ...................................................

generating ANC from model Hessian ...
Using Lindh-Hessian (1995)
 Shifting diagonal of input Hessian by    1.0028584070730073E-002
 Lowest  eigenvalues of input Hessian
    0.010000    0.010013    0.010017    0.010018    0.010019    0.010022
    0.010025    0.010027    0.010028    0.000000    0.000000    0.000000
    0.000000    0.000000    0.000000    0.010029    0.010029    0.010030
 Highest eigenvalues
    4.044954    4.058992    4.150196    4.161498    4.161499    4.161502


........................................................................
.............................. CYCLE    1 ..............................
........................................................................
   1   -413.9827847 -0.413983E+03  0.214E-04    0.04       0.0  T
   2   -413.9827821  0.258277E-05  0.196E-03    0.04       3.3  T
   3   -413.9827832 -0.112380E-05  0.144E-03    0.04       4.5  T
   4   -413.9827843 -0.110157E-05  0.750E-04    0.04       8.6  T
   5   -413.9827845 -0.221210E-06  0.486E-04    0.04      13.3  T
   6   -413.9827847 -0.133206E-06  0.199E-04    0.04      32.6  T
     SCC iter.                  ...        0 min,  0.892 sec
     gradient                   ...        0 min,  0.417 sec
 * total energy  :  -403.6051816 Eh     change       -0.3512469E-08 Eh
   gradient norm :     4.4366029 Eh/α   predicted     0.0000000E+00 (-100.00%)
   displ. norm   :     0.7013363 α      lambda       -0.3047576E+01
   maximum displ.:     0.3272973 α      in ANC's #707, #708, #626, ...

........................................................................
.............................. CYCLE    2 ..............................
........................................................................
   1   -414.1988804 -0.414199E+03  0.557E-01    0.24       0.0  T
   2   -414.1904313  0.844906E-02  0.488E-01    0.12       1.0  T
   3   -414.2211023 -0.306709E-01  0.283E-01    0.22       1.0  T
   4   -414.1198126  0.101290E+00  0.433E-01    0.10       1.0  T
   5   -414.1972085 -0.773960E-01  0.269E-01    0.13       1.0  T
   6   -414.2393632 -0.421546E-01  0.116E-01    0.22       1.0  T
   7   -414.2431990 -0.383585E-02  0.549E-02    0.20       1.0  T
   8   -414.2428358  0.363215E-03  0.525E-02    0.20       1.0  T
   9   -414.2435765 -0.740694E-03  0.322E-02    0.20       1.0  T
  10   -414.2437558 -0.179263E-03  0.222E-02    0.19       1.0  T
  11   -414.2437623 -0.657849E-05  0.157E-02    0.20       1.0  T
  12   -414.2438712 -0.108871E-03  0.479E-03    0.19       1.4  T
  13   -414.2438773 -0.613000E-05  0.375E-03    0.19       1.7  T
  14   -414.2438816 -0.426622E-05  0.156E-03    0.19       4.1  T
  15   -414.2438820 -0.410881E-06  0.116E-03    0.19       5.6  T
  16   -414.2438824 -0.362765E-06  0.527E-04    0.19      12.3  T
  17   -414.2438824 -0.660165E-07  0.280E-04    0.19      23.2  T
     SCC iter.                  ...        0 min,  2.508 sec
     gradient                   ...        0 min,  0.417 sec
 * total energy  :  -405.4061843 Eh     change       -0.1801003E+01 Eh
   gradient norm :     1.2833760 Eh/α   predicted    -0.2273297E+01 (  26.22%)
   displ. norm   :     0.5688204 α      lambda       -0.5750400E+00
   maximum displ.:     0.1456573 α      in ANC's #626, #688, #478, ...

........................................................................
.............................. CYCLE    3 ..............................
........................................................................
   1   -414.3142503 -0.414314E+03  0.277E-01    0.18       0.0  T
   2   -414.3042767  0.997368E-02  0.293E-01    0.18       1.0  T
   3   -414.3147003 -0.104237E-01  0.197E-01    0.19       1.0  T
   4   -414.3069203  0.778003E-02  0.192E-01    0.19       1.0  T
   5   -414.2790094  0.279109E-01  0.258E-01    0.19       1.0  T
   6   -414.3198344 -0.408250E-01  0.774E-02    0.19       1.0  T
   7   -414.3229582 -0.312379E-02  0.278E-02    0.19       1.0  T
   8   -414.3232637 -0.305475E-03  0.771E-03    0.19       1.0  T
   9   -414.3232653 -0.168005E-05  0.625E-03    0.18       1.0  T
  10   -414.3232678 -0.250680E-05  0.417E-03    0.19       1.6  T
  11   -414.3232685 -0.617442E-06  0.305E-03    0.19       2.1  T
  12   -414.3232717 -0.326845E-05  0.140E-03    0.18       4.6  T
  13   -414.3232726 -0.835470E-06  0.397E-04    0.18      16.3  T
  14   -414.3232725  0.472675E-07  0.413E-04    0.18      15.7  T
     SCC iter.                  ...        0 min,  2.068 sec
     gradient                   ...        0 min,  0.417 sec
 * total energy  :  -405.8465623 Eh     change       -0.4403780E+00 Eh
   gradient norm :     0.7022782 Eh/α   predicted    -0.3805498E+00 ( -13.59%)
   displ. norm   :     0.6641953 α      lambda       -0.3400292E+00
   maximum displ.:     0.1501640 α      in ANC's #152, #348, #478, ...

........................................................................
.............................. CYCLE    4 ..............................
........................................................................
   1   -414.4416900 -0.414442E+03  0.282E-01    0.23       0.0  T
   2   -414.4314068  0.102832E-01  0.281E-01    0.23       1.0  T
   3   -414.4419101 -0.105033E-01  0.185E-01    0.23       1.0  T
   4   -414.4356088  0.630135E-02  0.174E-01    0.24       1.0  T
   5   -414.4346054  0.100338E-02  0.160E-01    0.24       1.0  T
   6   -414.4482795 -0.136741E-01  0.464E-02    0.23       1.0  T
   7   -414.4491154 -0.835920E-03  0.187E-02    0.23       1.0  T
   8   -414.4492429 -0.127531E-03  0.586E-03    0.23       1.1  T
   9   -414.4492459 -0.295904E-05  0.394E-03    0.23       1.6  T
  10   -414.4492449  0.958953E-06  0.303E-03    0.23       2.1  T
  11   -414.4492464 -0.147150E-05  0.215E-03    0.23       3.0  T
  12   -414.4492488 -0.235279E-05  0.696E-04    0.23       9.3  T
  13   -414.4492489 -0.174234E-06  0.208E-04    0.23      31.1  T
  14   -414.4492489 -0.224878E-08  0.132E-04    0.23      49.1  T
     SCC iter.                  ...        0 min,  2.076 sec
     gradient                   ...        0 min,  0.416 sec
 * total energy  :  -406.1078865 Eh     change       -0.2613242E+00 Eh
   gradient norm :     0.3254018 Eh/α   predicted    -0.2450180E+00 (  -6.24%)
   displ. norm   :     0.7986688 α      lambda       -0.2047915E+00
   maximum displ.:     0.2280228 α      in ANC's #152, #178, #202, ...

........................................................................
.............................. CYCLE    5 ..............................
........................................................................
   1   -414.4938205 -0.414494E+03  0.276E-01    0.30       0.0  T
   2   -414.4864401  0.738036E-02  0.246E-01    0.30       1.0  T
   3   -414.4918436 -0.540350E-02  0.175E-01    0.30       1.0  T
   4   -414.4966137 -0.477002E-02  0.697E-02    0.30       1.0  T
   5   -414.4976141 -0.100048E-02  0.387E-02    0.30       1.0  T
   6   -414.4981051 -0.490956E-03  0.147E-02    0.30       1.0  T
   7   -414.4981864 -0.813232E-04  0.532E-03    0.30       1.2  T
   8   -414.4981876 -0.122656E-05  0.411E-03    0.30       1.6  T
   9   -414.4981904 -0.271386E-05  0.293E-03    0.30       2.2  T
  10   -414.4981934 -0.300145E-05  0.836E-04    0.30       7.8  T
  11   -414.4981935 -0.133732E-06  0.407E-04    0.30      15.9  T
  12   -414.4981935 -0.169291E-07  0.266E-04    0.30      24.4  T
     SCC iter.                  ...        0 min,  1.784 sec
     gradient                   ...        0 min,  0.415 sec
 * total energy  :  -406.2837897 Eh     change       -0.1759032E+00 Eh
   gradient norm :     0.2130482 Eh/α   predicted    -0.1677112E+00 (  -4.66%)
   displ. norm   :     0.8705592 α      lambda       -0.1635642E+00
   maximum displ.:     0.2486264 α      in ANC's #152, #68, #178, ...

........................................................................
.............................. CYCLE    6 ..............................
........................................................................
   1   -414.5075993 -0.414508E+03  0.259E-01    0.35       0.0  T
   2   -414.5030788  0.452054E-02  0.224E-01    0.35       1.0  T
   3   -414.5061713 -0.309254E-02  0.152E-01    0.35       1.0  T
   4   -414.5094877 -0.331635E-02  0.627E-02    0.35       1.0  T
   5   -414.5106133 -0.112561E-02  0.318E-02    0.35       1.0  T
   6   -414.5109791 -0.365886E-03  0.996E-03    0.35       1.0  T
   7   -414.5110050 -0.258695E-04  0.430E-03    0.35       1.5  T
   8   -414.5110067 -0.168986E-05  0.252E-03    0.35       2.6  T
   9   -414.5110075 -0.813141E-06  0.140E-03    0.35       4.6  T
  10   -414.5110080 -0.511083E-06  0.725E-04    0.35       8.9  T
  11   -414.5110081 -0.107925E-06  0.360E-04    0.35      18.0  T
     SCC iter.                  ...        0 min,  1.633 sec
     gradient                   ...        0 min,  0.415 sec
 * total energy  :  -406.4329783 Eh     change       -0.1491886E+00 Eh
   gradient norm :     0.1753030 Eh/α   predicted    -0.1437626E+00 (  -3.64%)
   displ. norm   :     0.9144956 α      lambda       -0.1437791E+00
   maximum displ.:     0.2554792 α      in ANC's #68, #152, #178, ...

........................................................................
.............................. CYCLE    7 ..............................
........................................................................
   1   -414.5042879 -0.414504E+03  0.228E-01    0.40       0.0  T
   2   -414.5009275  0.336036E-02  0.207E-01    0.40       1.0  T
   3   -414.5037864 -0.285886E-02  0.122E-01    0.40       1.0  T
   4   -414.5050692 -0.128275E-02  0.657E-02    0.40       1.0  T
   5   -414.5065877 -0.151859E-02  0.258E-02    0.40       1.0  T
   6   -414.5067722 -0.184420E-03  0.792E-03    0.40       1.0  T
   7   -414.5067807 -0.855737E-05  0.467E-03    0.40       1.4  T
   8   -414.5067830 -0.224130E-05  0.310E-03    0.40       2.1  T
   9   -414.5067849 -0.196855E-05  0.152E-03    0.40       4.3  T
  10   -414.5067858 -0.830406E-06  0.433E-04    0.40      15.0  T
  11   -414.5067858 -0.473125E-07  0.202E-04    0.40      32.1  T
     SCC iter.                  ...        0 min,  1.633 sec
     gradient                   ...        0 min,  0.415 sec
 * total energy  :  -406.5601249 Eh     change       -0.1271466E+00 Eh
   gradient norm :     0.1331876 Eh/α   predicted    -0.1320110E+00 (   3.83%)
   displ. norm   :     0.8729954 α      lambda       -0.1023158E+00
   maximum displ.:     0.2788731 α      in ANC's #68, #152, #29, ...

........................................................................
.............................. CYCLE    8 ..............................
........................................................................
   1   -414.5072409 -0.414507E+03  0.185E-01    0.42       0.0  T
   2   -414.5046261  0.261473E-02  0.176E-01    0.42       1.0  T
   3   -414.5075008 -0.287463E-02  0.926E-02    0.42       1.0  T
   4   -414.5076834 -0.182620E-03  0.570E-02    0.42       1.0  T
   5   -414.5088286 -0.114525E-02  0.184E-02    0.42       1.0  T
   6   -414.5089200 -0.914147E-04  0.508E-03    0.42       1.3  T
   7   -414.5089220 -0.198369E-05  0.343E-03    0.42       1.9  T
   8   -414.5089233 -0.129921E-05  0.219E-03    0.42       3.0  T
   9   -414.5089248 -0.146218E-05  0.842E-04    0.42       7.7  T
  10   -414.5089250 -0.240852E-06  0.257E-04    0.42      25.3  T
  11   -414.5089250 -0.105171E-07  0.144E-04    0.42      45.0  T
     SCC iter.                  ...        0 min,  1.632 sec
     gradient                   ...        0 min,  0.415 sec
 * total energy  :  -406.6420777 Eh     change       -0.8195281E-01 Eh
   gradient norm :     0.1051333 Eh/α   predicted    -0.9014655E-01 (  10.00%)
   displ. norm   :     0.8234167 α      lambda       -0.6878211E-01
   maximum displ.:     0.2153765 α      in ANC's #152, #68, #124, ...

........................................................................
.............................. CYCLE    9 ..............................
........................................................................
   1   -414.5237146 -0.414524E+03  0.157E-01    0.43       0.0  T
   2   -414.5235957  0.118905E-03  0.105E-01    0.43       1.0  T
   3   -414.5196896  0.390613E-02  0.103E-01    0.43       1.0  T
   4   -414.5236795 -0.398995E-02  0.370E-02    0.43       1.0  T
   5   -414.5240971 -0.417597E-03  0.971E-03    0.43       1.0  T
   6   -414.5241202 -0.230720E-04  0.367E-03    0.43       1.8  T
   7   -414.5241229 -0.275070E-05  0.191E-03    0.43       3.4  T
   8   -414.5241231 -0.144488E-06  0.132E-03    0.43       4.9  T
   9   -414.5241235 -0.466568E-06  0.554E-04    0.43      11.7  T
  10   -414.5241236 -0.975850E-07  0.254E-04    0.43      25.5  T
     SCC iter.                  ...        0 min,  1.484 sec
     gradient                   ...        0 min,  0.416 sec
 * total energy  :  -406.7023340 Eh     change       -0.6025628E-01 Eh
   gradient norm :     0.0767487 Eh/α   predicted    -0.5770873E-01 (  -4.23%)
   displ. norm   :     0.8771627 α      lambda       -0.5669305E-01
   maximum displ.:     0.2534501 α      in ANC's #68, #54, #55, ...

........................................................................
.............................. CYCLE   10 ..............................
........................................................................
   1   -414.5708664 -0.414571E+03  0.143E-01    0.45       0.0  T
   2   -414.5706639  0.202464E-03  0.965E-02    0.44       1.0  T
   3   -414.5669547  0.370921E-02  0.994E-02    0.45       1.0  T
   4   -414.5709492 -0.399445E-02  0.265E-02    0.44       1.0  T
   5   -414.5711649 -0.215766E-03  0.711E-03    0.44       1.0  T
   6   -414.5711768 -0.118751E-04  0.312E-03    0.44       2.1  T
   7   -414.5711786 -0.179844E-05  0.162E-03    0.44       4.0  T
   8   -414.5711788 -0.190288E-06  0.959E-04    0.44       6.8  T
   9   -414.5711790 -0.182213E-06  0.450E-04    0.44      14.4  T
     SCC iter.                  ...        0 min,  1.335 sec
     gradient                   ...        0 min,  0.415 sec
 * total energy  :  -406.7530617 Eh     change       -0.5072767E-01 Eh
   gradient norm :     0.0599570 Eh/α   predicted    -0.5015681E-01 (  -1.13%)
   displ. norm   :     0.9000884 α      lambda       -0.4683349E-01
   maximum displ.:     0.2468962 α      in ANC's #55, #68, #54, ...

........................................................................
.............................. CYCLE   11 ..............................
........................................................................
   1   -414.6045531 -0.414605E+03  0.137E-01    0.46       0.0  T
   2   -414.6045251  0.280598E-04  0.842E-02    0.46       1.0  T
   3   -414.6020718  0.245322E-02  0.737E-02    0.46       1.0  T
   4   -414.6045649 -0.249310E-02  0.179E-02    0.46       1.0  T
   5   -414.6046804 -0.115474E-03  0.405E-03    0.46       1.6  T
   6   -414.6046837 -0.324767E-05  0.204E-03    0.46       3.2  T
   7   -414.6046841 -0.463350E-06  0.110E-03    0.46       5.9  T
   8   -414.6046842 -0.841055E-07  0.694E-04    0.46       9.3  T
   9   -414.6046844 -0.135878E-06  0.260E-04    0.46      25.0  T
     SCC iter.                  ...        0 min,  1.336 sec
     gradient                   ...        0 min,  0.415 sec
 * total energy  :  -406.7954647 Eh     change       -0.4240301E-01 Eh
   gradient norm :     0.0534155 Eh/α   predicted    -0.4238804E-01 (  -0.04%)
   displ. norm   :     0.9291550 α      lambda       -0.4129042E-01
   maximum displ.:     0.3001293 α      in ANC's #54, #55, #29, ...

........................................................................
.............................. CYCLE   12 ..............................
........................................................................
   1   -414.6427424 -0.414643E+03  0.142E-01    0.48       0.0  T
   2   -414.6426463  0.960970E-04  0.887E-02    0.48       1.0  T
   3   -414.6398949  0.275140E-02  0.872E-02    0.49       1.0  T
   4   -414.6428074 -0.291248E-02  0.167E-02    0.48       1.0  T
   5   -414.6429158 -0.108355E-03  0.454E-03    0.48       1.4  T
   6   -414.6429203 -0.457082E-05  0.235E-03    0.48       2.8  T
   7   -414.6429210 -0.699206E-06  0.120E-03    0.48       5.4  T
   8   -414.6429212 -0.114104E-06  0.659E-04    0.48       9.8  T
   9   -414.6429213 -0.118375E-06  0.262E-04    0.48      24.7  T
     SCC iter.                  ...        0 min,  1.338 sec
     gradient                   ...        0 min,  0.414 sec
 * total energy  :  -406.8321171 Eh     change       -0.3665243E-01 Eh
   gradient norm :     0.0477018 Eh/α   predicted    -0.3846890E-01 (   4.96%)
   displ. norm   :     0.9373074 α      lambda       -0.3720354E-01
   maximum displ.:     0.3082816 α      in ANC's #55, #54, #49, ...

........................................................................
.............................. CYCLE   13 ..............................
........................................................................
   1   -414.6801335 -0.414680E+03  0.148E-01    0.51       0.0  T
   2   -414.6800393  0.942051E-04  0.905E-02    0.51       1.0  T
   3   -414.6769471  0.309223E-02  0.913E-02    0.51       1.0  T
   4   -414.6801934 -0.324625E-02  0.138E-02    0.51       1.0  T
   5   -414.6802640 -0.706554E-04  0.395E-03    0.51       1.6  T
   6   -414.6802673 -0.331278E-05  0.213E-03    0.51       3.0  T
   7   -414.6802679 -0.597731E-06  0.114E-03    0.51       5.7  T
   8   -414.6802682 -0.244749E-06  0.473E-04    0.51      13.7  T
   9   -414.6802682 -0.578173E-07  0.188E-04    0.51      34.4  T
     SCC iter.                  ...        0 min,  1.339 sec
     gradient                   ...        0 min,  0.415 sec
 * total energy  :  -406.8650937 Eh     change       -0.3297660E-01 Eh
   gradient norm :     0.0404003 Eh/α   predicted    -0.3494428E-01 (   5.97%)
   displ. norm   :     0.9237196 α      lambda       -0.3148026E-01
   maximum displ.:     0.3478937 α      in ANC's #54, #55, #50, ...

........................................................................
.............................. CYCLE   14 ..............................
........................................................................
   1   -414.7148838 -0.414715E+03  0.125E-01    0.54       0.0  T
   2   -414.7148121  0.717520E-04  0.771E-02    0.54       1.0  T
   3   -414.7126161  0.219594E-02  0.762E-02    0.54       1.0  T
   4   -414.7149368 -0.232068E-02  0.139E-02    0.54       1.0  T
   5   -414.7150099 -0.730815E-04  0.352E-03    0.54       1.8  T
   6   -414.7150129 -0.297654E-05  0.177E-03    0.54       3.7  T
   7   -414.7150133 -0.431165E-06  0.974E-04    0.54       6.7  T
   8   -414.7150134 -0.149951E-06  0.502E-04    0.54      12.9  T
     SCC iter.                  ...        0 min,  1.189 sec
     gradient                   ...        0 min,  0.416 sec
 * total energy  :  -406.8939830 Eh     change       -0.2888928E-01 Eh
   gradient norm :     0.0383734 Eh/α   predicted    -0.2917052E-01 (   0.97%)
   displ. norm   :     0.9446642 α      lambda       -0.2922216E-01
   maximum displ.:     0.3724628 α      in ANC's #55, #54, #50, ...

........................................................................
.............................. CYCLE   15 ..............................
........................................................................
   1   -414.7486942 -0.414749E+03  0.129E-01    0.57       0.0  T
   2   -414.7485649  0.129306E-03  0.827E-02    0.56       1.0  T
   3   -414.7465299  0.203496E-02  0.818E-02    0.57       1.0  T
   4   -414.7487923 -0.226242E-02  0.150E-02    0.57       1.0  T
   5   -414.7488765 -0.841505E-04  0.418E-03    0.56       1.6  T
   6   -414.7488815 -0.501173E-05  0.178E-03    0.56       3.6  T
   7   -414.7488819 -0.370074E-06  0.101E-03    0.56       6.4  T
   8   -414.7488820 -0.110014E-06  0.600E-04    0.56      10.8  T
   9   -414.7488821 -0.120458E-06  0.205E-04    0.56      31.6  T
     SCC iter.                  ...        0 min,  1.338 sec
     gradient                   ...        0 min,  0.415 sec
 * total energy  :  -406.9197517 Eh     change       -0.2576874E-01 Eh
   gradient norm :     0.0410052 Eh/α   predicted    -0.2764988E-01 (   7.30%)
   displ. norm   :     0.9230314 α      lambda       -0.2661345E-01
   maximum displ.:     0.3849370 α      in ANC's #55, #54, #50, ...

........................................................................
.............................. CYCLE   16 ..............................
........................................................................
   1   -414.7766858 -0.414777E+03  0.119E-01    0.59       0.0  T
   2   -414.7765093  0.176511E-03  0.796E-02    0.59       1.0  T
   3   -414.7750005  0.150874E-02  0.756E-02    0.59       1.0  T
   4   -414.7768146 -0.181412E-02  0.160E-02    0.59       1.0  T
   5   -414.7769066 -0.919424E-04  0.431E-03    0.59       1.5  T
   6   -414.7769122 -0.557269E-05  0.170E-03    0.59       3.8  T
   7   -414.7769125 -0.367028E-06  0.956E-04    0.59       6.8  T
   8   -414.7769126 -0.691294E-07  0.599E-04    0.59      10.8  T
     SCC iter.                  ...        0 min,  1.191 sec
     gradient                   ...        0 min,  0.416 sec
 * total energy  :  -406.9430015 Eh     change       -0.2324975E-01 Eh
   gradient norm :     0.0453298 Eh/α   predicted    -0.2464389E-01 (   6.00%)
   displ. norm   :     0.9217075 α      lambda       -0.2452617E-01
   maximum displ.:     0.3975283 α      in ANC's #55, #54, #50, ...

........................................................................
.............................. CYCLE   17 ..............................
........................................................................
   1   -414.7941342 -0.414794E+03  0.132E-01    0.61       0.0  T
   2   -414.7940110  0.123180E-03  0.846E-02    0.61       1.0  T
   3   -414.7918484  0.216266E-02  0.841E-02    0.61       1.0  T
   4   -414.7942397 -0.239136E-02  0.152E-02    0.61       1.0  T
   5   -414.7943216 -0.818168E-04  0.435E-03    0.61       1.5  T
   6   -414.7943274 -0.586166E-05  0.179E-03    0.61       3.6  T
   7   -414.7943279 -0.457031E-06  0.951E-04    0.61       6.8  T
   8   -414.7943279 -0.304073E-07  0.587E-04    0.61      11.0  T
     SCC iter.                  ...        0 min,  1.190 sec
     gradient                   ...        0 min,  0.415 sec
 * total energy  :  -406.9635901 Eh     change       -0.2058856E-01 Eh
   gradient norm :     0.0389934 Eh/α   predicted    -0.2268112E-01 (  10.16%)
   displ. norm   :     0.9077235 α      lambda       -0.2122557E-01
   maximum displ.:     0.4186914 α      in ANC's #55, #54, #50, ...

........................................................................
.............................. CYCLE   18 ..............................
........................................................................
   1   -414.8120357 -0.414812E+03  0.124E-01    0.63       0.0  T
   2   -414.8120237  0.119691E-04  0.735E-02    0.63       1.0  T
   3   -414.8107474  0.127634E-02  0.540E-02    0.63       1.0  T
   4   -414.8120749 -0.132749E-02  0.937E-03    0.63       1.0  T
   5   -414.8121057 -0.308058E-04  0.270E-03    0.63       2.4  T
   6   -414.8121074 -0.167767E-05  0.138E-03    0.63       4.7  T
   7   -414.8121076 -0.265683E-06  0.726E-04    0.63       8.9  T
   8   -414.8121077 -0.496361E-07  0.418E-04    0.63      15.5  T
     SCC iter.                  ...        0 min,  1.192 sec
     gradient                   ...        0 min,  0.416 sec
 * total energy  :  -406.9830141 Eh     change       -0.1942405E-01 Eh
   gradient norm :     0.0321608 Eh/α   predicted    -0.1935732E-01 (  -0.34%)
   displ. norm   :     0.9203404 α      lambda       -0.1938106E-01
   maximum displ.:     0.4254295 α      in ANC's #55, #54, #50, ...

........................................................................
.............................. CYCLE   19 ..............................
........................................................................
   1   -414.8394480 -0.414839E+03  0.121E-01    0.64       0.0  T
   2   -414.8393745  0.734265E-04  0.753E-02    0.64       1.0  T
   3   -414.8376748  0.169972E-02  0.725E-02    0.64       1.0  T
   4   -414.8395288 -0.185398E-02  0.106E-02    0.64       1.0  T
   5   -414.8395660 -0.372087E-04  0.301E-03    0.64       2.2  T
   6   -414.8395684 -0.241443E-05  0.133E-03    0.64       4.9  T
   7   -414.8395686 -0.192205E-06  0.722E-04    0.64       9.0  T
   8   -414.8395686 -0.294961E-07  0.422E-04    0.64      15.4  T
     SCC iter.                  ...        0 min,  1.190 sec
     gradient                   ...        0 min,  0.415 sec
 * total energy  :  -407.0001979 Eh     change       -0.1718383E-01 Eh
   gradient norm :     0.0380895 Eh/α   predicted    -0.1789866E-01 (   4.16%)
   displ. norm   :     0.9126342 α      lambda       -0.1799077E-01
   maximum displ.:     0.4371677 α      in ANC's #55, #54, #50, ...

........................................................................
.............................. CYCLE   20 ..............................
........................................................................
   1   -414.8524060 -0.414852E+03  0.124E-01    0.65       0.0  T
   2   -414.8523794  0.265393E-04  0.746E-02    0.65       1.0  T
   3   -414.8509145  0.146492E-02  0.648E-02    0.65       1.0  T
   4   -414.8524558 -0.154129E-02  0.110E-02    0.65       1.0  T
   5   -414.8524959 -0.401346E-04  0.330E-03    0.65       2.0  T
   6   -414.8524992 -0.329993E-05  0.147E-03    0.65       4.4  T
   7   -414.8524996 -0.333125E-06  0.730E-04    0.65       8.9  T
   8   -414.8524996 -0.268349E-07  0.364E-04    0.65      17.8  T
     SCC iter.                  ...        0 min,  1.196 sec
     gradient                   ...        0 min,  0.415 sec
 * total energy  :  -407.0161536 Eh     change       -0.1595570E-01 Eh
   gradient norm :     0.0252678 Eh/α   predicted    -0.1648764E-01 (   3.33%)
   displ. norm   :     0.9133926 α      lambda       -0.1507884E-01
   maximum displ.:     0.4343693 α      in ANC's #55, #54, #50, ...
 * RMSD in coord.:     0.8729225 α      energy gain  -0.3410972E+01 Eh

generating ANC from model Hessian ...
Using Lindh-Hessian (1995)
 Shifting diagonal of input Hessian by    1.0005404110185384E-002
 Lowest  eigenvalues of input Hessian
    0.010000    0.010005    0.000000    0.000000    0.000000    0.000000
    0.000000    0.000000    0.010006    0.010007    0.010008    0.010011
    0.010011    0.010012    0.010016    0.010019    0.010023    0.010025
 Highest eigenvalues
    2.439272    2.912482    2.915403    2.981460    2.982630    3.003634


........................................................................
.............................. CYCLE   21 ..............................
........................................................................
   1   -414.8604412 -0.414860E+03  0.124E-01    0.67       0.0  T
   2   -414.8604352  0.606761E-05  0.730E-02    0.66       1.0  T
   3   -414.8595533  0.881904E-03  0.462E-02    0.67       1.0  T
   4   -414.8604727 -0.919458E-03  0.694E-03    0.66       1.0  T
   5   -414.8604887 -0.159452E-04  0.210E-03    0.66       3.1  T
   6   -414.8604895 -0.858704E-06  0.120E-03    0.66       5.4  T
   7   -414.8604897 -0.200801E-06  0.571E-04    0.66      11.4  T
   8   -414.8604898 -0.457841E-07  0.257E-04    0.66      25.3  T
     SCC iter.                  ...        0 min,  1.193 sec
     gradient                   ...        0 min,  0.415 sec
 * total energy  :  -407.0300775 Eh     change       -0.1392384E-01 Eh
   gradient norm :     0.0214528 Eh/α   predicted     0.0000000E+00 (-100.00%)
   displ. norm   :     0.6264951 α      lambda       -0.9749352E-02
   maximum displ.:     0.2799871 α      in ANC's #52, #53, #55, ...

........................................................................
.............................. CYCLE   22 ..............................
........................................................................
   1   -414.8787639 -0.414879E+03  0.998E-02    0.67       0.0  T
   2   -414.8787665 -0.259315E-05  0.587E-02    0.67       1.0  T
   3   -414.8786049  0.161656E-03  0.196E-02    0.67       1.0  T
   4   -414.8787704 -0.165496E-03  0.374E-03    0.67       1.7  T
   5   -414.8787755 -0.513004E-05  0.133E-03    0.67       4.9  T
   6   -414.8787755 -0.429983E-07  0.972E-04    0.67       6.7  T
   7   -414.8787757 -0.199278E-06  0.291E-04    0.67      22.2  T
     SCC iter.                  ...        0 min,  1.042 sec
     gradient                   ...        0 min,  0.415 sec
 * total energy  :  -407.0391193 Eh     change       -0.9041829E-02 Eh
   gradient norm :     0.0164349 Eh/α   predicted    -0.6787974E-02 ( -24.93%)
   displ. norm   :     0.9129357 α      lambda       -0.1239593E-01
   maximum displ.:     0.4114659 α      in ANC's #53, #52, #55, ...

........................................................................
.............................. CYCLE   23 ..............................
........................................................................
   1   -414.8921428 -0.414892E+03  0.128E-01    0.69       0.0  T
   2   -414.8921511 -0.832221E-05  0.748E-02    0.69       1.0  T
   3   -414.8918835  0.267594E-03  0.253E-02    0.69       1.0  T
   4   -414.8921557 -0.272233E-03  0.561E-03    0.69       1.2  T
   5   -414.8921687 -0.129792E-04  0.167E-03    0.69       3.9  T
   6   -414.8921688 -0.760406E-07  0.125E-03    0.69       5.2  T
   7   -414.8921691 -0.328124E-06  0.444E-04    0.69      14.6  T
   8   -414.8921692 -0.545883E-07  0.156E-04    0.69      41.7  T
     SCC iter.                  ...        0 min,  1.190 sec
     gradient                   ...        0 min,  0.415 sec
 * total energy  :  -407.0505419 Eh     change       -0.1142261E-01 Eh
   gradient norm :     0.0137221 Eh/α   predicted    -0.1136390E-01 (  -0.51%)
   displ. norm   :     0.9191610 α      lambda       -0.1087231E-01
   maximum displ.:     0.4065413 α      in ANC's #52, #53, #55, ...

........................................................................
.............................. CYCLE   24 ..............................
........................................................................
   1   -414.8938995 -0.414894E+03  0.129E-01    0.70       0.0  T
   2   -414.8939104 -0.109506E-04  0.753E-02    0.70       1.0  T
   3   -414.8936842  0.226259E-03  0.237E-02    0.70       1.0  T
   4   -414.8939135 -0.229364E-03  0.568E-03    0.70       1.1  T
   5   -414.8939267 -0.132218E-04  0.175E-03    0.70       3.7  T
   6   -414.8939268 -0.930865E-07  0.129E-03    0.70       5.0  T
   7   -414.8939272 -0.350106E-06  0.500E-04    0.70      13.0  T
   8   -414.8939273 -0.671540E-07  0.170E-04    0.70      38.2  T
     SCC iter.                  ...        0 min,  1.193 sec
     gradient                   ...        0 min,  0.415 sec
 * total energy  :  -407.0603617 Eh     change       -0.9819811E-02 Eh
   gradient norm :     0.0134112 Eh/α   predicted    -0.1002893E-01 (   2.13%)
   displ. norm   :     0.9112448 α      lambda       -0.9391324E-02
   maximum displ.:     0.4073154 α      in ANC's #53, #52, #55, ...

........................................................................
.............................. CYCLE   25 ..............................
........................................................................
   1   -414.8985963 -0.414899E+03  0.127E-01    0.72       0.0  T
   2   -414.8986094 -0.131638E-04  0.742E-02    0.71       1.0  T
   3   -414.8984918  0.117633E-03  0.183E-02    0.72       1.0  T
   4   -414.8986126 -0.120813E-03  0.488E-03    0.71       1.3  T
   5   -414.8986211 -0.847010E-05  0.164E-03    0.71       4.0  T
   6   -414.8986211 -0.321427E-08  0.119E-03    0.71       5.5  T
   7   -414.8986214 -0.332063E-06  0.478E-04    0.71      13.6  T
   8   -414.8986215 -0.693512E-07  0.147E-04    0.71      44.2  T
     SCC iter.                  ...        0 min,  1.194 sec
     gradient                   ...        0 min,  0.416 sec
 * total energy  :  -407.0685805 Eh     change       -0.8218806E-02 Eh
   gradient norm :     0.0146167 Eh/α   predicted    -0.8594790E-02 (   4.57%)
   displ. norm   :     0.8814665 α      lambda       -0.7637628E-02
   maximum displ.:     0.3705702 α      in ANC's #53, #52, #55, ...

........................................................................
.............................. CYCLE   26 ..............................
........................................................................
   1   -414.9033765 -0.414903E+03  0.120E-01    0.72       0.0  T
   2   -414.9033858 -0.929586E-05  0.701E-02    0.72       1.0  T
   3   -414.9032693  0.116557E-03  0.176E-02    0.72       1.0  T
   4   -414.9033901 -0.120806E-03  0.410E-03    0.72       1.6  T
   5   -414.9033958 -0.570254E-05  0.158E-03    0.72       4.1  T
   6   -414.9033958 -0.459976E-07  0.109E-03    0.72       6.0  T
   7   -414.9033961 -0.309174E-06  0.434E-04    0.72      14.9  T
   8   -414.9033962 -0.595331E-07  0.140E-04    0.72      46.5  T
     SCC iter.                  ...        0 min,  1.190 sec
     gradient                   ...        0 min,  0.415 sec
 * total energy  :  -407.0752701 Eh     change       -0.6689596E-02 Eh
   gradient norm :     0.0126652 Eh/α   predicted    -0.6785966E-02 (   1.44%)
   displ. norm   :     0.8581420 α      lambda       -0.6015883E-02
   maximum displ.:     0.3491620 α      in ANC's #53, #52, #40, ...

........................................................................
.............................. CYCLE   27 ..............................
........................................................................
   1   -414.9116599 -0.414912E+03  0.110E-01    0.73       0.0  T
   2   -414.9116677 -0.776814E-05  0.643E-02    0.73       1.0  T
   3   -414.9115945  0.732113E-04  0.146E-02    0.73       1.0  T
   4   -414.9116723 -0.777887E-04  0.312E-03    0.73       2.1  T
   5   -414.9116748 -0.253572E-05  0.144E-03    0.73       4.5  T
   6   -414.9116749 -0.864111E-07  0.970E-04    0.73       6.7  T
   7   -414.9116752 -0.249508E-06  0.390E-04    0.73      16.6  T
     SCC iter.                  ...        0 min,  1.044 sec
     gradient                   ...        0 min,  0.415 sec
 * total energy  :  -407.0805395 Eh     change       -0.5269398E-02 Eh
   gradient norm :     0.0110430 Eh/α   predicted    -0.5223012E-02 (  -0.88%)
   displ. norm   :     0.8406830 α      lambda       -0.4759247E-02
   maximum displ.:     0.3256430 α      in ANC's #53, #52, #40, ...

........................................................................
.............................. CYCLE   28 ..............................
........................................................................
   1   -414.9209601 -0.414921E+03  0.106E-01    0.74       0.0  T
   2   -414.9209664 -0.631915E-05  0.621E-02    0.74       1.0  T
   3   -414.9208837  0.827230E-04  0.158E-02    0.74       1.0  T
   4   -414.9209715 -0.878164E-04  0.284E-03    0.74       2.3  T
   5   -414.9209732 -0.163064E-05  0.148E-03    0.74       4.4  T
   6   -414.9209734 -0.193113E-06  0.929E-04    0.74       7.0  T
   7   -414.9209736 -0.226452E-06  0.360E-04    0.74      18.0  T
     SCC iter.                  ...        0 min,  1.042 sec
     gradient                   ...        0 min,  0.414 sec
 * total energy  :  -407.0845945 Eh     change       -0.4054988E-02 Eh
   gradient norm :     0.0101966 Eh/α   predicted    -0.4061416E-02 (   0.16%)
   displ. norm   :     0.8258544 α      lambda       -0.3766497E-02
   maximum displ.:     0.2918151 α      in ANC's #52, #40, #53, ...

........................................................................
.............................. CYCLE   29 ..............................
........................................................................
   1   -414.9255176 -0.414926E+03  0.103E-01    0.73       0.0  T
   2   -414.9255236 -0.599572E-05  0.603E-02    0.73       1.0  T
   3   -414.9254361  0.875256E-04  0.161E-02    0.73       1.0  T
   4   -414.9255294 -0.933366E-04  0.256E-03    0.73       2.5  T
   5   -414.9255305 -0.103161E-05  0.149E-03    0.73       4.4  T
   6   -414.9255307 -0.202956E-06  0.990E-04    0.73       6.5  T
   7   -414.9255309 -0.252988E-06  0.394E-04    0.73      16.4  T
     SCC iter.                  ...        0 min,  1.043 sec
     gradient                   ...        0 min,  0.415 sec
 * total energy  :  -407.0875990 Eh     change       -0.3004446E-02 Eh
   gradient norm :     0.0110816 Eh/α   predicted    -0.3167693E-02 (   5.43%)
   displ. norm   :     0.7830441 α      lambda       -0.2872029E-02
   maximum displ.:     0.2976128 α      in ANC's #40, #53, #52, ...

........................................................................
.............................. CYCLE   30 ..............................
........................................................................
   1   -414.9326451 -0.414933E+03  0.925E-02    0.74       0.0  T
   2   -414.9326503 -0.518684E-05  0.544E-02    0.74       1.0  T
   3   -414.9325838  0.664356E-04  0.139E-02    0.74       1.0  T
   4   -414.9326536 -0.698179E-04  0.279E-03    0.74       2.3  T
   5   -414.9326554 -0.172285E-05  0.146E-03    0.74       4.5  T
   6   -414.9326556 -0.262377E-06  0.856E-04    0.74       7.6  T
   7   -414.9326558 -0.152981E-06  0.321E-04    0.74      20.2  T
     SCC iter.                  ...        0 min,  1.042 sec
     gradient                   ...        0 min,  0.413 sec
 * total energy  :  -407.0898000 Eh     change       -0.2201007E-02 Eh
   gradient norm :     0.0118584 Eh/α   predicted    -0.2316519E-02 (   5.25%)
   displ. norm   :     0.7367800 α      lambda       -0.2029889E-02
   maximum displ.:     0.2854674 α      in ANC's #40, #18, #52, ...

........................................................................
.............................. CYCLE   31 ..............................
........................................................................
   1   -414.9366028 -0.414937E+03  0.811E-02    0.73       0.0  T
   2   -414.9366056 -0.280583E-05  0.478E-02    0.73       1.0  T
   3   -414.9365030  0.102636E-03  0.184E-02    0.73       1.0  T
   4   -414.9366114 -0.108457E-03  0.224E-03    0.73       2.9  T
   5   -414.9366121 -0.640095E-06  0.142E-03    0.73       4.6  T
   6   -414.9366125 -0.440727E-06  0.757E-04    0.73       8.6  T
   7   -414.9366126 -0.103722E-06  0.337E-04    0.73      19.3  T
     SCC iter.                  ...        0 min,  1.046 sec
     gradient                   ...        0 min,  0.413 sec
 * total energy  :  -407.0913412 Eh     change       -0.1541264E-02 Eh
   gradient norm :     0.0087848 Eh/α   predicted    -0.1565904E-02 (   1.60%)
   displ. norm   :     0.6956229 α      lambda       -0.1515596E-02
   maximum displ.:     0.2963192 α      in ANC's #18, #40, #19, ...

........................................................................
.............................. CYCLE   32 ..............................
........................................................................
   1   -414.9436112 -0.414944E+03  0.705E-02    0.73       0.0  T
   2   -414.9436138 -0.255368E-05  0.416E-02    0.73       1.0  T
   3   -414.9435587  0.550522E-04  0.131E-02    0.73       1.0  T
   4   -414.9436171 -0.584030E-04  0.197E-03    0.73       3.3  T
   5   -414.9436177 -0.549985E-06  0.120E-03    0.73       5.4  T
   6   -414.9436180 -0.259384E-06  0.646E-04    0.73      10.0  T
   7   -414.9436180 -0.711595E-07  0.283E-04    0.73      22.9  T
     SCC iter.                  ...        0 min,  1.043 sec
     gradient                   ...        0 min,  0.413 sec
 * total energy  :  -407.0924878 Eh     change       -0.1146566E-02 Eh
   gradient norm :     0.0066691 Eh/α   predicted    -0.1124490E-02 (  -1.93%)
   displ. norm   :     0.6620979 α      lambda       -0.1182787E-02
   maximum displ.:     0.3261300 α      in ANC's #18, #40, #19, ...

........................................................................
.............................. CYCLE   33 ..............................
........................................................................
   1   -414.9478940 -0.414948E+03  0.567E-02    0.73       0.0  T
   2   -414.9478954 -0.137346E-05  0.335E-02    0.73       1.0  T
   3   -414.9478304  0.649926E-04  0.144E-02    0.73       1.0  T
   4   -414.9478987 -0.683609E-04  0.200E-03    0.73       3.2  T
   5   -414.9478995 -0.802151E-06  0.112E-03    0.73       5.8  T
   6   -414.9478999 -0.337533E-06  0.498E-04    0.73      13.0  T
   7   -414.9478999 -0.263333E-07  0.248E-04    0.73      26.1  T
     SCC iter.                  ...        0 min,  1.043 sec
     gradient                   ...        0 min,  0.414 sec
 * total energy  :  -407.0934406 Eh     change       -0.9527919E-03 Eh
   gradient norm :     0.0081815 Eh/α   predicted    -0.8506450E-03 ( -10.72%)
   displ. norm   :     0.6443816 α      lambda       -0.1077442E-02
   maximum displ.:     0.3565375 α      in ANC's #18, #40, #19, ...

........................................................................
.............................. CYCLE   34 ..............................
........................................................................
   1   -414.9508885 -0.414951E+03  0.483E-02    0.73       0.0  T
   2   -414.9508890 -0.503598E-06  0.286E-02    0.73       1.0  T
   3   -414.9508113  0.777605E-04  0.159E-02    0.73       1.0  T
   4   -414.9508930 -0.817267E-04  0.208E-03    0.73       3.1  T
   5   -414.9508940 -0.101088E-05  0.104E-03    0.73       6.2  T
   6   -414.9508943 -0.341562E-06  0.431E-04    0.73      15.0  T
   7   -414.9508944 -0.213454E-07  0.234E-04    0.73      27.7  T
     SCC iter.                  ...        0 min,  1.043 sec
     gradient                   ...        0 min,  0.413 sec
 * total energy  :  -407.0943902 Eh     change       -0.9495959E-03 Eh
   gradient norm :     0.0066484 Eh/α   predicted    -0.7624145E-03 ( -19.71%)
   displ. norm   :     0.6852683 α      lambda       -0.1184199E-02
   maximum displ.:     0.3996283 α      in ANC's #18, #19, #17, ...

........................................................................
.............................. CYCLE   35 ..............................
........................................................................
   1   -414.9490854 -0.414949E+03  0.506E-02    0.73       0.0  T
   2   -414.9490867 -0.132079E-05  0.299E-02    0.73       1.0  T
   3   -414.9490238  0.629161E-04  0.140E-02    0.73       1.0  T
   4   -414.9490903 -0.665035E-04  0.198E-03    0.73       3.3  T
   5   -414.9490912 -0.909381E-06  0.920E-04    0.73       7.0  T
   6   -414.9490914 -0.207406E-06  0.449E-04    0.73      14.4  T
     SCC iter.                  ...        0 min,  0.895 sec
     gradient                   ...        0 min,  0.414 sec
 * total energy  :  -407.0954670 Eh     change       -0.1076820E-02 Eh
   gradient norm :     0.0065294 Eh/α   predicted    -0.8701463E-03 ( -19.19%)
   displ. norm   :     0.7511495 α      lambda       -0.1309532E-02
   maximum displ.:     0.4461094 α      in ANC's #18, #19, #17, ...

........................................................................
.............................. CYCLE   36 ..............................
........................................................................
   1   -414.9451604 -0.414945E+03  0.615E-02    0.73       0.0  T
   2   -414.9451625 -0.210943E-05  0.363E-02    0.73       1.0  T
   3   -414.9450891  0.733427E-04  0.155E-02    0.73       1.0  T
   4   -414.9451658 -0.766437E-04  0.255E-03    0.73       2.5  T
   5   -414.9451675 -0.167904E-05  0.107E-03    0.73       6.0  T
   6   -414.9451677 -0.263650E-06  0.546E-04    0.73      11.9  T
   7   -414.9451678 -0.461756E-07  0.271E-04    0.73      24.0  T
     SCC iter.                  ...        0 min,  1.042 sec
     gradient                   ...        0 min,  0.413 sec
 * total energy  :  -407.0966351 Eh     change       -0.1168081E-02 Eh
   gradient norm :     0.0072422 Eh/α   predicted    -0.1024208E-02 ( -12.32%)
   displ. norm   :     0.7709115 α      lambda       -0.1235217E-02
   maximum displ.:     0.4641229 α      in ANC's #18, #19, #17, ...

........................................................................
.............................. CYCLE   37 ..............................
........................................................................
   1   -414.9402051 -0.414940E+03  0.595E-02    0.73       0.0  T
   2   -414.9402071 -0.200613E-05  0.350E-02    0.73       1.0  T
   3   -414.9401565  0.505164E-04  0.119E-02    0.73       1.0  T
   4   -414.9402100 -0.534538E-04  0.184E-03    0.73       3.5  T
   5   -414.9402108 -0.775179E-06  0.916E-04    0.73       7.1  T
   6   -414.9402109 -0.119915E-06  0.545E-04    0.73      11.9  T
     SCC iter.                  ...        0 min,  0.896 sec
     gradient                   ...        0 min,  0.413 sec
 * total energy  :  -407.0977366 Eh     change       -0.1101498E-02 Eh
   gradient norm :     0.0067646 Eh/α   predicted    -0.9846576E-03 ( -10.61%)
   displ. norm   :     0.7575565 α      lambda       -0.1098991E-02
   maximum displ.:     0.4676200 α      in ANC's #18, #19, #17, ...

........................................................................
.............................. CYCLE   38 ..............................
........................................................................
   1   -414.9389033 -0.414939E+03  0.524E-02    0.74       0.0  T
   2   -414.9389048 -0.150040E-05  0.308E-02    0.74       1.0  T
   3   -414.9388668  0.379778E-04  0.107E-02    0.74       1.0  T
   4   -414.9389069 -0.401139E-04  0.172E-03    0.74       3.8  T
   5   -414.9389075 -0.619183E-06  0.834E-04    0.74       7.8  T
   6   -414.9389076 -0.921166E-07  0.496E-04    0.74      13.1  T
     SCC iter.                  ...        0 min,  0.898 sec
     gradient                   ...        0 min,  0.413 sec
 * total energy  :  -407.0987389 Eh     change       -0.1002275E-02 Eh
   gradient norm :     0.0060778 Eh/α   predicted    -0.8648484E-03 ( -13.71%)
   displ. norm   :     0.7373156 α      lambda       -0.1020245E-02
   maximum displ.:     0.4646423 α      in ANC's #18, #19, #17, ...

........................................................................
.............................. CYCLE   39 ..............................
........................................................................
   1   -414.9381867 -0.414938E+03  0.439E-02    0.74       0.0  T
   2   -414.9381879 -0.118937E-05  0.257E-02    0.74       1.0  T
   3   -414.9381540  0.338578E-04  0.967E-03    0.74       1.0  T
   4   -414.9381896 -0.355580E-04  0.170E-03    0.74       3.8  T
   5   -414.9381903 -0.746520E-06  0.710E-04    0.74       9.1  T
   6   -414.9381904 -0.509089E-07  0.451E-04    0.74      14.4  T
     SCC iter.                  ...        0 min,  0.896 sec
     gradient                   ...        0 min,  0.412 sec
 * total energy  :  -407.0996806 Eh     change       -0.9417445E-03 Eh
   gradient norm :     0.0050984 Eh/α   predicted    -0.7874477E-03 ( -16.38%)
   displ. norm   :     0.7351277 α      lambda       -0.9839019E-03
   maximum displ.:     0.4706945 α      in ANC's #18, #19, #17, ...

........................................................................
.............................. CYCLE   40 ..............................
........................................................................
   1   -414.9409544 -0.414941E+03  0.406E-02    0.74       0.0  T
   2   -414.9409553 -0.902802E-06  0.239E-02    0.74       1.0  T
   3   -414.9409215  0.337863E-04  0.968E-03    0.74       1.0  T
   4   -414.9409570 -0.354233E-04  0.161E-03    0.74       4.0  T
   5   -414.9409576 -0.665039E-06  0.697E-04    0.74       9.3  T
   6   -414.9409577 -0.646398E-07  0.417E-04    0.74      15.5  T
     SCC iter.                  ...        0 min,  0.895 sec
     gradient                   ...        0 min,  0.412 sec
 * total energy  :  -407.1005903 Eh     change       -0.9096760E-03 Eh
   gradient norm :     0.0045181 Eh/α   predicted    -0.7578145E-03 ( -16.69%)
   displ. norm   :     0.7398779 α      lambda       -0.9563233E-03
   maximum displ.:     0.4792233 α      in ANC's #18, #19, #17, ...

........................................................................
.............................. CYCLE   41 ..............................
........................................................................
   1   -414.9405559 -0.414941E+03  0.397E-02    0.74       0.0  T
   2   -414.9405566 -0.700648E-06  0.233E-02    0.74       1.0  T
   3   -414.9405262  0.304241E-04  0.900E-03    0.74       1.0  T
   4   -414.9405581 -0.319217E-04  0.139E-03    0.74       4.7  T
   5   -414.9405586 -0.487210E-06  0.668E-04    0.74       9.7  T
   6   -414.9405587 -0.597643E-07  0.385E-04    0.74      16.8  T
     SCC iter.                  ...        0 min,  0.894 sec
     gradient                   ...        0 min,  0.412 sec
 * total energy  :  -407.1014756 Eh     change       -0.8853620E-03 Eh
   gradient norm :     0.0050716 Eh/α   predicted    -0.7399179E-03 ( -16.43%)
   displ. norm   :     0.7389303 α      lambda       -0.9365023E-03
   maximum displ.:     0.4840539 α      in ANC's #18, #19, #17, ...

........................................................................
.............................. CYCLE   42 ..............................
........................................................................
   1   -414.9421996 -0.414942E+03  0.392E-02    0.74       0.0  T
   2   -414.9422001 -0.517676E-06  0.230E-02    0.74       1.0  T
   3   -414.9421743  0.257736E-04  0.862E-03    0.74       1.0  T
   4   -414.9422015 -0.272137E-04  0.112E-03    0.74       5.8  T
   5   -414.9422018 -0.229517E-06  0.653E-04    0.74       9.9  T
   6   -414.9422018 -0.637149E-07  0.327E-04    0.74      19.8  T
     SCC iter.                  ...        0 min,  0.903 sec
     gradient                   ...        0 min,  0.411 sec
 * total energy  :  -407.1023490 Eh     change       -0.8734154E-03 Eh
   gradient norm :     0.0054924 Eh/α   predicted    -0.7239296E-03 ( -17.12%)
   displ. norm   :     0.7498545 α      lambda       -0.9398776E-03
   maximum displ.:     0.4996086 α      in ANC's #18, #19, #17, ...
 * RMSD in coord.:     0.8751068 α      energy gain  -0.8619542E-01 Eh

generating ANC from model Hessian ...
Using Lindh-Hessian (1995)
 Shifting diagonal of input Hessian by    1.0008197055810370E-002
 Lowest  eigenvalues of input Hessian
    0.010000    0.010000    0.010001    0.010008    0.000000    0.000000
    0.000000    0.000000    0.000000    0.000000    0.010009    0.010009
    0.010011    0.010012    0.010012    0.010017    0.010020    0.010022
 Highest eigenvalues
    2.414460    2.944318    2.946712    2.951797    2.952375    2.952628


........................................................................
.............................. CYCLE   43 ..............................
........................................................................
   1   -414.9425174 -0.414943E+03  0.397E-02    0.74       0.0  T
   2   -414.9425182 -0.736932E-06  0.233E-02    0.74       1.0  T
   3   -414.9424960  0.221710E-04  0.813E-03    0.74       1.0  T
   4   -414.9425195 -0.234626E-04  0.124E-03    0.74       5.2  T
   5   -414.9425198 -0.311192E-06  0.670E-04    0.74       9.7  T
   6   -414.9425198 -0.665408E-07  0.344E-04    0.74      18.9  T
     SCC iter.                  ...        0 min,  0.898 sec
     gradient                   ...        0 min,  0.410 sec
 * total energy  :  -407.1032314 Eh     change       -0.8823725E-03 Eh
   gradient norm :     0.0051960 Eh/α   predicted     0.0000000E+00 (-100.00%)
   displ. norm   :     0.1325540 α      lambda       -0.2474396E-03
   maximum displ.:     0.0856125 α      in ANC's #18, #19, #23, ...

........................................................................
.............................. CYCLE   44 ..............................
........................................................................
   1   -414.9420017 -0.414942E+03  0.169E-02    0.74       0.0  T
   2   -414.9420020 -0.295085E-06  0.100E-02    0.74       1.0  T
   3   -414.9419964  0.556157E-05  0.381E-03    0.74       1.7  T
   4   -414.9420020 -0.561865E-05  0.905E-04    0.74       7.2  T
   5   -414.9420023 -0.311349E-06  0.357E-04    0.74      18.2  T
   6   -414.9420024 -0.392450E-07  0.158E-04    0.74      41.0  T
     SCC iter.                  ...        0 min,  0.895 sec
     gradient                   ...        0 min,  0.411 sec
 * total energy  :  -407.1034480 Eh     change       -0.2165446E-03 Eh
   gradient norm :     0.0035078 Eh/α   predicted    -0.1274760E-03 ( -41.13%)
   displ. norm   :     0.4334181 α      lambda       -0.6943535E-03
   maximum displ.:     0.2680784 α      in ANC's #18, #23, #19, ...

........................................................................
.............................. CYCLE   45 ..............................
........................................................................
   1   -414.9407735 -0.414941E+03  0.447E-02    0.74       0.0  T
   2   -414.9407761 -0.264118E-05  0.264E-02    0.74       1.0  T
   3   -414.9407284  0.477444E-04  0.113E-02    0.74       1.0  T
   4   -414.9407768 -0.484469E-04  0.270E-03    0.74       2.4  T
   5   -414.9407796 -0.275197E-05  0.102E-03    0.74       6.4  T
   6   -414.9407799 -0.331341E-06  0.446E-04    0.74      14.5  T
   7   -414.9407799 -0.234293E-07  0.256E-04    0.74      25.3  T
     SCC iter.                  ...        0 min,  1.043 sec
     gradient                   ...        0 min,  0.412 sec
 * total energy  :  -407.1039553 Eh     change       -0.5073520E-03 Eh
   gradient norm :     0.0060199 Eh/α   predicted    -0.4123947E-03 ( -18.72%)
   displ. norm   :     0.5463564 α      lambda       -0.7521530E-03
   maximum displ.:     0.3325915 α      in ANC's #18, #19, #23, ...

........................................................................
.............................. CYCLE   46 ..............................
........................................................................
   1   -414.9409127 -0.414941E+03  0.480E-02    0.74       0.0  T
   2   -414.9409142 -0.153146E-05  0.284E-02    0.74       1.0  T
   3   -414.9408508  0.633887E-04  0.128E-02    0.74       1.0  T
   4   -414.9409166 -0.658143E-04  0.240E-03    0.74       2.7  T
   5   -414.9409185 -0.189936E-05  0.956E-04    0.74       6.8  T
   6   -414.9409187 -0.219808E-06  0.491E-04    0.74      13.2  T
   7   -414.9409188 -0.258408E-07  0.255E-04    0.74      25.5  T
     SCC iter.                  ...        0 min,  1.047 sec
     gradient                   ...        0 min,  0.410 sec
 * total energy  :  -407.1044505 Eh     change       -0.4951834E-03 Eh
   gradient norm :     0.0093590 Eh/α   predicted    -0.4883453E-03 (  -1.38%)
   displ. norm   :     0.5096624 α      lambda       -0.6442572E-03
   maximum displ.:     0.3231373 α      in ANC's #18, #19, #23, ...

........................................................................
.............................. CYCLE   47 ..............................
........................................................................
   1   -414.9434506 -0.414943E+03  0.372E-02    0.74       0.0  T
   2   -414.9434508 -0.174560E-06  0.219E-02    0.74       1.0  T
   3   -414.9434133  0.375203E-04  0.969E-03    0.74       1.0  T
   4   -414.9434525 -0.392505E-04  0.152E-03    0.74       4.3  T
   5   -414.9434532 -0.660170E-06  0.588E-04    0.74      11.0  T
   6   -414.9434532 -0.526735E-07  0.340E-04    0.74      19.0  T
     SCC iter.                  ...        0 min,  0.898 sec
     gradient                   ...        0 min,  0.411 sec
 * total energy  :  -407.1049992 Eh     change       -0.5486577E-03 Eh
   gradient norm :     0.0089979 Eh/α   predicted    -0.4058050E-03 ( -26.04%)
   displ. norm   :     0.5399657 α      lambda       -0.7561395E-03
   maximum displ.:     0.3403403 α      in ANC's #18, #23, #19, ...

........................................................................
.............................. CYCLE   48 ..............................
........................................................................
   1   -414.9475633 -0.414948E+03  0.402E-02    0.74       0.0  T
   2   -414.9475639 -0.669247E-06  0.238E-02    0.74       1.0  T
   3   -414.9475313  0.326455E-04  0.923E-03    0.74       1.0  T
   4   -414.9475649 -0.335787E-04  0.195E-03    0.74       3.3  T
   5   -414.9475660 -0.111927E-05  0.627E-04    0.74      10.3  T
   6   -414.9475660 -0.578259E-07  0.347E-04    0.74      18.7  T
   7   -414.9475661 -0.113737E-07  0.181E-04    0.74      35.9  T
     SCC iter.                  ...        0 min,  1.044 sec
     gradient                   ...        0 min,  0.410 sec
 * total energy  :  -407.1056381 Eh     change       -0.6388997E-03 Eh
   gradient norm :     0.0067513 Eh/α   predicted    -0.4883018E-03 ( -23.57%)
   displ. norm   :     0.6305378 α      lambda       -0.8540440E-03
   maximum displ.:     0.3985026 α      in ANC's #18, #19, #23, ...

........................................................................
.............................. CYCLE   49 ..............................
........................................................................
   1   -414.9504300 -0.414950E+03  0.491E-02    0.74       0.0  T
   2   -414.9504323 -0.230384E-05  0.289E-02    0.74       1.0  T
   3   -414.9503977  0.345967E-04  0.102E-02    0.74       1.0  T
   4   -414.9504322 -0.344809E-04  0.289E-03    0.74       2.2  T
   5   -414.9504349 -0.270295E-05  0.844E-04    0.74       7.7  T
   6   -414.9504351 -0.134218E-06  0.430E-04    0.74      15.1  T
   7   -414.9504351 -0.139253E-07  0.248E-04    0.74      26.1  T
     SCC iter.                  ...        0 min,  1.044 sec
     gradient                   ...        0 min,  0.410 sec
 * total energy  :  -407.1063086 Eh     change       -0.6705584E-03 Eh
   gradient norm :     0.0070238 Eh/α   predicted    -0.5967970E-03 ( -11.00%)
   displ. norm   :     0.6662751 α      lambda       -0.8457837E-03
   maximum displ.:     0.4243476 α      in ANC's #18, #19, #23, ...

........................................................................
.............................. CYCLE   50 ..............................
........................................................................
   1   -414.9501434 -0.414950E+03  0.467E-02    0.74       0.0  T
   2   -414.9501452 -0.179555E-05  0.275E-02    0.74       1.0  T
   3   -414.9501113  0.338882E-04  0.103E-02    0.74       1.0  T
   4   -414.9501458 -0.345190E-04  0.249E-03    0.74       2.6  T
   5   -414.9501477 -0.182958E-05  0.869E-04    0.74       7.5  T
   6   -414.9501478 -0.137200E-06  0.473E-04    0.74      13.7  T
   7   -414.9501478 -0.303166E-07  0.228E-04    0.74      28.4  T
     SCC iter.                  ...        0 min,  1.045 sec
     gradient                   ...        0 min,  0.411 sec
 * total energy  :  -407.1069781 Eh     change       -0.6694863E-03 Eh
   gradient norm :     0.0082105 Eh/α   predicted    -0.6106269E-03 (  -8.79%)
   displ. norm   :     0.6855888 α      lambda       -0.7774130E-03
   maximum displ.:     0.4358273 α      in ANC's #18, #19, #23, ...

........................................................................
.............................. CYCLE   51 ..............................
........................................................................
   1   -414.9471848 -0.414947E+03  0.414E-02    0.74       0.0  T
   2   -414.9471857 -0.910761E-06  0.243E-02    0.74       1.0  T
   3   -414.9471650  0.207149E-04  0.809E-03    0.74       1.0  T
   4   -414.9471867 -0.217259E-04  0.150E-03    0.74       4.3  T
   5   -414.9471872 -0.526873E-06  0.686E-04    0.74       9.4  T
   6   -414.9471873 -0.698589E-07  0.404E-04    0.74      16.0  T
     SCC iter.                  ...        0 min,  0.895 sec
     gradient                   ...        0 min,  0.410 sec
 * total energy  :  -407.1076616 Eh     change       -0.6835036E-03 Eh
   gradient norm :     0.0077952 Eh/α   predicted    -0.5714147E-03 ( -16.40%)
   displ. norm   :     0.7259662 α      lambda       -0.7633403E-03
   maximum displ.:     0.4709544 α      in ANC's #18, #19, #23, ...

........................................................................
.............................. CYCLE   52 ..............................
........................................................................
   1   -414.9434148 -0.414943E+03  0.410E-02    0.74       0.0  T
   2   -414.9434158 -0.992376E-06  0.241E-02    0.74       1.0  T
   3   -414.9433884  0.273945E-04  0.891E-03    0.74       1.0  T
   4   -414.9434167 -0.283766E-04  0.179E-03    0.74       3.6  T
   5   -414.9434177 -0.914610E-06  0.707E-04    0.74       9.2  T
   6   -414.9434177 -0.902761E-07  0.383E-04    0.74      16.9  T
     SCC iter.                  ...        0 min,  0.894 sec
     gradient                   ...        0 min,  0.411 sec
 * total energy  :  -407.1083561 Eh     change       -0.6945074E-03 Eh
   gradient norm :     0.0054267 Eh/α   predicted    -0.5828252E-03 ( -16.08%)
   displ. norm   :     0.7025148 α      lambda       -0.6794144E-03
   maximum displ.:     0.4629090 α      in ANC's #18, #19, #23, ...

........................................................................
.............................. CYCLE   53 ..............................
........................................................................
   1   -414.9411044 -0.414941E+03  0.396E-02    0.74       0.0  T
   2   -414.9411057 -0.127389E-05  0.232E-02    0.74       1.0  T
   3   -414.9410851  0.205843E-04  0.768E-03    0.74       1.0  T
   4   -414.9411062 -0.211146E-04  0.183E-03    0.74       3.5  T
   5   -414.9411072 -0.103321E-05  0.704E-04    0.74       9.2  T
   6   -414.9411073 -0.994162E-07  0.359E-04    0.74      18.0  T
   7   -414.9411074 -0.168669E-07  0.170E-04    0.74      38.1  T
     SCC iter.                  ...        0 min,  1.045 sec
     gradient                   ...        0 min,  0.409 sec
 * total energy  :  -407.1089816 Eh     change       -0.6255330E-03 Eh
   gradient norm :     0.0042617 Eh/α   predicted    -0.5073660E-03 ( -18.89%)
   displ. norm   :     0.6577049 α      lambda       -0.5889484E-03
   maximum displ.:     0.4350293 α      in ANC's #18, #19, #23, ...

........................................................................
.............................. CYCLE   54 ..............................
........................................................................
   1   -414.9402717 -0.414940E+03  0.361E-02    0.74       0.0  T
   2   -414.9402727 -0.100185E-05  0.211E-02    0.74       1.0  T
   3   -414.9402607  0.120635E-04  0.602E-03    0.74       1.1  T
   4   -414.9402734 -0.126865E-04  0.126E-03    0.74       5.1  T
   5   -414.9402738 -0.413830E-06  0.597E-04    0.74      10.9  T
   6   -414.9402738 -0.591282E-07  0.344E-04    0.74      18.8  T
     SCC iter.                  ...        0 min,  0.893 sec
     gradient                   ...        0 min,  0.409 sec
 * total energy  :  -407.1095328 Eh     change       -0.5511342E-03 Eh
   gradient norm :     0.0043139 Eh/α   predicted    -0.4218597E-03 ( -23.46%)
   displ. norm   :     0.6301078 α      lambda       -0.5416165E-03
   maximum displ.:     0.4196841 α      in ANC's #18, #19, #23, ...

........................................................................
.............................. CYCLE   55 ..............................
........................................................................
   1   -414.9400424 -0.414940E+03  0.344E-02    0.74       0.0  T
   2   -414.9400431 -0.683111E-06  0.202E-02    0.74       1.0  T
   3   -414.9400351  0.798325E-05  0.495E-03    0.74       1.3  T
   4   -414.9400436 -0.850077E-05  0.973E-04    0.74       6.7  T
   5   -414.9400438 -0.189183E-06  0.527E-04    0.74      12.3  T
   6   -414.9400438 -0.330066E-07  0.314E-04    0.74      20.7  T
     SCC iter.                  ...        0 min,  0.895 sec
     gradient                   ...        0 min,  0.409 sec
 * total energy  :  -407.1100418 Eh     change       -0.5090145E-03 Eh
   gradient norm :     0.0044219 Eh/α   predicted    -0.3783296E-03 ( -25.67%)
   displ. norm   :     0.6244121 α      lambda       -0.5173768E-03
   maximum displ.:     0.4158478 α      in ANC's #18, #19, #23, ...

........................................................................
.............................. CYCLE   56 ..............................
........................................................................
   1   -414.9401313 -0.414940E+03  0.351E-02    0.74       0.0  T
   2   -414.9401319 -0.602428E-06  0.206E-02    0.74       1.0  T
   3   -414.9401237  0.824867E-05  0.526E-03    0.74       1.2  T
[...]
 145:  0.00 146:  0.00 147:  0.00 148:  0.00 149:  0.00 150:  0.00 151:  0.00 152:  0.00
 153:  0.00 154:  0.00 155:  0.00 156:  0.00 157:  0.00 158:  0.00 159:  0.00 160:  0.00
 161:  0.00 162:  0.00 163:  0.00 164:  0.00 165:  0.00 166:  0.00 167:  0.00 168:  0.00
 169:  0.00 170:  0.00 171:  0.00 172:  0.00 173:  0.00 174:  0.00 175:  0.00 176:  0.00
 177:  0.00 178:  0.00 179:  0.00 180:  0.00 181:  0.00 182:  0.00 183:  0.00 184:  0.00
 185:  0.00 186:  0.00 187:  0.00 188:  0.00 189:  0.00 190:  0.00 191:  0.00 192:  0.00
 193:  0.00 194:  0.00 195:  0.00 196:  0.00 197:  0.00 198:  0.00 199:  0.00 200:  0.00
 201:  0.00 202:  0.00 203:  0.00 204:  0.00 205:  0.00 206:  0.00 207:  0.00 208:  0.00
 209:  0.00 210:  0.00 211:  0.00 212:  0.00 213:  0.00 214:  0.00 215:  0.00 216:  0.00
 217:  0.00 218:  0.00 219:  0.00 220:  0.00 221:  0.00 222:  0.00 223:  0.00 224:  0.00
 225:  0.00 226:  0.00 227:  0.00 228:  0.00 229:  0.00 230:  0.00 231:  0.00 232:  0.00
 233:  0.00 234:  0.00 235:  0.00 236:  0.00 237:  0.00 238:  0.00 239:  0.00 240:  0.00
 241:  0.00 242:  0.00 243:  0.00 244:  0.00 245:  0.00 246:  0.00 247:  0.00 248:  0.00
 249:  0.00 250:  0.00 251:  0.00 252:  0.00 253:  0.00 254:  0.00 255:  0.00 256:  0.00
 257:  0.00 258:  0.00 259:  0.00 260:  0.00 261:  0.00 262:  0.00 263:  0.00 264:  0.00
 265:  0.00 266:  0.00 267:  0.00 268:  0.00 269:  0.00 270:  0.00 271:  0.00 272:  0.00
 273:  0.00 274:  0.00 275:  0.00 276:  0.00 277:  0.00 278:  0.00 279:  0.00 280:  0.00
 281:  0.00 282:  0.00 283:  0.00 284:  0.00 285:  0.00 286:  0.00 287:  0.00 288:  0.00
 289:  0.00 290:  0.00 291:  0.00 292:  0.00 293:  0.00 294:  0.00 295:  0.00 296:  0.00
 297:  0.00 298:  0.00 299:  0.00 300:  0.00 301:  0.00 302:  0.00 303:  0.00 304:  0.00
 305:  0.00 306:  0.00 307:  0.00 308:  0.00 309:  0.00 310:  0.00 311:  0.00 312:  0.00
 313:  0.00 314:  0.00 315:  0.00 316:  0.00 317:  0.00 318:  0.00 319:  0.00 320:  0.00
 321:  0.00 322:  0.00 323:  0.00 324:  0.00 325:  0.00 326:  0.00 327:  0.00 328:  0.00
 329:  0.00 330:  0.00 331:  0.00 332:  0.00 333:  0.00 334:  0.00 335:  0.00 336:  0.00
 337:  0.00 338:  0.00 339:  0.00 340:  0.00 341:  0.00 342:  0.00 343:  0.00 344:  0.00
 345:  0.00 346:  0.00 347:  0.00 348:  0.00 349:  0.00 350:  0.00 351:  0.00 352:  0.00
 353:  0.00 354:  0.00 355:  0.00 356:  0.00 357:  0.00 358:  0.00 359:  0.00 360:  0.00
 361:  0.00 362:  0.00 363:  0.00 364:  0.00 365:  0.00 366:  0.00 367:  0.00 368:  0.00
 369:  0.00 370:  0.00 371:  0.00 372:  0.00 373:  0.00 374:  0.00 375:  0.00 376:  0.00
 377:  0.00 378:  0.00 379:  0.00 380:  0.00 381:  0.00 382:  0.00 383:  0.00 384:  0.00
 385:  0.00 386:  0.00 387:  0.00 388:  0.00 389:  0.00 390:  0.00 391:  0.00 392:  0.00
 393:  0.00 394:  0.00 395:  0.00 396:  0.00 397:  0.00 398:  0.00 399:  0.00 400:  0.00
 401:  0.00 402:  0.00 403:  0.00 404:  0.00 405:  0.00 406:  0.00 407:  0.00 408:  0.00
 409:  0.00 410:  0.00 411:  0.00 412:  0.00 413:  0.00 414:  0.00 415:  0.00 416:  0.00
 417:  0.00 418:  0.00 419:  0.00 420:  0.00 421:  0.00 422:  0.00 423:  0.00 424:  0.00
 425:  0.00 426:  0.00 427:  0.00 428:  0.00 429:  0.00 430:  0.00 431:  0.00 432:  0.00
 433:  0.00 434:  0.00 435:  0.00 436:  0.00 437:  0.00 438:  0.00 439:  0.00 440:  0.00
 441:  0.00 442:  0.00 443:  0.00 444:  0.00 445:  0.00 446:  0.00 447:  0.00 448:  0.00
 449:  0.00 450:  0.00 451:  0.00 452:  0.00 453:  0.00 454:  0.00 455:  0.00 456:  0.00
 457:  0.00 458:  0.00 459:  0.00 460:  0.00 461:  0.00 462:  0.00 463:  0.00 464:  0.00
 465:  0.00 466:  0.00 467:  0.00 468:  0.00 469:  0.00 470:  0.00 471:  0.00 472:  0.00
 473:  0.00 474:  0.00 475:  0.00 476:  0.00 477:  0.00 478:  0.00 479:  0.00 480:  0.00
 481:  0.00 482:  0.00 483:  0.00 484:  0.00 485:  0.00 486:  0.00 487:  0.00 488:  0.00
 489:  0.00 490:  0.00 491:  0.00 492:  0.00 493:  0.00 494:  0.00 495:  0.00 496:  0.00
 497:  0.00 498:  0.00 499:  0.00 500:  0.00 501:  0.00 502:  0.00 503:  0.00 504:  0.00
 505:  0.00 506:  0.00 507:  0.00 508:  0.00 509:  0.00 510:  0.00 511:  0.00 512:  0.00
 513:  0.00 514:  0.00 515:  0.00 516:  0.00 517:  0.00 518:  0.00 519:  0.00 520:  0.00
 521:  0.00 522:  0.00 523:  0.00 524:  0.00 525:  0.00 526:  0.00 527:  0.00 528:  0.00
 529:  0.00 530:  0.00 531:  0.00 532:  0.00 533:  0.00 534:  0.00 535:  0.00 536:  0.00
 537:  0.00 538:  0.00 539:  0.00 540:  0.00 541:  0.00 542:  0.00 543:  0.00 544:  0.00
 545:  0.00 546:  0.00 547:  0.00 548:  0.00 549:  0.00 550:  0.00 551:  0.00 552:  0.00
 553:  0.00 554:  0.00 555:  0.00 556:  0.00 557:  0.00 558:  0.00 559:  0.00 560:  0.00
 561:  0.00 562:  0.00 563:  0.00 564:  0.00 565:  0.00 566:  0.00 567:  0.00 568:  0.00
 569:  0.00 570:  0.00 571:  0.00 572:  0.00 573:  0.00 574:  0.00 575:  0.00 576:  0.00
 577:  0.00 578:  0.00 579:  0.00 580:  0.00 581:  0.00 582:  0.00 583:  0.00 584:  0.00
 585:  0.00 586:  0.00 587:  0.00 588:  0.00 589:  0.00 590:  0.00 591:  0.00 592:  0.00
 593:  0.00 594:  0.00 595:  0.00 596:  0.00 597:  0.00 598:  0.00 599:  0.00 600:  0.00
 601:  0.00 602:  0.00 603:  0.00 604:  0.00 605:  0.00 606:  0.00 607:  0.00 608:  0.00
 609:  0.00 610:  0.00 611:  0.00 612:  0.00 613:  0.00 614:  0.00 615:  0.00 616:  0.00
 617:  0.00 618:  0.00 619:  0.00 620:  0.00 621:  0.00 622:  0.00 623:  0.00 624:  0.00
 625:  0.00 626:  0.00 627:  0.00 628:  0.00 629:  0.00 630:  0.00 631:  0.00 632:  0.00
 633:  0.00 634:  0.00 635:  0.00 636:  0.00 637:  0.00 638:  0.00 639:  0.00 640:  0.00
 641:  0.00 642:  0.00 643:  0.00 644:  0.00 645:  0.00 646:  0.00 647:  0.00 648:  0.00
 649:  0.00 650:  0.00 651:  0.00 652:  0.00 653:  0.00 654:  0.00 655:  0.00 656:  0.00
 657:  0.00 658:  0.00 659:  0.00 660:  0.00 661:  0.00 662:  0.00 663:  0.00 664:  0.00
 665:  0.00 666:  0.00 667:  0.00 668:  0.00 669:  0.00 670:  0.00 671:  0.00 672:  0.00
 673:  0.00 674:  0.00 675:  0.00 676:  0.00 677:  0.00 678:  0.00 679:  0.00 680:  0.00
 681:  0.00 682:  0.00 683:  0.00 684:  0.00 685:  0.00 686:  0.00 687:  0.00 688:  0.00
 689:  0.00 690:  0.00 691:  0.00 692:  0.00 693:  0.00 694:  0.00 695:  0.00 696:  0.00
 697:  0.00 698:  0.00 699:  0.00 700:  0.00 701:  0.00 702:  0.00 703:  0.00 704:  0.00
 705:  0.00 706:  0.00 707:  0.00 708:  0.00 709:  0.00 710:  0.00 711:  0.00 712:  0.00
 713:  0.00 714:  0.00
 output can be read by thermo (or use thermo option).
 writing <g98.out> molden fake output.
 recommended (thermochemical) frequency scaling factor: 1.0
           -------------------------------------------------
          |             Thermodynamic Functions             |
           -------------------------------------------------
 symmetry recognition skipped because # atoms >         200
 inverting freq            1   3.6237174189675887     
 inverting freq            2   2.6991177922987468     
 inverting freq            3   1.0577974423866767     

          ...................................................
          :                      SETUP                      :
          :.................................................:
          :  # frequencies                         708      :
          :  # imaginary freq.                       0      :
          :  linear?                             false      :
          :  only rotor calc.                    false      :
          :  symmetry                               C1      :
          :  rotational number                       1      :
          :  scaling factor                  1.0000000      :
          :  rotor cutoff                   50.0000000 cm⁻¹ :
          :  imag. cutoff                  -20.0000000 cm⁻¹ :
          :.................................................:

    mode    ω/cm⁻¹     T·S(HO)/kcal·mol⁻¹    T·S(FR)/kcal·mol⁻¹   T·S(vib)
   ------------------------------------------------------------------------
       1      3.62    -2.98986 (  0.00%)    -1.83404 (100.00%)    -1.83407
       2      2.70    -3.16439 (  0.00%)    -1.92131 (100.00%)    -1.92132
       3      1.06    -3.71939 (  0.00%)    -2.19880 (100.00%)    -2.19881
       4      1.70    -3.43672 (  0.00%)    -2.05747 (100.00%)    -2.05748
       5      3.16    -3.07025 (  0.00%)    -1.87424 (100.00%)    -1.87426
       6      3.89    -2.94760 (  0.00%)    -1.81291 (100.00%)    -1.81295
       7      6.00    -2.69088 (  0.02%)    -1.68454 ( 99.98%)    -1.68475
       8      6.23    -2.66916 (  0.02%)    -1.67369 ( 99.98%)    -1.67393
       9      6.68    -2.62738 (  0.03%)    -1.65279 ( 99.97%)    -1.65310
      10      7.53    -2.55691 (  0.05%)    -1.61756 ( 99.95%)    -1.61804
      11      8.14    -2.51053 (  0.07%)    -1.59436 ( 99.93%)    -1.59501
      12      8.84    -2.46145 (  0.10%)    -1.56982 ( 99.90%)    -1.57069
      13      9.03    -2.44921 (  0.11%)    -1.56370 ( 99.89%)    -1.56464
      14      9.45    -2.42229 (  0.13%)    -1.55024 ( 99.87%)    -1.55135
      15     11.06    -2.32854 (  0.24%)    -1.50335 ( 99.76%)    -1.50533
      16     12.75    -2.24468 (  0.42%)    -1.46141 ( 99.58%)    -1.46471
      17     14.76    -2.15773 (  0.75%)    -1.41792 ( 99.25%)    -1.42350
      18     16.83    -2.08008 (  1.27%)    -1.37908 ( 98.73%)    -1.38797
      19     21.19    -1.94385 (  3.12%)    -1.31092 ( 96.88%)    -1.33068
      20     23.62    -1.87957 (  4.74%)    -1.27874 ( 95.26%)    -1.30723
      21     25.89    -1.82528 (  6.70%)    -1.25156 ( 93.30%)    -1.29002
      22     28.33    -1.77186 (  9.35%)    -1.22482 ( 90.65%)    -1.27595
      23     29.33    -1.75140 ( 10.59%)    -1.21457 ( 89.41%)    -1.27140
      24     30.63    -1.72583 ( 12.34%)    -1.20176 ( 87.66%)    -1.26643
      25     33.51    -1.67265 ( 16.78%)    -1.17512 ( 83.22%)    -1.25863
      26     37.78    -1.60176 ( 24.58%)    -1.13959 ( 75.42%)    -1.25318
      27     40.64    -1.55866 ( 30.38%)    -1.11797 ( 69.62%)    -1.25185
      28     41.51    -1.54616 ( 32.20%)    -1.11170 ( 67.80%)    -1.25159
      29     41.57    -1.54524 ( 32.33%)    -1.11124 ( 67.67%)    -1.25157
      30     41.77    -1.54240 ( 32.76%)    -1.10982 ( 67.24%)    -1.25152
      31     42.04    -1.53861 ( 33.32%)    -1.10792 ( 66.68%)    -1.25144
      32     42.73    -1.52901 ( 34.78%)    -1.10310 ( 65.22%)    -1.25125
      33     42.85    -1.52732 ( 35.05%)    -1.10225 ( 64.95%)    -1.25122
      34     43.26    -1.52179 ( 35.90%)    -1.09948 ( 64.10%)    -1.25110
      35     43.88    -1.51338 ( 37.22%)    -1.09526 ( 62.78%)    -1.25090
      36     47.28    -1.46924 ( 44.44%)    -1.07309 ( 55.56%)    -1.24913
      37     53.40    -1.39758 ( 56.53%)    -1.03709 ( 43.47%)    -1.24088
      38     55.79    -1.37169 ( 60.79%)    -1.02407 ( 39.21%)    -1.23539
      39     60.15    -1.32744 ( 67.68%)    -1.00180 ( 32.32%)    -1.22221
      40     65.29    -1.27919 ( 74.41%)    -0.97749 ( 25.59%)    -1.20199
      41     66.97    -1.26431 ( 76.29%)    -0.96999 ( 23.71%)    -1.19454
      42     70.80    -1.23167 ( 80.08%)    -0.95352 ( 19.92%)    -1.17626
      43     72.35    -1.21892 ( 81.43%)    -0.94708 ( 18.57%)    -1.16844
      44     84.42    -1.12864 ( 89.04%)    -0.90140 ( 10.96%)    -1.10374
      45     88.73    -1.09955 ( 90.84%)    -0.88664 (  9.16%)    -1.08005
      46     91.06    -1.08441 ( 91.67%)    -0.87895 (  8.33%)    -1.06729
      47     91.87    -1.07923 ( 91.94%)    -0.87632 (  8.06%)    -1.06287
      48     92.32    -1.07640 ( 92.08%)    -0.87488 (  7.92%)    -1.06044
      49     94.36    -1.06366 ( 92.69%)    -0.86840 (  7.31%)    -1.04939
      50     94.73    -1.06138 ( 92.80%)    -0.86724 (  7.20%)    -1.04740
      51     99.75    -1.03137 ( 94.06%)    -0.85196 (  5.94%)    -1.02072
      52    103.92    -1.00759 ( 94.91%)    -0.83983 (  5.09%)    -0.99906
      53    108.04    -0.98503 ( 95.61%)    -0.82830 (  4.39%)    -0.97815
      54    110.89    -0.96996 ( 96.03%)    -0.82059 (  3.97%)    -0.96403
      55    111.08    -0.96899 ( 96.06%)    -0.82009 (  3.94%)    -0.96312
      56    113.17    -0.95818 ( 96.33%)    -0.81455 (  3.67%)    -0.95291
      57    113.51    -0.95643 ( 96.37%)    -0.81366 (  3.63%)    -0.95126
      58    114.04    -0.95376 ( 96.44%)    -0.81229 (  3.56%)    -0.94872
      59    114.89    -0.94947 ( 96.54%)    -0.81009 (  3.46%)    -0.94465
      60    116.15    -0.94321 ( 96.68%)    -0.80687 (  3.32%)    -0.93868
      61    116.38    -0.94204 ( 96.71%)    -0.80627 (  3.29%)    -0.93757
      62    130.35    -0.87684 ( 97.88%)    -0.77270 (  2.12%)    -0.87463
      63    130.79    -0.87487 ( 97.91%)    -0.77168 (  2.09%)    -0.87271
      64    131.55    -0.87157 ( 97.96%)    -0.76998 (  2.04%)    -0.86949
      65    132.59    -0.86704 ( 98.02%)    -0.76764 (  1.98%)    -0.86507
      66    134.00    -0.86099 ( 98.10%)    -0.76450 (  1.90%)    -0.85915
      67    139.13    -0.83952 ( 98.36%)    -0.75337 (  1.64%)    -0.83811
      68    139.28    -0.83893 ( 98.37%)    -0.75307 (  1.63%)    -0.83752
      69    139.57    -0.83774 ( 98.38%)    -0.75245 (  1.62%)    -0.83636
      70    139.91    -0.83632 ( 98.40%)    -0.75171 (  1.60%)    -0.83496
      71    140.59    -0.83358 ( 98.43%)    -0.75029 (  1.57%)    -0.83227
      72    142.54    -0.82573 ( 98.51%)    -0.74621 (  1.49%)    -0.82454
      73    144.08    -0.81960 ( 98.57%)    -0.74302 (  1.43%)    -0.81851
      74    145.86    -0.81261 ( 98.64%)    -0.73938 (  1.36%)    -0.81162
      75    147.10    -0.80782 ( 98.68%)    -0.73689 (  1.32%)    -0.80689
      76    150.32    -0.79552 ( 98.79%)    -0.73047 (  1.21%)    -0.79474
      77    153.11    -0.78509 ( 98.88%)    -0.72501 (  1.12%)    -0.78442
      78    154.91    -0.77848 ( 98.93%)    -0.72156 (  1.07%)    -0.77787
      79    158.38    -0.76596 ( 99.02%)    -0.71499 (  0.98%)    -0.76546
      80    174.29    -0.71219 ( 99.33%)    -0.68663 (  0.67%)    -0.71202
      81    178.48    -0.69892 ( 99.39%)    -0.67959 (  0.61%)    -0.69880
      82    179.22    -0.69664 ( 99.40%)    -0.67837 (  0.60%)    -0.69653
      83    181.98    -0.68814 ( 99.43%)    -0.67385 (  0.57%)    -0.68806
      84    184.05    -0.68184 ( 99.46%)    -0.67049 (  0.54%)    -0.68178
      85    185.47    -0.67759 ( 99.47%)    -0.66822 (  0.53%)    -0.67754
      86    186.31    -0.67508 ( 99.48%)    -0.66688 (  0.52%)    -0.67504
      87    190.66    -0.66232 ( 99.53%)    -0.66004 (  0.47%)    -0.66231
      88    191.15    -0.66090 ( 99.53%)    -0.65928 (  0.47%)    -0.66089
      89    191.63    -0.65951 ( 99.54%)    -0.65854 (  0.46%)    -0.65951
      90    195.38    -0.64883 ( 99.57%)    -0.65280 (  0.43%)    -0.64884
      91    200.31    -0.63512 ( 99.61%)    -0.64541 (  0.39%)    -0.63516
      92    200.74    -0.63395 ( 99.62%)    -0.64478 (  0.38%)    -0.63400
      93    201.37    -0.63223 ( 99.62%)    -0.64385 (  0.38%)    -0.63228
      94    201.44    -0.63206 ( 99.62%)    -0.64375 (  0.38%)    -0.63210
      95    202.01    -0.63049 ( 99.63%)    -0.64290 (  0.37%)    -0.63053
      96    202.48    -0.62924 ( 99.63%)    -0.64223 (  0.37%)    -0.62929
      97    203.66    -0.62604 ( 99.64%)    -0.64050 (  0.36%)    -0.62609
      98    206.13    -0.61945 ( 99.66%)    -0.63692 (  0.34%)    -0.61951
      99    211.15    -0.60636 ( 99.69%)    -0.62980 (  0.31%)    -0.60643
     100    218.97    -0.58663 ( 99.73%)    -0.61902 (  0.27%)    -0.58672
     101    246.80    -0.52275 ( 99.83%)    -0.58358 (  0.17%)    -0.52285
     102    255.11    -0.50536 ( 99.85%)    -0.57377 (  0.15%)    -0.50546
     103    255.32    -0.50493 ( 99.85%)    -0.57353 (  0.15%)    -0.50503
     104    260.76    -0.49394 ( 99.86%)    -0.56729 (  0.14%)    -0.49404
     105    264.90    -0.48576 ( 99.87%)    -0.56262 (  0.13%)    -0.48586
     106    265.14    -0.48530 ( 99.87%)    -0.56235 (  0.13%)    -0.48539
     107    265.18    -0.48522 ( 99.87%)    -0.56231 (  0.13%)    -0.48532
     108    265.32    -0.48494 ( 99.87%)    -0.56215 (  0.13%)    -0.48504
     109    265.41    -0.48477 ( 99.87%)    -0.56205 (  0.13%)    -0.48486
     110    265.70    -0.48421 ( 99.87%)    -0.56173 (  0.13%)    -0.48430
     111    265.78    -0.48403 ( 99.87%)    -0.56163 (  0.13%)    -0.48413
     112    265.91    -0.48378 ( 99.88%)    -0.56148 (  0.12%)    -0.48388
     113    266.27    -0.48309 ( 99.88%)    -0.56109 (  0.12%)    -0.48318
     114    266.60    -0.48245 ( 99.88%)    -0.56072 (  0.12%)    -0.48255
     115    267.06    -0.48155 ( 99.88%)    -0.56021 (  0.12%)    -0.48165
     116    277.36    -0.46210 ( 99.89%)    -0.54900 (  0.11%)    -0.46219
     117    277.86    -0.46117 ( 99.90%)    -0.54846 (  0.10%)    -0.46126
     118    279.99    -0.45728 ( 99.90%)    -0.54620 (  0.10%)    -0.45737
     119    284.70    -0.44879 ( 99.90%)    -0.54126 (  0.10%)    -0.44888
     120    288.85    -0.44147 ( 99.91%)    -0.53698 (  0.09%)    -0.44156
     121    290.62    -0.43839 ( 99.91%)    -0.53517 (  0.09%)    -0.43847
     122    294.99    -0.43088 ( 99.92%)    -0.53075 (  0.08%)    -0.43096
     123    299.01    -0.42410 ( 99.92%)    -0.52673 (  0.08%)    -0.42418
     124    299.09    -0.42397 ( 99.92%)    -0.52666 (  0.08%)    -0.42405
     125    299.57    -0.42317 ( 99.92%)    -0.52618 (  0.08%)    -0.42325
   ------------------------------------------------------------------------

   temp. (K)  partition function   enthalpy   heat capacity  entropy
                                   cal/mol     cal/K/mol   cal/K/mol   J/K/mol
 298.15  VIB  0.305E+76            83067.253    530.257    537.840
         ROT  0.889E+10              888.752      2.981     48.506
         INT  0.271E+86            83956.006    533.238    586.346
         TR   0.926E+29             1481.254      4.968     48.760
         TOT                       85437.2597   538.2059   635.1055  2657.2816

       T/K    H(0)-H(T)+PV         H(T)/Eh          T*S/Eh         G(T)/Eh
   ------------------------------------------------------------------------
    298.15    0.136153E+00    0.184097E+01    0.301759E+00    0.153921E+01
   ------------------------------------------------------------------------

         :::::::::::::::::::::::::::::::::::::::::::::::::::::
         ::                  THERMODYNAMIC                  ::
         :::::::::::::::::::::::::::::::::::::::::::::::::::::
         :: total free energy        -405.577981900195 Eh   ::
         ::.................................................::
         :: total energy             -407.117193628200 Eh   ::
         :: zero point energy           1.704817928427 Eh   ::
         :: G(RRHO) w/o ZPVE           -0.165606200421 Eh   ::
         :: G(RRHO) contrib.            1.539211728005 Eh   ::
         :::::::::::::::::::::::::::::::::::::::::::::::::::::

optimized geometry written to: xtbopt.xyz


           -------------------------------------------------
          | TOTAL ENERGY             -407.117193628200 Eh   |
          | TOTAL ENTHALPY           -405.276222759869 Eh   |
          | TOTAL FREE ENERGY        -405.577981900195 Eh   |
          | GRADIENT NORM               0.000804570424 Eh/α |
          | HOMO-LUMO GAP               0.737520097016 eV   |
           -------------------------------------------------

------------------------------------------------------------------------
 * finished run on 2021/11/19 at 17:47:18.568     
------------------------------------------------------------------------
 total:
 * wall-time:     0 d,  0 h, 30 min, 21.585 sec
 *  cpu-time:     0 d,  0 h, 30 min, 21.601 sec
 * ratio c/w:     1.000 speedup
 SCF:
 * wall-time:     0 d,  0 h,  0 min,  5.940 sec
 *  cpu-time:     0 d,  0 h,  0 min,  5.940 sec
 * ratio c/w:     1.000 speedup
 ANC optimizer:
 * wall-time:     0 d,  0 h,  2 min, 36.583 sec
 *  cpu-time:     0 d,  0 h,  2 min, 36.580 sec
 * ratio c/w:     1.000 speedup
 analytical hessian:
 * wall-time:     0 d,  0 h, 27 min, 38.733 sec
 *  cpu-time:     0 d,  0 h, 27 min, 38.750 sec
 * ratio c/w:     1.000 speedup

