238
 energy: -403.605181590043 gnorm: 4.436602862656 xtb: 6.4.1 (bd6e46d)
C        43.17719700000000    3.51162600000000    0.78957500000000
C        44.06717400000000    2.57136600000000    0.59137900000000
C        43.40567300000000    1.31129100000000    0.29057200000000
C        43.76411100000001    0.00562900000000    0.00189100000000
C        42.93893300000000   -1.12544300000000   -0.08332600000000
C        43.39449800000000   -2.33416700000000    0.49798200000000
C        42.42180400000000   -3.26671300000000    0.29782600000000
C        41.39071000000000   -2.59901200000000   -0.40516100000000
N        41.72743500000000   -1.31815300000000   -0.62207500000000
C        40.23274900000000   -3.32512800000000   -0.73687800000000
C        38.91464900000000   -2.88243200000000   -0.62334300000000
C        37.60230200000001   -3.48456600000000   -0.72032300000000
C        36.68067500000000   -2.53791800000000   -0.51423800000000
C        37.37756000000000   -1.29208800000000   -0.27750600000000
N        38.69863400000000   -1.57184000000000   -0.35719200000000
C        36.97831800000001    0.00990900000000   -0.00950300000000
C        37.81093000000000    1.14658500000000    0.06640500000000
C        37.37678700000000    2.34857500000000   -0.54373500000000
C        38.37230000000000    3.26496300000000   -0.35178000000000
C        39.38645100000000    2.59172000000000    0.37215200000000
N        39.02125500000000    1.32389800000000    0.61097600000000
C        40.55609300000000    3.29867600000000    0.69365100000000
C        41.87134600000000    2.89515200000000    0.62363500000000
N        42.06096900000001    1.58404800000000    0.32723400000000
H        43.34446100000000    4.54016900000000    1.02816400000000
H        45.13743300000000    2.69470300000000    0.64039800000000
H        44.35502000000001   -2.51986900000000    1.01655800000000
H        42.45868600000000   -4.32332300000000    0.62315400000000
H        41.12415000000000   -0.55074200000000   -1.16959400000000
H        40.32114000000000   -4.36055500000000   -1.11522500000000
H        37.40362700000000   -4.54526700000000   -0.92906700000000
H        35.61126500000000   -2.72985200000000   -0.53347100000000
H        35.90337500000000    0.09917900000000    0.12824100000000
H        36.42313300000000    2.54013200000000   -1.07253300000000
H        38.35787900000000    4.31519200000000   -0.69822100000000
H        39.61457900000000    0.56645500000000    1.18297200000000
H        40.48758500000001    4.35608100000000    1.05036700000000
C       103.51480100000002   -3.49199700000000    0.82594500000000
C       102.62482400000000   -2.55384700000000    0.61799500000000
C       103.28632500000002   -1.29696400000000    0.30411700000000
C       102.92788700000001    0.00562900000000    0.00189100000000
C       103.75306500000001    1.13575500000000   -0.09506800000000
C       103.29750000000001    2.35045200000000    0.47365400000000
C       104.27019400000000    3.28086900000000    0.26382400000000
C       105.30128800000000    2.60590300000000   -0.43219000000000
N       104.96456300000000    1.32285900000000   -0.63579000000000
C       106.45924800000000    3.32853400000000   -0.77143100000000
C       107.77734900000000    2.88704100000000   -0.65330400000000
C       109.08969600000000    3.48813600000000   -0.75653200000000
C       110.01132300000000    2.54367900000000   -0.54062700000000
C       109.31443800000000    1.30037500000000   -0.29096900000000
N       107.99336400000000    1.57928400000000   -0.37355600000000
C       109.71368000000000    0.00123100000000   -0.00945800000000
C       108.88106700000002   -1.13459500000000    0.07825200000000
C       109.31521100000001   -2.34285700000000   -0.51937200000000
C       108.31969800000000   -3.25720200000000   -0.31791000000000
C       107.30554700000002   -2.57647700000000    0.39899000000000
N       107.67074300000000   -1.30624300000000    0.62463400000000
C       106.13590499999999   -3.28005600000000    0.72781500000000
C       104.82065200000000   -2.87728000000000    0.65361200000000
N       104.63102900000001   -1.56932600000000    0.34360900000000
H       103.34753700000002   -4.51800800000000    1.07520400000000
H       101.55456500000000   -2.67666900000000    0.66829100000000
H       102.33697800000000    2.54153000000000    0.99027400000000
H       104.23331200000001    4.34080000000000    0.57816000000000
H       105.56784800000000    0.54980400000000   -1.17531000000000
H       106.37085800000001    4.35997600000000   -1.16051100000000
H       109.28837100000000    4.54661100000000   -0.97628200000000
H       111.08073300000000    2.73540300000000   -0.56185200000000
H       110.78862300000000   -0.08660300000000    0.12920600000000
H       110.26886500000001   -2.53989600000000   -1.04615200000000
H       108.33411900000000   -4.31097300000000   -0.65342500000000
H       107.07741900000001   -0.54289900000000    1.18873300000000
H       106.20441300000002   -4.33369900000000    1.09549400000000
C        46.16572500000000    0.00340700000000    0.00067700000000
C        47.37370200000001    0.01086200000000    0.00237200000000
C        48.79247000000000    0.01155900000000    0.00750900000000
C        50.00798600000000    0.00340700000000    0.00067700000000
C        58.79583300000000    0.00340700000000    0.00067700000000
C        60.00381000000000    0.01086200000000    0.00237200000000
C        61.42257800000000    0.01155900000000    0.00750900000000
C        62.63809500000001    0.00340700000000    0.00067700000000
C        71.42594200000001    0.00340700000000    0.00067700000000
C        72.63391900000001    0.01086200000000    0.00237200000000
C        74.05268700000001    0.01155900000000    0.00750900000000
C        75.26820300000001    0.00340700000000    0.00067700000000
C        84.05605000000000    0.00340700000000    0.00067700000000
C        85.26402700000000    0.01086200000000    0.00237200000000
C        86.68279500000000    0.01155900000000    0.00750900000000
C        87.89831200000000    0.00340700000000    0.00067700000000
C        96.68615900000000    0.00340700000000    0.00067700000000
C        97.89413600000000    0.01086200000000    0.00237200000000
C        99.31290400000000    0.01155900000000    0.00750900000000
C       100.52842000000000    0.00340700000000    0.00067700000000
C        51.60768800000000   -3.59263900000000    0.00082500000000
C        50.73313800000000   -2.59773500000000   -0.00947600000000
C        51.40460200000000   -1.31895100000000    0.00371300000000
C        51.00757100000000   -0.00336600000000   -0.00106600000000
C        51.81876300000000    1.14095700000000   -0.15519200000000
C        51.33973800000000    2.19347400000000   -0.96725700000000
C        52.32682300000000    3.13622600000000   -0.95872600000000
C        53.37409400000001    2.63443200000000   -0.14592300000000
N        53.03524100000000    1.42806400000000    0.32682300000000
C        54.53447100000000    3.41241500000000    0.00842700000000
C        55.85546100000000    2.95454100000000   -0.02096600000000
C        57.16803000000000    3.58267400000000   -0.08209400000000
C        58.08214300000000    2.62761100000000   -0.08467800000000
C        57.40859600000000    1.34073700000000   -0.02548800000000
N        56.09653800000000    1.62933600000000    0.00930100000000
C        57.81087900000001   -0.00336600000000   -0.00106600000000
C        56.97872500000000   -1.11715500000000    0.18121500000000
C        57.41868400000001   -2.14881200000000    1.04452600000000
C        56.42050200000000   -3.07215300000000    1.04914700000000
C        55.39758600000000   -2.59221500000000    0.19571800000000
N        55.76476300000001   -1.41096800000000   -0.31479000000000
C        54.24067700000000   -3.36762200000000    0.03864900000000
C        52.91990100000000   -2.94814400000000    0.02196400000000
N        52.74351100000000   -1.60994100000000    0.02286500000000
H        51.43916900000001   -4.65480600000000   -0.00457700000000
H        49.64531000000000   -2.78377000000000   -0.02650300000000
H        50.37566000000000    2.26884500000000   -1.50157400000000
H        52.28867600000000    4.10734100000000   -1.49116900000000
H        53.64291900000001    0.79096500000000    1.01545200000000
H        54.47937200000000    4.49867600000000    0.15254200000000
H        57.38645700000000    4.65066700000000   -0.12042400000000
H        59.15845800000001    2.77365400000000   -0.12430500000000
H        58.37269300000000   -2.21322400000000    1.60207400000000
H        56.44592000000000   -4.01747000000000    1.62446700000000
H        55.17768700000000   -0.79151100000000   -1.03844000000000
H        54.30139500000000   -4.47936200000000   -0.07548000000000
C        64.23779700000000   -3.59263900000000    0.00082500000000
C        63.36324700000000   -2.59773500000000   -0.00947600000000
C        64.03471000000000   -1.31895100000000    0.00371300000000
C        63.63767900000000   -0.00336600000000   -0.00106600000000
C        64.44887199999999    1.14095700000000   -0.15519200000000
C        63.96984600000000    2.19347400000000   -0.96725700000000
C        64.95693100000000    3.13622600000000   -0.95872600000000
C        66.00420300000000    2.63443200000000   -0.14592300000000
N        65.66535000000000    1.42806400000000    0.32682300000000
C        67.16458000000000    3.41241500000000    0.00842700000000
C        68.48556900000000    2.95454100000000   -0.02096600000000
C        69.79813900000001    3.58267400000000   -0.08209400000000
C        70.71225100000001    2.62761100000000   -0.08467800000000
C        70.03870500000001    1.34073700000000   -0.02548800000000
N        68.72664600000000    1.62933600000000    0.00930100000000
C        70.44098800000000   -0.00336600000000   -0.00106600000000
C        69.60883400000000   -1.11715500000000    0.18121500000000
C        70.04879200000002   -2.14881200000000    1.04452600000000
C        69.05061000000001   -3.07215300000000    1.04914700000000
C        68.02769400000000   -2.59221500000000    0.19571800000000
N        68.39487200000001   -1.41096800000000   -0.31479000000000
C        66.87078500000000   -3.36762200000000    0.03864900000000
C        65.55001000000000   -2.94814400000000    0.02196400000000
N        65.37361900000001   -1.60994100000000    0.02286500000000
H        64.06927700000000   -4.65480600000000   -0.00457700000000
H        62.27541900000000   -2.78377000000000   -0.02650300000000
H        63.00576800000000    2.26884500000000   -1.50157400000000
H        64.91878500000000    4.10734100000000   -1.49116900000000
H        66.27302800000000    0.79096500000000    1.01545200000000
H        67.10948000000000    4.49867600000000    0.15254200000000
H        70.01656600000000    4.65066700000000   -0.12042400000000
H        71.78856600000000    2.77365400000000   -0.12430500000000
H        71.00280200000002   -2.21322400000000    1.60207400000000
H        69.07602900000001   -4.01747000000000    1.62446700000000
H        67.80779500000000   -0.79151100000000   -1.03844000000000
H        66.93150300000001   -4.47936200000000   -0.07548000000000
C        76.86790500000001   -3.59263900000000    0.00082500000000
C        75.99335499999999   -2.59773500000000   -0.00947600000000
C        76.66481899999999   -1.31895100000000    0.00371300000000
C        76.26778800000000   -0.00336600000000   -0.00106600000000
C        77.07898000000000    1.14095700000000   -0.15519200000000
C        76.59995499999999    2.19347400000000   -0.96725700000000
C        77.58704000000000    3.13622600000000   -0.95872600000000
C        78.63431100000000    2.63443200000000   -0.14592300000000
N        78.29545800000000    1.42806400000000    0.32682300000000
C        79.79468799999999    3.41241500000000    0.00842700000000
C        81.11567800000000    2.95454100000000   -0.02096600000000
C        82.42824700000000    3.58267400000000   -0.08209400000000
C        83.34236000000000    2.62761100000000   -0.08467800000000
C        82.66881300000000    1.34073700000000   -0.02548800000000
N        81.35675500000001    1.62933600000000    0.00930100000000
C        83.07109699999999   -0.00336600000000   -0.00106600000000
C        82.23894199999999   -1.11715500000000    0.18121500000000
C        82.67890100000000   -2.14881200000000    1.04452600000000
C        81.68071900000001   -3.07215300000000    1.04914700000000
C        80.65780300000000   -2.59221500000000    0.19571800000000
N        81.02498000000000   -1.41096800000000   -0.31479000000000
C        79.50089400000000   -3.36762200000000    0.03864900000000
C        78.18011799999999   -2.94814400000000    0.02196400000000
N        78.00372800000000   -1.60994100000000    0.02286500000000
H        76.69938600000000   -4.65480600000000   -0.00457700000000
H        74.90552700000001   -2.78377000000000   -0.02650300000000
H        75.63587699999999    2.26884500000000   -1.50157400000000
H        77.54889300000001    4.10734100000000   -1.49116900000000
H        78.90313600000002    0.79096500000000    1.01545200000000
H        79.73958900000000    4.49867600000000    0.15254200000000
H        82.64667400000000    4.65066700000000   -0.12042400000000
H        84.41867499999999    2.77365400000000   -0.12430500000000
H        83.63291000000000   -2.21322400000000    1.60207400000000
H        81.70613700000000   -4.01747000000000    1.62446700000000
H        80.43790400000000   -0.79151100000000   -1.03844000000000
H        79.56161200000000   -4.47936200000000   -0.07548000000000
C        89.49801400000000   -3.59263900000000    0.00082500000000
C        88.62346400000001   -2.59773500000000   -0.00947600000000
C        89.29492700000000   -1.31895100000000    0.00371300000000
C        88.89789700000000   -0.00336600000000   -0.00106600000000
C        89.70908900000001    1.14095700000000   -0.15519200000000
C        89.23006300000000    2.19347400000000   -0.96725700000000
C        90.21714800000001    3.13622600000000   -0.95872600000000
C        91.26442000000000    2.63443200000000   -0.14592300000000
N        90.92556700000002    1.42806400000000    0.32682300000000
C        92.42479700000000    3.41241500000000    0.00842700000000
C        93.74578600000000    2.95454100000000   -0.02096600000000
C        95.05835600000002    3.58267400000000   -0.08209400000000
C        95.97246800000001    2.62761100000000   -0.08467800000000
C        95.29892200000000    1.34073700000000   -0.02548800000000
N        93.98686300000000    1.62933600000000    0.00930100000000
C        95.70120500000000   -0.00336600000000   -0.00106600000000
C        94.86905100000000   -1.11715500000000    0.18121500000000
C        95.30900900000000   -2.14881200000000    1.04452600000000
C        94.31082700000000   -3.07215300000000    1.04914700000000
C        93.28791100000001   -2.59221500000000    0.19571800000000
N        93.65508900000000   -1.41096800000000   -0.31479000000000
C        92.13100200000000   -3.36762200000000    0.03864900000000
C        90.81022700000000   -2.94814400000000    0.02196400000000
N        90.63383600000000   -1.60994100000000    0.02286500000000
H        89.32949400000000   -4.65480600000000   -0.00457700000000
H        87.53563600000000   -2.78377000000000   -0.02650300000000
H        88.26598500000001    2.26884500000000   -1.50157400000000
H        90.17900200000000    4.10734100000000   -1.49116900000000
H        91.53324499999999    0.79096500000000    1.01545200000000
H        92.36969700000000    4.49867600000000    0.15254200000000
H        95.27678299999999    4.65066700000000   -0.12042400000000
H        97.04878300000001    2.77365400000000   -0.12430500000000
H        96.26301900000000   -2.21322400000000    1.60207400000000
H        94.33624600000000   -4.01747000000000    1.62446700000000
H        93.06801200000001   -0.79151100000000   -1.03844000000000
H        92.19172000000002   -4.47936200000000   -0.07548000000000
238
 energy: -405.406184305969 gnorm: 1.283376047702 xtb: 6.4.1 (bd6e46d)
C        43.17363637334392    3.51426427316436    0.79038398742377
C        44.07265940521337    2.56833586971557    0.59038937403834
C        43.40361525140786    1.31144239417587    0.28939353114548
C        43.76893724791247    0.00965405914697    0.00263954767015
C        42.94642374785141   -1.12251123413380   -0.08164115680954
C        43.39725718823109   -2.33581767664646    0.49888660187031
C        42.42316647982704   -3.26834886248963    0.29710035823238
C        41.38818219934450   -2.60295000137329   -0.40619991422188
N        41.72414038119004   -1.31390193850905   -0.62443534000263
C        40.22851451478799   -3.32698950586063   -0.73856331664809
C        38.91433399757756   -2.87781310673991   -0.62422184278491
C        37.60256923478257   -3.48866901136893   -0.72160895109188
C        36.67800380522171   -2.53865625373497   -0.51403750244166
C        37.38150002742970   -1.29310777066422   -0.27603862679189
N        38.70174420299076   -1.56914346495129   -0.35648705097824
C        36.97698955590143    0.00636060247269   -0.00899362879281
C        37.80630113228067    1.14455076657330    0.06547620009443
C        37.37469270471478    2.34978748257191   -0.54353393195403
C        38.37108954105651    3.26657230067764   -0.35125096960067
C        39.38883518701674    2.59609306205210    0.37263689708221
N        39.02515478414347    1.31972295993050    0.61215843286278
C        40.55885971576139    3.30309507353180    0.69623805318390
C        41.87133990889582    2.88964680691287    0.62382231732452
N        42.06089709157470    1.58131594439007    0.32685377419312
H        43.34424281561171    4.54102854884899    1.02840537960831
H        45.13810587178206    2.69412087542843    0.64025357134608
H        44.35270843712178   -2.51848329081292    1.01528044574624
H        42.45781375292165   -4.32041743784540    0.62206743533285
H        41.12838692455140   -0.55663009046149   -1.16464284192508
H        40.32194278870190   -4.35950944489759   -1.11265501627189
H        37.40419450996463   -4.54379757645773   -0.92880183709222
H        35.61177340159477   -2.72874871643380   -0.53321045787144
H        35.90354440983132    0.10074788797242    0.12666633179001
H        36.42563362715308    2.53875383793050   -1.07114518936090
H        38.35874759394741    4.31231182089864   -0.69712575994422
H        39.61021588982212    0.57213633994232    1.17771610381050
H        40.48614912026436    4.35466912622093    1.04793889402120
C       103.51836107289951   -3.49462793325548    0.82678255019484
C       102.61934333913445   -2.55082659185318    0.61698010928536
C       103.28838082461644   -1.29713049111744    0.30294006534279
C       102.92313397138356    0.00160374972701    0.00276703255308
C       103.74556917500470    1.13283030252202   -0.09334176055367
C       103.29474807503095    2.35211240678788    0.47455260080858
C       104.26882674778649    3.28249821561231    0.26308019107183
C       105.30381437783706    2.60982439631986   -0.43327341737362
N       104.96785272894394    1.31859053211411   -0.63812585949221
C       106.46348256927256    3.33037919701429   -0.77313400396463
C       107.77766439532110    2.88240943896256   -0.65413445728657
C       109.08942947021983    3.49222439075035   -0.75785994853800
C       110.01399440420852    2.54441952148895   -0.54043423591631
C       109.31050205609904    1.30140511284083   -0.28951346829921
N       107.99025025319848    1.57659825501778   -0.37282317362793
C       109.71501083247135    0.00479217780285   -0.00898544546417
C       108.88569457940704   -1.13257640513153    0.07729989342124
C       109.31730577634774   -2.34406049653331   -0.51915837207351
C       108.32090118552267   -3.25880552198978   -0.31736353596181
C       107.30316871627163   -2.58084452284736    0.39951668898749
N       107.66684517491210   -1.30205840187064    0.62577534589162
C       106.13312935467965   -3.28444837431960    0.73045173364459
C       104.82066186074250   -2.87178034778403    0.65374086628854
N       104.63109566752122   -1.56659167512294    0.34319520743517
H       103.34775552457539   -4.51886620907114    1.07545401865537
H       101.55389401134265   -2.67608785578805    0.66813414896280
H       102.33929030327286    2.54013282623836    0.98901105942000
H       104.23418313149035    4.33788442293571    0.57710208371244
H       105.56361038488370    0.55574363516297   -1.17042067466068
H       106.37005450547844    4.35895759535051   -1.15792814277761
H       109.28780364307464    4.54514479949049   -0.97600175241351
H       111.08022513970214    2.73430270891809   -0.56158011524014
H       110.78845395426707   -0.08818766008372    0.12764896342831
H       110.26636476237248   -2.53850332837263   -1.04477822348570
H       108.33325018865244   -4.30808190310299   -0.65235950394009
H       107.08178240129931   -0.54863485422955    1.18353552504274
H       106.20584854285850   -4.33231224570848    1.09305249403487
C        46.15698589683169    0.00253575413973    0.00068372792276
C        47.37529430631237    0.01042262942276    0.00280296901042
C        48.76062485814654    0.01232846332228    0.00769721911760
C        49.92134834905044    0.00841641923976    0.00077254102632
C        58.88477151140877    0.00048444409935    0.00107178737921
C        60.04203233146707    0.00953903894796    0.00208467008806
C        61.38820509082743    0.01276241583598    0.00762560725203
C        62.55401686647874    0.00865603372055    0.00114759143698
C        71.51461686364065    0.00048982345371    0.00100327660847
C        72.67250119366678    0.00954466936675    0.00207992900446
C        74.01803088879544    0.01276027499422    0.00764230707164
C        75.18424550215219    0.00865030310399    0.00115937442824
C        84.14483366834379    0.00049058002616    0.00101883759725
C        85.30233575344795    0.00954143663573    0.00209562574544
C        86.64849320974920    0.01276314977303    0.00763289408353
C        87.81408768685827    0.00866390827492    0.00110331682527
C        96.77723487029178    0.00076893619356    0.00109285732436
C        97.92996136186869    0.00987767072282    0.00219270638973
C        99.31282020103725    0.01204200479259    0.00770739741154
C       100.53574084527114    0.00432034931692    0.00052895047302
C        51.61176335274772   -3.59428658695034    0.00057111016207
C        50.72714962397470   -2.59696909803854   -0.00938747988617
C        51.42294185631565   -1.33057128822064    0.00465494245309
C        51.08955142136235   -0.00541148622376   -0.00108374187988
C        51.82674163330902    1.14372890943408   -0.15689539944365
C        51.33874941399584    2.19307544176022   -0.96697073209063
C        52.32701640106125    3.13929576440202   -0.95850935390804
C        53.37546486299940    2.63944544035250   -0.14659579065871
N        53.04027652025907    1.42594306021779    0.32924157325631
C        54.54080703940880    3.41419915985185    0.00970242301904
C        55.85504651221748    2.95417184918741   -0.01966168057445
C        57.16588933955994    3.58769890426383   -0.08159770260087
C        58.08632639762815    2.62512210535507   -0.08487394809268
C        57.39080685790601    1.35162024996919   -0.02638353445833
N        56.09241556882258    1.62561154353327    0.00888022718599
C        57.72224018660779   -0.00045959855421   -0.00201255946709
C        56.96862350164518   -1.12154411053554    0.18327800069421
C        57.42007605225695   -2.14758188198938    1.04420490010045
C        56.42019063220082   -3.07571275907797    1.04921524880477
C        55.39634687848031   -2.59737361739059    0.19677637887558
N        55.76002607978897   -1.40869725203759   -0.31739837674805
C        54.23598686840261   -3.37269295290600    0.03698249187000
C        52.92112820438902   -2.94630479829747    0.02069256770007
N        52.74408223059365   -1.60828777561246    0.02320509778168
H        51.43931843040689   -4.65460028865409   -0.00458179734462
H        49.64657191470273   -2.78205448129613   -0.02643148871870
H        50.37816524913805    2.26756847895994   -1.49992851630125
H        52.28957763637278    4.10481374562455   -1.48952039326695
H        53.63862365717746    0.79556187472026    1.00943582696546
H        54.47817055822961    4.49777435948876    0.15060995482723
H        57.38552797369092    4.64997203905494   -0.12039223347943
H        59.15802200338011    2.77289438531456   -0.12435008715746
H        58.37013673816278   -2.21196154213816    1.60025823979803
H        56.44488061194070   -4.01526519091507    1.62269230908094
H        55.18192693869725   -0.79602188504877   -1.03214905441152
H        54.30295105210209   -4.47727204729726   -0.07356708830050
C        64.24194874954730   -3.59447471661769    0.00054318091301
C        63.35737781973001   -2.59700389354399   -0.00940958634700
C        64.05434727181361   -1.33175982033054    0.00444628058132
C        63.71822122159067   -0.00516621153287   -0.00092146720919
C        64.45732250350457    1.14459722061970   -0.15716971389043
C        63.96901933533006    2.19265946055782   -0.96702445521027
C        64.95742279125345    3.13945089084041   -0.95834830183278
C        66.00543212398985    2.63960535839518   -0.14667022730156
N        65.67007705467530    1.42591617837634    0.32919382887291
C        67.17111397943819    3.41414724745021    0.00965106480248
C        68.48503502980239    2.95438831190504   -0.01972499007783
C        69.79597963318453    3.58771343820855   -0.08156365009192
C        70.71640480580653    2.62512548794961   -0.08488236216418
C        70.02078297150895    1.35177843270253   -0.02629407421958
N        68.72269826890572    1.62545398394431    0.00889373855556
C        70.35255746170543   -0.00047567220526   -0.00206302705881
C        69.59862901032039   -1.12174661703621    0.18332885213770
C        70.05016791573000   -2.14741151592987    1.04419386932006
C        69.05008350660991   -3.07573133425958    1.04914658304797
C        68.02665716844528   -2.59731390994969    0.19682805778818
N        68.39024956614618   -1.40871193799428   -0.31738187239160
C        66.86548825243356   -3.37259584406210    0.03698109081855
C        65.55170870963219   -2.94710959452551    0.02081992939219
N        65.37326102261079   -1.60760008508951    0.02322820579721
H        64.06942175223202   -4.65462802014766   -0.00457317547888
H        62.27670777125979   -2.78200226729288   -0.02642294996628
H        63.00830099129078    2.26753230637983   -1.49990359043355
H        64.91969133940893    4.10485570035430   -1.48949189835173
H        66.26868251258665    0.79557253263149    1.00944318319588
H        67.10830076290057    4.49778150582755    0.15061754140519
H        70.01564086803099    4.64997303574211   -0.12039258388136
H        71.78812656828046    2.77289138424794   -0.12435624725492
H        71.00024072181590   -2.21196263958322    1.60025155762739
H        69.07498623804315   -4.01527420486583    1.62268291426314
H        67.81203356569034   -0.79601878447557   -1.03215419025847
H        66.93303970009572   -4.47726870025202   -0.07362063286086
C        76.87205393035052   -3.59448834243968    0.00054230514181
C        75.98749119726808   -2.59701687523990   -0.00941162464982
C        76.68453701261949   -1.33182274899626    0.00444709935074
C        76.34823852881040   -0.00513474520307   -0.00091811098470
C        77.08744577070505    1.14464681192195   -0.15719738984963
C        76.59913619898440    2.19263494183528   -0.96702848134241
C        77.58754417502567    3.13945892959290   -0.95834109428110
C        78.63553864422020    2.63961874867769   -0.14667767399989
N        78.30017548148530    1.42591428605594    0.32919390686250
C        79.80119168122616    3.41415810974562    0.00965119674123
C        81.11517551999424    2.95434459548937   -0.01972386625535
C        82.42608448164097    3.58770024623673   -0.08156568089819
C        83.34651876330518    2.62511239505892   -0.08488263793166
C        82.65096434322255    1.35172117251448   -0.02630399725112
N        81.35274659269710    1.62550094536732    0.00890359241601
C        82.98257757654896   -0.00044901115270   -0.00206086048002
C        82.22875286871584   -1.12169994596249    0.18330493768158
C        82.68028449520224   -2.14743750992960    1.04419082634188
C        81.68020423144552   -3.07572362137438    1.04915437504529
C        80.65676588196641   -2.59729999655789    0.19682064154327
N        81.02034821297607   -1.40871289690557   -0.31738048360256
C        79.49556276005001   -3.37258478870578    0.03697838351929
C        78.18185002930220   -2.94715673315194    0.02082109715857
N        78.00330193811268   -1.60754818693448    0.02323704444758
H        76.69953008991078   -4.65462959120763   -0.00457258086147
H        74.90681833432251   -2.78200080527440   -0.02642235919295
H        75.63841029311661    2.26753117841777   -1.49990214467061
H        77.54979901869218    4.10485750114249   -1.48948953554908
H        78.89878757004689    0.79557604257668    1.00944375107146
H        79.73840892605183    4.49778255359246    0.15061819648856
H        82.64574833068406    4.64997158721895   -0.12039194285257
H        84.41823769990053    2.77289294610018   -0.12435595660465
H        83.63034888525630   -2.21196389139678    1.60025294371533
H        81.70509373626496   -4.01527229786128    1.62268527037452
H        80.44213978728891   -0.79601533682919   -1.03215383377905
H        79.56314768017489   -4.47726731924953   -0.07362084859958
C        89.50213330973071   -3.59447792249310    0.00056870910227
C        88.61757142058511   -2.59702092228351   -0.00941555048916
C        89.31451434255784   -1.33166262689691    0.00452284214464
C        88.97855069915803   -0.00515597750199   -0.00096863195658
C        89.71745926122412    1.14445645040515   -0.15715163975769