      -----------------------------------------------------------      
     |                   =====================                   |     
     |                           x T B                           |     
     |                   =====================                   |     
     |                         S. Grimme                         |     
     |          Mulliken Center for Theoretical Chemistry        |     
     |                    University of Bonn                     |     
      -----------------------------------------------------------      

   * xtb version 6.4.1 (bd6e46d) compiled by 'conda@4901f00b25ba' on 2021-06-10

   xtb is free software: you can redistribute it and/or modify it under
   the terms of the GNU Lesser General Public License as published by
   the Free Software Foundation, either version 3 of the License, or
   (at your option) any later version.
   
   xtb is distributed in the hope that it will be useful,
   but WITHOUT ANY WARRANTY; without even the implied warranty of
   MERCHANTABILITY or FITNESS FOR A PARTICULAR PURPOSE.  See the
   GNU Lesser General Public License for more details.
   
   Cite this work as:
   * C. Bannwarth, E. Caldeweyher, S. Ehlert, A. Hansen, P. Pracht,
     J. Seibert, S. Spicher, S. Grimme, WIREs Comput. Mol. Sci., 2020, 11,
     e01493. DOI: 10.1002/wcms.1493
   
   for GFN2-xTB:
   * C. Bannwarth, S. Ehlert and S. Grimme., J. Chem. Theory Comput., 2019,
     15, 1652-1671. DOI: 10.1021/acs.jctc.8b01176
   for GFN1-xTB:
   * S. Grimme, C. Bannwarth, P. Shushkov, J. Chem. Theory Comput., 2017,
     13, 1989-2009. DOI: 10.1021/acs.jctc.7b00118
   for GFN0-xTB:
   * P. Pracht, E. Caldeweyher, S. Ehlert, S. Grimme, ChemRxiv, 2019, preprint.
     DOI: 10.26434/chemrxiv.8326202.v1
   for GFN-FF:
   * S. Spicher and S. Grimme, Angew. Chem. Int. Ed., 2020, 59, 15665-15673.
     DOI: 10.1002/anie.202004239
   
   for DFT-D4:
   * E. Caldeweyher, C. Bannwarth and S. Grimme, J. Chem. Phys., 2017,
     147, 034112. DOI: 10.1063/1.4993215
   * E. Caldeweyher, S. Ehlert, A. Hansen, H. Neugebauer, S. Spicher,
     C. Bannwarth and S. Grimme, J. Chem. Phys., 2019, 150, 154122.
     DOI: 10.1063/1.5090222
   * E. Caldeweyher, J.-M. Mewes, S. Ehlert and S. Grimme, Phys. Chem. Chem. Phys.
     2020, 22, 8499-8512. DOI: 10.1039/D0CP00502A
   
   for sTDA-xTB:
   * S. Grimme and C. Bannwarth, J. Chem. Phys., 2016, 145, 054103.
     DOI: 10.1063/1.4959605
   
   in the mass-spec context:
   * V. Asgeirsson, C. Bauer and S. Grimme, Chem. Sci., 2017, 8, 4879.
     DOI: 10.1039/c7sc00601b
   * J. Koopman and S. Grimme, ACS Omega 2019, 4, 12, 15120-15133.
     DOI: 10.1021/acsomega.9b02011
   
   for metadynamics refer to:
   * S. Grimme, J. Chem. Theory Comput., 2019, 155, 2847-2862
     DOI: 10.1021/acs.jctc.9b00143
   
   for SPH calculations refer to:
   * S. Spicher and S. Grimme, J. Chem. Theory Comput., 2021, 17, 1701-1714
     DOI: 10.1021/acs.jctc.0c01306
   
   with help from (in alphabetical order)
   P. Atkinson, C. Bannwarth, F. Bohle, G. Brandenburg, E. Caldeweyher
   M. Checinski, S. Dohm, S. Ehlert, S. Ehrlich, I. Gerasimov, J. Koopman
   C. Lavigne, S. Lehtola, F. März, M. Müller, F. Musil, H. Neugebauer
   J. Pisarek, C. Plett, P. Pracht, J. Seibert, P. Shushkov, S. Spicher
   M. Stahn, M. Steiner, T. Strunk, J. Stückrath, T. Rose, and J. Unsleber
   
 * started run on 2021/11/21 at 21:26:22.268     

           -------------------------------------------------
          |                Calculation Setup                |
           -------------------------------------------------

          program call               : /home/jeff/miniconda3/bin/xtb /home/jeff/chem/final-year-proejct/free_base/_2_9_outenergy/input_structure.xyz --gfn 2 --parallel 1 --etemp 300 --chrg 0 --uhf 0 -I det_control.in
          coordinate file            : /home/jeff/chem/final-year-proejct/free_base/_2_9_outenergy/input_structure.xyz
          omp threads                :                     1
          number of atoms            :                   342
          number of electrons        :                  1074
          charge                     :                     0
          spin                       :                   0.0
          first test random number   :      0.23975398710724

   ID    Z sym.   atoms
    1    6 C      1-8, 10-14, 16-20, 22, 23, 38-45, 47-51, 53-57, 59, 60,
                  75-98, 100-104, 106-110, 112, 113, 127-134, 136-140,
                  142-146, 148, 149, 163-170, 172-176, 178-182, 184, 185,
                  199-206, 208-212, 214-218, 220, 221, 235-242, 244-248,
                  250-254, 256, 257, 271-278, 280-284, 286-290, 292, 293,
                  307-314, 316-320, 322-326, 328, 329
    2    7 N      9, 15, 21, 24, 46, 52, 58, 61, 99, 105, 111, 114, 135, 141,
                  147, 150, 171, 177, 183, 186, 207, 213, 219, 222, 243, 249,
                  255, 258, 279, 285, 291, 294, 315, 321, 327, 330
    3    1 H      25-37, 62-74, 115-126, 151-162, 187-198, 223-234, 259-270,
                  295-306, 331-342

           -------------------------------------------------
          |                 G F N 2 - x T B                 |
           -------------------------------------------------

        Reference                      10.1021/acs.jctc.8b01176
      * Hamiltonian:
        H0-scaling (s, p, d)           1.850000    2.230000    2.230000
        zeta-weighting                 0.500000
      * Dispersion:
        s8                             2.700000
        a1                             0.520000
        a2                             5.000000
        s9                             5.000000
      * Repulsion:
        kExp                           1.500000    1.000000
        rExp                           1.000000
      * Coulomb:
        alpha                          2.000000
        third order                    shell-resolved
        anisotropic                    true
        a3                             3.000000
        a5                             4.000000
        cn-shift                       1.200000
        cn-exp                         4.000000
        max-rad                        5.000000


          ...................................................
          :                      SETUP                      :
          :.................................................:
          :  # basis functions                1038          :
          :  # atomic orbitals                1038          :
          :  # shells                          574          :
          :  # electrons                      1074          :
          :  max. iterations                   250          :
          :  Hamiltonian                  GFN2-xTB          :
          :  restarted?                      false          :
          :  GBSA solvation                  false          :
          :  PC potential                    false          :
          :  electronic temp.          300.0000000     K    :
          :  accuracy                    1.0000000          :
          :  -> integral cutoff          0.2500000E+02      :
          :  -> integral neglect         0.1000000E-07      :
          :  -> SCF convergence          0.1000000E-05 Eh   :
          :  -> wf. convergence          0.1000000E-03 e    :
          :  Broyden damping             0.4000000          :
          ...................................................

 iter      E             dE          RMSdq      gap      omega  full diag
   1   -590.1911465 -0.590191E+03  0.494E+00    0.44       0.0  T
   2   -591.0947770 -0.903630E+00  0.325E+00    0.75       1.0  T
   3   -590.9824101  0.112367E+00  0.150E+00    0.56       1.0  T
   4   -591.0849528 -0.102543E+00  0.644E-01    0.73       1.0  T
   5   -591.2680205 -0.183068E+00  0.207E-01    0.70       1.0  T
   6   -591.2872663 -0.192457E-01  0.789E-02    0.70       1.0  T
   7   -591.2880856 -0.819304E-03  0.534E-02    0.70       1.0  T
   8   -591.2894987 -0.141310E-02  0.210E-02    0.70       1.0  T
   9   -591.2896431 -0.144401E-03  0.108E-02    0.70       1.0  T
  10   -591.2896519 -0.882348E-05  0.718E-03    0.70       1.0  T
  11   -591.2896838 -0.319261E-04  0.153E-03    0.70       3.5  T
  12   -591.2896847 -0.928808E-06  0.640E-04    0.70       8.4  T
  13   -591.2896849 -0.117353E-06  0.356E-04    0.70      15.2  T

   *** convergence criteria satisfied after 13 iterations ***

         #    Occupation            Energy/Eh            Energy/eV
      -------------------------------------------------------------
         1        2.0000           -0.6848236             -18.6350
       ...           ...                  ...                  ...
       531        2.0000           -0.3643972              -9.9158
       532        2.0000           -0.3611201              -9.8266
       533        2.0000           -0.3570345              -9.7154
       534        2.0000           -0.3527912              -9.5999
       535        2.0000           -0.3490142              -9.4972
       536        2.0000           -0.3456282              -9.4050
       537        2.0000           -0.3432330              -9.3398 (HOMO)
       538        0.0000           -0.3174800              -8.6391 (LUMO)
       539        0.0000           -0.3145338              -8.5589
       540                         -0.3108246              -8.4580
       541                         -0.3068185              -8.3490
       542                         -0.3023564              -8.2275
       ...                                ...                  ...
      1038                          1.4104091              38.3792
      -------------------------------------------------------------
                  HL-Gap            0.0257530 Eh            0.7008 eV
             Fermi-level           -0.3303401 Eh           -8.9890 eV

 SCC (total)                   0 d,  0 h,  0 min,  6.212 sec
 SCC setup                      ...        0 min,  0.020 sec (  0.319%)
 Dispersion                     ...        0 min,  0.041 sec (  0.661%)
 classical contributions        ...        0 min,  0.004 sec (  0.057%)
 integral evaluation            ...        0 min,  0.286 sec (  4.598%)
 iterations                     ...        0 min,  5.021 sec ( 80.821%)
 molecular gradient             ...        0 min,  0.788 sec ( 12.692%)
 printout                       ...        0 min,  0.053 sec (  0.851%)

         :::::::::::::::::::::::::::::::::::::::::::::::::::::
         ::                     SUMMARY                     ::
         :::::::::::::::::::::::::::::::::::::::::::::::::::::
         :: total energy            -580.608907375038 Eh    ::
         :: gradient norm              0.000510460731 Eh/a0 ::
         :: HOMO-LUMO gap              0.700775846091 eV    ::
         ::.................................................::
         :: SCC energy              -591.289684853964 Eh    ::
         :: -> isotropic ES            0.306006190093 Eh    ::
         :: -> anisotropic ES         -0.027717086437 Eh    ::
         :: -> anisotropic XC          0.375215809541 Eh    ::
         :: -> dispersion             -0.514365194181 Eh    ::
         :: repulsion energy          10.690546506677 Eh    ::
         :: add. restraining           0.000000000000 Eh    ::
         :: total charge               0.000000000010 e     ::
         :::::::::::::::::::::::::::::::::::::::::::::::::::::

           -------------------------------------------------
          |                Property Printout                |
           -------------------------------------------------

    * Orbital Energies and Occupations

         #    Occupation            Energy/Eh            Energy/eV
      -------------------------------------------------------------
         1        2.0000           -0.6848236             -18.6350
       ...           ...                  ...                  ...
       525        2.0000           -0.3696143             -10.0577
       526        2.0000           -0.3695985             -10.0573
       527        2.0000           -0.3689516             -10.0397
       528        2.0000           -0.3686140             -10.0305
       529        2.0000           -0.3684238             -10.0253
       530        2.0000           -0.3670049              -9.9867
       531        2.0000           -0.3643972              -9.9158
       532        2.0000           -0.3611201              -9.8266
       533        2.0000           -0.3570345              -9.7154
       534        2.0000           -0.3527912              -9.5999
       535        2.0000           -0.3490142              -9.4972
       536        2.0000           -0.3456282              -9.4050
       537        2.0000           -0.3432330              -9.3398 (HOMO)
       538        0.0000           -0.3174800              -8.6391 (LUMO)
       539        0.0000           -0.3145338              -8.5589
       540                         -0.3108246              -8.4580
       541                         -0.3068185              -8.3490
       542                         -0.3023564              -8.2275
       543                         -0.2990529              -8.1376
       544                         -0.2987013              -8.1281
       545                         -0.2984592              -8.1215
       546                         -0.2983815              -8.1194
       547                         -0.2983546              -8.1186
       548                         -0.2983063              -8.1173
       ...                                ...                  ...
      1038                          1.4104091              38.3792
      -------------------------------------------------------------
                  HL-Gap            0.0257530 Eh            0.7008 eV
             Fermi-level           -0.3303401 Eh           -8.9890 eV

     #   Z          covCN         q      C6AA      α(0)
     1   6 C        3.016    -0.055    29.344     8.886
     2   6 C        3.010    -0.053    29.309     8.881
     3   6 C        3.193     0.086    25.602     8.251
     4   6 C        2.952     0.013    27.726     8.636
     5   6 C        3.095     0.064    26.461     8.431
     6   6 C        3.027    -0.049    29.199     8.864
     7   6 C        3.033    -0.052    29.254     8.872
     8   6 C        3.073     0.064    26.484     8.438
     9   7 N        2.786    -0.081    22.813     7.094
    10   6 C        2.899    -0.055    29.369     8.886
    11   6 C        3.171     0.087    25.717     8.285
    12   6 C        3.012    -0.054    29.316     8.882
    13   6 C        3.009    -0.054    29.319     8.882
    14   6 C        3.174     0.086    25.707     8.281
    15   7 N        1.870    -0.321    29.174     8.006
    16   6 C        2.899    -0.057    29.412     8.892
    17   6 C        3.074     0.065    26.470     8.436
    18   6 C        3.025    -0.051    29.241     8.870
    19   6 C        3.031    -0.051    29.232     8.868
    20   6 C        3.068     0.066    26.464     8.435
    21   7 N        2.787    -0.081    22.816     7.094
    22   6 C        2.899    -0.055    29.369     8.886
    23   6 C        3.174     0.085    25.732     8.285
    24   7 N        1.870    -0.324    29.259     8.018
    25   1 H        0.926     0.019     2.756     2.596
    26   1 H        0.926     0.019     2.744     2.590
    27   1 H        0.926     0.043     2.408     2.426
    28   1 H        0.926     0.042     2.428     2.437
    29   1 H        0.860     0.214     1.037     1.595
    30   1 H        0.925     0.047     2.358     2.401
    31   1 H        0.926     0.019     2.742     2.589
    32   1 H        0.926     0.019     2.742     2.589
    33   1 H        0.926     0.046     2.370     2.407
    34   1 H        0.926     0.042     2.424     2.435
    35   1 H        0.926     0.042     2.426     2.435
    36   1 H        0.860     0.214     1.035     1.594
    37   1 H        0.925     0.047     2.359     2.402
    38   6 C        3.016    -0.055    29.344     8.886
    39   6 C        3.010    -0.053    29.309     8.881
    40   6 C        3.193     0.086    25.602     8.251
    41   6 C        2.952     0.013    27.726     8.636
    42   6 C        3.095     0.064    26.461     8.431
    43   6 C        3.027    -0.050    29.200     8.864
    44   6 C        3.034    -0.052    29.253     8.872
    45   6 C        3.073     0.064    26.484     8.438
    46   7 N        2.786    -0.081    22.813     7.094
    47   6 C        2.899    -0.055    29.368     8.886
    48   6 C        3.171     0.087    25.717     8.285
    49   6 C        3.012    -0.054    29.316     8.882
    50   6 C        3.009    -0.054    29.319     8.882
    51   6 C        3.174     0.086    25.707     8.281
    52   7 N        1.870    -0.321    29.173     8.006
    53   6 C        2.899    -0.057    29.413     8.892
    54   6 C        3.074     0.065    26.470     8.436
    55   6 C        3.025    -0.051    29.241     8.870
    56   6 C        3.031    -0.051    29.232     8.868
    57   6 C        3.068     0.066    26.464     8.435
    58   7 N        2.787    -0.081    22.816     7.094
    59   6 C        2.899    -0.055    29.369     8.886
    60   6 C        3.174     0.085    25.732     8.285
    61   7 N        1.870    -0.324    29.259     8.018
    62   1 H        0.926     0.018     2.756     2.596
    63   1 H        0.926     0.019     2.745     2.591
    64   1 H        0.926     0.043     2.407     2.426
    65   1 H        0.926     0.042     2.428     2.437
    66   1 H        0.860     0.214     1.036     1.595
    67   1 H        0.925     0.047     2.358     2.401
    68   1 H        0.926     0.019     2.742     2.589
    69   1 H        0.926     0.019     2.742     2.589
    70   1 H        0.926     0.046     2.370     2.407
    71   1 H        0.926     0.042     2.424     2.435
    72   1 H        0.926     0.042     2.426     2.435
    73   1 H        0.860     0.214     1.035     1.594
    74   1 H        0.925     0.047     2.359     2.402
    75   6 C        1.993    -0.030    31.837     9.112
    76   6 C        1.992    -0.031    31.865     9.116
    77   6 C        1.992    -0.030    31.839     9.113
    78   6 C        1.992    -0.030    31.847     9.114
    79   6 C        1.992    -0.030    31.842     9.113
    80   6 C        1.992    -0.030    31.846     9.113
    81   6 C        1.992    -0.030    31.842     9.113
    82   6 C        1.992    -0.030    31.842     9.113
    83   6 C        1.992    -0.030    31.843     9.113
    84   6 C        1.992    -0.030    31.843     9.113
    85   6 C        1.992    -0.030    31.847     9.114
    86   6 C        1.992    -0.030    31.841     9.113
    87   6 C        1.992    -0.030    31.846     9.114
    88   6 C        1.992    -0.030    31.840     9.113
    89   6 C        1.992    -0.031    31.865     9.116
    90   6 C        1.993    -0.030    31.838     9.112
    91   6 C        3.017    -0.055    29.338     8.885
    92   6 C        3.010    -0.053    29.306     8.880
    93   6 C        3.194     0.086    25.603     8.251
    94   6 C        2.952     0.013    27.716     8.635
    95   6 C        3.097     0.063    26.466     8.431
    96   6 C        3.026    -0.050    29.206     8.865
    97   6 C        3.036    -0.052    29.253     8.871
    98   6 C        3.072     0.064    26.491     8.439
    99   7 N        2.786    -0.081    22.819     7.095
   100   6 C        2.899    -0.053    29.319     8.878
   101   6 C        3.173     0.085    25.741     8.287
   102   6 C        3.017    -0.055    29.336     8.885
   103   6 C        3.009    -0.053    29.306     8.880
   104   6 C        3.195     0.086    25.595     8.249
   105   7 N        1.870    -0.323    29.240     8.015
   106   6 C        2.952     0.013    27.727     8.637
   107   6 C        3.098     0.063    26.463     8.430
   108   6 C        3.025    -0.050    29.209     8.865
   109   6 C        3.036    -0.052    29.251     8.871
   110   6 C        3.072     0.064    26.493     8.439
   111   7 N        2.786    -0.081    22.819     7.095
   112   6 C        2.899    -0.053    29.319     8.878
   113   6 C        3.173     0.085    25.743     8.287
   114   7 N        1.871    -0.323    29.238     8.015
   115   1 H        0.926     0.019     2.753     2.595
   116   1 H        0.926     0.019     2.744     2.590
   117   1 H        0.926     0.043     2.409     2.427
   118   1 H        0.926     0.041     2.431     2.438
   119   1 H        0.860     0.214     1.035     1.594
   120   1 H        0.925     0.048     2.349     2.397
   121   1 H        0.926     0.019     2.752     2.594
   122   1 H        0.926     0.019     2.743     2.590
   123   1 H        0.926     0.043     2.412     2.428
   124   1 H        0.926     0.041     2.430     2.438
   125   1 H        0.860     0.214     1.035     1.594
   126   1 H        0.925     0.048     2.349     2.397
   127   6 C        3.017    -0.055    29.336     8.885
   128   6 C        3.009    -0.053    29.307     8.880
   129   6 C        3.195     0.086    25.595     8.249
   130   6 C        2.952     0.013    27.720     8.635
   131   6 C        3.098     0.063    26.464     8.431
   132   6 C        3.025    -0.050    29.207     8.865
   133   6 C        3.036    -0.052    29.251     8.871
   134   6 C        3.072     0.064    26.492     8.439
   135   7 N        2.786    -0.081    22.818     7.095
   136   6 C        2.899    -0.053    29.315     8.878
   137   6 C        3.173     0.085    25.744     8.287
   138   6 C        3.017    -0.055    29.337     8.885
   139   6 C        3.010    -0.053    29.307     8.880
   140   6 C        3.194     0.086    25.599     8.250
   141   7 N        1.870    -0.323    29.237     8.015
   142   6 C        2.952     0.013    27.724     8.636
   143   6 C        3.098     0.063    26.463     8.431
   144   6 C        3.026    -0.050    29.208     8.865
   145   6 C        3.036    -0.052    29.251     8.871
   146   6 C        3.073     0.064    26.493     8.439
   147   7 N        2.786    -0.081    22.817     7.094
   148   6 C        2.899    -0.053    29.314     8.877
   149   6 C        3.173     0.085    25.742     8.287
   150   7 N        1.870    -0.323    29.235     8.015
   151   1 H        0.926     0.019     2.751     2.594
   152   1 H        0.926     0.019     2.741     2.589
   153   1 H        0.926     0.043     2.411     2.428
   154   1 H        0.926     0.041     2.429     2.437
   155   1 H        0.860     0.215     1.035     1.593
   156   1 H        0.925     0.048     2.348     2.396
   157   1 H        0.926     0.019     2.752     2.594
   158   1 H        0.926     0.019     2.746     2.591
   159   1 H        0.926     0.043     2.413     2.429
   160   1 H        0.926     0.041     2.430     2.437
   161   1 H        0.860     0.215     1.035     1.594
   162   1 H        0.925     0.048     2.347     2.396
   163   6 C        3.017    -0.055    29.337     8.885
   164   6 C        3.010    -0.053    29.305     8.880
   165   6 C        3.194     0.086    25.600     8.250
   166   6 C        2.952     0.013    27.720     8.635
   167   6 C        3.098     0.063    26.464     8.431
   168   6 C        3.026    -0.050    29.208     8.865
   169   6 C        3.036    -0.052    29.252     8.871
   170   6 C        3.073     0.064    26.492     8.439
   171   7 N        2.786    -0.081    22.816     7.094
   172   6 C        2.899    -0.053    29.312     8.877
   173   6 C        3.173     0.085    25.741     8.287
   174   6 C        3.017    -0.055    29.336     8.885
   175   6 C        3.010    -0.053    29.307     8.880
   176   6 C        3.194     0.086    25.595     8.249
   177   7 N        1.870    -0.323    29.234     8.015
   178   6 C        2.952     0.013    27.722     8.636
   179   6 C        3.098     0.063    26.463     8.430
   180   6 C        3.026    -0.050    29.208     8.865
   181   6 C        3.036    -0.052    29.251     8.871
   182   6 C        3.073     0.064    26.493     8.439
   183   7 N        2.786    -0.081    22.816     7.094
   184   6 C        2.899    -0.053    29.313     8.877
   185   6 C        3.173     0.085    25.744     8.287
   186   7 N        1.871    -0.323    29.235     8.015
   187   1 H        0.926     0.019     2.751     2.594
   188   1 H        0.926     0.019     2.746     2.591
   189   1 H        0.926     0.043     2.410     2.428
   190   1 H        0.926     0.041     2.429     2.437
   191   1 H        0.860     0.215     1.035     1.594
   192   1 H        0.925     0.048     2.347     2.396
   193   1 H        0.926     0.019     2.751     2.594
   194   1 H        0.926     0.019     2.744     2.590
   195   1 H        0.926     0.043     2.412     2.428
   196   1 H        0.926     0.041     2.429     2.437
   197   1 H        0.860     0.215     1.035     1.594
   198   1 H        0.925     0.048     2.347     2.396
   199   6 C        3.017    -0.055    29.336     8.885
   200   6 C        3.010    -0.053    29.308     8.880
   201   6 C        3.194     0.086    25.595     8.249
   202   6 C        2.952     0.013    27.721     8.636
   203   6 C        3.098     0.063    26.462     8.430
   204   6 C        3.026    -0.050    29.207     8.865
   205   6 C        3.036    -0.052    29.251     8.871
   206   6 C        3.073     0.064    26.493     8.439
   207   7 N        2.786    -0.081    22.815     7.094
   208   6 C        2.899    -0.053    29.313     8.877
   209   6 C        3.173     0.085    25.741     8.287
   210   6 C        3.017    -0.055    29.337     8.885
   211   6 C        3.010    -0.053    29.305     8.880
   212   6 C        3.194     0.086    25.597     8.249
   213   7 N        1.870    -0.323    29.235     8.015
   214   6 C        2.952     0.013    27.720     8.636
   215   6 C        3.098     0.063    26.462     8.430
   216   6 C        3.026    -0.050    29.209     8.865
   217   6 C        3.036    -0.052    29.251     8.871
   218   6 C        3.073     0.064    26.494     8.439
   219   7 N        2.786    -0.081    22.814     7.094
   220   6 C        2.899    -0.053    29.312     8.877
   221   6 C        3.173     0.085    25.742     8.287
   222   7 N        1.870    -0.323    29.235     8.015
   223   1 H        0.926     0.019     2.751     2.593
   224   1 H        0.926     0.019     2.743     2.590
   225   1 H        0.926     0.043     2.412     2.428
   226   1 H        0.926     0.041     2.429     2.437
   227   1 H        0.860     0.214     1.035     1.594
   228   1 H        0.925     0.048     2.347     2.396
   229   1 H        0.926     0.019     2.751     2.594
   230   1 H        0.926     0.019     2.746     2.591
   231   1 H        0.926     0.043     2.410     2.428
   232   1 H        0.926     0.041     2.429     2.437
   233   1 H        0.860     0.214     1.035     1.594
   234   1 H        0.925     0.048     2.347     2.395
   235   6 C        3.017    -0.055    29.337     8.885
   236   6 C        3.009    -0.053    29.308     8.880
   237   6 C        3.194     0.086    25.597     8.249
   238   6 C        2.952     0.013    27.722     8.636
   239   6 C        3.098     0.063    26.463     8.430
   240   6 C        3.026    -0.050    29.207     8.865
   241   6 C        3.036    -0.052    29.252     8.871
   242   6 C        3.073     0.064    26.493     8.439
   243   7 N        2.786    -0.081    22.817     7.094
   244   6 C        2.899    -0.053    29.312     8.877
   245   6 C        3.173     0.085    25.744     8.287
   246   6 C        3.017    -0.055    29.338     8.885
   247   6 C        3.010    -0.054    29.311     8.881
   248   6 C        3.194     0.086    25.598     8.250
   249   7 N        1.871    -0.323    29.233     8.014
   250   6 C        2.952     0.013    27.720     8.636
   251   6 C        3.097     0.063    26.465     8.431
   252   6 C        3.026    -0.050    29.204     8.864
   253   6 C        3.036    -0.052    29.252     8.871
   254   6 C        3.072     0.064    26.492     8.439
   255   7 N        2.786    -0.081    22.818     7.095
   256   6 C        2.899    -0.053    29.312     8.877
   257   6 C        3.173     0.085    25.744     8.287
   258   7 N        1.871    -0.323    29.232     8.014
   259   1 H        0.926     0.019     2.751     2.594
   260   1 H        0.926     0.019     2.743     2.590
   261   1 H        0.926     0.043     2.413     2.429
   262   1 H        0.926     0.041     2.429     2.437
   263   1 H        0.860     0.215     1.035     1.593
   264   1 H        0.925     0.048     2.346     2.395
   265   1 H        0.926     0.019     2.751     2.594
   266   1 H        0.926     0.019     2.742     2.589
   267   1 H        0.926     0.043     2.415     2.430
   268   1 H        0.926     0.041     2.430     2.438
   269   1 H        0.860     0.215     1.035     1.593
   270   1 H        0.925     0.048     2.347     2.396
   271   6 C        3.017    -0.055    29.337     8.885
   272   6 C        3.010    -0.053    29.303     8.880
   273   6 C        3.194     0.086    25.599     8.250
   274   6 C        2.952     0.013    27.723     8.636
   275   6 C        3.098     0.063    26.463     8.431
   276   6 C        3.026    -0.050    29.211     8.865
   277   6 C        3.036    -0.052    29.252     8.871
   278   6 C        3.073     0.064    26.494     8.440
   279   7 N        2.786    -0.081    22.815     7.094
   280   6 C        2.899    -0.053    29.313     8.877
   281   6 C        3.173     0.085    25.740     8.287
   282   6 C        3.017    -0.055    29.335     8.884
   283   6 C        3.009    -0.053    29.303     8.880
   284   6 C        3.195     0.086    25.593     8.248
   285   7 N        1.870    -0.323    29.236     8.015
   286   6 C        2.952     0.013    27.719     8.635
   287   6 C        3.098     0.063    26.464     8.431
   288   6 C        3.026    -0.050    29.210     8.865
   289   6 C        3.036    -0.052    29.251     8.871
   290   6 C        3.073     0.064    26.492     8.439
   291   7 N        2.786    -0.081    22.816     7.094
   292   6 C        2.899    -0.053    29.315     8.878
   293   6 C        3.173     0.085    25.743     8.287
   294   7 N        1.871    -0.323    29.238     8.015
   295   1 H        0.926     0.019     2.752     2.594
   296   1 H        0.926     0.019     2.750     2.593
   297   1 H        0.926     0.043     2.409     2.427
   298   1 H        0.926     0.041     2.430     2.437
   299   1 H        0.860     0.214     1.035     1.594
   300   1 H        0.925     0.048     2.347     2.396
   301   1 H        0.926     0.019     2.751     2.594
   302   1 H        0.926     0.019     2.742     2.589
   303   1 H        0.926     0.043     2.408     2.426
   304   1 H        0.926     0.041     2.429     2.437
   305   1 H        0.860     0.215     1.035     1.594
   306   1 H        0.925     0.048     2.348     2.396
   307   6 C        3.017    -0.055    29.336     8.885
   308   6 C        3.009    -0.053    29.310     8.881
   309   6 C        3.195     0.086    25.592     8.248
   310   6 C        2.952     0.013    27.728     8.637
   311   6 C        3.098     0.063    26.463     8.431
   312   6 C        3.025    -0.050    29.207     8.865
   313   6 C        3.036    -0.052    29.250     8.871
   314   6 C        3.072     0.064    26.492     8.439
   315   7 N        2.786    -0.081    22.821     7.095
   316   6 C        2.899    -0.053    29.319     8.878
   317   6 C        3.173     0.085    25.744     8.288
   318   6 C        3.017    -0.055    29.338     8.885
   319   6 C        3.009    -0.053    29.306     8.880
   320   6 C        3.194     0.086    25.604     8.251
   321   7 N        1.870    -0.323    29.238     8.015
   322   6 C        2.952     0.013    27.716     8.635
   323   6 C        3.098     0.063    26.466     8.431
   324   6 C        3.026    -0.050    29.206     8.865
   325   6 C        3.036    -0.052    29.253     8.871
   326   6 C        3.072     0.064    26.490     8.439
   327   7 N        2.786    -0.081    22.819     7.095
   328   6 C        2.899    -0.053    29.320     8.878
   329   6 C        3.173     0.085    25.740     8.287
   330   7 N        1.870    -0.323    29.239     8.015
   331   1 H        0.926     0.019     2.752     2.594
   332   1 H        0.926     0.020     2.740     2.589
   333   1 H        0.926     0.043     2.412     2.429
   334   1 H        0.926     0.041     2.430     2.438
   335   1 H        0.860     0.215     1.035     1.594
   336   1 H        0.925     0.048     2.349     2.397
   337   1 H        0.926     0.019     2.753     2.595
   338   1 H        0.926     0.019     2.743     2.590
   339   1 H        0.926     0.043     2.409     2.427
   340   1 H        0.926     0.041     2.430     2.438
   341   1 H        0.860     0.215     1.035     1.594
   342   1 H        0.925     0.048     2.349     2.397

 Mol. C6AA /au·bohr⁶  :    1924230.387765
 Mol. C8AA /au·bohr⁸  :   49321809.409701
 Mol. α(0) /au        :       2231.490726


Wiberg/Mayer (AO) data.
largest (>0.10) Wiberg bond orders for each atom

 ---------------------------------------------------------------------------
     #   Z sym  total        # sym  WBO       # sym  WBO       # sym  WBO
 ---------------------------------------------------------------------------
     1   6 C    3.960 --     2 C    1.716    23 C    1.115    25 H    0.973
     2   6 C    3.961 --     1 C    1.716     3 C    1.122    26 H    0.969
     3   6 C    3.922 --    24 N    1.360     4 C    1.249     2 C    1.122
     4   6 C    3.940 --     5 C    1.253     3 C    1.249    75 C    1.178
     5   6 C    3.907 --     4 C    1.253     6 C    1.236     9 N    1.225
     6   6 C    3.956 --     7 C    1.593     5 C    1.236    27 H    0.969
     7   6 C    3.948 --     6 C    1.593     8 C    1.223    28 H    0.973
     8   6 C    3.918 --    10 C    1.344     7 C    1.223     9 N    1.203
     9   7 N    3.590 --     5 C    1.225     8 C    1.203    29 H    0.900
    10   6 C    3.921 --    11 C    1.357     8 C    1.344    30 H    0.964
    11   6 C    3.939 --    10 C    1.357    15 N    1.324    12 C    1.107
    12   6 C    3.963 --    13 C    1.731    11 C    1.107    31 H    0.973
    13   6 C    3.962 --    12 C    1.731    14 C    1.109    32 H    0.973
    14   6 C    3.938 --    16 C    1.354    15 N    1.325    13 C    1.109
    15   7 N    3.001 --    14 C    1.325    11 C    1.324
    16   6 C    3.923 --    14 C    1.354    17 C    1.347    33 H    0.965
    17   6 C    3.921 --    16 C    1.347    18 C    1.216    21 N    1.210
    18   6 C    3.949 --    19 C    1.608    17 C    1.216    34 H    0.973
    19   6 C    3.953 --    18 C    1.608    20 C    1.215    35 H    0.973
    20   6 C    3.916 --    22 C    1.343    19 C    1.215    21 N    1.211
    21   7 N    3.586 --    20 C    1.211    17 C    1.210    36 H    0.900
    22   6 C    3.937 --    23 C    1.366    20 C    1.343    37 H    0.964
    23   6 C    3.925 --    22 C    1.366    24 N    1.300     1 C    1.115
    24   7 N    3.010 --     3 C    1.360    23 C    1.300
    25   1 H    0.999 --     1 C    0.973
    26   1 H    0.999 --     2 C    0.969
    27   1 H    0.998 --     6 C    0.969
    28   1 H    0.998 --     7 C    0.973
    29   1 H    0.954 --     9 N    0.900
    30   1 H    0.997 --    10 C    0.964
    31   1 H    0.999 --    12 C    0.973
    32   1 H    0.999 --    13 C    0.973
    33   1 H    0.997 --    16 C    0.965
    34   1 H    0.998 --    18 C    0.973
    35   1 H    0.998 --    19 C    0.973
    36   1 H    0.954 --    21 N    0.900
    37   1 H    0.997 --    22 C    0.964
    38   6 C    3.960 --    39 C    1.716    60 C    1.115    62 H    0.973
    39   6 C    3.961 --    38 C    1.716    40 C    1.122    63 H    0.969
    40   6 C    3.922 --    61 N    1.360    41 C    1.249    39 C    1.122
    41   6 C    3.940 --    42 C    1.253    40 C    1.249    90 C    1.178
    42   6 C    3.907 --    41 C    1.253    43 C    1.236    46 N    1.225
    43   6 C    3.956 --    44 C    1.593    42 C    1.236    64 H    0.969
    44   6 C    3.948 --    43 C    1.593    45 C    1.223    65 H    0.973
    45   6 C    3.918 --    47 C    1.344    44 C    1.223    46 N    1.203
    46   7 N    3.590 --    42 C    1.225    45 C    1.203    66 H    0.900
    47   6 C    3.921 --    48 C    1.357    45 C    1.344    67 H    0.964
    48   6 C    3.939 --    47 C    1.357    52 N    1.324    49 C    1.107
    49   6 C    3.963 --    50 C    1.731    48 C    1.107    68 H    0.973
    50   6 C    3.962 --    49 C    1.731    51 C    1.109    69 H    0.973
    51   6 C    3.938 --    53 C    1.354    52 N    1.325    50 C    1.109
    52   7 N    3.001 --    51 C    1.325    48 C    1.324
    53   6 C    3.923 --    51 C    1.354    54 C    1.347    70 H    0.965
    54   6 C    3.921 --    53 C    1.347    55 C    1.216    58 N    1.210
    55   6 C    3.949 --    56 C    1.608    54 C    1.216    71 H    0.973
    56   6 C    3.953 --    55 C    1.608    57 C    1.215    72 H    0.973
    57   6 C    3.916 --    59 C    1.343    56 C    1.215    58 N    1.211
    58   7 N    3.586 --    57 C    1.211    54 C    1.210    73 H    0.900
    59   6 C    3.937 --    60 C    1.365    57 C    1.343    74 H    0.964
    60   6 C    3.925 --    59 C    1.365    61 N    1.300    38 C    1.115
    61   7 N    3.010 --    40 C    1.360    60 C    1.300
    62   1 H    0.999 --    38 C    0.973
    63   1 H    0.999 --    39 C    0.969
    64   1 H    0.998 --    43 C    0.969
    65   1 H    0.998 --    44 C    0.973
    66   1 H    0.954 --    46 N    0.900
    67   1 H    0.997 --    47 C    0.964
    68   1 H    0.999 --    49 C    0.973
    69   1 H    0.999 --    50 C    0.973
    70   1 H    0.997 --    53 C    0.965
    71   1 H    0.998 --    55 C    0.973
    72   1 H    0.998 --    56 C    0.973
    73   1 H    0.954 --    58 N    0.900
    74   1 H    0.997 --    59 C    0.964
    75   6 C    3.920 --    76 C    2.565     4 C    1.178
    76   6 C    3.924 --    75 C    2.565    94 C    1.181
    77   6 C    3.920 --    78 C    2.561   106 C    1.181
    78   6 C    3.920 --    77 C    2.561   130 C    1.181
    79   6 C    3.920 --    80 C    2.559   142 C    1.185
    80   6 C    3.920 --    79 C    2.559   166 C    1.185
    81   6 C    3.920 --    82 C    2.559   178 C    1.184
    82   6 C    3.920 --    81 C    2.559   202 C    1.184
    83   6 C    3.920 --    84 C    2.558   214 C    1.185
    84   6 C    3.920 --    83 C    2.558   238 C    1.185
    85   6 C    3.921 --    86 C    2.558   250 C    1.186
    86   6 C    3.920 --    85 C    2.558   274 C    1.186
    87   6 C    3.920 --    88 C    2.562   286 C    1.181
    88   6 C    3.919 --    87 C    2.562   310 C    1.180
    89   6 C    3.924 --    90 C    2.565   322 C    1.181
    90   6 C    3.920 --    89 C    2.565    41 C    1.178
    91   6 C    3.961 --    92 C    1.716   113 C    1.115   115 H    0.973
    92   6 C    3.961 --    91 C    1.716    93 C    1.123   116 H    0.969
    93   6 C    3.922 --   114 N    1.360    94 C    1.247    92 C    1.123
    94   6 C    3.926 --    95 C    1.249    93 C    1.247    76 C    1.181
    95   6 C    3.908 --    94 C    1.249    96 C    1.240    99 N    1.225
    96   6 C    3.953 --    97 C    1.589    95 C    1.240   117 H    0.970
    97   6 C    3.949 --    96 C    1.589    98 C    1.227   118 H    0.973
    98   6 C    3.914 --   100 C    1.336    97 C    1.227    99 N    1.204
    99   7 N    3.586 --    95 C    1.225    98 C    1.204   119 H    0.898
   100   6 C    3.923 --   101 C    1.371    98 C    1.336   120 H    0.963
   101   6 C    3.927 --   100 C    1.371   105 N    1.296   102 C    1.115
   102   6 C    3.961 --   103 C    1.716   101 C    1.115   121 H    0.973
   103   6 C    3.961 --   102 C    1.716   104 C    1.123   122 H    0.970
   104   6 C    3.922 --   105 N    1.361   106 C    1.247   103 C    1.123
   105   7 N    3.000 --   104 C    1.361   101 C    1.296
   106   6 C    3.926 --   107 C    1.249   104 C    1.247    77 C    1.181
   107   6 C    3.908 --   106 C    1.249   108 C    1.240   111 N    1.226
   108   6 C    3.953 --   109 C    1.589   107 C    1.240   123 H    0.970
   109   6 C    3.949 --   108 C    1.589   110 C    1.227   124 H    0.973
   110   6 C    3.915 --   112 C    1.337   109 C    1.227   111 N    1.203
   111   7 N    3.586 --   107 C    1.226   110 C    1.203   125 H    0.898
   112   6 C    3.922 --   113 C    1.370   110 C    1.337   126 H    0.963
   113   6 C    3.927 --   112 C    1.370   114 N    1.297    91 C    1.115
   114   7 N    3.001 --    93 C    1.360   113 C    1.297
   115   1 H    0.999 --    91 C    0.973
   116   1 H    0.999 --    92 C    0.969
   117   1 H    0.998 --    96 C    0.970
   118   1 H    0.998 --    97 C    0.973
   119   1 H    0.954 --    99 N    0.898
   120   1 H    0.997 --   100 C    0.963
   121   1 H    0.999 --   102 C    0.973
   122   1 H    0.999 --   103 C    0.970
   123   1 H    0.998 --   108 C    0.970
   124   1 H    0.998 --   109 C    0.973
   125   1 H    0.954 --   111 N    0.898
   126   1 H    0.997 --   112 C    0.963
   127   6 C    3.961 --   128 C    1.716   149 C    1.115   151 H    0.973
   128   6 C    3.961 --   127 C    1.716   129 C    1.123   152 H    0.970
   129   6 C    3.922 --   150 N    1.361   130 C    1.247   128 C    1.123
   130   6 C    3.925 --   131 C    1.249   129 C    1.247    78 C    1.181
   131   6 C    3.908 --   130 C    1.249   132 C    1.240   135 N    1.226
   132   6 C    3.952 --   133 C    1.588   131 C    1.240   153 H    0.970
   133   6 C    3.949 --   132 C    1.588   134 C    1.227   154 H    0.973
   134   6 C    3.914 --   136 C    1.336   133 C    1.227   135 N    1.204
   135   7 N    3.586 --   131 C    1.226   134 C    1.204   155 H    0.898
   136   6 C    3.922 --   137 C    1.371   134 C    1.336   156 H    0.963
   137   6 C    3.927 --   136 C    1.371   141 N    1.296   138 C    1.115
   138   6 C    3.961 --   139 C    1.715   137 C    1.115   157 H    0.973
   139   6 C    3.961 --   138 C    1.715   140 C    1.123   158 H    0.969
   140   6 C    3.922 --   141 N    1.362   142 C    1.245   139 C    1.123
   141   7 N    3.000 --   140 C    1.362   137 C    1.296
   142   6 C    3.926 --   143 C    1.248   140 C    1.245    79 C    1.185
   143   6 C    3.908 --   142 C    1.248   144 C    1.240   147 N    1.226
   144   6 C    3.952 --   145 C    1.588   143 C    1.240   159 H    0.969
   145   6 C    3.949 --   144 C    1.588   146 C    1.227   160 H    0.973
   146   6 C    3.914 --   148 C    1.336   145 C    1.227   147 N    1.204
   147   7 N    3.586 --   143 C    1.226   146 C    1.204   161 H    0.898
   148   6 C    3.922 --   149 C    1.370   146 C    1.336   162 H    0.963
   149   6 C    3.927 --   148 C    1.370   150 N    1.297   127 C    1.115
   150   7 N    3.000 --   129 C    1.361   149 C    1.297
   151   1 H    0.999 --   127 C    0.973
   152   1 H    0.999 --   128 C    0.970
   153   1 H    0.998 --   132 C    0.970
   154   1 H    0.998 --   133 C    0.973
   155   1 H    0.954 --   135 N    0.898
   156   1 H    0.997 --   136 C    0.963
   157   1 H    0.999 --   138 C    0.973
   158   1 H    0.999 --   139 C    0.969
   159   1 H    0.998 --   144 C    0.969
   160   1 H    0.998 --   145 C    0.973
   161   1 H    0.954 --   147 N    0.898
   162   1 H    0.997 --   148 C    0.963
   163   6 C    3.961 --   164 C    1.715   185 C    1.115   187 H    0.973
   164   6 C    3.961 --   163 C    1.715   165 C    1.123   188 H    0.969
   165   6 C    3.922 --   186 N    1.362   166 C    1.245   164 C    1.123
   166   6 C    3.926 --   167 C    1.247   165 C    1.245    80 C    1.185
   167   6 C    3.908 --   166 C    1.247   168 C    1.241   171 N    1.226
   168   6 C    3.952 --   169 C    1.588   167 C    1.241   189 H    0.969
   169   6 C    3.949 --   168 C    1.588   170 C    1.228   190 H    0.973
   170   6 C    3.914 --   172 C    1.336   169 C    1.228   171 N    1.204
   171   7 N    3.585 --   167 C    1.226   170 C    1.204   191 H    0.897
   172   6 C    3.922 --   173 C    1.371   170 C    1.336   192 H    0.963
   173   6 C    3.927 --   172 C    1.371   177 N    1.296   174 C    1.115
   174   6 C    3.961 --   175 C    1.716   173 C    1.115   193 H    0.973
   175   6 C    3.961 --   174 C    1.716   176 C    1.123   194 H    0.969
   176   6 C    3.922 --   177 N    1.362   178 C    1.245   175 C    1.123
   177   7 N    3.000 --   176 C    1.362   173 C    1.296
   178   6 C    3.925 --   179 C    1.248   176 C    1.245    81 C    1.184
   179   6 C    3.908 --   178 C    1.248   180 C    1.240   183 N    1.226
   180   6 C    3.952 --   181 C    1.588   179 C    1.240   195 H    0.970
   181   6 C    3.949 --   180 C    1.588   182 C    1.227   196 H    0.973
   182   6 C    3.914 --   184 C    1.336   181 C    1.227   183 N    1.204
   183   7 N    3.585 --   179 C    1.226   182 C    1.204   197 H    0.898
   184   6 C    3.922 --   185 C    1.371   182 C    1.336   198 H    0.963
   185   6 C    3.927 --   184 C    1.371   186 N    1.296   163 C    1.115
   186   7 N    3.000 --   165 C    1.362   185 C    1.296
   187   1 H    0.999 --   163 C    0.973
   188   1 H    0.999 --   164 C    0.969
   189   1 H    0.998 --   168 C    0.969
   190   1 H    0.998 --   169 C    0.973
   191   1 H    0.954 --   171 N    0.897
   192   1 H    0.997 --   172 C    0.963
   193   1 H    0.999 --   174 C    0.973
   194   1 H    0.999 --   175 C    0.969
   195   1 H    0.998 --   180 C    0.970
   196   1 H    0.998 --   181 C    0.973
   197   1 H    0.954 --   183 N    0.898
   198   1 H    0.997 --   184 C    0.963
   199   6 C    3.961 --   200 C    1.716   221 C    1.115   223 H    0.973
   200   6 C    3.961 --   199 C    1.716   201 C    1.123   224 H    0.969
   201   6 C    3.922 --   222 N    1.362   202 C    1.245   200 C    1.123
   202   6 C    3.925 --   203 C    1.248   201 C    1.245    82 C    1.184
   203   6 C    3.908 --   202 C    1.248   204 C    1.240   207 N    1.226
   204   6 C    3.952 --   205 C    1.588   203 C    1.240   225 H    0.970
   205   6 C    3.949 --   204 C    1.588   206 C    1.227   226 H    0.973
   206   6 C    3.914 --   208 C    1.336   205 C    1.227   207 N    1.204
   207   7 N    3.585 --   203 C    1.226   206 C    1.204   227 H    0.898
   208   6 C    3.922 --   209 C    1.371   206 C    1.336   228 H    0.963
   209   6 C    3.927 --   208 C    1.371   213 N    1.296   210 C    1.115
   210   6 C    3.961 --   211 C    1.715   209 C    1.115   229 H    0.973
   211   6 C    3.961 --   210 C    1.715   212 C    1.123   230 H    0.969
   212   6 C    3.922 --   213 N    1.362   214 C    1.245   211 C    1.123
   213   7 N    2.999 --   212 C    1.362   209 C    1.296
   214   6 C    3.926 --   215 C    1.247   212 C    1.245    83 C    1.185
   215   6 C    3.908 --   214 C    1.247   216 C    1.241   219 N    1.226
   216   6 C    3.952 --   217 C    1.588   215 C    1.241   231 H    0.970
   217   6 C    3.949 --   216 C    1.588   218 C    1.228   232 H    0.973
   218   6 C    3.914 --   220 C    1.336   217 C    1.228   219 N    1.204
   219   7 N    3.586 --   215 C    1.226   218 C    1.204   233 H    0.898
   220   6 C    3.922 --   221 C    1.371   218 C    1.336   234 H    0.963
   221   6 C    3.927 --   220 C    1.371   222 N    1.296   199 C    1.115
   222   7 N    2.999 --   201 C    1.362   221 C    1.296
   223   1 H    0.999 --   199 C    0.973
   224   1 H    0.999 --   200 C    0.969
   225   1 H    0.998 --   204 C    0.970
   226   1 H    0.998 --   205 C    0.973
   227   1 H    0.954 --   207 N    0.898
   228   1 H    0.997 --   208 C    0.963
   229   1 H    0.999 --   210 C    0.973
   230   1 H    0.999 --   211 C    0.969
   231   1 H    0.998 --   216 C    0.970
   232   1 H    0.998 --   217 C    0.973
   233   1 H    0.954 --   219 N    0.898
   234   1 H    0.997 --   220 C    0.963
   235   6 C    3.961 --   236 C    1.715   257 C    1.115   259 H    0.973
   236   6 C    3.961 --   235 C    1.715   237 C    1.123   260 H    0.969
   237   6 C    3.922 --   258 N    1.362   238 C    1.245   236 C    1.123
   238   6 C    3.925 --   239 C    1.248   237 C    1.245    84 C    1.185
   239   6 C    3.908 --   238 C    1.248   240 C    1.241   243 N    1.226
   240   6 C    3.952 --   241 C    1.588   239 C    1.241   261 H    0.969
   241   6 C    3.949 --   240 C    1.588   242 C    1.228   262 H    0.973
   242   6 C    3.914 --   244 C    1.336   241 C    1.228   243 N    1.204
   243   7 N    3.585 --   239 C    1.226   242 C    1.204   263 H    0.897
   244   6 C    3.922 --   245 C    1.371   242 C    1.336   264 H    0.963
   245   6 C    3.927 --   244 C    1.371   249 N    1.295   246 C    1.115
   246   6 C    3.961 --   247 C    1.715   245 C    1.115   265 H    0.973
   247   6 C    3.961 --   246 C    1.715   248 C    1.124   266 H    0.969
   248   6 C    3.921 --   249 N    1.363   250 C    1.244   247 C    1.124
   249   7 N    3.000 --   248 C    1.363   245 C    1.295
   250   6 C    3.925 --   251 C    1.248   248 C    1.244    85 C    1.186
   251   6 C    3.908 --   250 C    1.248   252 C    1.241   255 N    1.226
   252   6 C    3.952 --   253 C    1.588   251 C    1.241   267 H    0.969
   253   6 C    3.949 --   252 C    1.588   254 C    1.228   268 H    0.973
   254   6 C    3.914 --   256 C    1.335   253 C    1.228   255 N    1.204
   255   7 N    3.585 --   251 C    1.226   254 C    1.204   269 H    0.897
   256   6 C    3.922 --   257 C    1.371   254 C    1.335   270 H    0.963
   257   6 C    3.927 --   256 C    1.371   258 N    1.296   235 C    1.115
   258   7 N    3.000 --   237 C    1.362   257 C    1.296
   259   1 H    0.999 --   235 C    0.973
   260   1 H    0.999 --   236 C    0.969
   261   1 H    0.998 --   240 C    0.969
   262   1 H    0.998 --   241 C    0.973
   263   1 H    0.954 --   243 N    0.897
   264   1 H    0.997 --   244 C    0.963
   265   1 H    0.999 --   246 C    0.973
   266   1 H    0.999 --   247 C    0.969
   267   1 H    0.998 --   252 C    0.969
   268   1 H    0.998 --   253 C    0.973
   269   1 H    0.954 --   255 N    0.897
   270   1 H    0.997 --   256 C    0.963
   271   6 C    3.960 --   272 C    1.715   293 C    1.115   295 H    0.973
   272   6 C    3.961 --   271 C    1.715   273 C    1.123   296 H    0.969
   273   6 C    3.921 --   294 N    1.363   274 C    1.245   272 C    1.123
   274   6 C    3.926 --   275 C    1.247   273 C    1.245    86 C    1.186
   275   6 C    3.907 --   274 C    1.247   276 C    1.241   279 N    1.226
   276   6 C    3.953 --   277 C    1.588   275 C    1.241   297 H    0.969
   277   6 C    3.949 --   276 C    1.588   278 C    1.227   298 H    0.973
   278   6 C    3.914 --   280 C    1.336   277 C    1.227   279 N    1.203
   279   7 N    3.586 --   275 C    1.226   278 C    1.203   299 H    0.898
   280   6 C    3.922 --   281 C    1.370   278 C    1.336   300 H    0.963
   281   6 C    3.927 --   280 C    1.370   285 N    1.297   282 C    1.115
   282   6 C    3.961 --   283 C    1.716   281 C    1.115   301 H    0.973
   283   6 C    3.961 --   282 C    1.716   284 C    1.123   302 H    0.970
   284   6 C    3.923 --   285 N    1.361   286 C    1.248   283 C    1.123
   285   7 N    2.999 --   284 C    1.361   281 C    1.297
   286   6 C    3.925 --   287 C    1.249   284 C    1.248    87 C    1.181
   287   6 C    3.908 --   286 C    1.249   288 C    1.240   291 N    1.225
   288   6 C    3.952 --   289 C    1.588   287 C    1.240   303 H    0.970
   289   6 C    3.949 --   288 C    1.588   290 C    1.227   304 H    0.973
   290   6 C    3.914 --   292 C    1.336   289 C    1.227   291 N    1.204
   291   7 N    3.586 --   287 C    1.225   290 C    1.204   305 H    0.898
   292   6 C    3.923 --   293 C    1.371   290 C    1.336   306 H    0.963
   293   6 C    3.927 --   292 C    1.371   294 N    1.295   271 C    1.115
   294   7 N    3.000 --   273 C    1.363   293 C    1.295
   295   1 H    0.999 --   271 C    0.973
   296   1 H    0.999 --   272 C    0.969
   297   1 H    0.998 --   276 C    0.969
   298   1 H    0.998 --   277 C    0.973
   299   1 H    0.954 --   279 N    0.898
   300   1 H    0.997 --   280 C    0.963
   301   1 H    0.999 --   282 C    0.973
   302   1 H    0.999 --   283 C    0.970
   303   1 H    0.998 --   288 C    0.970
   304   1 H    0.998 --   289 C    0.973
   305   1 H    0.954 --   291 N    0.898
   306   1 H    0.997 --   292 C    0.963
   307   6 C    3.961 --   308 C    1.716   329 C    1.115   331 H    0.973
   308   6 C    3.961 --   307 C    1.716   309 C    1.123   332 H    0.970
   309   6 C    3.922 --   330 N    1.361   310 C    1.247   308 C    1.123
   310   6 C    3.926 --   311 C    1.250   309 C    1.247    88 C    1.180
   311   6 C    3.908 --   310 C    1.250   312 C    1.239   315 N    1.225
   312   6 C    3.953 --   313 C    1.589   311 C    1.239   333 H    0.971
   313   6 C    3.949 --   312 C    1.589   314 C    1.227   334 H    0.973
   314   6 C    3.915 --   316 C    1.337   313 C    1.227   315 N    1.204
   315   7 N    3.586 --   311 C    1.225   314 C    1.204   335 H    0.898
   316   6 C    3.923 --   317 C    1.370   314 C    1.337   336 H    0.963
   317   6 C    3.927 --   316 C    1.370   321 N    1.297   318 C    1.115
   318   6 C    3.961 --   319 C    1.716   317 C    1.115   337 H    0.973
   319   6 C    3.961 --   318 C    1.716   320 C    1.123   338 H    0.969
   320   6 C    3.922 --   321 N    1.360   322 C    1.247   319 C    1.123
   321   7 N    3.001 --   320 C    1.360   317 C    1.297
   322   6 C    3.927 --   323 C    1.249   320 C    1.247    89 C    1.181
   323   6 C    3.908 --   322 C    1.249   324 C    1.240   327 N    1.225
   324   6 C    3.953 --   325 C    1.589   323 C    1.240   339 H    0.969
   325   6 C    3.949 --   324 C    1.589   326 C    1.227   340 H    0.973
   326   6 C    3.914 --   328 C    1.336   325 C    1.227   327 N    1.204
   327   7 N    3.586 --   323 C    1.225   326 C    1.204   341 H    0.898
   328   6 C    3.923 --   329 C    1.371   326 C    1.336   342 H    0.963
   329   6 C    3.927 --   328 C    1.371   330 N    1.296   307 C    1.115
   330   7 N    3.001 --   309 C    1.361   329 C    1.296
   331   1 H    0.999 --   307 C    0.973
   332   1 H    0.999 --   308 C    0.970
   333   1 H    0.998 --   312 C    0.971
   334   1 H    0.998 --   313 C    0.973
   335   1 H    0.954 --   315 N    0.898
   336   1 H    0.997 --   316 C    0.963
   337   1 H    0.999 --   318 C    0.973
   338   1 H    0.999 --   319 C    0.969
   339   1 H    0.998 --   324 C    0.969
   340   1 H    0.998 --   325 C    0.973
   341   1 H    0.954 --   327 N    0.898
   342   1 H    0.997 --   328 C    0.963
 ---------------------------------------------------------------------------

Topologies differ in total number of bonds
Writing topology from bond orders to xtbtopo.mol

molecular dipole:
                 x           y           z       tot (Debye)
 q only:        0.008       0.005       0.005
   full:        0.007      -0.003      -0.005       0.023
molecular quadrupole (traceless):
                xx          xy          yy          xz          yz          zz
 q only:      108.560     -90.023     -23.224      15.099      -5.840     -85.336
  q+dip:      198.302     -47.570      10.069      -0.180     -19.679    -208.372
   full:      145.632     -45.430     -10.041      -0.599     -11.369    -135.591


           -------------------------------------------------
          | TOTAL ENERGY             -580.608907375038 Eh   |
          | GRADIENT NORM               0.000510460731 Eh/α |
          | HOMO-LUMO GAP               0.700775846091 eV   |
           -------------------------------------------------

------------------------------------------------------------------------
 * finished run on 2021/11/21 at 21:26:28.704     
------------------------------------------------------------------------
 total:
 * wall-time:     0 d,  0 h,  0 min,  6.436 sec
 *  cpu-time:     0 d,  0 h,  0 min,  6.436 sec
 * ratio c/w:     1.000 speedup
 SCF:
 * wall-time:     0 d,  0 h,  0 min,  6.218 sec
 *  cpu-time:     0 d,  0 h,  0 min,  6.218 sec
 * ratio c/w:     1.000 speedup

