 Entering Gaussian System
 *********************************************
 Gaussian 98:
 frequency output generated by the xtb code
 *********************************************
                         Standard orientation:
 --------------------------------------------------------------------
  Center     Atomic     Atomic              Coordinates (Angstroms)
  Number     Number      Type              X           Y           Z
 --------------------------------------------------------------------
    1         29             0        6.651751   -0.053891    0.024324
    2          6             0        9.130937   -3.514378    0.049588
    3          6             0       10.096418   -2.565484    0.086835
    4          6             0        9.424832   -1.297371    0.088879
    5          6             0       10.088669   -0.062070    0.127179
    6          6             0        9.430755    1.177134    0.120677
    7          6             0       10.107293    2.442150    0.154311
    8          6             0        9.146039    3.395662    0.127091
    9          6             0        7.885551    2.711108    0.077690
   10          7             0        8.092581    1.366175    0.076254
   11          6             0        6.658482    3.348673    0.036426
   12          6             0        5.429639    2.714223   -0.005581
   13          6             0        4.166956    3.400833   -0.044184
   14          6             0        3.206675    2.448636   -0.069601
   15          6             0        3.881570    1.179093   -0.047549
   16          7             0        5.223952    1.372966   -0.010327
   17          6             0        3.237251   -0.045707   -0.061032
   18          6             0        3.874980   -1.273911   -0.045822
   19          6             0        3.193758   -2.540126   -0.062882
   20          6             0        4.149609   -3.497025   -0.047203
   21          6             0        5.415918   -2.816597   -0.019960
   22          7             0        5.216558   -1.474413   -0.018391
   23          6             0        6.642648   -3.456244   -0.001475
   24          6             0        7.872798   -2.823960    0.029503
   25          7             0        8.085463   -1.480022    0.051866
   26          1             0        9.241220   -4.581432    0.036627
   27          1             0       11.161764   -2.690179    0.110247
   28          1             0       11.172631    2.562235    0.192577
   29          1             0        9.260805    4.462271    0.139158
   30          1             0        6.661043    4.429206    0.039111
   31          1             0        4.054682    4.467977   -0.050131
   32          1             0        2.141043    2.570504   -0.100707
   33          1             0        2.157244   -0.042756   -0.086831
   34          1             0        2.127353   -2.657081   -0.084316
   35          1             0        4.031883   -4.563578   -0.052767
   36          1             0        6.641049   -4.536755   -0.010632
   37          6             0       11.484852   -0.065033    0.170683
   38          6             0       12.704225   -0.052819    0.205735
   39          6             0       14.040126   -0.045252    0.236297
   40          6             0       15.264207   -0.037656    0.250416
   41          6             0       16.600402   -0.024281    0.246258
   42          6             0       17.820086   -0.010120    0.223959
   43         29             0       22.646008    0.053907   -0.048048
   44          6             0       20.122394    3.475794    0.174782
   45          6             0       19.171649    2.512096    0.212247
   46          6             0       19.860038    1.254602    0.149701
   47          6             0       19.215976    0.008414    0.175799
   48          6             0       19.893379   -1.219905    0.151712
   49          6             0       19.238909   -2.495215    0.217639
   50          6             0       20.214596   -3.433371    0.174695
   51          6             0       21.461447   -2.729377    0.075952
   52          7             0       21.232566   -1.387969    0.069117
   53          6             0       22.695377   -3.348093   -0.016565
   54          6             0       23.908879   -2.695089   -0.141326
   55          6             0       25.176713   -3.361700   -0.265363
   56          6             0       26.116054   -2.394579   -0.374151
   57          6             0       25.423827   -1.135809   -0.311397
   58          7             0       24.091313   -1.350887   -0.173238
   59          6             0       26.045458    0.099243   -0.372061
   60          6             0       25.392521    1.316997   -0.292544
   61          6             0       26.052998    2.593610   -0.333889
   62          6             0       25.088569    3.535123   -0.219955
   63          6             0       23.837219    2.835047   -0.113742
   64          7             0       24.054293    1.496361   -0.159349
   65          6             0       22.606295    3.455858    0.004152
   66          6             0       21.387969    2.805145    0.082929
   67          7             0       21.194563    1.458195    0.072626
   68          1             0       19.997017    4.540888    0.202533
   69          1             0       18.106437    2.620691    0.278821
   70          1             0       18.177298   -2.631789    0.289692
   71          1             0       20.117698   -4.501430    0.202642
   72          1             0       22.710535   -4.428423   -0.000957
   73          1             0       25.306567   -4.426841   -0.269081
   74          1             0       27.178115   -2.499798   -0.484906
   75          1             0       27.120096    0.113915   -0.481613
   76          1             0       27.112841    2.727303   -0.434877
   77          1             0       25.191111    4.603177   -0.209136
   78          1             0       22.593651    4.536116    0.026003
 --------------------------------------------------------------------
     1 basis functions        1 primitive gaussians
     1 alpha electrons        1 beta electrons

 Harmonic frequencies (cm**-1), IR intensities (km*mol⁻¹),
 Raman scattering activities (A**4/amu), Raman depolarization ratios,
 reduced masses (AMU), force constants (mDyne/A) and normal coordinates:
                      1                      2                      3
                        a                      a                      a 
 Frequencies --    -2.9502                 4.6601                 6.1475
 Red. masses --    11.2480                11.6655                11.5833
 Frc consts  --     0.0000                 0.0000                 0.0000
 IR Inten    --     5.0247                73.6070                 0.9066
 Raman Activ --     0.0000                 0.0000                 0.0000
 Depolar     --     0.0000                 0.0000                 0.0000
 Atom AN      X      Y      Z        X      Y      Z        X      Y      Z
   1  29    -0.00  -0.00   0.00    -0.02  -0.01   0.04     0.00  -0.04  -0.01
   2   6     0.01   0.01  -0.20     0.03   0.02  -0.08     0.12   0.07   0.03
   3   6     0.01   0.01  -0.15     0.02   0.03  -0.12     0.09   0.10   0.04
   4   6     0.00   0.00  -0.08     0.01   0.02  -0.09     0.04   0.08   0.03
   5   6    -0.00   0.00  -0.01    -0.01   0.03  -0.12     0.00   0.10   0.04
   6   6    -0.00   0.00   0.06    -0.02   0.02  -0.11    -0.04   0.08   0.03
   7   6    -0.01   0.00   0.13    -0.03   0.03  -0.15    -0.09   0.10   0.05
   8   6    -0.01   0.00   0.18    -0.04   0.02  -0.12    -0.12   0.07   0.04
   9   6    -0.01   0.00   0.15    -0.03   0.01  -0.07    -0.09   0.03   0.02
  10   7    -0.00   0.00   0.08    -0.02   0.01  -0.06    -0.05   0.04   0.02
  11   6    -0.01  -0.00   0.19    -0.04  -0.00  -0.02    -0.12  -0.02   0.01
  12   6    -0.01  -0.00   0.16    -0.04  -0.02   0.05    -0.09  -0.06  -0.01
  13   6    -0.01  -0.00   0.21    -0.05  -0.03   0.11    -0.12  -0.10  -0.03
  14   6    -0.01  -0.00   0.16    -0.04  -0.04   0.17    -0.08  -0.13  -0.05
  15   6    -0.00  -0.00   0.09    -0.02  -0.03   0.15    -0.04  -0.11  -0.05
  16   7    -0.01  -0.00   0.10    -0.03  -0.02   0.08    -0.05  -0.07  -0.02
  17   6    -0.00  -0.00   0.02    -0.01  -0.04   0.19     0.00  -0.13  -0.06
  18   6     0.00  -0.00  -0.06    -0.00  -0.03   0.16     0.04  -0.11  -0.05
  19   6     0.01  -0.00  -0.12     0.01  -0.04   0.20     0.09  -0.13  -0.06
  20   6     0.01  -0.00  -0.18     0.02  -0.03   0.15     0.12  -0.10  -0.05
  21   6     0.01  -0.00  -0.15     0.01  -0.02   0.08     0.10  -0.06  -0.03
  22   7     0.00  -0.00  -0.08     0.00  -0.02   0.10     0.05  -0.07  -0.03
  23   6     0.01   0.00  -0.19     0.02  -0.01   0.02     0.12  -0.02  -0.01
  24   6     0.01   0.00  -0.16     0.02   0.00  -0.03     0.10   0.03   0.01
  25   7     0.00   0.00  -0.09     0.01   0.01  -0.05     0.05   0.04   0.01
  26   1     0.00   0.00  -0.08     0.01   0.01  -0.03     0.05   0.02   0.01
  27   1     0.00   0.00  -0.05     0.01   0.01  -0.05     0.03   0.04   0.01
  28   1    -0.00   0.00   0.04    -0.01   0.01  -0.06    -0.03   0.04   0.02
  29   1    -0.00   0.00   0.07    -0.01   0.01  -0.04    -0.04   0.02   0.01
  30   1    -0.00  -0.00   0.07    -0.01  -0.00  -0.01    -0.04  -0.00   0.00
  31   1    -0.00  -0.00   0.08    -0.02  -0.01   0.03    -0.04  -0.03  -0.01
  32   1    -0.00  -0.00   0.05    -0.01  -0.01   0.07    -0.03  -0.05  -0.02
  33   1    -0.00  -0.00   0.01    -0.00  -0.01   0.07     0.00  -0.05  -0.02
  34   1     0.00  -0.00  -0.04     0.00  -0.01   0.07     0.03  -0.05  -0.02
  35   1     0.00  -0.00  -0.07     0.01  -0.01   0.04     0.05  -0.03  -0.01
  36   1     0.00   0.00  -0.07     0.01  -0.00   0.01     0.05  -0.00  -0.00
  37   6    -0.00   0.01  -0.02    -0.00   0.04  -0.16     0.00   0.15   0.05
  38   6    -0.00   0.01  -0.02    -0.00   0.05  -0.18    -0.00   0.17   0.05
  39   6    -0.00   0.01  -0.02    -0.00   0.05  -0.19    -0.00   0.19   0.06
  40   6    -0.00   0.01  -0.02    -0.00   0.06  -0.19    -0.00   0.19   0.06
  41   6    -0.00   0.01  -0.02    -0.00   0.05  -0.18    -0.00   0.17   0.05
  42   6    -0.00   0.01  -0.02    -0.00   0.05  -0.17    -0.00   0.15   0.05
  43  29     0.00  -0.00   0.00     0.02  -0.01   0.04    -0.00  -0.04  -0.01
  44   6    -0.00   0.01  -0.20     0.04   0.02  -0.09     0.12   0.07   0.04
  45   6    -0.00   0.01  -0.15     0.03   0.03  -0.13     0.09   0.10   0.05
  46   6    -0.00   0.01  -0.08     0.01   0.02  -0.10     0.04   0.08   0.03
  47   6    -0.00   0.01  -0.01    -0.00   0.03  -0.13     0.00   0.10   0.04
  48   6     0.00   0.01   0.06    -0.01   0.03  -0.12    -0.04   0.08   0.03
  49   6     0.00   0.01   0.12    -0.03   0.03  -0.16    -0.09   0.10   0.03
  50   6     0.00   0.01   0.18    -0.04   0.02  -0.13    -0.12   0.07   0.02
  51   6     0.00   0.00   0.15    -0.03   0.01  -0.07    -0.10   0.03   0.00
  52   7     0.00   0.00   0.08    -0.01   0.01  -0.07    -0.05   0.04   0.01
  53   6     0.00   0.00   0.19    -0.03  -0.00  -0.02    -0.12  -0.02  -0.01
  54   6     0.00  -0.00   0.16    -0.02  -0.02   0.05    -0.10  -0.06  -0.03
  55   6     0.01  -0.01   0.21    -0.02  -0.03   0.11    -0.12  -0.10  -0.05
  56   6     0.01  -0.02   0.16    -0.00  -0.04   0.17    -0.09  -0.14  -0.06
  57   6     0.00  -0.01   0.09     0.01  -0.03   0.15    -0.05  -0.11  -0.05
  58   7     0.00  -0.01   0.10    -0.00  -0.02   0.08    -0.06  -0.07  -0.03
  59   6     0.00  -0.02   0.02     0.03  -0.04   0.19    -0.00  -0.13  -0.06
  60   6     0.00  -0.01  -0.05     0.04  -0.03   0.17     0.04  -0.11  -0.04
  61   6    -0.00  -0.01  -0.12     0.05  -0.04   0.21     0.08  -0.13  -0.04
  62   6    -0.00  -0.01  -0.18     0.05  -0.03   0.15     0.12  -0.10  -0.03
  63   6    -0.00  -0.00  -0.15     0.04  -0.02   0.09     0.09  -0.06  -0.01
  64   7    -0.00  -0.01  -0.08     0.03  -0.02   0.10     0.05  -0.07  -0.02
  65   6    -0.00   0.00  -0.19     0.04  -0.00   0.02     0.12  -0.01   0.01
  66   6    -0.00   0.00  -0.16     0.03   0.01  -0.04     0.10   0.03   0.02
  67   7    -0.00   0.00  -0.09     0.02   0.01  -0.05     0.05   0.04   0.02
  68   1    -0.00   0.00  -0.08     0.01   0.01  -0.03     0.05   0.02   0.01
  69   1    -0.00   0.00  -0.05     0.01   0.01  -0.05     0.03   0.04   0.02
  70   1     0.00   0.00   0.04    -0.01   0.01  -0.06    -0.03   0.04   0.01
  71   1     0.00   0.00   0.07    -0.01   0.01  -0.04    -0.04   0.02   0.01
  72   1     0.00   0.00   0.07    -0.01  -0.00  -0.01    -0.05  -0.01  -0.00
  73   1     0.00  -0.00   0.08    -0.01  -0.01   0.03    -0.05  -0.03  -0.02
  74   1     0.00  -0.01   0.05     0.00  -0.01   0.07    -0.03  -0.05  -0.02
  75   1     0.00  -0.01   0.01     0.01  -0.01   0.07    -0.00  -0.05  -0.02
  76   1    -0.00  -0.01  -0.04     0.02  -0.01   0.08     0.02  -0.05  -0.02
  77   1    -0.00  -0.00  -0.07     0.02  -0.01   0.05     0.04  -0.03  -0.01
  78   1    -0.00   0.00  -0.07     0.02  -0.00   0.01     0.05  -0.00   0.00
                      4                      5                      6
                        a                      a                      a 
 Frequencies --    13.7605                23.3173                30.1331
 Red. masses --    11.9280                12.4626                11.7772
 Frc consts  --     0.0000                 0.0000                 0.0000
 IR Inten    --    43.6393                28.7343                28.6994
 Raman Activ --     0.0000                 0.0000                 0.0000
 Depolar     --     0.0000                 0.0000                 0.0000
 Atom AN      X      Y      Z        X      Y      Z        X      Y      Z
   1  29     0.01   0.00  -0.08    -0.00   0.10   0.00     0.03  -0.00  -0.06
   2   6     0.01   0.01  -0.19     0.12   0.13   0.00     0.01  -0.00  -0.14
   3   6     0.01   0.01  -0.19     0.09   0.17   0.00     0.01  -0.00  -0.03
   4   6     0.01   0.00  -0.14     0.04   0.14   0.00     0.01  -0.00   0.02
   5   6     0.01   0.00  -0.13    -0.00   0.17   0.00     0.01  -0.00   0.09
   6   6     0.00   0.00  -0.14    -0.04   0.14  -0.00     0.01  -0.00   0.02
   7   6     0.01   0.00  -0.19    -0.09   0.17  -0.00     0.01  -0.00  -0.03
   8   6     0.00   0.00  -0.19    -0.12   0.13  -0.00     0.02   0.00  -0.14
   9   6     0.00   0.00  -0.14    -0.10   0.08  -0.00     0.02   0.00  -0.14
  10   7     0.00   0.00  -0.12    -0.05   0.10  -0.00     0.01   0.00  -0.05
  11   6     0.00   0.00  -0.09    -0.12   0.04  -0.00     0.02   0.00  -0.18
  12   6    -0.00  -0.00   0.00    -0.10  -0.01  -0.00     0.01   0.00  -0.09
  13   6    -0.00  -0.00   0.08    -0.12  -0.05  -0.01     0.01   0.00  -0.03
  14   6    -0.00  -0.00   0.18    -0.09  -0.08  -0.00     0.01   0.00   0.10
  15   6    -0.00  -0.00   0.15    -0.04  -0.06  -0.00     0.01   0.00   0.11
  16   7     0.00  -0.00   0.05    -0.06  -0.01  -0.00     0.01   0.00   0.00
  17   6    -0.00  -0.00   0.21    -0.00  -0.08   0.00     0.01   0.00   0.18
  18   6     0.00  -0.00   0.15     0.04  -0.06   0.00     0.01  -0.00   0.11
  19   6     0.00  -0.00   0.18     0.09  -0.08   0.00     0.01   0.00   0.09
  20   6     0.01  -0.00   0.08     0.12  -0.05   0.01     0.01   0.00  -0.04
  21   6     0.01   0.00  -0.00     0.10  -0.00   0.00     0.01  -0.00  -0.09
  22   7     0.00  -0.00   0.05     0.05  -0.01   0.00     0.01  -0.00  -0.00
  23   6     0.01   0.00  -0.09     0.12   0.04   0.01     0.01   0.00  -0.18
  24   6     0.01   0.00  -0.14     0.10   0.09   0.00     0.01  -0.00  -0.14
  25   7     0.01   0.00  -0.12     0.05   0.10   0.00     0.01  -0.00  -0.05
  26   1     0.00   0.00  -0.07     0.05   0.04   0.00     0.00   0.00  -0.06
  27   1     0.00   0.00  -0.06     0.03   0.06   0.00     0.00  -0.00   0.00
  28   1     0.00   0.00  -0.06    -0.03   0.06  -0.00     0.00  -0.00   0.00
  29   1     0.00   0.00  -0.07    -0.05   0.04  -0.00     0.01   0.00  -0.06
  30   1     0.00   0.00  -0.04    -0.05   0.01  -0.00     0.01   0.00  -0.07
  31   1    -0.00  -0.00   0.02    -0.05  -0.02  -0.00     0.00   0.00  -0.02
  32   1    -0.00  -0.00   0.08    -0.03  -0.04  -0.00     0.00   0.00   0.05
  33   1    -0.00  -0.00   0.09    -0.00  -0.04   0.00     0.00   0.00   0.08
  34   1     0.00  -0.00   0.08     0.03  -0.04   0.00     0.00  -0.00   0.05
  35   1     0.00  -0.00   0.02     0.05  -0.02   0.00     0.00   0.00  -0.03
  36   1     0.00   0.00  -0.04     0.05   0.01   0.00     0.00   0.00  -0.07
  37   6     0.01   0.00  -0.12    -0.00   0.19   0.00     0.00  -0.00   0.19
  38   6     0.00   0.00  -0.08     0.00   0.13   0.00     0.00  -0.00   0.27
  39   6     0.00   0.00  -0.03     0.00   0.06   0.00    -0.00  -0.00   0.32
  40   6     0.00   0.00   0.02     0.00  -0.06   0.00    -0.00  -0.00   0.32
  41   6     0.00  -0.00   0.07     0.00  -0.13   0.00    -0.00   0.00   0.27
  42   6     0.00  -0.00   0.11     0.00  -0.19  -0.00    -0.00   0.00   0.18
  43  29    -0.01  -0.00   0.08     0.00  -0.10  -0.00    -0.03   0.00  -0.06
  44   6     0.01  -0.00   0.18    -0.12  -0.13  -0.00    -0.02   0.00  -0.14
  45   6     0.01  -0.00   0.18    -0.09  -0.16   0.00    -0.01   0.00  -0.03
  46   6     0.00  -0.00   0.13    -0.04  -0.14   0.00    -0.01   0.00   0.01
  47   6     0.00  -0.00   0.13     0.00  -0.16  -0.00    -0.01   0.00   0.08
  48   6     0.00  -0.00   0.13     0.04  -0.14  -0.01    -0.01   0.00   0.02
  49   6     0.01  -0.00   0.18     0.09  -0.16  -0.01    -0.01   0.00  -0.03
  50   6     0.01  -0.00   0.19     0.12  -0.13  -0.01    -0.02  -0.00  -0.14
  51   6     0.01  -0.00   0.13     0.10  -0.09  -0.01    -0.02  -0.00  -0.14
  52   7     0.00  -0.00   0.12     0.05  -0.10  -0.00    -0.02   0.00  -0.06
  53   6     0.00  -0.00   0.09     0.12  -0.04  -0.01    -0.03  -0.00  -0.18
  54   6    -0.01  -0.00   0.00     0.10   0.00   0.00    -0.02  -0.00  -0.09
  55   6    -0.01  -0.00  -0.08     0.12   0.05   0.01    -0.01  -0.00  -0.04
  56   6    -0.02  -0.00  -0.17     0.09   0.08   0.01     0.00  -0.00   0.10
  57   6    -0.02  -0.00  -0.14     0.04   0.06   0.01     0.00  -0.00   0.11
  58   7    -0.01  -0.00  -0.04     0.05   0.01   0.00    -0.01  -0.00   0.00
  59   6    -0.03  -0.00  -0.20     0.00   0.08   0.01     0.01  -0.00   0.18
  60   6    -0.02   0.00  -0.14    -0.04   0.06   0.00     0.00  -0.00   0.11
  61   6    -0.02   0.00  -0.17    -0.09   0.08   0.00     0.00  -0.00   0.10
  62   6    -0.01  -0.00  -0.08    -0.12   0.05  -0.00    -0.01   0.00  -0.03
  63   6    -0.01  -0.00  -0.00    -0.10   0.00  -0.00    -0.02   0.00  -0.08
  64   7    -0.01   0.00  -0.05    -0.05   0.01  -0.00    -0.01   0.00   0.00
  65   6     0.00  -0.00   0.09    -0.12  -0.04  -0.01    -0.02   0.01  -0.18
  66   6     0.00  -0.00   0.13    -0.10  -0.09  -0.00    -0.02   0.00  -0.14
  67   7     0.00  -0.00   0.12    -0.05  -0.10  -0.00    -0.01   0.00  -0.06
  68   1     0.00  -0.00   0.06    -0.05  -0.04  -0.00    -0.01   0.00  -0.06
  69   1     0.00  -0.00   0.06    -0.03  -0.06   0.00    -0.00   0.00   0.00
  70   1     0.00  -0.00   0.06     0.03  -0.06  -0.00    -0.00   0.00   0.00
  71   1     0.00  -0.00   0.06     0.05  -0.04  -0.01    -0.01  -0.00  -0.06
  72   1     0.00   0.00   0.03     0.05  -0.01  -0.00    -0.01  -0.00  -0.07
  73   1    -0.00  -0.00  -0.02     0.05   0.02   0.00    -0.01  -0.00  -0.03
  74   1    -0.01  -0.00  -0.07     0.03   0.03   0.01     0.00   0.00   0.05
  75   1    -0.01   0.00  -0.08     0.00   0.03   0.00     0.01  -0.00   0.08
  76   1    -0.01   0.00  -0.07    -0.03   0.03   0.00     0.00  -0.00   0.05
  77   1    -0.00  -0.00  -0.02    -0.05   0.01  -0.00    -0.00   0.00  -0.02
  78   1     0.00  -0.00   0.03    -0.05  -0.01  -0.00    -0.01   0.00  -0.07
                      7                      8                      9
                        a                      a                      a 
 Frequencies --    38.6320                38.9120                50.8456
 Red. masses --    10.9316                10.9296                11.3966
 Frc consts  --     0.0000                 0.0000                 0.0000
 IR Inten    --     5.5703                 0.4632                36.9658
 Raman Activ --     0.0000                 0.0000                 0.0000
 Depolar     --     0.0000                 0.0000                 0.0000
 Atom AN      X      Y      Z        X      Y      Z        X      Y      Z
   1  29     0.00  -0.00  -0.00    -0.00  -0.00  -0.00     0.02  -0.00  -0.05
   2   6     0.00   0.00  -0.25    -0.01  -0.01   0.17     0.01  -0.00   0.06
   3   6     0.00   0.00  -0.25    -0.01  -0.01   0.18     0.01   0.00  -0.10
   4   6     0.00  -0.00  -0.11    -0.00  -0.00   0.08     0.01   0.00  -0.15
   5   6    -0.00  -0.00   0.00    -0.00  -0.00   0.00     0.01   0.00  -0.22
   6   6    -0.00  -0.00   0.12     0.00  -0.00  -0.08     0.01   0.00  -0.15
   7   6    -0.01  -0.01   0.25     0.01  -0.00  -0.18     0.01  -0.00  -0.10
   8   6    -0.01  -0.00   0.24     0.01  -0.00  -0.17     0.01  -0.00   0.06
   9   6    -0.00  -0.00   0.11     0.00  -0.00  -0.08     0.01   0.00   0.10
  10   7    -0.00  -0.00   0.06     0.00  -0.00  -0.04     0.01   0.00  -0.04
  11   6     0.00  -0.00  -0.01     0.00  -0.00  -0.00     0.00   0.00   0.21
  12   6     0.01   0.00  -0.12    -0.00   0.00   0.08     0.01   0.00   0.14
  13   6     0.01   0.00  -0.24    -0.00   0.00   0.17     0.01   0.00   0.13
  14   6     0.01   0.00  -0.24    -0.00   0.00   0.17     0.01   0.00  -0.04
  15   6     0.00   0.00  -0.11    -0.00   0.00   0.08     0.01   0.00  -0.10
  16   7     0.00   0.00  -0.07    -0.00   0.00   0.05     0.01   0.00   0.01
  17   6     0.00   0.00   0.00    -0.00   0.00  -0.00     0.01   0.00  -0.18
  18   6    -0.00   0.00   0.12    -0.00   0.00  -0.08     0.01   0.00  -0.10
  19   6    -0.01   0.00   0.24     0.00   0.00  -0.17     0.01   0.00  -0.03
  20   6    -0.01   0.00   0.24     0.00   0.00  -0.17     0.01  -0.00   0.13
  21   6    -0.00  -0.00   0.11    -0.00  -0.00  -0.08     0.01  -0.00   0.14
  22   7    -0.00  -0.00   0.07    -0.00  -0.00  -0.05     0.01  -0.00   0.01
  23   6    -0.00  -0.00   0.00    -0.00  -0.00  -0.00     0.00  -0.00   0.21
  24   6     0.00  -0.00  -0.11    -0.00  -0.00   0.08     0.01  -0.00   0.10
  25   7     0.00  -0.00  -0.06    -0.00  -0.00   0.04     0.01  -0.00  -0.04
  26   1     0.00   0.00  -0.09    -0.00  -0.00   0.07     0.00  -0.00   0.04
  27   1     0.00   0.00  -0.09    -0.00  -0.00   0.07     0.00   0.00  -0.05
  28   1    -0.00  -0.00   0.10     0.00  -0.00  -0.07     0.00  -0.00  -0.05
  29   1    -0.00  -0.00   0.09     0.00  -0.00  -0.07     0.00  -0.00   0.04
  30   1     0.00  -0.00  -0.00     0.00  -0.00  -0.00    -0.00   0.00   0.09
  31   1     0.00   0.00  -0.09    -0.00   0.00   0.06     0.00   0.00   0.07
  32   1     0.00   0.00  -0.09    -0.00   0.00   0.06     0.00  -0.00  -0.03
  33   1     0.00   0.00   0.00    -0.00   0.00   0.00     0.00   0.00  -0.08
  34   1    -0.00   0.00   0.09     0.00   0.00  -0.06     0.00   0.00  -0.03
  35   1    -0.00   0.00   0.09     0.00   0.00  -0.06     0.00  -0.00   0.07
  36   1    -0.00  -0.00  -0.00    -0.00  -0.00   0.00     0.00  -0.00   0.09
  37   6    -0.00  -0.00   0.00    -0.00  -0.00   0.00     0.01   0.00  -0.25
  38   6    -0.00  -0.00   0.00    -0.00   0.00   0.00     0.01   0.00  -0.18
  39   6    -0.00   0.00   0.00    -0.00   0.00   0.00     0.01   0.00  -0.08
  40   6    -0.00   0.01   0.00    -0.00   0.01   0.00     0.01   0.00   0.07
  41   6    -0.00   0.01   0.00    -0.00   0.01  -0.00     0.01   0.00   0.18
  42   6    -0.00   0.01   0.00    -0.00   0.01  -0.00     0.01   0.00   0.24
  43  29    -0.00   0.00  -0.00     0.00  -0.00  -0.00    -0.02   0.00   0.05
  44   6     0.01  -0.00   0.17     0.02  -0.00   0.25    -0.02   0.01  -0.06
  45   6     0.01   0.00   0.17     0.02   0.00   0.25    -0.01   0.00   0.10
  46   6     0.01   0.00   0.08     0.01   0.00   0.11    -0.00   0.00   0.14
  47   6    -0.00   0.00   0.00     0.00   0.00  -0.00     0.01   0.00   0.21
  48   6    -0.01   0.00  -0.08    -0.01   0.00  -0.11    -0.00  -0.00   0.14
  49   6    -0.01   0.00  -0.17    -0.02   0.00  -0.25    -0.01  -0.00   0.10
  50   6    -0.02  -0.00  -0.17    -0.02  -0.00  -0.25    -0.02  -0.01  -0.06
  51   6    -0.01   0.00  -0.08    -0.01  -0.00  -0.11    -0.02  -0.01  -0.10
  52   7    -0.00   0.00  -0.04    -0.01   0.00  -0.06    -0.01  -0.01   0.03
  53   6    -0.00   0.00   0.00    -0.00  -0.00   0.00    -0.03  -0.01  -0.21
  54   6     0.01   0.00   0.08     0.01   0.00   0.11    -0.02  -0.01  -0.13
  55   6     0.01  -0.00   0.17     0.02  -0.00   0.24    -0.02  -0.00  -0.13
  56   6     0.01  -0.00   0.17     0.02  -0.00   0.24    -0.01  -0.00   0.04
  57   6     0.01  -0.00   0.08     0.01  -0.00   0.11    -0.00  -0.00   0.10
  58   7     0.00  -0.00   0.05     0.01  -0.00   0.07    -0.01  -0.00  -0.00
  59   6    -0.00  -0.00   0.00     0.00  -0.00  -0.00     0.01  -0.00   0.19
  60   6    -0.01  -0.00  -0.08    -0.01  -0.00  -0.11    -0.00  -0.00   0.10
  61   6    -0.01  -0.00  -0.17    -0.02   0.00  -0.24    -0.00  -0.00   0.04
  62   6    -0.01   0.00  -0.17    -0.02   0.00  -0.24    -0.02   0.00  -0.13
  63   6    -0.01   0.00  -0.08    -0.01   0.00  -0.11    -0.02   0.01  -0.14
  64   7    -0.00  -0.00  -0.05    -0.00  -0.00  -0.07    -0.01   0.00  -0.00
  65   6     0.00   0.00  -0.00     0.00   0.00  -0.00    -0.03   0.01  -0.21
  66   6     0.01  -0.00   0.08     0.01  -0.00   0.11    -0.02   0.01  -0.10
  67   7     0.00   0.00   0.04     0.01   0.00   0.06    -0.01   0.01   0.04
  68   1     0.01  -0.00   0.06     0.01  -0.00   0.09    -0.01   0.00  -0.04
  69   1     0.00   0.00   0.07     0.01   0.00   0.09    -0.00  -0.00   0.05
  70   1    -0.01   0.00  -0.07    -0.01   0.00  -0.10    -0.00   0.00   0.05
  71   1    -0.01  -0.00  -0.07    -0.01  -0.00  -0.09    -0.01  -0.00  -0.04
  72   1    -0.00   0.00   0.00    -0.00  -0.00   0.00    -0.01  -0.00  -0.09
  73   1     0.01  -0.00   0.06     0.01  -0.00   0.09    -0.01  -0.00  -0.06
  74   1     0.01  -0.00   0.06     0.01  -0.00   0.09     0.00   0.00   0.03
  75   1    -0.00  -0.00   0.00     0.00  -0.00  -0.00     0.00  -0.00   0.08
  76   1    -0.01  -0.00  -0.06    -0.01   0.00  -0.09     0.00  -0.00   0.03
  77   1    -0.01   0.00  -0.06    -0.01   0.00  -0.09    -0.01   0.00  -0.06
  78   1     0.00   0.00  -0.00     0.00   0.00   0.00    -0.01   0.00  -0.09
                     10                     11                     12
                        a                      a                      a 
 Frequencies --    66.4720                75.3513                83.5984
 Red. masses --    21.2464                19.5920                33.1344
 Frc consts  --     0.0000                 0.0000                 0.0000
 IR Inten    --     1.8392                 9.6430                23.8790
 Raman Activ --     0.0000                 0.0000                 0.0000
 Depolar     --     0.0000                 0.0000                 0.0000
 Atom AN      X      Y      Z        X      Y      Z        X      Y      Z
   1  29     0.30   0.00  -0.00     0.02  -0.00   0.29    -0.01  -0.00   0.46
   2   6     0.13  -0.02   0.01     0.01   0.00  -0.04     0.00   0.00  -0.15
   3   6     0.10   0.01  -0.00     0.00   0.00   0.06     0.00   0.00  -0.16
   4   6     0.07  -0.01  -0.01    -0.00  -0.00   0.12    -0.00   0.00  -0.01
   5   6     0.03   0.00  -0.01    -0.00  -0.00   0.12     0.00   0.00  -0.02
   6   6     0.07   0.02  -0.01    -0.00   0.00   0.12     0.00   0.00  -0.01
   7   6     0.10  -0.00  -0.00     0.00  -0.00   0.06     0.01   0.00  -0.16
   8   6     0.12   0.02   0.00     0.01   0.00  -0.04     0.01   0.00  -0.15
   9   6     0.11   0.05   0.01     0.01   0.00  -0.02     0.00  -0.00   0.00
  10   7     0.08   0.05  -0.00     0.00   0.00   0.10    -0.00  -0.00   0.10
  11   6     0.11   0.06   0.01     0.01   0.00  -0.15     0.00  -0.00  -0.00
  12   6     0.13   0.04   0.01     0.01   0.00  -0.11     0.00  -0.00   0.02
  13   6     0.11   0.01   0.02     0.02  -0.00  -0.21     0.01  -0.00  -0.14
  14   6     0.13  -0.01   0.01     0.01  -0.00  -0.07     0.01  -0.00  -0.16
  15   6     0.16   0.01  -0.00     0.01  -0.00   0.08     0.00  -0.00  -0.01
  16   7     0.17   0.03   0.00     0.01   0.00   0.06     0.00  -0.00   0.11
  17   6     0.17  -0.00  -0.01     0.01  -0.00   0.14     0.00  -0.00  -0.04
  18   6     0.16  -0.01  -0.00     0.01  -0.00   0.08     0.00   0.00  -0.01
  19   6     0.14   0.00   0.00     0.01   0.00  -0.07     0.01   0.00  -0.16
  20   6     0.12  -0.01   0.01     0.01  -0.00  -0.21     0.01   0.00  -0.14
  21   6     0.13  -0.04   0.01     0.01  -0.00  -0.11     0.00   0.00   0.02
  22   7     0.17  -0.03   0.00     0.01  -0.00   0.06     0.00   0.00   0.11
  23   6     0.12  -0.06   0.01     0.01  -0.00  -0.15     0.00   0.00  -0.00
  24   6     0.11  -0.05   0.01     0.01  -0.00  -0.02     0.00   0.00   0.00
  25   7     0.08  -0.04  -0.00     0.00  -0.00   0.10    -0.00   0.00   0.10
  26   1     0.04  -0.00   0.00     0.00   0.00  -0.03     0.00   0.00  -0.07
  27   1     0.03   0.01  -0.00     0.00   0.00   0.02     0.00   0.00  -0.08
  28   1     0.03  -0.01  -0.00     0.00  -0.00   0.02     0.00   0.00  -0.08
  29   1     0.04   0.01   0.00     0.00   0.00  -0.03     0.00   0.00  -0.07
  30   1     0.03   0.02   0.01     0.00   0.00  -0.08     0.00  -0.00  -0.02
  31   1     0.03   0.00   0.01     0.01  -0.00  -0.10     0.00  -0.00  -0.07
  32   1     0.04  -0.01   0.00     0.00  -0.00  -0.02     0.00  -0.00  -0.08
  33   1     0.05  -0.00  -0.00     0.00  -0.00   0.05     0.00  -0.00  -0.04
  34   1     0.04   0.01   0.00     0.00   0.00  -0.02     0.00   0.00  -0.08
  35   1     0.03  -0.00   0.01     0.00   0.00  -0.10     0.00   0.00  -0.07
  36   1     0.03  -0.02   0.01     0.00  -0.00  -0.08     0.00   0.00  -0.02
  37   6     0.02   0.00  -0.01    -0.00   0.00  -0.00     0.00   0.00  -0.06
  38   6     0.01   0.00  -0.01     0.00   0.00  -0.18     0.00  -0.00  -0.05
  39   6     0.00  -0.00  -0.01     0.01   0.00  -0.28     0.00  -0.00  -0.02
  40   6    -0.00  -0.00  -0.02     0.00   0.00  -0.28    -0.00  -0.00   0.03
  41   6    -0.02  -0.00  -0.03     0.00   0.00  -0.19    -0.00  -0.00   0.05
  42   6    -0.02   0.00  -0.05     0.01   0.00  -0.01    -0.00   0.00   0.06
  43  29    -0.30  -0.00   0.00    -0.00  -0.00   0.28    -0.04   0.00  -0.46
  44   6    -0.12   0.02  -0.00    -0.01   0.01  -0.03     0.01  -0.00   0.15
  45   6    -0.10  -0.01  -0.04    -0.00  -0.00   0.06     0.01   0.00   0.16
  46   6    -0.07   0.01  -0.04     0.00   0.00   0.12    -0.00   0.00   0.01
  47   6    -0.04   0.00  -0.05     0.01  -0.00   0.11    -0.00   0.00   0.01
  48   6    -0.07  -0.01  -0.04     0.00  -0.00   0.12    -0.00   0.00   0.01
  49   6    -0.10   0.01  -0.04    -0.00  -0.00   0.06     0.01   0.00   0.16
  50   6    -0.13  -0.02  -0.01    -0.01  -0.01  -0.03     0.01   0.00   0.15
  51   6    -0.11  -0.05   0.01    -0.01  -0.01  -0.02    -0.00   0.00  -0.00
  52   7    -0.08  -0.05  -0.01     0.00  -0.01   0.10    -0.01  -0.00  -0.10
  53   6    -0.11  -0.06   0.04    -0.02  -0.01  -0.14    -0.00   0.00   0.01
  54   6    -0.13  -0.04   0.04    -0.02  -0.01  -0.11    -0.00  -0.00  -0.01
  55   6    -0.11  -0.01   0.04    -0.03  -0.01  -0.20     0.01  -0.00   0.14
  56   6    -0.14   0.00   0.01    -0.02  -0.00  -0.06     0.02  -0.00   0.16
  57   6    -0.16  -0.01  -0.01    -0.01  -0.00   0.08     0.00  -0.00   0.01
  58   7    -0.17  -0.03   0.01    -0.01  -0.01   0.05    -0.01  -0.00  -0.11
  59   6    -0.17  -0.00  -0.02    -0.00  -0.00   0.14     0.00  -0.00   0.04
  60   6    -0.16   0.00  -0.01    -0.01   0.00   0.08     0.00   0.00   0.01
  61   6    -0.13  -0.01   0.01    -0.02   0.00  -0.06     0.02  -0.00   0.16
  62   6    -0.11   0.01   0.04    -0.03   0.01  -0.20     0.01  -0.00   0.14
  63   6    -0.13   0.03   0.04    -0.02   0.01  -0.11    -0.00   0.00  -0.01
  64   7    -0.17   0.03   0.01    -0.01   0.01   0.05    -0.01   0.00  -0.11
  65   6    -0.11   0.05   0.04    -0.02   0.01  -0.14    -0.00  -0.00   0.01
  66   6    -0.11   0.05   0.01    -0.01   0.01  -0.02    -0.00   0.00  -0.00
  67   7    -0.08   0.05  -0.01     0.00   0.01   0.10    -0.01   0.00  -0.10
  68   1    -0.04   0.00   0.00    -0.01   0.00  -0.03     0.00  -0.00   0.07
  69   1    -0.03  -0.01  -0.02    -0.00  -0.00   0.02     0.00   0.00   0.08
  70   1    -0.03   0.01  -0.02    -0.00   0.00   0.02     0.00   0.00   0.08
  71   1    -0.04  -0.00   0.00    -0.01  -0.00  -0.03     0.00   0.00   0.07
  72   1    -0.03  -0.02   0.02    -0.01  -0.00  -0.08     0.00   0.00   0.03
  73   1    -0.03  -0.00   0.02    -0.01  -0.00  -0.10     0.01   0.00   0.07
  74   1    -0.04   0.01  -0.00    -0.01   0.00  -0.02     0.01  -0.00   0.08
  75   1    -0.05  -0.00  -0.01    -0.00  -0.00   0.05     0.00  -0.00   0.04
  76   1    -0.04  -0.01  -0.00    -0.00  -0.00  -0.02     0.01  -0.00   0.08
  77   1    -0.03   0.00   0.02    -0.01   0.00  -0.10     0.01  -0.00   0.07
  78   1    -0.03   0.02   0.02    -0.01   0.00  -0.08     0.00  -0.00   0.03
                     13                     14                     15
                        a                      a                      a 
 Frequencies --    86.6076                90.9475               112.9839
 Red. masses --    25.0056                12.6794                11.0373
 Frc consts  --     0.0000                 0.0000                 0.0000
 IR Inten    --     5.2041                 4.1745                 1.4253
 Raman Activ --     0.0000                 0.0000                 0.0000
 Depolar     --     0.0000                 0.0000                 0.0000
 Atom AN      X      Y      Z        X      Y      Z        X      Y      Z
   1  29     0.02   0.00  -0.37     0.00  -0.09   0.01    -0.01   0.00   0.03
   2   6     0.00  -0.00   0.18    -0.05  -0.07  -0.00    -0.01  -0.00   0.19
   3   6    -0.00  -0.00   0.22    -0.03  -0.09  -0.00    -0.00  -0.00   0.11
   4   6    -0.00  -0.00   0.06    -0.01  -0.08  -0.00     0.00   0.00  -0.05
   5   6    -0.00  -0.00   0.05    -0.00  -0.08  -0.00     0.01   0.00  -0.15
   6   6    -0.00  -0.00   0.06     0.01  -0.08  -0.00     0.00   0.00  -0.05
   7   6    -0.01  -0.00   0.22     0.03  -0.09  -0.00    -0.01   0.00   0.11
   8   6    -0.00  -0.00   0.18     0.05  -0.07   0.00    -0.01  -0.00   0.19
   9   6     0.00   0.00  -0.00     0.04  -0.05   0.00    -0.00  -0.00   0.05
  10   7     0.00   0.00  -0.07     0.01  -0.06   0.00     0.00  -0.00  -0.06
  11   6     0.01   0.00  -0.07     0.05  -0.02   0.00    -0.00  -0.00  -0.04
  12   6     0.01   0.00  -0.08     0.04  -0.00   0.00    -0.00  -0.00  -0.09
  13   6     0.00   0.00   0.04     0.06   0.02  -0.00     0.00  -0.00  -0.19
  14   6     0.00   0.00   0.14     0.04   0.03  -0.00    -0.00  -0.00  -0.04
  15   6     0.01   0.00   0.06     0.02   0.02   0.00    -0.01  -0.00   0.12
  16   7     0.01   0.00  -0.09     0.03   0.00   0.00    -0.01  -0.00   0.08
  17   6     0.01   0.00   0.13     0.00   0.03   0.00    -0.01  -0.00   0.21
  18   6     0.01   0.00   0.06    -0.02   0.02   0.00    -0.01   0.00   0.12
  19   6     0.00   0.00   0.13    -0.04   0.04  -0.00    -0.00  -0.00  -0.04
  20   6     0.00  -0.00   0.03    -0.06   0.02  -0.00     0.00   0.00  -0.19
  21   6     0.01  -0.00  -0.08    -0.04  -0.00  -0.00    -0.00   0.00  -0.09
  22   7     0.01  -0.00  -0.09    -0.02  -0.00   0.00    -0.01   0.00   0.08
  23   6     0.01  -0.00  -0.07    -0.05  -0.03  -0.00    -0.00   0.01  -0.04
  24   6     0.00  -0.00  -0.00    -0.04  -0.05  -0.00    -0.00   0.00   0.05
  25   7     0.00  -0.00  -0.07    -0.01  -0.06   0.00     0.00   0.00  -0.06
  26   1     0.00  -0.00   0.08    -0.02  -0.02  -0.00    -0.00  -0.00   0.09
  27   1    -0.00  -0.00   0.10    -0.01  -0.03  -0.00    -0.00  -0.00   0.05
  28   1    -0.00  -0.00   0.10     0.01  -0.03  -0.00    -0.00   0.00   0.05
  29   1    -0.00  -0.00   0.08     0.02  -0.02   0.00    -0.00  -0.00   0.09
  30   1     0.00   0.00  -0.01     0.02  -0.01   0.00    -0.00  -0.00  -0.02
  31   1     0.00   0.00   0.02     0.02   0.01  -0.00     0.00  -0.00  -0.10
  32   1    -0.00  -0.00   0.07     0.01   0.02  -0.00    -0.00   0.00  -0.02
  33   1     0.00   0.00   0.07     0.00   0.01   0.00    -0.00  -0.00   0.08
  34   1     0.00   0.00   0.07    -0.01   0.02  -0.00    -0.00  -0.00  -0.02
  35   1     0.00   0.00   0.02    -0.02   0.01  -0.00     0.00   0.00  -0.10
  36   1     0.00  -0.00  -0.01    -0.02  -0.01  -0.00     0.00   0.00  -0.02
  37   6    -0.00   0.00   0.02    -0.00  -0.01  -0.00     0.01   0.00  -0.23
  38   6     0.00   0.00  -0.10    -0.00   0.36  -0.00     0.01  -0.00  -0.24
  39   6     0.00   0.01  -0.16    -0.00   0.51   0.00     0.01  -0.00  -0.12
  40   6     0.00   0.00  -0.16    -0.00   0.51   0.01     0.01  -0.01   0.12
  41   6    -0.00   0.00  -0.10    -0.00   0.36   0.01     0.01  -0.00   0.24
  42   6     0.00  -0.00   0.02     0.00  -0.01   0.00     0.01   0.00   0.23
  43  29    -0.04   0.00  -0.37    -0.00  -0.09  -0.00    -0.00   0.00  -0.03
  44   6     0.01  -0.00   0.18    -0.05  -0.07  -0.01    -0.01   0.01  -0.19
  45   6     0.01  -0.00   0.22    -0.03  -0.09  -0.01    -0.01   0.01  -0.11
  46   6     0.00   0.00   0.06    -0.01  -0.08  -0.00     0.00   0.00   0.05
  47   6     0.00  -0.00   0.05     0.00  -0.08   0.00     0.01   0.00   0.15
  48   6     0.00  -0.00   0.06     0.01  -0.08   0.00     0.00   0.00   0.05
  49   6     0.01   0.00   0.22     0.03  -0.09   0.00    -0.01  -0.00  -0.11
  50   6     0.01   0.00   0.18     0.05  -0.07   0.00    -0.01  -0.00  -0.19
  51   6    -0.00  -0.00  -0.00     0.04  -0.05   0.00    -0.00   0.00  -0.05
  52   7    -0.01  -0.00  -0.07     0.01  -0.06   0.00     0.00   0.00   0.06
  53   6    -0.01  -0.00  -0.07     0.05  -0.02   0.00     0.01   0.00   0.04
  54   6    -0.01  -0.00  -0.08     0.04  -0.00  -0.00     0.01   0.00   0.09
  55   6     0.00  -0.00   0.04     0.06   0.02  -0.00     0.02   0.00   0.19
  56   6     0.01   0.00   0.13     0.04   0.04  -0.01     0.01   0.00   0.04
  57   6     0.00  -0.00   0.06     0.02   0.02  -0.00    -0.01   0.00  -0.12
  58   7    -0.01  -0.00  -0.09     0.02  -0.00  -0.00    -0.01   0.00  -0.08
  59   6     0.01  -0.00   0.13    -0.00   0.03  -0.00    -0.02   0.00  -0.21
  60   6     0.00   0.00   0.06    -0.02   0.02   0.00    -0.01  -0.00  -0.12
  61   6     0.01  -0.00   0.13    -0.04   0.03   0.01     0.01  -0.00   0.04
  62   6    -0.00   0.00   0.04    -0.06   0.02   0.01     0.02  -0.01   0.19
  63   6    -0.01   0.00  -0.08    -0.04  -0.00   0.00     0.01  -0.01   0.09
  64   7    -0.01   0.00  -0.09    -0.03  -0.00   0.00    -0.01  -0.00  -0.08
  65   6    -0.01   0.00  -0.07    -0.05  -0.02   0.00     0.01  -0.00   0.04
  66   6    -0.01   0.00  -0.00    -0.04  -0.05  -0.00    -0.00   0.00  -0.05
  67   7    -0.01   0.00  -0.07    -0.01  -0.06  -0.00     0.00  -0.00   0.06
  68   1     0.00  -0.00   0.08    -0.02  -0.02  -0.00    -0.00   0.00  -0.09
  69   1     0.00  -0.00   0.10    -0.01  -0.03  -0.00    -0.00   0.00  -0.05
  70   1     0.01   0.00   0.10     0.01  -0.03   0.00    -0.00  -0.00  -0.05
  71   1     0.00   0.00   0.08     0.02  -0.02   0.00    -0.01  -0.00  -0.09
  72   1    -0.00  -0.00  -0.01     0.02  -0.01   0.00     0.00   0.00   0.02
  73   1     0.00  -0.00   0.02     0.02   0.01  -0.00     0.01   0.00   0.10
  74   1     0.01   0.00   0.07     0.01   0.02  -0.00     0.00   0.00   0.02
  75   1     0.01  -0.00   0.07    -0.00   0.01  -0.00    -0.01   0.00  -0.08
  76   1     0.01  -0.00   0.07    -0.01   0.02   0.00     0.00  -0.00   0.02
  77   1     0.00   0.00   0.02    -0.02   0.01   0.00     0.01  -0.00   0.10
  78   1    -0.00   0.00  -0.01    -0.02  -0.01   0.00     0.00  -0.00   0.02
                     16                     17                     18
                        a                      a                      a 
 Frequencies --   120.5458               120.6137               129.7299
 Red. masses --    10.8030                10.8034                11.3716
 Frc consts  --     0.0000                 0.0000                 0.0000
 IR Inten    --     0.0777                 0.0137                10.8524
 Raman Activ --     0.0000                 0.0000                 0.0000
 Depolar     --     0.0000                 0.0000                 0.0000
 Atom AN      X      Y      Z        X      Y      Z        X      Y      Z
   1  29     0.00  -0.00   0.00     0.00  -0.00   0.00     0.01   0.00   0.03
   2   6     0.00   0.00  -0.10    -0.00  -0.00   0.00    -0.00  -0.01   0.17
   3   6     0.01   0.00  -0.29    -0.00  -0.00   0.00    -0.00  -0.00   0.03
   4   6     0.00   0.00  -0.08    -0.00  -0.00   0.00    -0.00  -0.00  -0.16
   5   6    -0.00   0.00   0.00    -0.00  -0.00  -0.00    -0.00   0.00  -0.22
   6   6    -0.00  -0.00   0.08    -0.00  -0.00  -0.00    -0.00   0.00  -0.16
   7   6    -0.01  -0.00   0.29     0.00  -0.00  -0.00    -0.00  -0.00   0.03
   8   6    -0.00  -0.00   0.10     0.00  -0.00  -0.00    -0.00   0.00   0.17
   9   6     0.01   0.00  -0.19    -0.00  -0.00   0.00    -0.00   0.01   0.05
  10   7     0.01   0.00  -0.18    -0.00  -0.00   0.00    -0.00   0.01  -0.15
  11   6     0.01   0.00  -0.31     0.00   0.00   0.00    -0.00   0.01   0.04
  12   6     0.01   0.00  -0.18     0.00   0.00   0.00     0.00   0.01  -0.01
  13   6    -0.00   0.00   0.11     0.00   0.00  -0.00     0.01   0.00  -0.18
  14   6    -0.01   0.00   0.29     0.00   0.00  -0.00     0.01  -0.00  -0.09
  15   6    -0.00   0.00   0.08     0.00   0.00  -0.00     0.01   0.00   0.11
  16   7     0.01   0.00  -0.18     0.00   0.00   0.00     0.00   0.01   0.15
  17   6     0.00   0.00  -0.00     0.00   0.00   0.00     0.01  -0.00   0.17
  18   6     0.00  -0.00  -0.08     0.00   0.00   0.00     0.01  -0.00   0.11
  19   6     0.01   0.00  -0.29    -0.00   0.00   0.00     0.01   0.00  -0.10
  20   6     0.00  -0.00  -0.11    -0.00   0.00   0.00     0.00  -0.00  -0.18
  21   6    -0.00  -0.00   0.18     0.00  -0.00  -0.00     0.00  -0.01  -0.01
  22   7    -0.00  -0.00   0.18     0.00  -0.00  -0.00     0.00  -0.01   0.15
  23   6    -0.01  -0.00   0.31     0.00  -0.00  -0.00     0.00  -0.01   0.04
  24   6    -0.00  -0.00   0.19     0.00  -0.00  -0.00    -0.00  -0.01   0.05
  25   7    -0.00  -0.00   0.18    -0.00  -0.00  -0.00    -0.00  -0.01  -0.15
  26   1     0.00   0.00  -0.05    -0.00  -0.00   0.00    -0.00  -0.00   0.10
  27   1     0.00   0.00  -0.16    -0.00  -0.00   0.00    -0.00   0.00   0.02
  28   1    -0.01  -0.00   0.16     0.00  -0.00  -0.00    -0.00  -0.00   0.02
  29   1    -0.00  -0.00   0.05     0.00  -0.00  -0.00    -0.00   0.00   0.10
  30   1     0.00   0.00  -0.10     0.00   0.00   0.00    -0.00   0.00   0.02
  31   1    -0.00   0.00   0.05     0.00   0.00  -0.00     0.00   0.00  -0.10
  32   1    -0.00   0.00   0.16     0.00   0.00  -0.00     0.00  -0.00  -0.05
  33   1     0.00   0.00  -0.00     0.00   0.00   0.00     0.00  -0.00   0.05
  34   1     0.00   0.00  -0.16    -0.00   0.00   0.00     0.00   0.00  -0.05
  35   1     0.00   0.00  -0.05    -0.00   0.00   0.00     0.00  -0.00  -0.10
  36   1    -0.00  -0.00   0.10    -0.00  -0.00  -0.00    -0.00  -0.00   0.02
  37   6    -0.00   0.00   0.00    -0.00   0.00  -0.00    -0.01   0.00  -0.14
  38   6    -0.00   0.00   0.00    -0.00   0.00  -0.00    -0.01   0.00   0.06
  39   6    -0.00   0.00   0.00    -0.00   0.00   0.00    -0.02  -0.00   0.17
  40   6    -0.00  -0.00   0.00    -0.00   0.00   0.00    -0.02  -0.00   0.17
  41   6    -0.00  -0.00  -0.00    -0.00   0.00   0.00    -0.02  -0.00   0.06
  42   6    -0.00  -0.00  -0.00    -0.00   0.00   0.00    -0.02  -0.00  -0.14
  43  29     0.00  -0.00   0.00    -0.00  -0.01  -0.00     0.01  -0.00   0.03
  44   6     0.00   0.00  -0.00    -0.00   0.00  -0.10     0.01  -0.01   0.17
  45   6    -0.00   0.00  -0.00    -0.01   0.01  -0.29     0.00  -0.00   0.03
  46   6    -0.00   0.00  -0.00    -0.00   0.00  -0.08    -0.01  -0.00  -0.16
  47   6    -0.00   0.00  -0.00    -0.00   0.00  -0.00    -0.02  -0.00  -0.22
  48   6     0.00   0.00   0.00     0.00   0.00   0.08    -0.01   0.00  -0.16
  49   6     0.00   0.00   0.00     0.02   0.01   0.29     0.00   0.00   0.03
  50   6     0.00   0.00   0.00     0.00   0.00   0.10     0.01   0.01   0.17
  51   6    -0.00   0.00  -0.00    -0.02  -0.00  -0.19     0.00   0.01   0.05
  52   7    -0.00   0.00  -0.00    -0.01  -0.00  -0.18    -0.01   0.01  -0.15
  53   6    -0.00   0.00  -0.00    -0.03  -0.01  -0.31     0.00   0.01   0.04
  54   6    -0.00   0.00  -0.00    -0.01  -0.00  -0.18    -0.00   0.01  -0.01
  55   6     0.00   0.00   0.00     0.02   0.00   0.11    -0.02  -0.00  -0.18
  56   6     0.00  -0.00   0.00     0.04   0.00   0.29    -0.01  -0.00  -0.09
  57   6     0.00  -0.00   0.00     0.01   0.00   0.08     0.02   0.00   0.11
  58   7    -0.00   0.00  -0.00    -0.01  -0.00  -0.18     0.02   0.01   0.15
  59   6     0.00  -0.00   0.00    -0.00   0.00   0.00     0.03  -0.00   0.17
  60   6     0.00  -0.00  -0.00    -0.01   0.00  -0.08     0.02  -0.00   0.11
  61   6    -0.00   0.00  -0.00    -0.03   0.01  -0.29    -0.01   0.01  -0.09
  62   6    -0.00  -0.00  -0.00    -0.02   0.00  -0.11    -0.02   0.00  -0.18
  63   6     0.00  -0.00   0.00     0.01  -0.00   0.18    -0.00  -0.01  -0.01
  64   7     0.00  -0.00   0.00     0.01  -0.00   0.18     0.02  -0.01   0.15
  65   6     0.00  -0.00   0.00     0.02  -0.01   0.31     0.00  -0.01   0.04
  66   6     0.00  -0.00   0.00     0.01  -0.00   0.19     0.00  -0.01   0.05
  67   7     0.00  -0.00   0.00     0.01  -0.00   0.18    -0.01  -0.01  -0.15
  68   1     0.00   0.00  -0.00    -0.00   0.00  -0.05     0.01  -0.00   0.10
  69   1    -0.00   0.00  -0.00    -0.01   0.00  -0.16     0.00  -0.00   0.02
  70   1     0.00   0.00   0.00     0.01   0.00   0.16     0.00   0.00   0.02
  71   1     0.00   0.00   0.00     0.00   0.00   0.05     0.01   0.00   0.10
  72   1    -0.00   0.00  -0.00    -0.01  -0.00  -0.10     0.00   0.00   0.02
  73   1     0.00   0.00   0.00     0.01   0.00   0.05    -0.01  -0.00  -0.10
  74   1     0.00  -0.00   0.00     0.02   0.00   0.16    -0.00  -0.00  -0.05
  75   1     0.00   0.00   0.00    -0.00   0.00  -0.00     0.01  -0.00   0.05
  76   1    -0.00   0.00  -0.00    -0.02   0.00  -0.16    -0.00   0.00  -0.05
  77   1    -0.00  -0.00  -0.00    -0.01   0.00  -0.05    -0.01   0.00  -0.10
  78   1     0.00  -0.00   0.00     0.01  -0.00   0.10     0.00  -0.00   0.02
                     19                     20                     21
                        a                      a                      a 
 Frequencies --   137.7499               160.2948               164.4784
 Red. masses --    12.5853                12.3478                12.0926
 Frc consts  --     0.0000                 0.0000                 0.0000
 IR Inten    --  1799.2413                91.0356                11.3257
 Raman Activ --     0.0000                 0.0000                 0.0000
 Depolar     --     0.0000                 0.0000                 0.0000
 Atom AN      X      Y      Z        X      Y      Z        X      Y      Z
   1  29     0.06   0.00   0.01    -0.00  -0.00   0.05     0.00   0.00  -0.01
   2   6     0.04  -0.06  -0.01     0.00   0.00  -0.05    -0.11   0.12  -0.00
   3   6    -0.02   0.01  -0.00     0.00  -0.00   0.01    -0.11   0.11  -0.00
   4   6    -0.11  -0.03   0.01     0.00  -0.00   0.14    -0.10   0.11   0.00
   5   6    -0.17   0.00   0.01     0.00  -0.00   0.08    -0.00   0.06   0.00
   6   6    -0.11   0.03   0.01     0.00  -0.00   0.14     0.10   0.11   0.00
   7   6    -0.03  -0.01  -0.00     0.00   0.00   0.01     0.11   0.11   0.00
   8   6     0.04   0.06  -0.01     0.00   0.00  -0.05     0.11   0.11   0.00
   9   6    -0.01   0.14  -0.00     0.00  -0.00   0.03     0.11   0.10   0.00
  10   7    -0.10   0.13   0.01    -0.00  -0.00   0.21     0.11   0.12   0.01
  11   6     0.01   0.17  -0.00     0.00  -0.01  -0.08     0.06   0.00   0.00
  12   6     0.04   0.13  -0.00     0.00  -0.00  -0.10     0.11  -0.10   0.00
  13   6    -0.01   0.05   0.01    -0.00   0.00   0.06     0.10  -0.11   0.00
  14   6     0.06  -0.01   0.01    -0.01   0.00   0.11     0.11  -0.11   0.00
  15   6     0.13   0.03  -0.00    -0.01   0.00  -0.06     0.10  -0.11   0.00
  16   7     0.13   0.12  -0.01    -0.00  -0.00  -0.19     0.11  -0.12   0.00
  17   6     0.18  -0.00  -0.00    -0.01   0.00  -0.04     0.00  -0.06   0.00
  18   6     0.13  -0.03  -0.00    -0.00   0.00  -0.06    -0.10  -0.11  -0.00
  19   6     0.06   0.01   0.01    -0.00  -0.00   0.11    -0.11  -0.11  -0.00
  20   6    -0.01  -0.05   0.01    -0.00   0.00   0.06    -0.10  -0.11  -0.00
  21   6     0.04  -0.13  -0.00     0.00   0.00  -0.10    -0.10  -0.10  -0.00
  22   7     0.13  -0.12  -0.01    -0.00   0.00  -0.19    -0.11  -0.11  -0.00
  23   6     0.01  -0.17  -0.01     0.00   0.01  -0.08    -0.06   0.00  -0.00
  24   6    -0.01  -0.14  -0.00     0.00   0.00   0.03    -0.11   0.11  -0.00
  25   7    -0.10  -0.13   0.01     0.00  -0.00   0.21    -0.12   0.12   0.00
  26   1     0.03  -0.01  -0.01     0.00   0.00  -0.05    -0.03   0.03  -0.00
  27   1    -0.01   0.02  -0.00     0.00  -0.00  -0.01    -0.03   0.03  -0.00
  28   1    -0.01  -0.02  -0.00     0.00   0.00  -0.01     0.03   0.03   0.00
  29   1     0.03   0.01  -0.01     0.00   0.00  -0.05     0.03   0.03   0.00
  30   1     0.00   0.05  -0.00     0.00  -0.00  -0.04    -0.01   0.00  -0.00
  31   1    -0.02   0.01   0.00    -0.00   0.00   0.05     0.03  -0.03   0.00
  32   1     0.01  -0.02   0.00    -0.00   0.00   0.07     0.03  -0.03   0.00
  33   1     0.05  -0.00  -0.00    -0.00   0.00   0.02     0.00   0.01   0.00
  34   1     0.01   0.02   0.00    -0.00  -0.00   0.07    -0.03  -0.03  -0.00
  35   1    -0.02  -0.01   0.01    -0.00   0.00   0.05    -0.03  -0.03  -0.00
  36   1     0.00  -0.05  -0.00     0.00   0.00  -0.04     0.01   0.00  -0.00
  37   6    -0.17  -0.00  -0.00     0.01   0.00  -0.17    -0.00  -0.04  -0.00
  38   6    -0.17  -0.00  -0.02     0.02   0.00  -0.34    -0.00  -0.06  -0.00
  39   6    -0.18  -0.00  -0.02     0.01   0.00  -0.21    -0.00  -0.05  -0.00
  40   6    -0.18  -0.00  -0.01     0.01  -0.00   0.21    -0.00   0.05   0.00
  41   6    -0.17  -0.00   0.01     0.01  -0.00   0.34    -0.00   0.06   0.00
  42   6    -0.17  -0.00   0.03     0.01  -0.00   0.17    -0.00   0.04   0.00
  43  29     0.06   0.00   0.00    -0.00  -0.00  -0.04    -0.00  -0.01  -0.01
  44   6     0.04  -0.06  -0.01     0.00  -0.00   0.05     0.10  -0.11  -0.01
  45   6    -0.03   0.01   0.00    -0.00  -0.00  -0.01     0.11  -0.11  -0.01
  46   6    -0.11  -0.03   0.02    -0.01   0.00  -0.14     0.10  -0.11  -0.01
  47   6    -0.17  -0.00   0.03    -0.00   0.00  -0.08     0.00  -0.06  -0.00
  48   6    -0.11   0.03   0.02    -0.01   0.00  -0.14    -0.10  -0.11   0.01
  49   6    -0.02  -0.01   0.00     0.00   0.01  -0.01    -0.10  -0.11   0.01
  50   6     0.04   0.06  -0.01     0.00   0.01   0.05    -0.10  -0.11   0.01
  51   6    -0.01   0.14  -0.00    -0.00   0.00  -0.03    -0.10  -0.10   0.01
  52   7    -0.10   0.13   0.02    -0.01   0.00  -0.21    -0.11  -0.12   0.01
  53   6     0.01   0.17  -0.00     0.01   0.00   0.08    -0.06  -0.00   0.00
  54   6     0.04   0.13  -0.00     0.01   0.00   0.09    -0.10   0.10   0.01
  55   6    -0.00   0.05   0.01    -0.01  -0.00  -0.06    -0.10   0.11   0.01
  56   6     0.06  -0.01  -0.00    -0.02  -0.00  -0.11    -0.10   0.10   0.01
  57   6     0.13   0.03  -0.02     0.00  -0.00   0.06    -0.10   0.10   0.01
  58   7     0.12   0.12  -0.01     0.02   0.00   0.19    -0.11   0.11   0.01
  59   6     0.18   0.00  -0.03     0.00  -0.00   0.04    -0.00   0.06   0.00
  60   6     0.13  -0.02  -0.02     0.00  -0.00   0.06     0.09   0.11  -0.01
  61   6     0.05   0.01  -0.00    -0.02   0.00  -0.11     0.10   0.11  -0.01
  62   6    -0.00  -0.05   0.01    -0.01   0.00  -0.06     0.10   0.11  -0.01
  63   6     0.04  -0.13  -0.00     0.00  -0.00   0.09     0.10   0.10  -0.01
  64   7     0.13  -0.12  -0.02     0.01  -0.00   0.19     0.11   0.11  -0.01
  65   6     0.01  -0.17  -0.01     0.00  -0.00   0.08     0.06  -0.00  -0.00
  66   6    -0.00  -0.14  -0.00    -0.00  -0.00  -0.03     0.10  -0.10  -0.01
  67   7    -0.09  -0.13   0.02    -0.01   0.00  -0.21     0.11  -0.12  -0.01
  68   1     0.03  -0.01  -0.01     0.00  -0.00   0.05     0.03  -0.03  -0.00
  69   1    -0.01   0.02   0.00     0.00  -0.00   0.01     0.03  -0.03  -0.00
  70   1    -0.00  -0.02   0.00     0.00   0.00   0.01    -0.03  -0.03   0.00
  71   1     0.03   0.01  -0.01     0.00   0.00   0.05    -0.03  -0.03   0.00
  72   1     0.00   0.05  -0.00     0.00   0.00   0.04     0.01  -0.00  -0.00
  73   1    -0.02   0.01   0.01    -0.01  -0.00  -0.05    -0.03   0.03   0.00
  74   1     0.01  -0.02  -0.00    -0.01  -0.00  -0.07    -0.03   0.03   0.00
  75   1     0.05   0.00  -0.01    -0.00   0.00  -0.02     0.00  -0.01  -0.00
  76   1     0.01   0.02  -0.00    -0.01   0.00  -0.07     0.03   0.03  -0.00
  77   1    -0.02  -0.01   0.01    -0.01   0.00  -0.05     0.03   0.03  -0.00
  78   1     0.00  -0.05  -0.00     0.00  -0.00   0.04    -0.01  -0.00   0.00
                     22                     23                     24
                        a                      a                      a 
 Frequencies --   164.9142               183.1131               184.2788
 Red. masses --    12.1147                15.2731                11.8721
 Frc consts  --     0.0000                 0.0000                 0.0000
 IR Inten    --     7.9553                 0.0128                 1.4607
 Raman Activ --     0.0000                 0.0000                 0.0000
 Depolar     --     0.0000                 0.0000                 0.0000
 Atom AN      X      Y      Z        X      Y      Z        X      Y      Z
   1  29    -0.00  -0.02  -0.01    -0.00   0.18   0.00     0.01   0.01  -0.00
   2   6    -0.11   0.11  -0.00     0.03   0.01   0.00     0.00   0.00  -0.12
   3   6    -0.11   0.10  -0.00     0.02   0.02   0.00    -0.00  -0.00   0.10
   4   6    -0.09   0.11  -0.00    -0.01   0.01   0.00    -0.01  -0.00   0.20
   5   6     0.00   0.06   0.00    -0.00   0.01   0.00    -0.00  -0.00   0.00
   6   6     0.10   0.11   0.00     0.00   0.01  -0.00     0.01   0.00  -0.20
   7   6     0.11   0.10   0.00    -0.02   0.02   0.00     0.00   0.00  -0.10
   8   6     0.11   0.11   0.00    -0.03   0.01  -0.00    -0.01  -0.00   0.12
   9   6     0.11   0.10   0.00    -0.03   0.01  -0.00    -0.00  -0.00   0.01
  10   7     0.11   0.11   0.00    -0.01   0.01  -0.00     0.01   0.00  -0.24
  11   6     0.06   0.00   0.00    -0.04   0.00  -0.00    -0.01   0.00   0.17
  12   6     0.11  -0.10   0.00    -0.05   0.02   0.00    -0.00   0.00  -0.04
  13   6     0.11  -0.11   0.00    -0.06  -0.00  -0.00    -0.01   0.00   0.16
  14   6     0.11  -0.10   0.00    -0.05  -0.02  -0.00    -0.00  -0.00  -0.07
  15   6     0.10  -0.10   0.00    -0.03  -0.01  -0.00     0.01  -0.00  -0.25
  16   7     0.12  -0.11   0.00    -0.04   0.02   0.00     0.01   0.00  -0.38
  17   6    -0.00  -0.06   0.00     0.00  -0.02  -0.00     0.00  -0.00  -0.00
  18   6    -0.10  -0.10  -0.00     0.04  -0.01   0.00    -0.00  -0.00   0.26
  19   6    -0.11  -0.10  -0.00     0.05  -0.01  -0.00    -0.00   0.00   0.07
  20   6    -0.11  -0.11  -0.00     0.06  -0.00   0.00     0.00   0.00  -0.16
  21   6    -0.11  -0.10  -0.00     0.05   0.01   0.00    -0.00  -0.00   0.04
  22   7    -0.12  -0.11  -0.00     0.04   0.01   0.01    -0.01  -0.00   0.38
  23   6    -0.06   0.00  -0.00     0.04  -0.00   0.00     0.00   0.00  -0.17
  24   6    -0.11   0.10  -0.00     0.03   0.00  -0.00    -0.00  -0.00  -0.02
  25   7    -0.11   0.12  -0.00     0.00   0.00  -0.00    -0.01  -0.00   0.23
  26   1    -0.03   0.03  -0.00     0.01   0.00   0.00     0.00   0.00  -0.09
  27   1    -0.03   0.03  -0.00     0.00   0.01   0.00    -0.00  -0.00   0.03
  28   1     0.03   0.03   0.00    -0.01   0.01   0.00     0.00   0.00  -0.03
  29   1     0.03   0.03   0.00    -0.01   0.00  -0.00    -0.00  -0.00   0.09
  30   1    -0.01   0.00   0.00    -0.01   0.00  -0.00    -0.01  -0.00   0.14
  31   1     0.03  -0.03   0.00    -0.02  -0.00  -0.00    -0.00   0.00   0.12
  32   1     0.03  -0.03   0.00    -0.01  -0.01  -0.00    -0.00  -0.00   0.00
  33   1    -0.00   0.01   0.00     0.00  -0.02  -0.00     0.00  -0.00  -0.00
  34   1    -0.03  -0.03  -0.00     0.01  -0.01  -0.00    -0.00   0.00  -0.00
  35   1    -0.03  -0.03  -0.00     0.02  -0.00   0.00     0.00   0.00  -0.12
  36   1     0.01   0.00   0.00     0.01  -0.00   0.00     0.00   0.00  -0.14
  37   6     0.00  -0.03  -0.00    -0.00  -0.10   0.00     0.00  -0.00   0.00
  38   6     0.00   0.02   0.00     0.00  -0.53  -0.00     0.00  -0.00  -0.00
  39   6     0.00   0.02   0.00     0.00  -0.38  -0.01     0.00  -0.00  -0.00
  40   6     0.00   0.02  -0.00    -0.00   0.38  -0.00     0.00   0.00   0.00
  41   6     0.00   0.02  -0.00    -0.00   0.53   0.00     0.00   0.00   0.00
  42   6     0.00  -0.03  -0.00     0.00   0.10   0.01     0.00   0.00   0.00
  43  29     0.00  -0.02   0.00     0.00  -0.18  -0.00     0.00  -0.01  -0.00
  44   6    -0.11   0.11   0.01    -0.03  -0.01  -0.01     0.00  -0.00   0.05
  45   6    -0.11   0.10   0.01    -0.02  -0.02   0.01    -0.00   0.00  -0.04
  46   6    -0.10   0.11   0.01     0.01  -0.01   0.01    -0.00   0.00  -0.08
  47   6    -0.00   0.06  -0.00     0.00  -0.01   0.00     0.00   0.00  -0.00
  48   6     0.10   0.11  -0.01    -0.00  -0.01  -0.01     0.01   0.00   0.08
  49   6     0.11   0.11  -0.01     0.02  -0.02  -0.00     0.00   0.00   0.04
  50   6     0.11   0.11  -0.01     0.03  -0.01   0.01    -0.00  -0.00  -0.05
  51   6     0.11   0.10  -0.01     0.03  -0.00  -0.00    -0.00  -0.00  -0.01
  52   7     0.11   0.12  -0.01     0.01  -0.01  -0.01     0.01   0.00   0.09
  53   6     0.06   0.00  -0.00     0.04  -0.00   0.01    -0.01  -0.00  -0.07
  54   6     0.11  -0.10  -0.01     0.05  -0.02  -0.00     0.00  -0.00   0.01
  55   6     0.11  -0.11  -0.01     0.06   0.00  -0.00    -0.00  -0.00  -0.06
  56   6     0.11  -0.10  -0.01     0.05   0.02  -0.01     0.00   0.00   0.03
  57   6     0.10  -0.10  -0.01     0.03   0.01  -0.01     0.01   0.00   0.10
  58   7     0.12  -0.12  -0.01     0.04  -0.02  -0.01     0.02  -0.00   0.15
  59   6     0.00  -0.06  -0.00    -0.00   0.02  -0.00    -0.00   0.00  -0.00
  60   6    -0.10  -0.11   0.01    -0.04   0.01   0.01    -0.01   0.00  -0.10
  61   6    -0.11  -0.11   0.01    -0.05   0.01   0.01    -0.00   0.00  -0.03
  62   6    -0.11  -0.11   0.01    -0.06   0.00   0.00     0.00  -0.00   0.06
  63   6    -0.11  -0.10   0.01    -0.05  -0.01   0.01    -0.00  -0.00  -0.01
  64   7    -0.12  -0.12   0.01    -0.04  -0.01   0.02    -0.02   0.00  -0.15
  65   6    -0.06   0.00   0.00    -0.04   0.00  -0.00     0.00  -0.00   0.07
  66   6    -0.11   0.10   0.01    -0.03  -0.00  -0.00     0.00   0.00   0.01
  67   7    -0.12   0.12   0.01    -0.00  -0.00   0.00    -0.01   0.00  -0.09
  68   1    -0.03   0.03   0.00    -0.01  -0.00  -0.00     0.00  -0.00   0.03
  69   1    -0.03   0.03   0.00    -0.00  -0.01   0.00    -0.00   0.00  -0.01
  70   1     0.03   0.03  -0.00     0.01  -0.01   0.00     0.00   0.00   0.01
  71   1     0.03   0.03  -0.00     0.01  -0.00   0.00    -0.00  -0.00  -0.03
  72   1    -0.01   0.00   0.00     0.01  -0.00   0.01    -0.01  -0.00  -0.05
  73   1     0.03  -0.03  -0.00     0.02   0.00   0.00    -0.00  -0.00  -0.05
  74   1     0.03  -0.03  -0.00     0.01   0.01  -0.00     0.00   0.00  -0.00
  75   1    -0.00   0.01  -0.00    -0.00   0.02  -0.00    -0.00   0.00  -0.00
  76   1    -0.03  -0.03   0.00    -0.01   0.01   0.00    -0.00   0.00  -0.00
  77   1    -0.03  -0.03   0.00    -0.02   0.00  -0.00     0.00  -0.00   0.05
  78   1     0.01   0.00  -0.00    -0.01   0.00  -0.00     0.00  -0.00   0.05
                     25                     26                     27
                        a                      a                      a 
 Frequencies --   184.7223               193.8199               200.3525
 Red. masses --    11.8941                11.9773                25.8922
 Frc consts  --     0.0000                 0.0000                 0.0000
 IR Inten    --     1.4361                36.3747                 6.2540
 Raman Activ --     0.0000                 0.0000                 0.0000
 Depolar     --     0.0000                 0.0000                 0.0000
 Atom AN      X      Y      Z        X      Y      Z        X      Y      Z
   1  29     0.00  -0.00  -0.00    -0.00  -0.00   0.00    -0.36  -0.01  -0.03
   2   6    -0.00   0.00  -0.05    -0.00   0.00   0.05     0.00  -0.03   0.00
   3   6    -0.00  -0.00   0.04     0.00   0.00  -0.13    -0.05   0.02  -0.03
   4   6    -0.00  -0.00   0.08    -0.00   0.00  -0.00    -0.10  -0.00  -0.00
   5   6    -0.00  -0.00   0.00     0.00   0.00  -0.10    -0.08   0.00  -0.01
   6   6     0.00   0.00  -0.08    -0.00   0.00  -0.00    -0.10   0.00  -0.01
   7   6     0.00  -0.00  -0.04     0.00   0.00  -0.13    -0.05  -0.02  -0.03
   8   6    -0.00  -0.00   0.05    -0.00   0.00   0.05     0.00   0.03   0.01
   9   6    -0.00  -0.00   0.01    -0.01  -0.00   0.18    -0.03   0.09   0.03
  10   7     0.00   0.00  -0.09    -0.01  -0.00   0.22    -0.11   0.07   0.02
  11   6    -0.00   0.00   0.07    -0.00   0.00   0.03     0.00   0.17   0.02
  12   6     0.00   0.00  -0.01     0.00   0.00  -0.16     0.01   0.16  -0.01
  13   6    -0.00   0.00   0.06     0.00   0.00  -0.07    -0.04   0.07  -0.02
  14   6     0.00  -0.00  -0.03    -0.00   0.00   0.10     0.03  -0.00   0.00
  15   6     0.00  -0.00  -0.10     0.00   0.00  -0.01     0.11   0.04   0.01
  16   7     0.01  -0.00  -0.15     0.01   0.00  -0.23     0.10   0.15  -0.01
  17   6     0.00   0.00  -0.00    -0.00   0.00   0.14     0.17   0.00   0.03
  18   6    -0.00   0.00   0.10     0.00   0.00  -0.01     0.11  -0.04   0.01
  19   6    -0.00   0.00   0.03    -0.00   0.00   0.10     0.02   0.00   0.01
  20   6    -0.00   0.00  -0.06     0.00   0.00  -0.07    -0.04  -0.07  -0.02
  21   6    -0.00  -0.00   0.01     0.00   0.00  -0.16     0.00  -0.16  -0.02
  22   7    -0.00  -0.00   0.15     0.01   0.00  -0.22     0.09  -0.15  -0.02
  23   6    -0.00   0.00  -0.07    -0.00  -0.00   0.03     0.00  -0.16   0.01
  24   6    -0.00  -0.00  -0.01    -0.00  -0.00   0.18    -0.03  -0.09   0.03
  25   7    -0.00  -0.00   0.09    -0.01  -0.00   0.22    -0.11  -0.07   0.03
  26   1     0.00   0.00  -0.03     0.00   0.00   0.01     0.02  -0.01  -0.00
  27   1    -0.00  -0.00   0.01     0.00   0.00  -0.09    -0.01   0.02  -0.02
  28   1     0.00  -0.00  -0.01     0.00   0.00  -0.09    -0.01  -0.02  -0.02
  29   1    -0.00  -0.00   0.03    -0.00   0.00   0.01     0.02   0.01   0.00
  30   1    -0.00   0.00   0.05    -0.00   0.00   0.01     0.01   0.05   0.01
  31   1    -0.00   0.00   0.05     0.00   0.00  -0.01    -0.03   0.02  -0.01
  32   1     0.00  -0.00   0.00    -0.00  -0.00   0.07     0.01  -0.02   0.00
  33   1     0.00   0.00  -0.00    -0.00   0.00   0.11     0.05   0.00   0.02
  34   1    -0.00   0.00  -0.00    -0.00   0.00   0.07     0.00   0.02   0.01
  35   1     0.00   0.00  -0.05     0.00   0.00  -0.01    -0.04  -0.02  -0.01
  36   1     0.00   0.00  -0.06    -0.00  -0.00   0.01     0.01  -0.05   0.01
  37   6    -0.00   0.00   0.00     0.00   0.00  -0.19    -0.05   0.01  -0.01
  38   6    -0.00   0.01  -0.00    -0.00  -0.01   0.02    -0.04   0.00   0.02
  39   6    -0.00   0.01  -0.00    -0.00  -0.01   0.13    -0.01   0.00   0.03
  40   6    -0.00  -0.01   0.00    -0.00   0.01   0.13     0.01  -0.01   0.01
  41   6     0.00  -0.01   0.00    -0.00   0.01   0.02     0.04  -0.01  -0.00
  42   6    -0.00  -0.00   0.00    -0.01   0.00  -0.19     0.05  -0.00   0.00
  43  29    -0.01   0.02  -0.00     0.02   0.00   0.00     0.36   0.01   0.05
  44   6    -0.01   0.00  -0.12     0.00  -0.00   0.05    -0.00   0.03   0.00
  45   6     0.01  -0.00   0.10    -0.01  -0.00  -0.13     0.05  -0.02   0.04
  46   6     0.01  -0.01   0.20     0.00  -0.00  -0.00     0.10   0.00  -0.01
  47   6     0.00  -0.00  -0.00    -0.00  -0.00  -0.10     0.09   0.00  -0.01
  48   6    -0.01  -0.01  -0.20     0.00  -0.00  -0.00     0.10  -0.00  -0.01
  49   6    -0.01  -0.01  -0.10    -0.01  -0.00  -0.13     0.05   0.02   0.04
  50   6     0.01   0.00   0.12     0.00  -0.00   0.05    -0.00  -0.03   0.00
  51   6     0.00  -0.00   0.01     0.01   0.00   0.18     0.03  -0.09  -0.05
  52   7    -0.02  -0.01  -0.23     0.02   0.00   0.22     0.10  -0.07  -0.06
  53   6     0.01   0.00   0.17    -0.00  -0.00   0.03    -0.00  -0.17  -0.03
  54   6    -0.01   0.00  -0.04    -0.02  -0.01  -0.16    -0.00  -0.16   0.01
  55   6     0.01   0.00   0.16    -0.01  -0.00  -0.07     0.05  -0.07   0.03
  56   6    -0.01  -0.00  -0.07     0.01  -0.00   0.09    -0.03   0.00   0.01
  57   6    -0.03  -0.00  -0.25    -0.00  -0.00  -0.01    -0.11  -0.04  -0.01
  58   7    -0.04  -0.00  -0.38    -0.02  -0.01  -0.22    -0.09  -0.15   0.01
  59   6    -0.00  -0.00   0.00     0.01  -0.00   0.13    -0.18  -0.00  -0.04
  60   6     0.03  -0.01   0.25    -0.00   0.00  -0.01    -0.11   0.04  -0.01
  61   6     0.01  -0.00   0.07     0.01   0.00   0.10    -0.03  -0.00   0.01
  62   6    -0.01   0.00  -0.16    -0.01   0.00  -0.07     0.04   0.07   0.03
  63   6     0.01   0.00   0.04    -0.02   0.01  -0.16    -0.01   0.16   0.01
  64   7     0.04  -0.00   0.38    -0.02   0.01  -0.22    -0.10   0.15   0.01
  65   6    -0.01   0.00  -0.17    -0.00   0.00   0.03    -0.01   0.17  -0.03
  66   6     0.00   0.00  -0.01     0.01  -0.00   0.18     0.03   0.09  -0.05
  67   7     0.02  -0.00   0.23     0.02  -0.00   0.22     0.10   0.08  -0.06
  68   1    -0.01   0.00  -0.08    -0.00  -0.00   0.01    -0.02   0.01   0.01
  69   1     0.00  -0.00   0.03    -0.01   0.00  -0.09     0.01  -0.02   0.03
  70   1    -0.00  -0.00  -0.03    -0.01  -0.00  -0.09     0.01   0.02   0.03
  71   1     0.01   0.00   0.08    -0.00  -0.00   0.01    -0.02  -0.01   0.01
  72   1     0.01   0.00   0.14     0.00  -0.00   0.01    -0.01  -0.05  -0.01
  73   1     0.01   0.00   0.12    -0.00  -0.00  -0.01     0.04  -0.02   0.01
  74   1    -0.00  -0.00   0.00     0.01  -0.00   0.07    -0.01   0.02   0.00
  75   1    -0.00  -0.00   0.00     0.01  -0.00   0.11    -0.05  -0.00  -0.02
  76   1     0.00  -0.00  -0.00     0.01  -0.00   0.07    -0.00  -0.02   0.00
  77   1    -0.01   0.00  -0.12    -0.00   0.00  -0.01     0.04   0.02   0.02
  78   1    -0.01   0.00  -0.14    -0.00   0.00   0.01    -0.01   0.05  -0.01
                     28                     29                     30
                        a                      a                      a 
 Frequencies --   202.8071               208.9077               209.7448
 Red. masses --    17.6144                29.9957                12.5691
 Frc consts  --     0.0000                 0.0000                 0.0000
 IR Inten    --   107.1014                55.3364                27.3100
 Raman Activ --     0.0000                 0.0000                 0.0000
 Depolar     --     0.0000                 0.0000                 0.0000
 Atom AN      X      Y      Z        X      Y      Z        X      Y      Z
   1  29    -0.08   0.01   0.23    -0.03   0.00  -0.43     0.01   0.00  -0.01
   2   6    -0.00  -0.00  -0.01     0.00   0.00  -0.08    -0.00   0.00  -0.06
   3   6    -0.02   0.00   0.18     0.00   0.00  -0.10    -0.00   0.00  -0.06
   4   6    -0.02   0.00   0.01    -0.01   0.00   0.07    -0.00  -0.00   0.12
   5   6    -0.02  -0.00   0.02    -0.01  -0.00   0.12    -0.00  -0.00   0.00
   6   6    -0.02  -0.00   0.00    -0.01  -0.00   0.07     0.00   0.00  -0.12
   7   6    -0.01  -0.01   0.18    -0.00  -0.00  -0.10    -0.00  -0.00   0.06
   8   6     0.00   0.00  -0.01     0.00  -0.00  -0.08    -0.00  -0.00   0.06
   9   6     0.00   0.01  -0.19    -0.01   0.00   0.09     0.00   0.00  -0.11
  10   7    -0.01   0.01  -0.21    -0.01   0.00   0.13     0.01   0.00  -0.28
  11   6     0.01   0.03  -0.12    -0.00   0.01   0.13    -0.00   0.00   0.03
  12   6     0.00   0.03   0.07    -0.00   0.01   0.08    -0.00  -0.00   0.10
  13   6    -0.01   0.01   0.12     0.00   0.01  -0.10     0.00  -0.00  -0.03
  14   6     0.01  -0.00  -0.01     0.01   0.00  -0.09     0.00  -0.00  -0.08
  15   6     0.02   0.00  -0.05     0.01   0.00   0.09    -0.00  -0.00   0.06
  16   7     0.02   0.03   0.08     0.00   0.01   0.15    -0.01  -0.00   0.21
  17   6     0.04  -0.00  -0.20     0.01   0.00   0.14    -0.00  -0.00   0.00
  18   6     0.02  -0.01  -0.05     0.01  -0.00   0.09     0.00   0.00  -0.06
  19   6     0.01  -0.00  -0.00     0.01   0.00  -0.09    -0.00   0.00   0.07
  20   6    -0.01  -0.01   0.12     0.00  -0.00  -0.10    -0.00   0.00   0.03
  21   6     0.00  -0.03   0.07     0.00  -0.01   0.08     0.00   0.00  -0.10
  22   7     0.02  -0.03   0.07     0.01  -0.01   0.14     0.01   0.00  -0.20
  23   6     0.00  -0.03  -0.13    -0.00  -0.01   0.13    -0.00  -0.00  -0.02
  24   6    -0.00  -0.01  -0.19    -0.00  -0.01   0.09    -0.00  -0.00   0.11
  25   7    -0.02  -0.01  -0.20    -0.01  -0.00   0.14    -0.01  -0.00   0.28
  26   1     0.00  -0.00   0.01     0.00   0.00  -0.06     0.00   0.00  -0.06
  27   1    -0.01   0.00   0.11     0.00   0.00  -0.07     0.00   0.00  -0.06
  28   1    -0.01  -0.01   0.12     0.00  -0.00  -0.06    -0.00  -0.00   0.06
  29   1     0.00   0.00   0.01     0.00  -0.00  -0.05    -0.00  -0.00   0.06
  30   1     0.00   0.01  -0.05     0.00   0.00   0.04    -0.00   0.00   0.02
  31   1    -0.01   0.00   0.06     0.00   0.00  -0.07     0.00  -0.00  -0.04
  32   1     0.00  -0.00  -0.01     0.00  -0.00  -0.06     0.00  -0.00  -0.06
  33   1     0.01  -0.00  -0.11     0.00  -0.00   0.04    -0.00  -0.00   0.00
  34   1     0.00   0.00  -0.01     0.00   0.00  -0.06    -0.00   0.00   0.06
  35   1    -0.01  -0.00   0.06    -0.00  -0.00  -0.06    -0.00   0.00   0.04
  36   1     0.00  -0.01  -0.05     0.00  -0.00   0.04     0.00  -0.00  -0.02
  37   6    -0.01  -0.00  -0.00    -0.01   0.00   0.12    -0.00  -0.00   0.00
  38   6    -0.00   0.00  -0.15    -0.00   0.00   0.00    -0.00  -0.00  -0.00
  39   6     0.00   0.00  -0.10     0.00   0.00  -0.07    -0.00  -0.00  -0.00
  40   6     0.00  -0.00   0.11     0.00  -0.00  -0.07    -0.00   0.00  -0.00
  41   6     0.01  -0.00   0.15     0.01  -0.00   0.00    -0.00   0.00   0.00
  42   6     0.01  -0.00   0.00     0.01  -0.00   0.12     0.00  -0.00   0.00
  43  29     0.07   0.01  -0.24    -0.01   0.00  -0.42     0.00   0.00  -0.00
  44   6    -0.00   0.00   0.01    -0.01   0.01  -0.08     0.00  -0.00   0.08
  45   6    -0.00  -0.00  -0.18    -0.00   0.00  -0.10     0.00  -0.00   0.08
  46   6     0.02   0.00  -0.01     0.01   0.00   0.07    -0.01   0.00  -0.15
  47   6     0.01  -0.00  -0.02     0.01   0.00   0.12     0.00  -0.00   0.00
  48   6     0.02  -0.00  -0.01     0.01  -0.00   0.06     0.01   0.00   0.15
  49   6    -0.00   0.00  -0.18    -0.00  -0.00  -0.10    -0.00  -0.00  -0.08
  50   6    -0.00  -0.01   0.01    -0.00  -0.01  -0.08    -0.00  -0.00  -0.08
  51   6     0.02  -0.01   0.19     0.01  -0.00   0.08     0.01   0.00   0.14
  52   7     0.03  -0.01   0.20     0.01  -0.00   0.12     0.02   0.01   0.36
  53   6     0.01  -0.03   0.12     0.01  -0.01   0.13    -0.00   0.00  -0.03
  54   6    -0.01  -0.03  -0.07     0.01  -0.01   0.08    -0.01  -0.00  -0.13
  55   6    -0.01  -0.02  -0.12    -0.01  -0.01  -0.10     0.01  -0.00   0.04
  56   6    -0.01  -0.01   0.01    -0.01  -0.00  -0.09     0.01  -0.00   0.10
  57   6    -0.01  -0.01   0.05     0.00  -0.00   0.09    -0.01  -0.00  -0.08
  58   7    -0.02  -0.03  -0.08     0.01  -0.01   0.15    -0.02  -0.00  -0.26
  59   6    -0.01  -0.00   0.20     0.00  -0.00   0.13    -0.00  -0.00   0.00
  60   6    -0.01   0.01   0.05     0.00   0.00   0.08     0.01  -0.00   0.08
  61   6    -0.01   0.00   0.01    -0.01   0.00  -0.09    -0.01   0.00  -0.10
  62   6    -0.01   0.02  -0.12    -0.01   0.01  -0.09    -0.00   0.00  -0.04
  63   6    -0.01   0.03  -0.07     0.01   0.01   0.08     0.01  -0.00   0.13
  64   7    -0.02   0.03  -0.08     0.01   0.01   0.14     0.02  -0.00   0.26
  65   6     0.00   0.03   0.12     0.01   0.01   0.13     0.00  -0.00   0.03
  66   6     0.01   0.01   0.19     0.01   0.01   0.09    -0.01   0.00  -0.14
  67   7     0.03   0.01   0.20     0.01   0.00   0.14    -0.03   0.01  -0.36
  68   1    -0.01   0.00  -0.01    -0.00   0.00  -0.06     0.00  -0.00   0.08
  69   1    -0.01  -0.00  -0.11    -0.00   0.00  -0.06     0.00  -0.00   0.07
  70   1    -0.01   0.00  -0.11    -0.00  -0.00  -0.06    -0.00  -0.00  -0.07
  71   1    -0.00  -0.00  -0.01    -0.00  -0.00  -0.05    -0.00  -0.00  -0.08
  72   1     0.00  -0.01   0.05     0.00  -0.00   0.04    -0.00  -0.00  -0.03
  73   1    -0.00  -0.01  -0.06    -0.00  -0.00  -0.06     0.01  -0.00   0.05
  74   1    -0.00   0.00   0.01    -0.01  -0.00  -0.06     0.01  -0.00   0.08
  75   1     0.00  -0.00   0.11     0.00  -0.00   0.04    -0.00   0.00  -0.00
  76   1    -0.00  -0.00   0.01    -0.01   0.00  -0.06    -0.01   0.00  -0.08
  77   1     0.00   0.01  -0.05    -0.00   0.00  -0.06    -0.00   0.00  -0.05
  78   1     0.00   0.01   0.05     0.00   0.00   0.04     0.00  -0.00   0.03
                     31                     32                     33
                        a                      a                      a 
 Frequencies --   209.8247               216.1963               217.6416
 Red. masses --    12.5839                27.8417                49.4299
 Frc consts  --     0.0000                 0.0000                 0.0000
 IR Inten    --    16.9692               127.9268               186.1965
 Raman Activ --     0.0000                 0.0000                 0.0000
 Depolar     --     0.0000                 0.0000                 0.0000
 Atom AN      X      Y      Z        X      Y      Z        X      Y      Z
   1  29     0.02  -0.00   0.00    -0.20  -0.05   0.33     0.59   0.03   0.12
   2   6    -0.00   0.00  -0.08     0.02   0.01   0.11    -0.06  -0.03   0.03
   3   6     0.00   0.00  -0.08     0.02   0.02  -0.02    -0.05  -0.04  -0.01
   4   6    -0.00  -0.00   0.15     0.01   0.01  -0.12    -0.02  -0.03  -0.04
   5   6     0.00   0.00  -0.00     0.02   0.01  -0.15    -0.04  -0.00  -0.05
   6   6     0.00   0.00  -0.15     0.01   0.00  -0.12    -0.01   0.02  -0.03
   7   6    -0.00   0.00   0.07     0.01  -0.00  -0.02    -0.04   0.04  -0.01
   8   6    -0.01  -0.00   0.08     0.01  -0.00   0.11    -0.06   0.02   0.03
   9   6     0.00   0.00  -0.14     0.01   0.00   0.03    -0.05   0.02   0.01
  10   7     0.01   0.00  -0.36     0.00   0.00  -0.06    -0.01   0.02  -0.01
  11   6    -0.00  -0.00   0.03     0.02   0.02  -0.04    -0.07  -0.02  -0.02
  12   6    -0.01  -0.00   0.13     0.02   0.02  -0.13    -0.06  -0.05  -0.05
  13   6     0.00  -0.00  -0.04     0.02   0.02   0.02    -0.06  -0.04   0.00
  14   6     0.00  -0.00  -0.10     0.02   0.02   0.10    -0.06  -0.04   0.03
  15   6    -0.00  -0.00   0.08     0.02   0.02  -0.06    -0.05  -0.03  -0.02
  16   7    -0.01  -0.00   0.26     0.02   0.02  -0.21    -0.04  -0.05  -0.07
  17   6    -0.00   0.00  -0.00     0.03   0.01  -0.01    -0.07  -0.00  -0.00
  18   6     0.00   0.00  -0.08     0.01  -0.00  -0.06    -0.05   0.02  -0.02
  19   6    -0.00   0.00   0.10     0.01  -0.01   0.10    -0.06   0.03   0.03
  20   6    -0.00   0.00   0.04     0.01  -0.01   0.02    -0.06   0.03   0.01
  21   6     0.00   0.00  -0.14     0.02  -0.02  -0.14    -0.06   0.04  -0.04
  22   7     0.00   0.00  -0.26     0.02  -0.02  -0.21    -0.04   0.05  -0.07
  23   6    -0.00   0.00  -0.04     0.02  -0.01  -0.05    -0.07   0.02  -0.01
  24   6    -0.00  -0.00   0.14     0.02   0.00   0.03    -0.05  -0.02   0.01
  25   7    -0.01  -0.00   0.36     0.01   0.01  -0.06    -0.01  -0.03  -0.02
  26   1     0.00   0.00  -0.08     0.01   0.00   0.06    -0.02  -0.01   0.02
  27   1     0.00   0.00  -0.07     0.01   0.01  -0.01    -0.01  -0.02  -0.00
  28   1    -0.00  -0.00   0.07     0.00  -0.00  -0.01    -0.01   0.02  -0.00
  29   1    -0.00  -0.00   0.08     0.00  -0.00   0.06    -0.02   0.01   0.02
  30   1    -0.00  -0.00   0.03     0.01   0.00   0.01    -0.03  -0.01   0.00
  31   1     0.00  -0.00  -0.05     0.00   0.01   0.03    -0.02  -0.01   0.01
  32   1     0.00  -0.00  -0.08     0.00   0.01   0.07    -0.02  -0.01   0.02
  33   1    -0.00   0.00   0.00     0.01   0.00   0.04    -0.02  -0.00   0.01
  34   1    -0.00   0.00   0.08     0.00  -0.00   0.07    -0.02   0.01   0.02
  35   1    -0.00   0.00   0.05     0.00  -0.00   0.03    -0.01   0.01   0.01
  36   1    -0.00   0.00  -0.03     0.01  -0.00   0.00    -0.03   0.00   0.00
  37   6    -0.00   0.00  -0.00     0.02   0.01  -0.05    -0.05  -0.00  -0.01
  38   6    -0.00   0.00   0.00     0.01  -0.00   0.20    -0.05   0.01   0.06
  39   6    -0.00   0.00   0.00     0.01  -0.01   0.16    -0.05   0.00   0.05
  40   6    -0.00  -0.00   0.00     0.02   0.00  -0.16    -0.05  -0.00  -0.06
  41   6    -0.00  -0.00  -0.00     0.02   0.00  -0.20    -0.05  -0.01  -0.06
  42   6    -0.00   0.00  -0.00     0.02   0.01   0.04    -0.04   0.00   0.03
  43  29    -0.00  -0.00   0.01    -0.22  -0.03  -0.32     0.58  -0.01  -0.16
  44   6    -0.00   0.00  -0.06     0.02   0.02  -0.11    -0.06  -0.02  -0.04
  45   6    -0.00   0.00  -0.06     0.02   0.02   0.02    -0.04  -0.04   0.01
  46   6     0.01  -0.00   0.12     0.02   0.01   0.12    -0.01  -0.02   0.04
  47   6    -0.00   0.00  -0.00     0.02   0.00   0.15    -0.04   0.00   0.06
  48   6    -0.01  -0.00  -0.12     0.01  -0.00   0.12    -0.01   0.03   0.04
  49   6     0.00   0.00   0.06     0.02  -0.01   0.02    -0.04   0.04   0.01
  50   6     0.00   0.00   0.06     0.01  -0.01  -0.11    -0.06   0.03  -0.04
  51   6    -0.01  -0.00  -0.11     0.02  -0.01  -0.03    -0.05   0.01  -0.01
  52   7    -0.02  -0.01  -0.28     0.01  -0.01   0.06    -0.01   0.02   0.02
  53   6     0.00   0.00   0.02     0.03   0.01   0.04    -0.07  -0.02   0.02
  54   6     0.01   0.00   0.10     0.03   0.02   0.13    -0.05  -0.05   0.05
  55   6    -0.00   0.00  -0.03     0.02   0.01  -0.02    -0.06  -0.04   0.00
  56   6    -0.01   0.00  -0.08     0.01   0.01  -0.10    -0.06  -0.03  -0.03
  57   6     0.01   0.00   0.06     0.02   0.01   0.06    -0.05  -0.02   0.02
  58   7     0.02   0.00   0.20     0.03   0.02   0.21    -0.04  -0.05   0.07
  59   6     0.00   0.00  -0.00     0.02   0.00   0.01    -0.08   0.00   0.00
  60   6    -0.00   0.00  -0.06     0.02  -0.01   0.06    -0.05   0.03   0.03
  61   6     0.01   0.00   0.08     0.00  -0.01  -0.10    -0.06   0.03  -0.03
  62   6     0.00  -0.00   0.03     0.01  -0.01  -0.02    -0.06   0.04   0.00
  63   6    -0.01   0.00  -0.10     0.03  -0.01   0.13    -0.05   0.05   0.05
  64   7    -0.02   0.00  -0.20     0.03  -0.02   0.21    -0.04   0.05   0.08
  65   6    -0.00  -0.00  -0.03     0.03  -0.00   0.04    -0.07   0.02   0.02
  66   6     0.01  -0.00   0.11     0.02   0.01  -0.03    -0.05  -0.01  -0.01
  67   7     0.02  -0.00   0.28     0.01   0.01   0.06    -0.01  -0.02   0.02
  68   1    -0.00   0.00  -0.06     0.00   0.01  -0.06    -0.02  -0.01  -0.02
  69   1    -0.00   0.00  -0.06     0.01   0.01   0.01    -0.01  -0.02   0.01
  70   1     0.00   0.00   0.06     0.01  -0.01   0.01    -0.01   0.02   0.01
[...]
 Frc consts  --     0.0000                 0.0000                 0.0000
 IR Inten    --  3505.9937                34.2235               292.5145
 Raman Activ --     0.0000                 0.0000                 0.0000
 Depolar     --     0.0000                 0.0000                 0.0000
 Atom AN      X      Y      Z        X      Y      Z        X      Y      Z
   1  29     0.00   0.00   0.00     0.00  -0.00   0.00    -0.00  -0.00  -0.00
   2   6    -0.00   0.03   0.00    -0.00   0.00   0.00     0.00  -0.00  -0.00
   3   6     0.02  -0.00   0.00     0.00  -0.00   0.00     0.01  -0.00   0.00
   4   6     0.00   0.00   0.00     0.00  -0.00   0.00     0.00   0.00   0.00
   5   6     0.00  -0.00   0.00    -0.00  -0.00  -0.00     0.00  -0.00   0.00
   6   6     0.00  -0.00   0.00    -0.00   0.00  -0.00     0.00  -0.00  -0.00
   7   6     0.06   0.01   0.00    -0.01  -0.00  -0.00     0.01   0.00   0.00
   8   6    -0.01  -0.08  -0.00     0.00   0.00   0.00     0.00   0.00   0.00
   9   6     0.00  -0.00   0.00     0.00  -0.00  -0.00    -0.00  -0.00  -0.00
  10   7    -0.00   0.00  -0.00     0.00  -0.00   0.00    -0.00  -0.00  -0.00
  11   6     0.00  -0.00   0.00    -0.00   0.00  -0.00     0.00  -0.00   0.00
  12   6    -0.00  -0.00  -0.00     0.01   0.00   0.00    -0.00  -0.00  -0.00
  13   6     0.00  -0.00   0.00    -0.01   0.18  -0.00     0.01  -0.09   0.00
  14   6    -0.01   0.00  -0.00    -0.18   0.01  -0.01     0.09  -0.01   0.00
  15   6    -0.00  -0.00  -0.00    -0.00  -0.01  -0.00     0.00   0.00   0.00
  16   7     0.00  -0.00   0.00     0.00  -0.00   0.00    -0.00   0.00  -0.00
  17   6    -0.00   0.00  -0.00    -0.00   0.00  -0.00     0.00   0.00   0.00
  18   6     0.00   0.00   0.00     0.00  -0.00   0.00     0.00  -0.01   0.00
  19   6    -0.00  -0.00  -0.00     0.11   0.01   0.00     0.16   0.01   0.00
  20   6     0.00  -0.00  -0.00     0.01   0.11   0.00     0.01   0.15   0.00
  21   6     0.00   0.00   0.00    -0.00   0.00  -0.00    -0.01   0.00  -0.00
  22   7     0.00   0.00   0.00    -0.00  -0.00  -0.00    -0.00  -0.00  -0.00
  23   6     0.00   0.00   0.00     0.00   0.00   0.00     0.00   0.00   0.00
  24   6     0.00   0.00   0.00     0.00  -0.00   0.00    -0.00  -0.00  -0.00
  25   7    -0.00   0.00  -0.00     0.00  -0.00  -0.00    -0.00   0.00  -0.00
  26   1     0.01  -0.11  -0.00     0.00  -0.01  -0.00    -0.00   0.01   0.00
  27   1    -0.09   0.01  -0.00    -0.00   0.00  -0.00    -0.04   0.00  -0.00
  28   1    -0.21  -0.02  -0.01     0.02   0.00   0.00    -0.03  -0.00  -0.00
  29   1     0.03   0.29   0.00    -0.00  -0.00  -0.00    -0.00  -0.01  -0.00
  30   1    -0.00   0.01   0.00    -0.00  -0.01  -0.00     0.00   0.01   0.00
  31   1    -0.00   0.00  -0.00     0.06  -0.56   0.00    -0.03   0.28  -0.00
  32   1     0.02  -0.00   0.00     0.57  -0.06   0.02    -0.29   0.03  -0.01
  33   1     0.00   0.00   0.00     0.00   0.00   0.00    -0.02   0.00  -0.00
  34   1     0.01   0.00   0.00    -0.36  -0.04  -0.01    -0.50  -0.05  -0.01
  35   1     0.00   0.00   0.00    -0.04  -0.36  -0.00    -0.05  -0.49  -0.00
  36   1    -0.00  -0.00  -0.00     0.00  -0.01  -0.00     0.00  -0.01  -0.00
  37   6    -0.00   0.00  -0.00     0.00  -0.00   0.00    -0.00   0.00  -0.00
  38   6     0.00  -0.00   0.00    -0.00   0.00  -0.00     0.00   0.00   0.00
  39   6    -0.00  -0.00  -0.00     0.00   0.00   0.00    -0.00   0.00  -0.00
  40   6     0.00   0.00   0.00     0.00   0.00  -0.00    -0.00  -0.00   0.00
  41   6    -0.00   0.00  -0.00    -0.00  -0.00   0.00     0.00   0.00  -0.00
  42   6     0.00  -0.00  -0.00     0.00   0.00  -0.00    -0.00  -0.00   0.00
  43  29    -0.00  -0.00   0.00     0.00  -0.00  -0.00    -0.00  -0.00   0.00
  44   6     0.01  -0.13  -0.00     0.00  -0.00  -0.00    -0.00  -0.00  -0.00
  45   6    -0.09   0.01   0.01    -0.00   0.00   0.00     0.00  -0.00  -0.00
  46   6    -0.00  -0.00   0.00    -0.00  -0.00  -0.00     0.00   0.00   0.00
  47   6    -0.00   0.00  -0.00    -0.00   0.00   0.00     0.00   0.00  -0.00
  48   6    -0.00   0.00   0.00    -0.00   0.00   0.00     0.00  -0.00   0.00
  49   6    -0.11  -0.02   0.01    -0.00  -0.00   0.00     0.00   0.00  -0.00
  50   6     0.01   0.15  -0.00     0.00   0.00  -0.00    -0.00   0.00  -0.00
  51   6    -0.00   0.00   0.00     0.00  -0.00  -0.00    -0.00   0.00   0.00
  52   7     0.00  -0.00   0.00     0.00   0.00  -0.00    -0.00  -0.00   0.00
  53   6    -0.00   0.00  -0.00    -0.00   0.00   0.00     0.00  -0.00  -0.00
  54   6     0.00   0.00  -0.00     0.00   0.00  -0.00    -0.00  -0.00   0.00
  55   6    -0.00   0.00   0.00    -0.00   0.02  -0.00     0.00  -0.05   0.00
  56   6     0.01  -0.00  -0.00    -0.02   0.00   0.00     0.05  -0.00  -0.01
  57   6     0.00   0.00  -0.00    -0.00  -0.00   0.00     0.00   0.00  -0.00
  58   7     0.00  -0.00  -0.00     0.00  -0.00  -0.00    -0.00   0.00   0.00
  59   6     0.00  -0.00  -0.00    -0.00   0.00   0.00     0.00   0.00  -0.00
  60   6     0.00  -0.00  -0.00    -0.00   0.00   0.00     0.00  -0.00  -0.00
  61   6     0.01   0.00  -0.00    -0.01  -0.00   0.00     0.10   0.01  -0.01
  62   6    -0.00  -0.00   0.00    -0.00  -0.01  -0.00     0.00   0.10   0.00
  63   6     0.00  -0.00  -0.00     0.00  -0.00  -0.00    -0.00   0.00   0.00
  64   7     0.00   0.00  -0.00     0.00   0.00  -0.00    -0.00  -0.00   0.00
  65   6    -0.00  -0.00  -0.00    -0.00  -0.00   0.00     0.00   0.00  -0.00
  66   6    -0.00  -0.00   0.00     0.00   0.00  -0.00    -0.00  -0.00   0.00
  67   7     0.00   0.00   0.00     0.00  -0.00  -0.00    -0.00   0.00   0.00
  68   1    -0.05   0.45   0.01    -0.00   0.00   0.00    -0.00   0.00   0.00
  69   1     0.33  -0.03  -0.02     0.00  -0.00  -0.00    -0.01   0.00   0.00
  70   1     0.40   0.05  -0.03     0.00   0.00  -0.00    -0.01  -0.00   0.00
  71   1    -0.05  -0.54   0.01    -0.00  -0.00   0.00    -0.00  -0.00   0.00
  72   1     0.00  -0.02   0.00    -0.00  -0.00   0.00     0.00   0.00  -0.00
  73   1     0.00  -0.01  -0.00     0.01  -0.05  -0.00    -0.02   0.16   0.00
  74   1    -0.03   0.00   0.00     0.06  -0.01  -0.01    -0.17   0.02   0.02
  75   1    -0.00  -0.00   0.00     0.00   0.00  -0.00    -0.01   0.00   0.00
  76   1    -0.03  -0.00   0.00     0.02   0.00  -0.00    -0.31  -0.04   0.03
  77   1     0.00   0.01   0.00     0.00   0.02   0.00    -0.03  -0.30  -0.00
  78   1     0.00   0.01   0.00    -0.00   0.00   0.00     0.00  -0.01  -0.00
                    223                    224                    225
                        a                      a                      a 
 Frequencies --  3162.0236              3162.4422              3166.1366
 Red. masses --     1.9772                 1.9768                 1.9721
 Frc consts  --     0.0000                 0.0000                 0.0000
 IR Inten    --    24.0151                26.5773                43.6431
 Raman Activ --     0.0000                 0.0000                 0.0000
 Depolar     --     0.0000                 0.0000                 0.0000
 Atom AN      X      Y      Z        X      Y      Z        X      Y      Z
   1  29     0.00   0.00   0.00    -0.00  -0.00   0.00    -0.00   0.00  -0.00
   2   6    -0.00   0.00   0.00     0.00  -0.01  -0.00     0.01  -0.18  -0.00
   3   6    -0.00   0.00  -0.00     0.01  -0.00   0.00     0.22  -0.02   0.01
   4   6    -0.00  -0.00  -0.00     0.00   0.00   0.00     0.00   0.01   0.00
   5   6    -0.00   0.00  -0.00     0.00  -0.00   0.00     0.00  -0.00  -0.00
   6   6    -0.00   0.00   0.00     0.00  -0.00  -0.00    -0.00   0.00  -0.00
   7   6    -0.00  -0.00  -0.00     0.01   0.00   0.00    -0.03  -0.00  -0.00
   8   6    -0.00  -0.00  -0.00     0.00   0.00   0.00    -0.00  -0.02  -0.00
   9   6     0.00  -0.00   0.00    -0.00  -0.00  -0.00     0.00  -0.00   0.00
  10   7     0.00   0.00   0.00     0.00   0.00  -0.00     0.00   0.00   0.00
  11   6    -0.00   0.00  -0.00     0.00  -0.00   0.00    -0.00  -0.00  -0.00
  12   6     0.00   0.00   0.00    -0.00  -0.00  -0.00     0.00   0.00  -0.00
  13   6    -0.00   0.01  -0.00     0.00  -0.07   0.00    -0.00   0.01  -0.00
  14   6    -0.01   0.00  -0.00     0.07  -0.00   0.00    -0.01   0.00  -0.00
  15   6    -0.00  -0.00  -0.00     0.00   0.00   0.00    -0.00  -0.00  -0.00
  16   7     0.00  -0.00   0.00    -0.00   0.00  -0.00     0.00  -0.00   0.00
  17   6    -0.00  -0.00  -0.00     0.00   0.00   0.00    -0.00  -0.00  -0.00
  18   6    -0.00   0.00  -0.00     0.00  -0.00   0.00    -0.00   0.00  -0.00
  19   6    -0.03  -0.00  -0.00     0.08   0.01   0.00    -0.01  -0.00  -0.00
  20   6    -0.00  -0.03  -0.00     0.01   0.08   0.00    -0.00  -0.01  -0.00
  21   6     0.00  -0.00   0.00    -0.00   0.00  -0.00     0.00   0.00   0.00
  22   7     0.00   0.00   0.00    -0.00  -0.00  -0.00     0.00   0.00   0.00
  23   6    -0.00  -0.00  -0.00     0.00   0.00   0.00     0.00  -0.00  -0.00
  24   6     0.00   0.00   0.00    -0.00   0.00  -0.00    -0.01  -0.00  -0.00
  25   7     0.00  -0.00   0.00    -0.00  -0.00  -0.00    -0.00   0.00  -0.00
  26   1     0.00  -0.00  -0.00    -0.00   0.02   0.00    -0.06   0.57   0.01
  27   1     0.01  -0.00   0.00    -0.05   0.01  -0.00    -0.73   0.09  -0.02
  28   1     0.00   0.00   0.00    -0.04  -0.00  -0.00     0.09   0.01   0.00
  29   1     0.00   0.00   0.00    -0.00  -0.01  -0.00     0.01   0.07   0.00
  30   1    -0.00  -0.00  -0.00     0.00   0.01   0.00    -0.00   0.00  -0.00
  31   1     0.00  -0.02   0.00    -0.02   0.22  -0.00     0.00  -0.02   0.00
  32   1     0.02  -0.00   0.00    -0.22   0.03  -0.01     0.02  -0.00   0.00
  33   1     0.00  -0.00   0.00    -0.01   0.00  -0.00     0.00   0.00   0.00
  34   1     0.09   0.01   0.00    -0.26  -0.03  -0.01     0.03   0.00   0.00
  35   1     0.01   0.09   0.00    -0.03  -0.25  -0.00     0.00   0.03   0.00
  36   1    -0.00   0.00   0.00     0.00  -0.01  -0.00     0.00   0.01   0.00
  37   6     0.00  -0.00   0.00    -0.00  -0.00  -0.00    -0.00  -0.00  -0.00
  38   6    -0.00  -0.00  -0.00     0.00   0.00  -0.00     0.00   0.00   0.00
  39   6     0.00   0.00   0.00    -0.00   0.00   0.00    -0.00   0.00  -0.00
  40   6     0.00   0.00  -0.00     0.00   0.00  -0.00     0.00  -0.00   0.00
  41   6    -0.00   0.00   0.00    -0.00  -0.00   0.00     0.00  -0.00  -0.00
  42   6     0.00  -0.00  -0.00     0.00   0.00  -0.00    -0.00   0.00   0.00
  43  29     0.00  -0.00  -0.00     0.00   0.00  -0.00    -0.00  -0.00   0.00
  44   6    -0.00   0.00   0.00    -0.00   0.01   0.00     0.00  -0.01  -0.00
  45   6     0.00  -0.00  -0.00    -0.02   0.00   0.00     0.02  -0.00  -0.00
  46   6     0.00   0.00  -0.00    -0.00  -0.00  -0.00     0.00   0.00   0.00
  47   6    -0.00   0.00   0.00    -0.00   0.00   0.00     0.00   0.00  -0.00
  48   6    -0.00   0.00   0.00    -0.00   0.00  -0.00     0.00  -0.00   0.00
  49   6    -0.00  -0.00   0.00    -0.02  -0.00   0.00     0.04   0.00  -0.00
  50   6     0.00   0.00  -0.00    -0.00  -0.01   0.00     0.00   0.03  -0.00
  51   6    -0.00  -0.00   0.00     0.00   0.00  -0.00    -0.00   0.00   0.00
  52   7     0.00  -0.00  -0.00     0.00   0.00  -0.00    -0.00  -0.00   0.00
  53   6    -0.00   0.00   0.00    -0.00   0.00   0.00     0.00   0.00  -0.00
  54   6     0.01   0.00  -0.00     0.00   0.00  -0.00    -0.00  -0.00   0.00
  55   6    -0.01   0.15  -0.00    -0.01   0.12  -0.00     0.00  -0.00   0.00
  56   6    -0.16   0.01   0.02    -0.13   0.01   0.01     0.00  -0.00  -0.00
  57   6    -0.00  -0.01   0.00    -0.00  -0.00   0.00     0.00   0.00  -0.00
  58   7     0.00  -0.00  -0.00     0.00  -0.00  -0.00    -0.00   0.00  -0.00
  59   6    -0.00   0.00   0.00    -0.00  -0.00   0.00     0.00   0.00  -0.00
  60   6     0.00  -0.00  -0.00    -0.00   0.00   0.00     0.00  -0.00  -0.00
  61   6     0.14   0.01  -0.01    -0.13  -0.01   0.01     0.00   0.00  -0.00
  62   6     0.01   0.14   0.00    -0.01  -0.12  -0.00     0.00   0.00   0.00
  63   6    -0.00   0.00   0.00     0.00  -0.00  -0.00    -0.00   0.00   0.00
  64   7    -0.00  -0.00   0.00     0.00   0.00  -0.00    -0.00  -0.00  -0.00
  65   6     0.00   0.00   0.00    -0.00  -0.00   0.00     0.00  -0.00  -0.00
  66   6     0.00  -0.00  -0.00     0.00  -0.00  -0.00    -0.00  -0.00   0.00
  67   7    -0.00  -0.00   0.00     0.00  -0.00  -0.00    -0.00   0.00   0.00
  68   1     0.00  -0.00  -0.00     0.00  -0.02  -0.00    -0.00   0.03   0.00
  69   1    -0.01   0.00   0.00     0.05  -0.01  -0.00    -0.05   0.01   0.00
  70   1     0.01   0.00  -0.00     0.05   0.01  -0.00    -0.12  -0.02   0.01
  71   1    -0.00  -0.00   0.00     0.00   0.02  -0.00    -0.01  -0.09   0.00
  72   1    -0.00  -0.01   0.00    -0.00  -0.01   0.00     0.00  -0.00   0.00
  73   1     0.06  -0.49  -0.00     0.05  -0.40  -0.00    -0.00   0.00   0.00
  74   1     0.50  -0.05  -0.05     0.42  -0.04  -0.04    -0.00   0.00   0.00
  75   1     0.00   0.00  -0.00     0.02   0.00  -0.00    -0.00  -0.00   0.00
  76   1    -0.43  -0.05   0.04     0.41   0.05  -0.04    -0.00  -0.00   0.00
  77   1    -0.04  -0.44  -0.00     0.04   0.40   0.00    -0.00  -0.00  -0.00
  78   1     0.00  -0.01  -0.00    -0.00   0.01   0.00     0.00   0.00  -0.00
                    226                    227                    228
                        a                      a                      a 
 Frequencies --  3166.6308              3166.7816              3167.0612
 Red. masses --     1.9708                 1.9700                 1.9704
 Frc consts  --     0.0000                 0.0000                 0.0000
 IR Inten    --    49.4516               151.6334                 1.6807
 Raman Activ --     0.0000                 0.0000                 0.0000
 Depolar     --     0.0000                 0.0000                 0.0000
 Atom AN      X      Y      Z        X      Y      Z        X      Y      Z
   1  29     0.00   0.00   0.00    -0.00  -0.00  -0.00     0.00   0.00   0.00
   2   6    -0.00   0.01   0.00    -0.00   0.01   0.00    -0.00   0.04   0.00
   3   6    -0.01   0.00  -0.00    -0.01   0.00  -0.00    -0.05   0.00  -0.00
   4   6    -0.00  -0.00  -0.00    -0.00  -0.00  -0.00    -0.00  -0.00  -0.00
   5   6    -0.00  -0.00  -0.00     0.00   0.00   0.00    -0.00  -0.00  -0.00
   6   6    -0.00   0.00  -0.00     0.00  -0.01   0.00    -0.00   0.01  -0.00
   7   6    -0.07  -0.01  -0.00     0.16   0.01   0.01    -0.16  -0.01  -0.01
   8   6    -0.00  -0.05  -0.00     0.01   0.11   0.00    -0.01  -0.12  -0.00
   9   6     0.00  -0.00   0.00    -0.00   0.00  -0.00     0.00  -0.00   0.00
  10   7     0.00   0.00   0.00    -0.00  -0.00  -0.00     0.00   0.00   0.00
  11   6    -0.00  -0.00  -0.00     0.00   0.00   0.00    -0.00  -0.00  -0.00
  12   6    -0.00   0.00  -0.00     0.00  -0.00   0.00    -0.00  -0.00  -0.00
  13   6     0.00  -0.00   0.00    -0.00   0.00  -0.00     0.00  -0.01   0.00
  14   6     0.00  -0.00   0.00    -0.00   0.00  -0.00     0.01  -0.00   0.00
  15   6    -0.00   0.00   0.00     0.00  -0.00  -0.00     0.00   0.00   0.00
  16   7     0.00   0.00  -0.00    -0.00  -0.00   0.00    -0.00   0.00  -0.00
  17   6    -0.00  -0.00   0.00     0.00   0.00  -0.00     0.00  -0.00   0.00
  18   6    -0.00  -0.00   0.00     0.00   0.00  -0.00     0.00  -0.00   0.00
  19   6     0.00   0.00   0.00    -0.00  -0.00  -0.00     0.01   0.00   0.00
  20   6     0.00   0.00   0.00    -0.00  -0.00  -0.00     0.00   0.01   0.00
  21   6    -0.00  -0.00   0.00     0.00   0.00  -0.00    -0.00   0.00  -0.00
  22   7     0.00   0.00  -0.00    -0.00  -0.00   0.00    -0.00  -0.00  -0.00
  23   6    -0.00   0.00  -0.00    -0.00   0.00   0.00    -0.00   0.00   0.00
  24   6     0.00   0.00   0.00     0.00   0.00   0.00     0.00   0.00   0.00
  25   7     0.00  -0.00  -0.00     0.00  -0.00   0.00     0.00  -0.00   0.00
  26   1     0.00  -0.02  -0.00     0.00  -0.03  -0.00     0.01  -0.12  -0.00
  27   1     0.03  -0.00   0.00     0.03  -0.00   0.00     0.15  -0.02   0.00
  28   1     0.23   0.03   0.01    -0.51  -0.06  -0.02     0.53   0.06   0.02
  29   1     0.02   0.16   0.00    -0.04  -0.35  -0.00     0.04   0.38   0.00
  30   1    -0.00   0.00  -0.00     0.00  -0.01   0.00    -0.00   0.01   0.00
  31   1    -0.00   0.00  -0.00     0.00  -0.01   0.00    -0.00   0.03  -0.00
  32   1    -0.00   0.00  -0.00     0.01  -0.00   0.00    -0.03   0.00  -0.00
  33   1     0.00   0.00   0.00    -0.00  -0.00  -0.00    -0.00   0.00  -0.00
  34   1    -0.00  -0.00  -0.00     0.00   0.00   0.00    -0.03  -0.00  -0.00
  35   1    -0.00  -0.00  -0.00     0.00   0.00   0.00    -0.00  -0.03  -0.00
  36   1    -0.00  -0.00   0.00    -0.00  -0.00  -0.00    -0.00  -0.00  -0.00
  37   6     0.00  -0.00   0.00    -0.00   0.00  -0.00     0.00  -0.00   0.00
  38   6    -0.00   0.00  -0.00     0.00  -0.00   0.00    -0.00   0.00  -0.00
  39   6     0.00   0.00   0.00    -0.00  -0.00  -0.00     0.00   0.00   0.00
  40   6     0.00  -0.00  -0.00    -0.00  -0.00   0.00    -0.00  -0.00   0.00
  41   6    -0.00  -0.00  -0.00     0.00  -0.00   0.00     0.00  -0.00   0.00
  42   6     0.00   0.00  -0.00    -0.00   0.00   0.00    -0.00   0.00   0.00
  43  29     0.00  -0.00  -0.00    -0.00  -0.00   0.00    -0.00  -0.00   0.00
  44   6    -0.01   0.16   0.00     0.00  -0.02  -0.00     0.01  -0.08  -0.00
  45   6    -0.20   0.01   0.01     0.03  -0.00  -0.00     0.11  -0.01  -0.01
  46   6    -0.00  -0.01   0.00     0.00   0.00   0.00     0.00   0.00  -0.00
  47   6    -0.00   0.00   0.00     0.00   0.00  -0.00     0.00   0.00  -0.00
  48   6     0.00  -0.00  -0.00     0.00  -0.01  -0.00     0.00  -0.00  -0.00
  49   6     0.09   0.01  -0.01     0.18   0.02  -0.01     0.12   0.01  -0.01
  50   6     0.00   0.07  -0.00     0.01   0.13  -0.00     0.00   0.09  -0.00
  51   6    -0.00   0.00   0.00    -0.01   0.00   0.00    -0.00   0.00   0.00
  52   7    -0.00  -0.00   0.00    -0.00  -0.00   0.00    -0.00  -0.00   0.00
  53   6     0.00   0.00  -0.00     0.00   0.00  -0.00     0.00   0.00  -0.00
  54   6    -0.00  -0.00  -0.00     0.00  -0.00  -0.00     0.00   0.00  -0.00
  55   6     0.00  -0.00   0.00    -0.00   0.01  -0.00    -0.00   0.01  -0.00
  56   6     0.00  -0.00  -0.00    -0.01   0.00   0.00    -0.01   0.00   0.00
  57   6     0.00   0.00  -0.00    -0.00  -0.00   0.00    -0.00  -0.00   0.00
  58   7    -0.00  -0.00   0.00     0.00  -0.00  -0.00     0.00  -0.00  -0.00
  59   6     0.00   0.00  -0.00    -0.00   0.00   0.00    -0.00  -0.00   0.00
  60   6     0.00  -0.00  -0.00    -0.00   0.00   0.00    -0.00   0.00   0.00
  61   6     0.00   0.00  -0.00    -0.00  -0.00   0.00    -0.01  -0.00   0.00
  62   6     0.00   0.01   0.00    -0.00  -0.00  -0.00    -0.00  -0.01  -0.00
  63   6    -0.00  -0.00   0.00     0.00   0.00  -0.00     0.00  -0.00  -0.00
  64   7    -0.00  -0.00  -0.00     0.00   0.00  -0.00     0.00   0.00  -0.00
  65   6    -0.00   0.00   0.00     0.00  -0.00  -0.00     0.00  -0.00  -0.00
  66   6     0.01   0.00  -0.00    -0.00  -0.00   0.00    -0.00  -0.00   0.00
  67   7     0.00  -0.00  -0.00    -0.00   0.00   0.00    -0.00   0.00   0.00
  68   1     0.06  -0.49  -0.01    -0.01   0.06   0.00    -0.03   0.26   0.01
  69   1     0.66  -0.07  -0.04    -0.09   0.01   0.01    -0.36   0.04   0.02
  70   1    -0.30  -0.04   0.02    -0.57  -0.07   0.04    -0.39  -0.05   0.03
  71   1    -0.02  -0.22   0.01    -0.04  -0.42   0.01    -0.03  -0.29   0.01
  72   1     0.00  -0.00   0.00     0.00  -0.01   0.00     0.00  -0.01   0.00
  73   1    -0.00   0.00   0.00     0.00  -0.02  -0.00     0.00  -0.03  -0.00
  74   1    -0.01   0.00   0.00     0.02  -0.00  -0.00     0.03  -0.00  -0.00
  75   1    -0.00  -0.00   0.00     0.00   0.00  -0.00     0.00   0.00  -0.00
  76   1    -0.01  -0.00   0.00     0.01   0.00  -0.00     0.03   0.00  -0.00
  77   1    -0.00  -0.02  -0.00     0.00   0.01   0.00     0.00   0.03   0.00
  78   1    -0.00  -0.01  -0.00     0.00   0.00   0.00     0.00   0.01   0.00
