      -----------------------------------------------------------      
     |                   =====================                   |     
     |                           x T B                           |     
     |                   =====================                   |     
     |                         S. Grimme                         |     
     |          Mulliken Center for Theoretical Chemistry        |     
     |                    University of Bonn                     |     
      -----------------------------------------------------------      

   * xtb version 6.4.1 (bd6e46d) compiled by 'conda@4901f00b25ba' on 2021-06-10

   xtb is free software: you can redistribute it and/or modify it under
   the terms of the GNU Lesser General Public License as published by
   the Free Software Foundation, either version 3 of the License, or
   (at your option) any later version.
   
   xtb is distributed in the hope that it will be useful,
   but WITHOUT ANY WARRANTY; without even the implied warranty of
   MERCHANTABILITY or FITNESS FOR A PARTICULAR PURPOSE.  See the
   GNU Lesser General Public License for more details.
   
   Cite this work as:
   * C. Bannwarth, E. Caldeweyher, S. Ehlert, A. Hansen, P. Pracht,
     J. Seibert, S. Spicher, S. Grimme, WIREs Comput. Mol. Sci., 2020, 11,
     e01493. DOI: 10.1002/wcms.1493
   
   for GFN2-xTB:
   * C. Bannwarth, S. Ehlert and S. Grimme., J. Chem. Theory Comput., 2019,
     15, 1652-1671. DOI: 10.1021/acs.jctc.8b01176
   for GFN1-xTB:
   * S. Grimme, C. Bannwarth, P. Shushkov, J. Chem. Theory Comput., 2017,
     13, 1989-2009. DOI: 10.1021/acs.jctc.7b00118
   for GFN0-xTB:
   * P. Pracht, E. Caldeweyher, S. Ehlert, S. Grimme, ChemRxiv, 2019, preprint.
     DOI: 10.26434/chemrxiv.8326202.v1
   for GFN-FF:
   * S. Spicher and S. Grimme, Angew. Chem. Int. Ed., 2020, 59, 15665-15673.
     DOI: 10.1002/anie.202004239
   
   for DFT-D4:
   * E. Caldeweyher, C. Bannwarth and S. Grimme, J. Chem. Phys., 2017,
     147, 034112. DOI: 10.1063/1.4993215
   * E. Caldeweyher, S. Ehlert, A. Hansen, H. Neugebauer, S. Spicher,
     C. Bannwarth and S. Grimme, J. Chem. Phys., 2019, 150, 154122.
     DOI: 10.1063/1.5090222
   * E. Caldeweyher, J.-M. Mewes, S. Ehlert and S. Grimme, Phys. Chem. Chem. Phys.
     2020, 22, 8499-8512. DOI: 10.1039/D0CP00502A
   
   for sTDA-xTB:
   * S. Grimme and C. Bannwarth, J. Chem. Phys., 2016, 145, 054103.
     DOI: 10.1063/1.4959605
   
   in the mass-spec context:
   * V. Asgeirsson, C. Bauer and S. Grimme, Chem. Sci., 2017, 8, 4879.
     DOI: 10.1039/c7sc00601b
   * J. Koopman and S. Grimme, ACS Omega 2019, 4, 12, 15120-15133.
     DOI: 10.1021/acsomega.9b02011
   
   for metadynamics refer to:
   * S. Grimme, J. Chem. Theory Comput., 2019, 155, 2847-2862
     DOI: 10.1021/acs.jctc.9b00143
   
   for SPH calculations refer to:
   * S. Spicher and S. Grimme, J. Chem. Theory Comput., 2021, 17, 1701-1714
     DOI: 10.1021/acs.jctc.0c01306
   
   with help from (in alphabetical order)
   P. Atkinson, C. Bannwarth, F. Bohle, G. Brandenburg, E. Caldeweyher
   M. Checinski, S. Dohm, S. Ehlert, S. Ehrlich, I. Gerasimov, J. Koopman
   C. Lavigne, S. Lehtola, F. März, M. Müller, F. Musil, H. Neugebauer
   J. Pisarek, C. Plett, P. Pracht, J. Seibert, P. Shushkov, S. Spicher
   M. Stahn, M. Steiner, T. Strunk, J. Stückrath, T. Rose, and J. Unsleber
   
 * started run on 2021/11/19 at 10:52:25.756     

           -------------------------------------------------
          |                Calculation Setup                |
           -------------------------------------------------

          program call               : /home/jeff/miniconda3/bin/xtb input_structure_1.xyz --gfn 2 --ohess normal --parallel 1 --etemp 300 --chrg 0 --uhf 0 -I det_control.in
          hostname                   : jelfscompute1
          coordinate file            : input_structure_1.xyz
          omp threads                :                     1
          number of atoms            :                    78
          number of electrons        :                   268
          charge                     :                     0
          spin                       :                   0.0
          first test random number   :      0.47620914015770

   ID    Z sym.   atoms
    1   29 Cu     1, 43
    2    6 C      2-9, 11-15, 17-21, 23, 24, 37-42, 44-51, 53-57, 59-63, 65,
                  66
    3    7 N      10, 16, 22, 25, 52, 58, 64, 67
    4    1 H      26-36, 68-78

           -------------------------------------------------
          |                 G F N 2 - x T B                 |
           -------------------------------------------------

        Reference                      10.1021/acs.jctc.8b01176
      * Hamiltonian:
        H0-scaling (s, p, d)           1.850000    2.230000    2.230000
        zeta-weighting                 0.500000
      * Dispersion:
        s8                             2.700000
        a1                             0.520000
        a2                             5.000000
        s9                             5.000000
      * Repulsion:
        kExp                           1.500000    1.000000
        rExp                           1.000000
      * Coulomb:
        alpha                          2.000000
        third order                    shell-resolved
        anisotropic                    true
        a3                             3.000000
        a5                             4.000000
        cn-shift                       1.200000
        cn-exp                         4.000000
        max-rad                        5.000000


          ...................................................
          :                      SETUP                      :
          :.................................................:
          :  # basis functions                 258          :
          :  # atomic orbitals                 256          :
          :  # shells                          136          :
          :  # electrons                       268          :
          :  max. iterations                   250          :
          :  Hamiltonian                  GFN2-xTB          :
          :  restarted?                      false          :
          :  GBSA solvation                  false          :
          :  PC potential                    false          :
          :  electronic temp.          300.0000000     K    :
          :  accuracy                    1.0000000          :
          :  -> integral cutoff          0.2500000E+02      :
          :  -> integral neglect         0.1000000E-07      :
          :  -> SCF convergence          0.1000000E-05 Eh   :
          :  -> wf. convergence          0.1000000E-03 e    :
          :  Broyden damping             0.4000000          :
          ...................................................

 iter      E             dE          RMSdq      gap      omega  full diag
   1   -143.0750691 -0.143075E+03  0.568E+00    0.43       0.0  T
   2   -142.7681916  0.306877E+00  0.337E+00    0.30       1.0  T
   3   -111.3708975  0.313973E+02  0.116E+01    0.43       1.0  T
   4   -141.9768881 -0.306060E+02  0.289E+00    0.15       1.0  T
   5   -142.8651463 -0.888258E+00  0.181E+00    0.21       1.0  T
   6   -142.9093566 -0.442103E-01  0.129E+00    0.43       1.0  T
   7   -143.0488707 -0.139514E+00  0.943E-01    0.46       1.0  T
   8   -143.1279338 -0.790631E-01  0.684E-01    0.31       1.0  T
   9   -143.1733756 -0.454418E-01  0.381E-01    0.21       1.0  T
  10   -143.1546752  0.187004E-01  0.477E-01    0.19       1.0  T
  11   -143.1521260  0.254922E-02  0.430E-01    0.23       1.0  T
  12   -143.1776748 -0.255488E-01  0.325E-01    0.20       1.0  T
  13   -143.1835682 -0.589346E-02  0.251E-01    0.19       1.0  T
  14   -143.1845846 -0.101635E-02  0.230E-01    0.20       1.0  T
  15   -143.1849569 -0.372326E-03  0.209E-01    0.19       1.0  T
  16   -143.1877971 -0.284020E-02  0.132E-01    0.20       1.0  T
  17   -143.1882014 -0.404248E-03  0.109E-01    0.20       1.0  T
  18   -143.1888852 -0.683818E-03  0.595E-02    0.20       1.0  T
  19   -143.1891259 -0.240771E-03  0.244E-02    0.20       1.0  T
  20   -143.1891225  0.345780E-05  0.194E-02    0.20       1.0  T
  21   -143.1891463 -0.238149E-04  0.146E-02    0.20       1.0  T
  22   -143.1891651 -0.188436E-04  0.103E-02    0.20       1.1  T
  23   -143.1891684 -0.326037E-05  0.823E-03    0.20       1.4  T
  24   -143.1891757 -0.732421E-05  0.341E-03    0.20       3.3  T
  25   -143.1891765 -0.779913E-06  0.175E-03    0.20       6.5  T
  26   -143.1891765  0.230019E-07  0.127E-03    0.20       8.9  T
  27   -143.1891765 -0.439577E-07  0.120E-03    0.20       9.4  T
  28   -143.1891767 -0.137203E-06  0.764E-04    0.20      14.8  T
  29   -143.1891767 -0.346008E-07  0.350E-04    0.20      32.3  T

   *** convergence criteria satisfied after 29 iterations ***

         #    Occupation            Energy/Eh            Energy/eV
      -------------------------------------------------------------
         1        2.0000           -0.6851771             -18.6446
       ...           ...                  ...                  ...
       128        2.0000           -0.3589134              -9.7665
       129        2.0000           -0.3577052              -9.7337
       130        2.0000           -0.3573300              -9.7234
       131        2.0000           -0.3530033              -9.6057
       132        2.0000           -0.3524700              -9.5912
       133        2.0000           -0.3477564              -9.4629
       134        1.9587           -0.3328277              -9.0567 (HOMO)
       135        0.0413           -0.3254960              -8.8572 (LUMO)
       136        0.0000           -0.3155109              -8.5855
       137                         -0.3068625              -8.3502
       138                         -0.3012490              -8.1974
       139                         -0.2926095              -7.9623
       ...                                ...                  ...
       256                          2.9381147              79.9502
      -------------------------------------------------------------
                  HL-Gap            0.0073317 Eh            0.1995 eV
             Fermi-level           -0.3291619 Eh           -8.9570 eV

 SCC (total)                   0 d,  0 h,  0 min,  0.496 sec
 SCC setup                      ...        0 min,  0.001 sec (  0.244%)
 Dispersion                     ...        0 min,  0.002 sec (  0.503%)
 classical contributions        ...        0 min,  0.000 sec (  0.086%)
 integral evaluation            ...        0 min,  0.026 sec (  5.324%)
 iterations                     ...        0 min,  0.372 sec ( 74.918%)
 molecular gradient             ...        0 min,  0.093 sec ( 18.699%)
 printout                       ...        0 min,  0.001 sec (  0.223%)

         :::::::::::::::::::::::::::::::::::::::::::::::::::::
         ::                     SUMMARY                     ::
         :::::::::::::::::::::::::::::::::::::::::::::::::::::
         :: total energy            -140.156351646736 Eh    ::
         :: gradient norm              1.583412409313 Eh/a0 ::
         :: HOMO-LUMO gap              0.199505177430 eV    ::
         ::.................................................::
         :: SCC energy              -143.189176706099 Eh    ::
         :: -> isotropic ES            0.072848310727 Eh    ::
         :: -> anisotropic ES          0.020021046001 Eh    ::
         :: -> anisotropic XC          0.068674850592 Eh    ::
         :: -> dispersion             -0.118551557036 Eh    ::
         :: repulsion energy           3.032993628179 Eh    ::
         :: add. restraining           0.000000000000 Eh    ::
         :: total charge              -0.000000000000 e     ::
         :::::::::::::::::::::::::::::::::::::::::::::::::::::

      ----------------------------------------------------------- 
     |                   =====================                   |
     |                        A N C O P T                        |
     |                   =====================                   |
     |               Approximate Normal Coordinate               |
     |                Rational Function Optimizer                |
      ----------------------------------------------------------- 

          ...................................................
          :                      SETUP                      :
          :.................................................:
          :   optimization level            normal          :
          :   max. optcycles                   234          :
          :   ANC micro-cycles                  20          :
          :   degrees of freedom               228          :
          :.................................................:
          :   RF solver                   davidson          :
          :   write xtbopt.log                true          :
          :   linear?                        false          :
          :   energy convergence         0.5000000E-05 Eh   :
          :   grad. convergence          0.1000000E-02 Eh/α :
          :   maximium RF displ.         1.0000000          :
          :   Hlow (freq-cutoff)         0.1000000E-01      :
          :   Hmax (freq-cutoff)         5.0000000          :
          :   S6 in model hess.         20.0000000          :
          ...................................................

generating ANC from model Hessian ...
Using Lindh-Hessian (1995)
 Shifting diagonal of input Hessian by    1.0028689730541536E-002
 Lowest  eigenvalues of input Hessian
    0.010000    0.010003    0.010007    0.000000    0.000000    0.000000
    0.000000    0.000000    0.000000    0.010079    0.010228    0.010781
    0.011079    0.011231    0.011470    0.011769    0.011898    0.012193
 Highest eigenvalues
    2.226775    2.628022    2.844493    2.912028    3.722891    3.821033


........................................................................
.............................. CYCLE    1 ..............................
........................................................................
   1   -143.1891767 -0.143189E+03  0.102E-04    0.20       0.0  T
   2   -143.1891765  0.199659E-06  0.834E-04    0.20      13.6  T
   3   -143.1891767 -0.196760E-06  0.136E-04    0.20      83.3  T
     SCC iter.                  ...        0 min,  0.037 sec
     gradient                   ...        0 min,  0.080 sec
 * total energy  :  -140.1563517 Eh     change       -0.5443667E-08 Eh
   gradient norm :     1.5834124 Eh/α   predicted     0.0000000E+00 (-100.00%)
   displ. norm   :     0.5325745 α      lambda       -0.7588758E+00
   maximum displ.:     0.2293728 α      in ANC's #182, #228, #227, ...

........................................................................
.............................. CYCLE    2 ..............................
........................................................................
   1   -143.2104414 -0.143210E+03  0.574E-01    0.12       0.0  T
   2   -143.0893907  0.121051E+00  0.833E-01    0.39       1.0  T
   3   -142.9423633  0.147027E+00  0.101E+00    0.44       1.0  T
   4   -143.2206562 -0.278293E+00  0.309E-01    0.18       1.0  T
   5   -143.1892548  0.314014E-01  0.404E-01    0.18       1.0  T
   6   -143.1958270 -0.657218E-02  0.352E-01    0.17       1.0  T
   7   -143.2307116 -0.348846E-01  0.809E-02    0.15       1.0  T
   8   -143.2317660 -0.105440E-02  0.450E-02    0.15       1.0  T
   9   -143.2311427  0.623287E-03  0.547E-02    0.15       1.0  T
  10   -143.2309709  0.171817E-03  0.623E-02    0.15       1.0  T
  11   -143.2316871 -0.716171E-03  0.348E-02    0.15       1.0  T
  12   -143.2318448 -0.157746E-03  0.272E-02    0.15       1.0  T
  13   -143.2320222 -0.177397E-03  0.124E-02    0.15       1.0  T
  14   -143.2320579 -0.356820E-04  0.542E-03    0.15       2.1  T
  15   -143.2320503  0.759048E-05  0.661E-03    0.15       1.7  T
  16   -143.2320593 -0.900185E-05  0.238E-03    0.15       4.8  T
  17   -143.2320594 -0.450128E-07  0.204E-03    0.15       5.6  T
  18   -143.2320590  0.357328E-06  0.207E-03    0.15       5.5  T
  19   -143.2320598 -0.813792E-06  0.732E-04    0.15      15.5  T
  20   -143.2320595  0.338310E-06  0.120E-03    0.15       9.4  T
  21   -143.2320598 -0.363298E-06  0.445E-04    0.15      25.5  T
     SCC iter.                  ...        0 min,  0.246 sec
     gradient                   ...        0 min,  0.080 sec
 * total energy  :  -140.5840201 Eh     change       -0.4276684E+00 Eh
   gradient norm :     0.4053692 Eh/α   predicted    -0.4870807E+00 (  13.89%)
   displ. norm   :     0.5222003 α      lambda       -0.1482446E+00
   maximum displ.:     0.2023822 α      in ANC's #79, #182, #70, ...

........................................................................
.............................. CYCLE    3 ..............................
........................................................................
   1   -143.2267146 -0.143227E+03  0.485E-01    0.15       0.0  T
   2   -142.9587125  0.268002E+00  0.961E-01    0.46       1.0  T
   3   -143.1045159 -0.145803E+00  0.684E-01    0.44       1.0  T
   4   -143.1958842 -0.913683E-01  0.423E-01    0.18       1.0  T
   5   -143.2156249 -0.197408E-01  0.346E-01    0.17       1.0  T
   6   -143.2273381 -0.117132E-01  0.224E-01    0.17       1.0  T
   7   -143.2351456 -0.780750E-02  0.183E-01    0.15       1.0  T
   8   -143.2387066 -0.356100E-02  0.134E-01    0.15       1.0  T
   9   -143.2416596 -0.295293E-02  0.965E-02    0.15       1.0  T
  10   -143.2429587 -0.129919E-02  0.685E-02    0.15       1.0  T
  11   -143.2442362 -0.127744E-02  0.199E-02    0.15       1.0  T
  12   -143.2442333  0.285357E-05  0.172E-02    0.15       1.0  T
  13   -143.2442127  0.206229E-04  0.189E-02    0.15       1.0  T
  14   -143.2442334 -0.206631E-04  0.160E-02    0.15       1.0  T
  15   -143.2442921 -0.587505E-04  0.649E-03    0.15       1.7  T
  16   -143.2443003 -0.813059E-05  0.288E-03    0.15       3.9  T
  17   -143.2442924  0.786627E-05  0.545E-03    0.15       2.1  T
  18   -143.2442996 -0.720235E-05  0.235E-03    0.15       4.8  T
  19   -143.2443010 -0.136312E-05  0.886E-04    0.15      12.8  T
  20   -143.2443011 -0.172746E-06  0.386E-04    0.15      29.3  T
  21   -143.2443011  0.111743E-08  0.331E-04    0.15      34.2  T
     SCC iter.                  ...        0 min,  0.252 sec
     gradient                   ...        0 min,  0.080 sec
 * total energy  :  -140.6942235 Eh     change       -0.1102034E+00 Eh
   gradient norm :     0.1935100 Eh/α   predicted    -0.9433586E-01 ( -14.40%)
   displ. norm   :     0.6168824 α      lambda       -0.7761358E-01
   maximum displ.:     0.2465749 α      in ANC's #79, #55, #39, ...

........................................................................
.............................. CYCLE    4 ..............................
........................................................................
   1   -143.2354353 -0.143235E+03  0.587E-01    0.16       0.0  T
   2   -142.7683760  0.467059E+00  0.126E+00    0.26       1.0  T
   3   -143.1813028 -0.412927E+00  0.598E-01    0.25       1.0  T
   4   -143.0680609  0.113242E+00  0.831E-01    0.30       1.0  T
   5   -143.2397112 -0.171650E+00  0.346E-01    0.13       1.0  T
   6   -143.1423536  0.973576E-01  0.690E-01    0.28       1.0  T
   7   -143.2015474 -0.591938E-01  0.482E-01    0.21       1.0  T
   8   -143.2698986 -0.683512E-01  0.166E-01    0.13       1.0  T
   9   -143.2690610  0.837601E-03  0.167E-01    0.13       1.0  T
  10   -143.2741001 -0.503911E-02  0.107E-01    0.13       1.0  T
  11   -143.2735862  0.513893E-03  0.103E-01    0.13       1.0  T
  12   -143.2744586 -0.872441E-03  0.860E-02    0.13       1.0  T
  13   -143.2764405 -0.198190E-02  0.371E-02    0.13       1.0  T
  14   -143.2764009  0.396719E-04  0.373E-02    0.13       1.0  T
  15   -143.2767445 -0.343634E-03  0.132E-02    0.13       1.0  T
  16   -143.2767669 -0.224027E-04  0.601E-03    0.13       1.9  T
  17   -143.2767735 -0.658491E-05  0.328E-03    0.13       3.5  T
  18   -143.2767740 -0.490663E-06  0.254E-03    0.13       4.5  T
  19   -143.2767738  0.199828E-06  0.188E-03    0.13       6.0  T
  20   -143.2767741 -0.291279E-06  0.111E-03    0.13      10.2  T
  21   -143.2767744 -0.292466E-06  0.327E-04    0.13      34.6  T
  22   -143.2767743  0.444873E-07  0.415E-04    0.13      27.3  T
     SCC iter.                  ...        0 min,  0.258 sec
     gradient                   ...        0 min,  0.080 sec
 * total energy  :  -140.7509526 Eh     change       -0.5672912E-01 Eh
   gradient norm :     0.0800993 Eh/α   predicted    -0.5357476E-01 (  -5.56%)
   displ. norm   :     0.6662991 α      lambda       -0.3803198E-01
   maximum displ.:     0.2510130 α      in ANC's #55, #39, #79, ...

........................................................................
.............................. CYCLE    5 ..............................
........................................................................
   1   -143.2467739 -0.143247E+03  0.587E-01    0.16       0.0  T
   2   -140.7173467  0.252943E+01  0.353E+00    0.06       1.0  T
   3   -142.9881396 -0.227079E+01  0.962E-01    0.59       1.0  T
   4   -143.1470268 -0.158887E+00  0.655E-01    0.30       1.0  T
   5   -143.1268870  0.201397E-01  0.745E-01    0.22       1.0  T
   6   -143.2291846 -0.102298E+00  0.447E-01    0.12       1.0  T
   7   -143.2252464  0.393814E-02  0.511E-01    0.17       1.0  T
   8   -143.2576693 -0.324229E-01  0.349E-01    0.14       1.0  T
   9   -143.2774657 -0.197964E-01  0.262E-01    0.11       1.0  T
  10   -143.2962771 -0.188114E-01  0.117E-01    0.11       1.0  T
  11   -143.2937010  0.257607E-02  0.143E-01    0.11       1.0  T
  12   -143.2998605 -0.615950E-02  0.308E-02    0.11       1.0  T
  13   -143.2995795  0.280997E-03  0.417E-02    0.11       1.0  T
  14   -143.2998600 -0.280481E-03  0.280E-02    0.11       1.0  T
  15   -143.2998700 -0.100010E-04  0.241E-02    0.11       1.0  T
  16   -143.2998416  0.284634E-04  0.245E-02    0.11       1.0  T
  17   -143.2998330  0.850970E-05  0.238E-02    0.11       1.0  T
  18   -143.2998725 -0.394496E-04  0.183E-02    0.11       1.0  T
  19   -143.2998708  0.170713E-05  0.171E-02    0.11       1.0  T
  20   -143.2998683  0.248227E-05  0.168E-02    0.11       1.0  T
  21   -143.2998704 -0.210881E-05  0.152E-02    0.11       1.0  T
  22   -143.2998800 -0.955609E-05  0.128E-02    0.11       1.0  T
  23   -143.2998805 -0.569615E-06  0.114E-02    0.11       1.0  T
  24   -143.2998798  0.747519E-06  0.904E-03    0.11       1.3  T
  25   -143.2998838 -0.403658E-05  0.572E-03    0.11       2.0  T
  26   -143.2998851 -0.127514E-05  0.303E-03    0.11       3.7  T
  27   -143.2998853 -0.202061E-06  0.123E-03    0.11       9.2  T
  28   -143.2998853 -0.268938E-07  0.255E-04    0.11      44.5  T
  29   -143.2998854 -0.185910E-07  0.791E-05    0.11     143.2  T
     SCC iter.                  ...        0 min,  0.340 sec
     gradient                   ...        0 min,  0.080 sec
 * total energy  :  -140.7806583 Eh     change       -0.2970569E-01 Eh
   gradient norm :     0.0558165 Eh/α   predicted    -0.2745823E-01 (  -7.57%)
   displ. norm   :     0.6955863 α      lambda       -0.2388177E-01
   maximum displ.:     0.2930287 α      in ANC's #39, #55, #17, ...

........................................................................
.............................. CYCLE    6 ..............................
........................................................................
   1   -143.2697834 -0.143270E+03  0.532E-01    0.13       0.0  T
   2   -141.9931838  0.127660E+01  0.220E+00    0.03       1.0  T
   3   -143.0502387 -0.105705E+01  0.884E-01    0.41       1.0  T
   4   -143.1452728 -0.950342E-01  0.697E-01    0.30       1.0  T
   5   -143.1918261 -0.465533E-01  0.646E-01    0.16       1.0  T
   6   -143.1755310  0.162951E-01  0.625E-01    0.14       1.0  T
   7   -143.3127813 -0.137250E+00  0.141E-01    0.09       1.0  T
   8   -143.3053065  0.747480E-02  0.188E-01    0.10       1.0  T
   9   -143.3049551  0.351461E-03  0.189E-01    0.09       1.0  T
  10   -143.3050198 -0.646995E-04  0.188E-01    0.09       1.0  T
  11   -143.3170135 -0.119937E-01  0.292E-02    0.09       1.0  T
  12   -143.3151825  0.183096E-02  0.760E-02    0.08       1.0  T
  13   -143.3157438 -0.561274E-03  0.633E-02    0.08       1.0  T
  14   -143.3164984 -0.754557E-03  0.430E-02    0.08       1.0  T
  15   -143.3166071 -0.108750E-03  0.377E-02    0.08       1.0  T
  16   -143.3168928 -0.285661E-03  0.235E-02    0.08       1.0  T
  17   -143.3169316 -0.388293E-04  0.202E-02    0.08       1.0  T
  18   -143.3169720 -0.404233E-04  0.167E-02    0.08       1.0  T
  19   -143.3170327 -0.606561E-04  0.998E-03    0.08       1.1  T
  20   -143.3170535 -0.207917E-04  0.605E-03    0.08       1.9  T
  21   -143.3170631 -0.965200E-05  0.255E-03    0.08       4.4  T
  22   -143.3170646 -0.152494E-05  0.139E-03    0.08       8.2  T
  23   -143.3170652 -0.516872E-06  0.641E-04    0.08      17.7  T
  24   -143.3170652 -0.658397E-07  0.465E-04    0.08      24.4  T
     SCC iter.                  ...        0 min,  0.285 sec
     gradient                   ...        0 min,  0.080 sec
 * total energy  :  -140.7998338 Eh     change       -0.1917550E-01 Eh
   gradient norm :     0.0461963 Eh/α   predicted    -0.1771838E-01 (  -7.60%)
   displ. norm   :     0.7061650 α      lambda       -0.1615444E-01
   maximum displ.:     0.2788292 α      in ANC's #9, #17, #39, ...

........................................................................
.............................. CYCLE    7 ..............................
........................................................................
   1   -143.3001286 -0.143300E+03  0.434E-01    0.10       0.0  T
   2   -142.8697426  0.430386E+00  0.121E+00    0.36       1.0  T
   3   -143.1908559 -0.321113E+00  0.657E-01    0.13       1.0  T
   4   -143.1414740  0.493818E-01  0.753E-01    0.30       1.0  T
   5   -143.3172923 -0.175818E+00  0.291E-01    0.10       1.0  T
   6   -143.3271604 -0.986806E-02  0.113E-01    0.06       1.0  T
   7   -143.3122340  0.149264E-01  0.224E-01    0.07       1.0  T
   8   -143.3297949 -0.175609E-01  0.422E-02    0.07       1.0  T
   9   -143.3280175  0.177744E-02  0.815E-02    0.07       1.0  T
  10   -143.3302595 -0.224202E-02  0.193E-02    0.07       1.0  T
  11   -143.3300176  0.241841E-03  0.313E-02    0.07       1.0  T
  12   -143.3303573 -0.339707E-03  0.469E-03    0.07       2.4  T
  13   -143.3301321  0.225229E-03  0.253E-02    0.07       1.0  T
  14   -143.3303311 -0.199033E-03  0.894E-03    0.07       1.3  T
  15   -143.3303567 -0.255391E-04  0.298E-03    0.07       3.8  T
  16   -143.3303592 -0.253984E-05  0.862E-04    0.07      13.1  T
  17   -143.3303445  0.147214E-04  0.640E-03    0.07       1.8  T
  18   -143.3303585 -0.139991E-04  0.150E-03    0.07       7.5  T
  19   -143.3303591 -0.583701E-06  0.818E-04    0.07      13.8  T
  20   -143.3303593 -0.224926E-06  0.225E-04    0.07      50.4  T
     SCC iter.                  ...        0 min,  0.239 sec
     gradient                   ...        0 min,  0.080 sec
 * total energy  :  -140.8128965 Eh     change       -0.1306265E-01 Eh
   gradient norm :     0.0344431 Eh/α   predicted    -0.1210508E-01 (  -7.33%)
   displ. norm   :     0.7156354 α      lambda       -0.1107028E-01
   maximum displ.:     0.3528578 α      in ANC's #9, #17, #8, ...

........................................................................
.............................. CYCLE    8 ..............................
........................................................................
   1   -143.3235955 -0.143324E+03  0.348E-01    0.07       0.0  T
   2   -142.9415884  0.382007E+00  0.114E+00    0.56       1.0  T
   3   -143.2353082 -0.293720E+00  0.563E-01    0.10       1.0  T
   4   -143.1456591  0.896491E-01  0.759E-01    0.28       1.0  T
   5   -143.2908900 -0.145231E+00  0.424E-01    0.11       1.0  T
   6   -143.3382453 -0.473554E-01  0.100E-01    0.06       1.0  T
   7   -143.3134396  0.248058E-01  0.278E-01    0.06       1.0  T
   8   -143.3385957 -0.251561E-01  0.933E-02    0.06       1.0  T
   9   -143.3413692 -0.277350E-02  0.376E-02    0.05       1.0  T
  10   -143.3416267 -0.257479E-03  0.239E-02    0.05       1.0  T
  11   -143.3412127  0.414038E-03  0.408E-02    0.05       1.0  T
  12   -143.3417854 -0.572737E-03  0.868E-03    0.05       1.3  T
  13   -143.3417610  0.243961E-04  0.108E-02    0.05       1.1  T
  14   -143.3417431  0.178451E-04  0.127E-02    0.05       1.0  T
  15   -143.3418001 -0.569117E-04  0.244E-03    0.05       4.6  T
  16   -143.3418013 -0.126517E-05  0.120E-03    0.05       9.4  T
  17   -143.3418011  0.229406E-06  0.128E-03    0.05       8.8  T
  18   -143.3418012 -0.747882E-07  0.117E-03    0.05       9.7  T
  19   -143.3417999  0.128181E-05  0.220E-03    0.05       5.1  T
  20   -143.3418013 -0.145227E-05  0.866E-04    0.05      13.1  T
  21   -143.3418012  0.187110E-06  0.112E-03    0.05      10.1  T
  22   -143.3418015 -0.305826E-06  0.651E-04    0.05      17.4  T
  23   -143.3418016 -0.139381E-06  0.214E-04    0.05      53.0  T
     SCC iter.                  ...        0 min,  0.271 sec
     gradient                   ...        0 min,  0.080 sec
 * total energy  :  -140.8219579 Eh     change       -0.9061396E-02 Eh
   gradient norm :     0.0261018 Eh/α   predicted    -0.8369878E-02 (  -7.63%)
   displ. norm   :     0.7359669 α      lambda       -0.8108794E-02
   maximum displ.:     0.4288789 α      in ANC's #9, #17, #8, ...

........................................................................
.............................. CYCLE    9 ..............................
........................................................................
   1   -143.3469678 -0.143347E+03  0.246E-01    0.05       0.0  T
   2   -143.0387388  0.308229E+00  0.971E-01    0.33       1.0  T
   3   -143.3008562 -0.262117E+00  0.390E-01    0.08       1.0  T
   4   -143.1038696  0.196987E+00  0.825E-01    0.20       1.0  T
   5   -143.2982595 -0.194390E+00  0.375E-01    0.06       1.0  T
   6   -143.3289358 -0.306763E-01  0.243E-01    0.06       1.0  T
   7   -143.3387014 -0.976560E-02  0.184E-01    0.05       1.0  T
   8   -143.3253368  0.133646E-01  0.262E-01    0.05       1.0  T
   9   -143.3494189 -0.240822E-01  0.594E-02    0.04       1.0  T
  10   -143.3476442  0.177470E-02  0.913E-02    0.05       1.0  T
  11   -143.3473588  0.285467E-03  0.953E-02    0.05       1.0  T
  12   -143.3499501 -0.259135E-02  0.451E-02    0.04       1.0  T
  13   -143.3506976 -0.747515E-03  0.550E-03    0.04       2.1  T
  14   -143.3504837  0.213930E-03  0.246E-02    0.04       1.0  T
  15   -143.3507063 -0.222641E-03  0.160E-03    0.04       7.1  T
  16   -143.3507065 -0.146750E-06  0.934E-04    0.04      12.1  T
  17   -143.3507066 -0.105510E-06  0.638E-04    0.04      17.8  T
     SCC iter.                  ...        0 min,  0.203 sec
     gradient                   ...        0 min,  0.080 sec
 * total energy  :  -140.8287837 Eh     change       -0.6825810E-02 Eh
   gradient norm :     0.0235345 Eh/α   predicted    -0.6250462E-02 (  -8.43%)
   displ. norm   :     0.7738661 α      lambda       -0.6762906E-02
   maximum displ.:     0.4969185 α      in ANC's #9, #17, #8, ...

........................................................................
.............................. CYCLE   10 ..............................
........................................................................
   1   -143.3572379 -0.143357E+03  0.208E-01    0.03       0.0  T
   2   -143.3464322  0.108057E-01  0.222E-01    0.04       1.0  T
   3   -143.1230837  0.223349E+00  0.830E-01    0.38       1.0  T
   4   -143.3506428 -0.227559E+00  0.196E-01    0.02       1.0  T
   5   -143.2860518  0.645910E-01  0.442E-01    0.08       1.0  T
   6   -143.3572742 -0.712224E-01  0.394E-02    0.03       1.0  T
   7   -143.3574557 -0.181552E-03  0.242E-02    0.03       1.0  T
   8   -143.3547868  0.266897E-02  0.869E-02    0.04       1.0  T
   9   -143.3518139  0.297284E-02  0.124E-01    0.04       1.0  T
  10   -143.3552563 -0.344233E-02  0.786E-02    0.03       1.0  T
  11   -143.3562583 -0.100199E-02  0.581E-02    0.03       1.0  T
  12   -143.3574921 -0.123382E-02  0.338E-03    0.03       3.4  T
  13   -143.3574847  0.735321E-05  0.515E-03    0.03       2.2  T
  14   -143.3574909 -0.621341E-05  0.292E-03    0.03       3.9  T
  15   -143.3574935 -0.257875E-05  0.984E-04    0.03      11.5  T
  16   -143.3574873  0.619483E-05  0.422E-03    0.03       2.7  T
  17   -143.3574930 -0.566594E-05  0.130E-03    0.03       8.7  T
  18   -143.3574914  0.157010E-05  0.244E-03    0.03       4.6  T
  19   -143.3574934 -0.199709E-05  0.674E-04    0.03      16.8  T
  20   -143.3574934 -0.224993E-07  0.618E-04    0.03      18.3  T
  21   -143.3574936 -0.137856E-06  0.847E-05    0.03     133.7  T
     SCC iter.                  ...        0 min,  0.250 sec
     gradient                   ...        0 min,  0.079 sec
 * total energy  :  -140.8345555 Eh     change       -0.5771820E-02 Eh
   gradient norm :     0.0219652 Eh/α   predicted    -0.5406503E-02 (  -6.33%)
   displ. norm   :     0.7993415 α      lambda       -0.6184411E-02
   maximum displ.:     0.5400895 α      in ANC's #9, #8, #17, ...

........................................................................
.............................. CYCLE   11 ..............................
........................................................................
   1   -143.3515426 -0.143352E+03  0.263E-01    0.03       0.0  T
   2   -143.0638976  0.287645E+00  0.100E+00    0.60       1.0  T
   3   -143.2284423 -0.164545E+00  0.626E-01    0.12       1.0  T
   4   -143.1316982  0.967440E-01  0.818E-01    0.18       1.0  T
   5   -143.3437480 -0.212050E+00  0.242E-01    0.03       1.0  T
   6   -143.3602527 -0.165047E-01  0.935E-02    0.03       1.0  T
   7   -143.3494741  0.107786E-01  0.193E-01    0.04       1.0  T
   8   -143.3216596  0.278145E-01  0.335E-01    0.05       1.0  T
   9   -143.3582057 -0.365460E-01  0.114E-01    0.03       1.0  T
  10   -143.3623168 -0.411111E-02  0.380E-02    0.03       1.0  T
  11   -143.3622180  0.987651E-04  0.418E-02    0.02       1.0  T
  12   -143.3626027 -0.384680E-03  0.263E-02    0.02       1.0  T
  13   -143.3628506 -0.247903E-03  0.191E-03    0.03       5.9  T
  14   -143.3628485  0.212801E-05  0.285E-03    0.03       4.0  T
  15   -143.3628204  0.280880E-04  0.918E-03    0.03       1.2  T
  16   -143.3628454 -0.249707E-04  0.405E-03    0.03       2.8  T
  17   -143.3628468 -0.145215E-05  0.350E-03    0.03       3.2  T
  18   -143.3628511 -0.428600E-05  0.208E-04    0.03      54.4  T
  19   -143.3628505  0.594563E-06  0.128E-03    0.03       8.8  T
  20   -143.3628510 -0.544993E-06  0.377E-04    0.03      30.0  T
  21   -143.3628511 -0.200049E-07  0.295E-04    0.03      38.3  T
     SCC iter.                  ...        0 min,  0.254 sec
     gradient                   ...        0 min,  0.098 sec
 * total energy  :  -140.8396824 Eh     change       -0.5126893E-02 Eh
   gradient norm :     0.0194555 Eh/α   predicted    -0.5067974E-02 (  -1.15%)
   displ. norm   :     0.7984537 α      lambda       -0.5512507E-02
   maximum displ.:     0.5628060 α      in ANC's #9, #8, #17, ...

........................................................................
.............................. CYCLE   12 ..............................
........................................................................
   1   -143.3432688 -0.143343E+03  0.306E-01    0.03       0.0  T
   2   -143.0188750  0.324394E+00  0.111E+00    0.75       1.0  T
   3   -143.1410549 -0.122180E+00  0.812E-01    0.26       1.0  T
   4   -143.3641664 -0.223111E+00  0.114E-01    0.02       1.0  T
   5   -143.2845566  0.796098E-01  0.484E-01    0.06       1.0  T
   6   -143.3341725 -0.496158E-01  0.293E-01    0.05       1.0  T
   7   -143.3639516 -0.297791E-01  0.556E-02    0.02       1.0  T
   8   -143.3234852  0.404663E-01  0.339E-01    0.05       1.0  T
   9   -143.3648123 -0.413271E-01  0.192E-02    0.02       1.0  T
  10   -143.3623300  0.248232E-02  0.851E-02    0.02       1.0  T
  11   -143.3603088  0.202121E-02  0.113E-01    0.02       1.0  T
  12   -143.3641559 -0.384712E-02  0.456E-02    0.02       1.0  T
  13   -143.3648430 -0.687111E-03  0.138E-02    0.02       1.0  T
  14   -143.3648987 -0.557190E-04  0.544E-03    0.02       2.1  T
  15   -143.3648539  0.448107E-04  0.124E-02    0.02       1.0  T
  16   -143.3648494  0.447583E-05  0.128E-02    0.02       1.0  T
  17   -143.3649017 -0.523363E-04  0.431E-03    0.02       2.6  T
  18   -143.3648986  0.311918E-05  0.521E-03    0.02       2.2  T
  19   -143.3649080 -0.934239E-05  0.110E-03    0.02      10.3  T
  20   -143.3649081 -0.134969E-06  0.880E-04    0.02      12.9  T
  21   -143.3649083 -0.199761E-06  0.458E-04    0.02      24.7  T
     SCC iter.                  ...        0 min,  0.250 sec
     gradient                   ...        0 min,  0.079 sec
 * total energy  :  -140.8444878 Eh     change       -0.4805422E-02 Eh
   gradient norm :     0.0172117 Eh/α   predicted    -0.4513445E-02 (  -6.08%)
   displ. norm   :     0.8090003 α      lambda       -0.4897389E-02
   maximum displ.:     0.5880284 α      in ANC's #9, #8, #7, ...

........................................................................
.............................. CYCLE   13 ..............................
........................................................................
   1   -143.3264381 -0.143326E+03  0.376E-01    0.04       0.0  T
   2   -142.9457452  0.380693E+00  0.126E+00    0.32       1.0  T
   3   -143.1172059 -0.171461E+00  0.868E-01    0.42       1.0  T
   4   -143.2501718 -0.132966E+00  0.582E-01    0.09       1.0  T
   5   -143.0892291  0.160943E+00  0.908E-01    0.30       1.0  T
   6   -143.1292803 -0.400511E-01  0.822E-01    0.19       1.0  T
   7   -143.3417022 -0.212422E+00  0.264E-01    0.04       1.0  T
   8   -143.3651208 -0.234186E-01  0.515E-02    0.02       1.0  T
   9   -143.3615187  0.360210E-02  0.113E-01    0.02       1.0  T
  10   -143.3577949  0.372377E-02  0.150E-01    0.02       1.0  T
  11   -143.3646999 -0.690499E-02  0.574E-02    0.02       1.0  T
  12   -143.3656857 -0.985732E-03  0.228E-02    0.02       1.0  T
  13   -143.3658247 -0.139001E-03  0.106E-02    0.02       1.1  T
  14   -143.3657817  0.429340E-04  0.151E-02    0.02       1.0  T
  15   -143.3657910 -0.930507E-05  0.141E-02    0.02       1.0  T
  16   -143.3658607 -0.696600E-04  0.103E-03    0.02      11.0  T
  17   -143.3658609 -0.189258E-06  0.704E-04    0.02      16.1  T
  18   -143.3658610 -0.127021E-06  0.301E-04    0.02      37.6  T
     SCC iter.                  ...        0 min,  0.214 sec
     gradient                   ...        0 min,  0.079 sec
 * total energy  :  -140.8488584 Eh     change       -0.4370551E-02 Eh
   gradient norm :     0.0162283 Eh/α   predicted    -0.4051318E-02 (  -7.30%)
   displ. norm   :     0.8335696 α      lambda       -0.4750984E-02
   maximum displ.:     0.6062767 α      in ANC's #9, #8, #7, ...

........................................................................
.............................. CYCLE   14 ..............................
........................................................................
   1   -143.3014916 -0.143301E+03  0.468E-01    0.06       0.0  T
   2   -137.2681306  0.603336E+01  0.604E+00    0.03       1.0  T
   3   -143.0146097 -0.574648E+01  0.110E+00    0.81       1.0  T
   4   -143.1200067 -0.105397E+00  0.868E-01    0.36       1.0  T
   5   -143.3626073 -0.242601E+00  0.138E-01    0.02       1.0  T
   6   -143.1625801  0.200027E+00  0.773E-01    0.14       1.0  T
   7   -143.2942811 -0.131701E+00  0.458E-01    0.07       1.0  T
   8   -143.3287472 -0.344661E-01  0.326E-01    0.04       1.0  T
   9   -143.3367477 -0.800048E-02  0.294E-01    0.04       1.0  T
  10   -143.3663521 -0.296044E-01  0.222E-02    0.01       1.0  T
  11   -143.3664034 -0.512764E-04  0.166E-02    0.01       1.0  T
  12   -143.3657833  0.620069E-03  0.451E-02    0.01       1.0  T
  13   -143.3663381 -0.554740E-03  0.198E-02    0.01       1.0  T
  14   -143.3663443 -0.625521E-05  0.190E-02    0.01       1.0  T
  15   -143.3663485 -0.414521E-05  0.183E-02    0.01       1.0  T
  16   -143.3664258 -0.773302E-04  0.101E-02    0.01       1.1  T
  17   -143.3664201  0.571999E-05  0.106E-02    0.01       1.1  T
  18   -143.3664251 -0.501814E-05  0.944E-03    0.01       1.2  T
  19   -143.3664136  0.114903E-04  0.107E-02    0.01       1.1  T
  20   -143.3664274 -0.137931E-04  0.843E-03    0.01       1.3  T
  21   -143.3664255  0.191618E-05  0.853E-03    0.01       1.3  T
  22   -143.3664257 -0.211874E-06  0.812E-03    0.01       1.4  T
  23   -143.3664265 -0.828917E-06  0.703E-03    0.01       1.6  T
  24   -143.3664283 -0.182171E-05  0.528E-03    0.01       2.1  T
  25   -143.3664268  0.150116E-05  0.425E-03    0.01       2.7  T
  26   -143.3664301 -0.324866E-05  0.128E-03    0.01       8.8  T
  27   -143.3664300  0.143066E-06  0.931E-04    0.01      12.2  T
  28   -143.3664301 -0.127067E-06  0.502E-04    0.01      22.6  T
     SCC iter.                  ...        0 min,  0.334 sec
     gradient                   ...        0 min,  0.079 sec
 * total energy  :  -140.8528626 Eh     change       -0.4004213E-02 Eh
   gradient norm :     0.0150638 Eh/α   predicted    -0.4026084E-02 (   0.55%)
   displ. norm   :     0.8264119 α      lambda       -0.4053215E-02
   maximum displ.:     0.6111243 α      in ANC's #9, #8, #7, ...

........................................................................
.............................. CYCLE   15 ..............................
........................................................................
   1   -143.3117844 -0.143312E+03  0.427E-01    0.05       0.0  T
   2   -140.6259749  0.268581E+01  0.416E+00    0.02       1.0  T
   3   -143.0242872 -0.239831E+01  0.107E+00    0.86       1.0  T
   4   -143.1176593 -0.933721E-01  0.865E-01    0.31       1.0  T
   5   -143.3623139 -0.244655E+00  0.119E-01    0.01       1.0  T
   6   -143.3269071  0.354068E-01  0.331E-01    0.04       1.0  T
   7   -143.2535876  0.733195E-01  0.566E-01    0.09       1.0  T
   8   -143.3485913 -0.950037E-01  0.215E-01    0.03       1.0  T
   9   -143.3608312 -0.122399E-01  0.105E-01    0.02       1.0  T
  10   -143.3618751 -0.104387E-02  0.884E-02    0.01       1.0  T
  11   -143.3644333 -0.255824E-02  0.195E-02    0.01       1.0  T
  12   -143.3638592  0.574101E-03  0.450E-02    0.01       1.0  T
  13   -143.3644813 -0.622024E-03  0.140E-02    0.01       1.0  T
  14   -143.3644903 -0.900650E-05  0.127E-02    0.01       1.0  T
  15   -143.3645067 -0.164785E-04  0.103E-02    0.01       1.1  T
  16   -143.3645055  0.121284E-05  0.993E-03    0.01       1.1  T
  17   -143.3644652  0.403538E-04  0.142E-02    0.01       1.0  T
  18   -143.3644880 -0.228300E-04  0.115E-02    0.01       1.0  T
  19   -143.3644956 -0.762407E-05  0.979E-03    0.01       1.2  T
  20   -143.3645065 -0.108541E-04  0.757E-03    0.01       1.5  T
  21   -143.3645027  0.381000E-05  0.793E-03    0.01       1.4  T
  22   -143.3645073 -0.463964E-05  0.633E-03    0.01       1.8  T
  23   -143.3644977  0.962714E-05  0.741E-03    0.01       1.5  T
  24   -143.3645056 -0.790788E-05  0.490E-03    0.01       2.3  T
  25   -143.3645077 -0.206818E-05  0.308E-03    0.01       3.7  T
  26   -143.3645095 -0.185263E-05  0.108E-03    0.01      10.5  T
  27   -143.3645098 -0.248677E-06  0.340E-04    0.01      33.3  T
  28   -143.3645098 -0.113479E-08  0.126E-04    0.01      90.2  T
     SCC iter.                  ...        0 min,  0.326 sec
     gradient                   ...        0 min,  0.078 sec
 * total energy  :  -140.8563263 Eh     change       -0.3463727E-02 Eh
   gradient norm :     0.0130199 Eh/α   predicted    -0.3410698E-02 (  -1.53%)
   displ. norm   :     0.8283419 α      lambda       -0.3307243E-02
   maximum displ.:     0.6111969 α      in ANC's #9, #8, #7, ...

........................................................................
.............................. CYCLE   16 ..............................
........................................................................
   1   -143.3286544 -0.143329E+03  0.363E-01    0.04       0.0  T
   2   -142.9110823  0.417572E+00  0.130E+00    0.21       1.0  T
   3   -143.1044829 -0.193401E+00  0.888E-01    0.42       1.0  T
   4   -143.3127513 -0.208268E+00  0.398E-01    0.05       1.0  T
   5   -143.0936649  0.219086E+00  0.913E-01    0.31       1.0  T
   6   -143.1227857 -0.291207E-01  0.841E-01    0.21       1.0  T
   7   -143.3577372 -0.234952E+00  0.146E-01    0.02       1.0  T
   8   -143.3640012 -0.626397E-02  0.503E-02    0.01       1.0  T
   9   -143.3596005  0.440064E-02  0.122E-01    0.02       1.0  T
  10   -143.3631331 -0.353262E-02  0.686E-02    0.01       1.0  T
  11   -143.3646699 -0.153673E-02  0.154E-02    0.01       1.0  T
  12   -143.3647166 -0.467759E-04  0.951E-03    0.01       1.2  T
  13   -143.3647413 -0.246789E-04  0.438E-03    0.01       2.6  T
  14   -143.3647384  0.292804E-05  0.509E-03    0.01       2.2  T
  15   -143.3647448 -0.639653E-05  0.259E-03    0.01       4.4  T
  16   -143.3647407  0.407477E-05  0.428E-03    0.01       2.6  T
  17   -143.3647432 -0.250877E-05  0.329E-03    0.01       3.4  T
  18   -143.3647406  0.261268E-05  0.430E-03    0.01       2.6  T
  19   -143.3647468 -0.616127E-05  0.753E-04    0.01      15.0  T
  20   -143.3647470 -0.186909E-06  0.850E-05    0.01     133.2  T
  21   -143.3647469  0.201271E-07  0.251E-04    0.01      45.0  T
     SCC iter.                  ...        0 min,  0.249 sec
     gradient                   ...        0 min,  0.078 sec
 * total energy  :  -140.8591746 Eh     change       -0.2848251E-02 Eh
   gradient norm :     0.0139489 Eh/α   predicted    -0.2788262E-02 (  -2.11%)
   displ. norm   :     0.8415321 α      lambda       -0.3146812E-02
   maximum displ.:     0.6219802 α      in ANC's #9, #7, #8, ...

........................................................................
.............................. CYCLE   17 ..............................
........................................................................
   1   -143.3413519 -0.143341E+03  0.338E-01    0.03       0.0  T
   2   -142.9733927  0.367959E+00  0.121E+00    0.41       1.0  T
   3   -143.1132570 -0.139864E+00  0.874E-01    0.32       1.0  T
   4   -143.3401163 -0.226859E+00  0.301E-01    0.04       1.0  T
   5   -143.1906499  0.149466E+00  0.716E-01    0.13       1.0  T
   6   -143.3602321 -0.169582E+00  0.148E-01    0.02       1.0  T
   7   -143.3552654  0.496674E-02  0.188E-01    0.02       1.0  T
   8   -143.3661670 -0.109016E-01  0.644E-02    0.01       1.0  T
   9   -143.3675213 -0.135435E-02  0.831E-03    0.00       1.4  T
  10   -143.3673231  0.198264E-03  0.252E-02    0.00       1.0  T
  11   -143.3675310 -0.207926E-03  0.400E-03    0.00       2.8  T
  12   -143.3668719  0.659116E-03  0.440E-02    0.01       1.0  T
  13   -143.3674022 -0.530260E-03  0.197E-02    0.00       1.0  T
  14   -143.3675283 -0.126143E-03  0.476E-03    0.00       2.4  T
  15   -143.3675357 -0.742052E-05  0.586E-04    0.00      19.3  T
  16   -143.3675348  0.951340E-06  0.175E-03    0.00       6.5  T
  17   -143.3675355 -0.783656E-06  0.876E-04    0.00      12.9  T
  18   -143.3675339  0.159622E-05  0.232E-03    0.00       4.9  T
  19   -143.3675356 -0.161116E-05  0.840E-04    0.00      13.5  T
  20   -143.3675358 -0.220054E-06  0.229E-04    0.00      49.4  T
     SCC iter.                  ...        0 min,  0.239 sec
     gradient                   ...        0 min,  0.078 sec
 * total energy  :  -140.8615554 Eh     change       -0.2380793E-02 Eh
   gradient norm :     0.0185515 Eh/α   predicted    -0.2687661E-02 (  12.89%)
   displ. norm   :     0.7607625 α      lambda       -0.2615830E-02
   maximum displ.:     0.5386106 α      in ANC's #9, #8, #7, ...

........................................................................
.............................. CYCLE   18 ..............................
........................................................................
   1   -143.3604238 -0.143360E+03  0.234E-01    0.02       0.0  T
   2   -143.0418689  0.318555E+00  0.107E+00    0.66       1.0  T
   3   -143.1960442 -0.154175E+00  0.719E-01    0.13       1.0  T
   4   -143.2531454 -0.571012E-01  0.593E-01    0.09       1.0  T
   5   -143.3405507 -0.874053E-01  0.297E-01    0.04       1.0  T
   6   -143.3552381 -0.146874E-01  0.215E-01    0.03       1.0  T
   7   -143.3395153  0.157228E-01  0.301E-01    0.04       1.0  T
   8   -143.3686772 -0.291619E-01  0.784E-02    0.01       1.0  T
   9   -143.3685548  0.122430E-03  0.802E-02    0.01       1.0  T
  10   -143.3705878 -0.203301E-02  0.214E-02    0.00       1.0  T
  11   -143.3707125 -0.124751E-03  0.994E-03    0.00       1.1  T
  12   -143.3706673  0.452079E-04  0.151E-02    0.00       1.0  T
  13   -143.3707266 -0.592389E-04  0.737E-03    0.00       1.5  T
  14   -143.3707444 -0.178650E-04  0.156E-03    0.00       7.3  T
  15   -143.3707342  0.102762E-04  0.565E-03    0.00       2.0  T
  16   -143.3707412 -0.705359E-05  0.337E-03    0.00       3.4  T
  17   -143.3707448 -0.362127E-05  0.911E-04    0.00      12.4  T
  18   -143.3707449 -0.662617E-07  0.785E-04    0.00      14.4  T
  19   -143.3707451 -0.211637E-06  0.522E-05    0.00     216.8  T
     SCC iter.                  ...        0 min,  0.222 sec
     gradient                   ...        0 min,  0.078 sec
 * total energy  :  -140.8636971 Eh     change       -0.2141740E-02 Eh
   gradient norm :     0.0145933 Eh/α   predicted    -0.2064886E-02 (  -3.59%)
   displ. norm   :     0.7651503 α      lambda       -0.2354584E-02
   maximum displ.:     0.5379122 α      in ANC's #9, #8, #7, ...

........................................................................
.............................. CYCLE   19 ..............................
........................................................................
   1   -143.3746505 -0.143375E+03  0.168E-01    0.01       0.0  T
   2   -143.0932838  0.281367E+00  0.949E-01    0.47       1.0  T
   3   -143.3748947 -0.281611E+00  0.119E-01    0.01       1.0  T
   4   -143.1555477  0.219347E+00  0.814E-01    0.17       1.0  T
   5   -143.3728649 -0.217317E+00  0.113E-01    0.01       1.0  T
   6   -143.3495333  0.233316E-01  0.284E-01    0.04       1.0  T
   7   -143.3769137 -0.273804E-01  0.332E-02    0.00       1.0  T
   8   -143.3764276  0.486081E-03  0.504E-02    0.01       1.0  T
   9   -143.3772661 -0.838486E-03  0.677E-03    0.00       1.7  T
  10   -143.3772475  0.186297E-04  0.981E-03    0.00       1.2  T
  11   -143.3771332  0.114258E-03  0.207E-02    0.00       1.0  T
  12   -143.3772678 -0.134537E-03  0.585E-03    0.00       1.9  T
  13   -143.3772782 -0.104106E-04  0.177E-03    0.00       6.4  T
  14   -143.3772785 -0.285673E-06  0.149E-03    0.00       7.6  T
  15   -143.3772784  0.428911E-07  0.153E-03    0.00       7.4  T
  16   -143.3772790 -0.598197E-06  0.778E-04    0.00      14.6  T
  17   -143.3772792 -0.171907E-06  0.318E-04    0.00      35.7  T
     SCC iter.                  ...        0 min,  0.202 sec
     gradient                   ...        0 min,  0.079 sec
 * total energy  :  -140.8653764 Eh     change       -0.1679343E-02 Eh
   gradient norm :     0.0194892 Eh/α   predicted    -0.1866551E-02 (  11.15%)
   displ. norm   :     0.7391133 α      lambda       -0.2076510E-02
   maximum displ.:     0.5008219 α      in ANC's #9, #7, #8, ...

........................................................................
.............................. CYCLE   20 ..............................
........................................................................
   1   -143.3729488 -0.143373E+03  0.153E-01    0.01       0.0  T
   2   -143.1008974  0.272051E+00  0.921E-01    0.40       1.0  T
   3   -143.3606064 -0.259709E+00  0.216E-01    0.02       1.0  T
   4   -143.2144023  0.146204E+00  0.681E-01    0.11       1.0  T
   5   -143.3648037 -0.150401E+00  0.167E-01    0.02       1.0  T
   6   -143.3742298 -0.942611E-02  0.266E-02    0.00       1.0  T
   7   -143.3733459  0.883957E-03  0.558E-02    0.01       1.0  T
   8   -143.3735188 -0.172948E-03  0.516E-02    0.01       1.0  T
   9   -143.3740512 -0.532395E-03  0.327E-02    0.00       1.0  T
  10   -143.3744117 -0.360449E-03  0.603E-03    0.00       1.9  T
  11   -143.3744132 -0.154718E-05  0.538E-03    0.00       2.1  T
  12   -143.3743398  0.734659E-04  0.156E-02    0.00       1.0  T
  13   -143.3744118 -0.720034E-04  0.569E-03    0.00       2.0  T
  14   -143.3744210 -0.923148E-05  0.229E-03    0.00       5.0  T
  15   -143.3744103  0.106716E-04  0.602E-03    0.00       1.9  T
  16   -143.3744222 -0.118333E-04  0.124E-03    0.00       9.1  T
  17   -143.3744227 -0.519771E-06  0.136E-04    0.00      83.0  T
  18   -143.3744227  0.517696E-08  0.170E-04    0.00      66.4  T
     SCC iter.                  ...        0 min,  0.214 sec
     gradient                   ...        0 min,  0.078 sec
 * total energy  :  -140.8669645 Eh     change       -0.1588020E-02 Eh
   gradient norm :     0.0162420 Eh/α   predicted    -0.1605444E-02 (   1.10%)
   displ. norm   :     0.7032554 α      lambda       -0.1901982E-02
   maximum displ.:     0.4545979 α      in ANC's #9, #7, #8, ...
 * RMSD in coord.:     1.3316016 α      energy gain  -0.7106128E+00 Eh

generating ANC from model Hessian ...
Using Lindh-Hessian (1995)
 Shifting diagonal of input Hessian by    1.0030613318371516E-002
 Lowest  eigenvalues of input Hessian
    0.010000    0.010010    0.010013    0.000000    0.000000    0.000000
    0.000000    0.000000    0.000000    0.010059    0.010151    0.010548
    0.011000    0.011176    0.011285    0.011946    0.012025    0.012502
 Highest eigenvalues
    2.155786    2.157637    2.160760    2.252221    2.687655    3.024097


........................................................................
.............................. CYCLE   21 ..............................
........................................................................
   1   -143.3780263 -0.143378E+03  0.187E-01    0.02       0.0  T
   2   -143.0758292  0.302197E+00  0.101E+00    0.60       1.0  T
   3   -143.3206982 -0.244869E+00  0.435E-01    0.06       1.0  T
   4   -143.1555256  0.165173E+00  0.828E-01    0.17       1.0  T
   5   -143.3268070 -0.171281E+00  0.404E-01    0.05       1.0  T
   6   -143.3303672 -0.356021E-02  0.394E-01    0.05       1.0  T
   7   -143.3827438 -0.523766E-01  0.570E-02    0.01       1.0  T
   8   -143.3818649  0.878924E-03  0.774E-02    0.01       1.0  T
   9   -143.3836918 -0.182698E-02  0.233E-02    0.00       1.0  T
  10   -143.3837777 -0.858955E-04  0.162E-02    0.00       1.0  T
  11   -143.3836157  0.162062E-03  0.272E-02    0.00       1.0  T
  12   -143.3838372 -0.221558E-03  0.933E-03    0.00       1.2  T
  13   -143.3838481 -0.108288E-04  0.730E-03    0.00       1.6  T
  14   -143.3838542 -0.610438E-05  0.592E-03    0.00       1.9  T
  15   -143.3838653 -0.110830E-04  0.174E-03    0.00       6.5  T
  16   -143.3838661 -0.814384E-06  0.703E-04    0.00      16.1  T
  17   -143.3838662 -0.135620E-06  0.262E-04    0.00      43.2  T
     SCC iter.                  ...        0 min,  0.203 sec
     gradient                   ...        0 min,  0.078 sec
 * total energy  :  -140.8681862 Eh     change       -0.1221750E-02 Eh
   gradient norm :     0.0190515 Eh/α   predicted     0.0000000E+00 (-100.00%)
   displ. norm   :     0.1887019 α      lambda       -0.1002454E-02
   maximum displ.:     0.1251563 α      in ANC's #9, #17, #8, ...

........................................................................
.............................. CYCLE   22 ..............................
........................................................................
   1   -143.3809516 -0.143381E+03  0.586E-02    0.00       0.0  T
   2   -143.3021242  0.788275E-01  0.482E-01    0.06       1.0  T
   3   -143.3708079 -0.686837E-01  0.176E-01    0.02       1.0  T
   4   -143.3804085 -0.960059E-02  0.433E-02    0.00       1.0  T
   5   -143.3809741 -0.565596E-03  0.958E-03    0.00       1.2  T
   6   -143.3809929 -0.188231E-04  0.370E-03    0.00       3.1  T
   7   -143.3809720  0.208573E-04  0.825E-03    0.00       1.4  T
   8   -143.3809933 -0.212571E-04  0.187E-03    0.00       6.1  T
   9   -143.3809935 -0.206759E-06  0.104E-03    0.00      10.9  T
  10   -143.3809931  0.382485E-06  0.129E-03    0.00       8.8  T
  11   -143.3809935 -0.420272E-06  0.582E-04    0.00      19.5  T
  12   -143.3809935  0.575865E-07  0.600E-04    0.00      18.9  T
     SCC iter.                  ...        0 min,  0.142 sec
     gradient                   ...        0 min,  0.078 sec
 * total energy  :  -140.8689479 Eh     change       -0.7617016E-03 Eh
   gradient norm :     0.0069450 Eh/α   predicted    -0.5190950E-03 ( -31.85%)
   displ. norm   :     0.3754739 α      lambda       -0.1024779E-02
   maximum displ.:     0.2604961 α      in ANC's #9, #17, #8, ...

........................................................................
.............................. CYCLE   23 ..............................
........................................................................
   1   -143.3779591 -0.143378E+03  0.104E-01    0.00       0.0  T
   2   -143.1305699  0.247389E+00  0.861E-01    0.21       1.0  T
   3   -143.3562771 -0.225707E+00  0.261E-01    0.03       1.0  T
   4   -143.3207378  0.355393E-01  0.410E-01    0.05       1.0  T
   5   -143.3783387 -0.576009E-01  0.982E-03    0.00       1.2  T
   6   -143.3783400 -0.139060E-05  0.817E-03    0.00       1.4  T
   7   -143.3779300  0.410026E-03  0.349E-02    0.00       1.0  T
   8   -143.3777563  0.173679E-03  0.416E-02    0.01       1.0  T
   9   -143.3781154 -0.359050E-03  0.259E-02    0.00       1.0  T
  10   -143.3783270 -0.211578E-03  0.751E-03    0.00       1.5  T
  11   -143.3783444 -0.174610E-04  0.185E-03    0.00       6.1  T
  12   -143.3783440  0.404849E-06  0.209E-03    0.00       5.4  T
  13   -143.3783453 -0.129020E-05  0.596E-04    0.00      19.0  T
  14   -143.3783451  0.238432E-06  0.970E-04    0.00      11.7  T
  15   -143.3783450  0.490246E-07  0.103E-03    0.00      11.0  T
  16   -143.3783451 -0.100326E-06  0.851E-04    0.00      13.3  T
     SCC iter.                  ...        0 min,  0.188 sec
     gradient                   ...        0 min,  0.078 sec
 * total energy  :  -140.8696212 Eh     change       -0.6732951E-03 Eh
   gradient norm :     0.0093855 Eh/α   predicted    -0.5846267E-03 ( -13.17%)
   displ. norm   :     0.3655404 α      lambda       -0.6919040E-03
   maximum displ.:     0.2510557 α      in ANC's #9, #8, #17, ...

........................................................................
.............................. CYCLE   24 ..............................
........................................................................
   1   -143.3777170 -0.143378E+03  0.116E-01    0.00       0.0  T
   2   -143.2240342  0.153683E+00  0.677E-01    0.10       1.0  T
   3   -143.3214781 -0.974439E-01  0.413E-01    0.05       1.0  T
   4   -143.3693200 -0.478419E-01  0.158E-01    0.02       1.0  T
   5   -143.3773812 -0.806116E-02  0.366E-02    0.00       1.0  T
   6   -143.3778167 -0.435488E-03  0.647E-03    0.00       1.8  T
   7   -143.3778029  0.137629E-04  0.760E-03    0.00       1.5  T
   8   -143.3777781  0.248193E-04  0.112E-02    0.00       1.0  T
   9   -143.3777781 -0.580898E-07  0.111E-02    0.00       1.0  T
  10   -143.3778166 -0.384714E-04  0.290E-03    0.00       3.9  T
  11   -143.3778165  0.672135E-07  0.296E-03    0.00       3.8  T
  12   -143.3778190 -0.244241E-05  0.115E-03    0.00       9.9  T
  13   -143.3778175  0.146933E-05  0.238E-03    0.00       4.8  T
  14   -143.3778193 -0.178417E-05  0.554E-04    0.00      20.4  T
  15   -143.3778188  0.480854E-06  0.131E-03    0.00       8.6  T
  16   -143.3778194 -0.556311E-06  0.254E-04    0.00      44.6  T
  17   -143.3778194 -0.736523E-08  0.206E-04    0.00      55.1  T
     SCC iter.                  ...        0 min,  0.201 sec
     gradient                   ...        0 min,  0.078 sec
 * total energy  :  -140.8700640 Eh     change       -0.4428181E-03 Eh
   gradient norm :     0.0132213 Eh/α   predicted    -0.3921813E-03 ( -11.44%)
   displ. norm   :     0.3244501 α      lambda       -0.6122583E-03
   maximum displ.:     0.2273116 α      in ANC's #9, #8, #17, ...

........................................................................
.............................. CYCLE   25 ..............................
........................................................................
   1   -143.3812557 -0.143381E+03  0.727E-02    0.00       0.0  T
   2   -143.3052405  0.760151E-01  0.475E-01    0.06       1.0  T
   3   -143.3679610 -0.627204E-01  0.202E-01    0.02       1.0  T
   4   -143.3812705 -0.133095E-01  0.124E-02    0.00       1.0  T
   5   -143.3812797 -0.922971E-05  0.814E-03    0.00       1.4  T
   6   -143.3812927 -0.129853E-04  0.390E-03    0.00       2.9  T
   7   -143.3812699  0.227483E-04  0.854E-03    0.00       1.3  T
   8   -143.3812917 -0.217524E-04  0.265E-03    0.00       4.3  T
   9   -143.3812928 -0.112821E-05  0.154E-03    0.00       7.3  T
  10   -143.3812934 -0.579727E-06  0.512E-04    0.00      22.1  T
  11   -143.3812934 -0.332235E-07  0.329E-04    0.00      34.4  T
     SCC iter.                  ...        0 min,  0.129 sec
     gradient                   ...        0 min,  0.078 sec
 * total energy  :  -140.8705780 Eh     change       -0.5139494E-03 Eh
   gradient norm :     0.0101657 Eh/α   predicted    -0.3383550E-03 ( -34.17%)
   displ. norm   :     0.4348492 α      lambda       -0.7796790E-03
   maximum displ.:     0.3083015 α      in ANC's #9, #8, #5, ...

........................................................................
.............................. CYCLE   26 ..............................
........................................................................
   1   -143.3856468 -0.143386E+03  0.119E-01    0.01       0.0  T
   2   -143.1099547  0.275692E+00  0.928E-01    0.42       1.0  T
   3   -143.3871962 -0.277242E+00  0.571E-02    0.00       1.0  T
   4   -143.3569227  0.302735E-01  0.301E-01    0.04       1.0  T
   5   -143.3759711 -0.190484E-01  0.182E-01    0.02       1.0  T
   6   -143.3867119 -0.107408E-01  0.381E-02    0.00       1.0  T
   7   -143.3854201  0.129184E-02  0.723E-02    0.01       1.0  T
   8   -143.3871381 -0.171798E-02  0.141E-02    0.00       1.0  T
   9   -143.3871880 -0.499169E-04  0.646E-03    0.00       1.8  T
  10   -143.3870373  0.150704E-03  0.220E-02    0.00       1.0  T
  11   -143.3871791 -0.141840E-03  0.814E-03    0.00       1.4  T
  12   -143.3872011 -0.219382E-04  0.142E-03    0.00       8.0  T
  13   -143.3872017 -0.668329E-06  0.217E-04    0.00      52.1  T
  14   -143.3872016  0.172633E-06  0.731E-04    0.00      15.5  T
     SCC iter.                  ...        0 min,  0.163 sec
     gradient                   ...        0 min,  0.078 sec
 * total energy  :  -140.8711183 Eh     change       -0.5402724E-03 Eh
   gradient norm :     0.0050691 Eh/α   predicted    -0.4635587E-03 ( -14.20%)
   displ. norm   :     0.4476801 α      lambda       -0.6355805E-03
   maximum displ.:     0.3210751 α      in ANC's #9, #8, #5, ...

........................................................................
.............................. CYCLE   27 ..............................
........................................................................
   1   -143.3879844 -0.143388E+03  0.135E-01    0.01       0.0  T
   2   -143.1000842  0.287900E+00  0.963E-01    0.54       1.0  T
   3   -143.3765996 -0.276515E+00  0.213E-01    0.03       1.0  T
   4   -143.1716247  0.204975E+00  0.813E-01    0.16       1.0  T
   5   -143.3528702 -0.181245E+00  0.332E-01    0.04       1.0  T
   6   -143.3544384 -0.156820E-02  0.327E-01    0.04       1.0  T
   7   -143.3907781 -0.363397E-01  0.245E-02    0.00       1.0  T
   8   -143.3909277 -0.149600E-03  0.133E-02    0.00       1.0  T
   9   -143.3907708  0.156848E-03  0.250E-02    0.00       1.0  T
  10   -143.3909558 -0.184997E-03  0.827E-03    0.00       1.4  T
  11   -143.3909539  0.191268E-05  0.872E-03    0.00       1.3  T
  12   -143.3909725 -0.186421E-04  0.439E-03    0.00       2.6  T
  13   -143.3909718  0.712964E-06  0.448E-03    0.00       2.5  T
  14   -143.3909749 -0.307619E-05  0.335E-03    0.00       3.4  T
  15   -143.3909786 -0.369086E-05  0.669E-04    0.00      16.9  T
  16   -143.3909786  0.136909E-07  0.703E-04    0.00      16.1  T
  17   -143.3909787 -0.943024E-07  0.459E-04    0.00      24.7  T
     SCC iter.                  ...        0 min,  0.198 sec
     gradient                   ...        0 min,  0.078 sec
 * total energy  :  -140.8715041 Eh     change       -0.3858971E-03 Eh
   gradient norm :     0.0086200 Eh/α   predicted    -0.3814815E-03 (  -1.14%)
   displ. norm   :     0.3395963 α      lambda       -0.3833550E-03
   maximum displ.:     0.2435405 α      in ANC's #9, #8, #5, ...

........................................................................
.............................. CYCLE   28 ..............................
........................................................................
   1   -143.3894775 -0.143389E+03  0.785E-02    0.01       0.0  T
   2   -143.1242388  0.265239E+00  0.898E-01    0.30       1.0  T
   3   -143.3901121 -0.265873E+00  0.416E-02    0.00       1.0  T
   4   -143.3898550  0.257087E-03  0.362E-02    0.00       1.0  T
   5   -143.3902038 -0.348873E-03  0.146E-02    0.00       1.0  T
   6   -143.3902313 -0.274388E-04  0.846E-03    0.00       1.3  T
   7   -143.3902301  0.117639E-05  0.859E-03    0.00       1.3  T
   8   -143.3901335  0.966026E-04  0.188E-02    0.00       1.0  T
   9   -143.3902353 -0.101741E-03  0.750E-03    0.00       1.5  T
  10   -143.3902534 -0.181018E-04  0.178E-03    0.00       6.4  T
  11   -143.3902511  0.222051E-05  0.310E-03    0.00       3.7  T
  12   -143.3902543 -0.320021E-05  0.494E-04    0.00      22.9  T
  13   -143.3902543  0.511133E-07  0.622E-04    0.00      18.2  T
  14   -143.3902544 -0.808572E-07  0.384E-04    0.00      29.5  T
     SCC iter.                  ...        0 min,  0.164 sec
     gradient                   ...        0 min,  0.078 sec
 * total energy  :  -140.8718382 Eh     change       -0.3340419E-03 Eh
   gradient norm :     0.0068999 Eh/α   predicted    -0.2137856E-03 ( -36.00%)
   displ. norm   :     0.3774493 α      lambda       -0.4231172E-03
   maximum displ.:     0.2693767 α      in ANC's #9, #8, #5, ...

........................................................................
.............................. CYCLE   29 ..............................
........................................................................
   1   -143.3888996 -0.143389E+03  0.826E-02    0.01       0.0  T
   2   -143.1219515  0.266948E+00  0.902E-01    0.31       1.0  T
   3   -143.3895515 -0.267600E+00  0.443E-02    0.00       1.0  T
   4   -143.3894583  0.931620E-04  0.301E-02    0.00       1.0  T
   5   -143.3897159 -0.257583E-03  0.790E-03    0.00       1.4  T
   6   -143.3896852  0.307286E-04  0.105E-02    0.00       1.1  T
   7   -143.3897002 -0.149827E-04  0.807E-03    0.00       1.4  T
   8   -143.3896332  0.669706E-04  0.161E-02    0.00       1.0  T
   9   -143.3897199 -0.867314E-04  0.248E-03    0.00       4.6  T
  10   -143.3897216 -0.164878E-05  0.104E-03    0.00      10.9  T
  11   -143.3897219 -0.316887E-06  0.390E-04    0.00      29.1  T
  12   -143.3897217  0.190204E-06  0.831E-04    0.00      13.6  T
     SCC iter.                  ...        0 min,  0.142 sec
     gradient                   ...        0 min,  0.078 sec
 * total energy  :  -140.8721942 Eh     change       -0.3559661E-03 Eh
   gradient norm :     0.0035631 Eh/α   predicted    -0.2416997E-03 ( -32.10%)
   displ. norm   :     0.4500162 α      lambda       -0.3945134E-03
   maximum displ.:     0.3158408 α      in ANC's #9, #8, #5, ...

........................................................................
.............................. CYCLE   30 ..............................
........................................................................
   1   -143.3877986 -0.143388E+03  0.925E-02    0.01       0.0  T
   2   -143.1163032  0.271495E+00  0.913E-01    0.34       1.0  T
   3   -143.3887497 -0.272447E+00  0.454E-02    0.00       1.0  T
   4   -143.3858399  0.290983E-02  0.957E-02    0.01       1.0  T
   5   -143.3872280 -0.138813E-02  0.693E-02    0.01       1.0  T
   6   -143.3886808 -0.145277E-02  0.205E-02    0.00       1.0  T
   7   -143.3886159  0.648907E-04  0.247E-02    0.00       1.0  T
   8   -143.3888077 -0.191861E-03  0.666E-03    0.00       1.7  T
   9   -143.3887974  0.103621E-04  0.855E-03    0.00       1.3  T
  10   -143.3887999 -0.251982E-05  0.810E-03    0.00       1.4  T
  11   -143.3888208 -0.209046E-04  0.211E-03    0.00       5.4  T
  12   -143.3888218 -0.984297E-06  0.125E-03    0.00       9.1  T
  13   -143.3888221 -0.304196E-06  0.817E-04    0.00      13.9  T
  14   -143.3888223 -0.180554E-06  0.364E-04    0.00      31.1  T
     SCC iter.                  ...        0 min,  0.168 sec
     gradient                   ...        0 min,  0.078 sec
 * total energy  :  -140.8725299 Eh     change       -0.3357654E-03 Eh
   gradient norm :     0.0043513 Eh/α   predicted    -0.2372052E-03 ( -29.35%)
   displ. norm   :     0.5003934 α      lambda       -0.3629683E-03
   maximum displ.:     0.3463201 α      in ANC's #9, #8, #5, ...

........................................................................
.............................. CYCLE   31 ..............................
........................................................................
   1   -143.3868815 -0.143387E+03  0.887E-02    0.00       0.0  T
   2   -143.1377169  0.249165E+00  0.866E-01    0.22       1.0  T
   3   -143.3817108 -0.243994E+00  0.137E-01    0.02       1.0  T
   4   -143.3657836  0.159271E-01  0.251E-01    0.03       1.0  T
   5   -143.3855462 -0.197626E-01  0.719E-02    0.01       1.0  T
   6   -143.3872912 -0.174492E-02  0.423E-03    0.00       2.7  T
   7   -143.3870773  0.213874E-03  0.252E-02    0.00       1.0  T
   8   -143.3872852 -0.207858E-03  0.481E-03    0.00       2.4  T
   9   -143.3871894  0.957586E-04  0.174E-02    0.00       1.0  T
  10   -143.3872547 -0.653048E-04  0.105E-02    0.00       1.1  T
  11   -143.3872924 -0.377103E-04  0.650E-04    0.00      17.4  T
  12   -143.3872876  0.479532E-05  0.381E-03    0.00       3.0  T
  13   -143.3872923 -0.473622E-05  0.731E-04    0.00      15.5  T
  14   -143.3872922  0.179351E-06  0.102E-03    0.00      11.1  T
  15   -143.3872925 -0.348001E-06  0.100E-04    0.00     113.1  T
  16   -143.3872924  0.136194E-06  0.636E-04    0.00      17.8  T
     SCC iter.                  ...        0 min,  0.190 sec
     gradient                   ...        0 min,  0.078 sec
 * total energy  :  -140.8728366 Eh     change       -0.3066284E-03 Eh
   gradient norm :     0.0053052 Eh/α   predicted    -0.2269272E-03 ( -25.99%)
   displ. norm   :     0.5325796 α      lambda       -0.3199661E-03
   maximum displ.:     0.3683028 α      in ANC's #9, #8, #5, ...

........................................................................
.............................. CYCLE   32 ..............................
........................................................................
   1   -143.3862390 -0.143386E+03  0.865E-02    0.00       0.0  T
   2   -143.3759248  0.103142E-01  0.182E-01    0.02       1.0  T
   3   -143.2399431  0.135982E+00  0.659E-01    0.10       1.0  T
   4   -143.3829360 -0.142993E+00  0.990E-02    0.01       1.0  T
   5   -143.3859404 -0.300444E-02  0.302E-02    0.00       1.0  T
   6   -143.3861979 -0.257461E-03  0.124E-02    0.00       1.0  T
   7   -143.3862318 -0.338991E-04  0.680E-03    0.00       1.7  T
   8   -143.3862387 -0.689108E-05  0.473E-03    0.00       2.4  T
   9   -143.3862451 -0.642319E-05  0.128E-03    0.00       8.9  T
  10   -143.3862448  0.305375E-06  0.142E-03    0.00       8.0  T
  11   -143.3862451 -0.368666E-06  0.929E-04    0.00      12.2  T
  12   -143.3862453 -0.177328E-06  0.538E-04    0.00      21.0  T
     SCC iter.                  ...        0 min,  0.140 sec
     gradient                   ...        0 min,  0.078 sec
 * total energy  :  -140.8730942 Eh     change       -0.2576560E-03 Eh
   gradient norm :     0.0047144 Eh/α   predicted    -0.2053615E-03 ( -20.30%)
   displ. norm   :     0.5016841 α      lambda       -0.2249938E-03
   maximum displ.:     0.3509994 α      in ANC's #9, #8, #5, ...

........................................................................
.............................. CYCLE   33 ..............................
........................................................................
   1   -143.3860671 -0.143386E+03  0.815E-02    0.00       0.0  T
   2   -143.3858930  0.174183E-03  0.534E-02    0.00       1.0  T
   3   -143.1309755  0.254917E+00  0.875E-01    0.23       1.0  T
   4   -143.3850364 -0.254061E+00  0.555E-02    0.01       1.0  T
   5   -143.3854307 -0.394248E-03  0.437E-02    0.01       1.0  T
   6   -143.3860509 -0.620200E-03  0.825E-03    0.00       1.4  T
   7   -143.3860566 -0.569219E-05  0.657E-03    0.00       1.7  T
   8   -143.3860195  0.370663E-04  0.121E-02    0.00       1.0  T
   9   -143.3860691 -0.495718E-04  0.130E-03    0.00       8.7  T
  10   -143.3860676  0.142895E-05  0.240E-03    0.00       4.7  T
  11   -143.3860693 -0.161157E-05  0.982E-04    0.00      11.5  T
  12   -143.3860696 -0.300318E-06  0.197E-04    0.00      57.3  T
  13   -143.3860695  0.418697E-08  0.196E-04    0.00      57.6  T
     SCC iter.                  ...        0 min,  0.151 sec
     gradient                   ...        0 min,  0.078 sec
 * total energy  :  -140.8732619 Eh     change       -0.1676506E-03 Eh
   gradient norm :     0.0030601 Eh/α   predicted    -0.1408129E-03 ( -16.01%)
   displ. norm   :     0.3802438 α      lambda       -0.1097184E-03
   maximum displ.:     0.2705254 α      in ANC's #9, #8, #5, ...

........................................................................
.............................. CYCLE   34 ..............................
........................................................................
   1   -143.3872517 -0.143387E+03  0.617E-02    0.00       0.0  T
   2   -143.3362710  0.509807E-01  0.389E-01    0.05       1.0  T
   3   -143.3724634 -0.361924E-01  0.212E-01    0.03       1.0  T
   4   -143.3869922 -0.145288E-01  0.293E-02    0.00       1.0  T
   5   -143.3872713 -0.279118E-03  0.483E-03    0.00       2.3  T
   6   -143.3872729 -0.157403E-05  0.354E-03    0.00       3.2  T
   7   -143.3872743 -0.147956E-05  0.200E-03    0.00       5.7  T
   8   -143.3872744 -0.106496E-06  0.137E-03    0.00       8.3  T
   9   -143.3872747 -0.299297E-06  0.576E-04    0.00      19.7  T
  10   -143.3872748 -0.404959E-07  0.196E-04    0.00      57.8  T
     SCC iter.                  ...        0 min,  0.118 sec
     gradient                   ...        0 min,  0.078 sec
 * total energy  :  -140.8733371 Eh     change       -0.7524584E-04 Eh
   gradient norm :     0.0016488 Eh/α   predicted    -0.6279182E-04 ( -16.55%)
   displ. norm   :     0.3105802 α      lambda       -0.3709019E-04
   maximum displ.:     0.2250467 α      in ANC's #9, #5, #8, ...

........................................................................
.............................. CYCLE   35 ..............................
........................................................................
   1   -143.3892608 -0.143389E+03  0.498E-02    0.00       0.0  T
   2   -143.3795606  0.970024E-02  0.171E-01    0.02       1.0  T
   3   -143.3601624  0.193982E-01  0.294E-01    0.04       1.0  T
   4   -143.3892586 -0.290962E-01  0.604E-03    0.00       1.9  T
   5   -143.3892618 -0.318939E-05  0.395E-03    0.00       2.9  T
   6   -143.3892650 -0.326985E-05  0.198E-03    0.00       5.7  T
   7   -143.3892652 -0.209210E-06  0.129E-03    0.00       8.7  T
   8   -143.3892649  0.328954E-06  0.138E-03    0.00       8.2  T
   9   -143.3892650 -0.904411E-07  0.115E-03    0.00       9.8  T
  10   -143.3892654 -0.395026E-06  0.243E-04    0.00      46.6  T
  11   -143.3892654  0.634031E-09  0.203E-04    0.00      55.8  T
     SCC iter.                  ...        0 min,  0.128 sec
     gradient                   ...        0 min,  0.078 sec
 * total energy  :  -140.8733686 Eh     change       -0.3149236E-04 Eh
   gradient norm :     0.0016110 Eh/α   predicted    -0.1934092E-04 ( -38.59%)
   displ. norm   :     0.0781306 α      lambda       -0.1296614E-04
   maximum displ.:     0.0501468 α      in ANC's #9, #5, #14, ...

........................................................................
.............................. CYCLE   36 ..............................
........................................................................
   1   -143.3902022 -0.143390E+03  0.153E-02    0.00       0.0  T
   2   -143.3828016  0.740061E-02  0.148E-01    0.02       1.0  T
   3   -143.3896832 -0.688165E-02  0.402E-02    0.00       1.0  T
   4   -143.3902013 -0.518093E-03  0.375E-03    0.00       3.0  T
   5   -143.3902047 -0.336755E-05  0.179E-03    0.00       6.3  T
   6   -143.3902047  0.132096E-08  0.147E-03    0.00       7.7  T
   7   -143.3902050 -0.346549E-06  0.805E-04    0.00      14.1  T
   8   -143.3902050  0.126462E-07  0.585E-04    0.00      19.4  T
     SCC iter.                  ...        0 min,  0.095 sec
     gradient                   ...        0 min,  0.078 sec
 * total energy  :  -140.8733843 Eh     change       -0.1568875E-04 Eh
   gradient norm :     0.0012687 Eh/α   predicted    -0.6503969E-05 ( -58.54%)
   displ. norm   :     0.1973388 α      lambda       -0.3051433E-04
   maximum displ.:     0.1096762 α      in ANC's #9, #5, #14, ...

........................................................................
.............................. CYCLE   37 ..............................
........................................................................
   1   -143.3907854 -0.143391E+03  0.368E-02    0.00       0.0  T
   2   -143.3396720  0.511134E-01  0.388E-01    0.05       1.0  T
   3   -143.3885956 -0.489236E-01  0.836E-02    0.01       1.0  T
   4   -143.3906853 -0.208974E-02  0.201E-02    0.00       1.0  T
   5   -143.3908059 -0.120540E-03  0.566E-03    0.00       2.0  T
   6   -143.3908013  0.459545E-05  0.544E-03    0.00       2.1  T
   7   -143.3908079 -0.660994E-05  0.200E-03    0.00       5.7  T
   8   -143.3908047  0.322056E-05  0.330E-03    0.00       3.4  T
   9   -143.3908081 -0.339479E-05  0.687E-04    0.00      16.5  T
  10   -143.3908081 -0.125173E-07  0.519E-04    0.00      21.8  T
  11   -143.3908077  0.419757E-06  0.117E-03    0.00       9.7  T
  12   -143.3908081 -0.387392E-06  0.392E-04    0.00      28.9  T
     SCC iter.                  ...        0 min,  0.139 sec
     gradient                   ...        0 min,  0.078 sec
 * total energy  :  -140.8734102 Eh     change       -0.2596513E-04 Eh
   gradient norm :     0.0014675 Eh/α   predicted    -0.1552451E-04 ( -40.21%)
   displ. norm   :     0.1025937 α      lambda       -0.1270823E-04
   maximum displ.:     0.0576755 α      in ANC's #5, #9, #3, ...

........................................................................
.............................. CYCLE   38 ..............................
[...]
    59   6 C       60   6 C                                       1.3840432
    60   6 C       61   6 C                                       1.4379433
    61   6 C       62   6 C                                       1.3526090
    62   6 C       63   6 C                                       1.4377985
    60   6 C       64   7 N                                       1.3567477
    63   6 C       64   7 N                                       1.3569386
    63   6 C       65   6 C                                       1.3836466
    44   6 C       66   6 C                                       1.4352310
    65   6 C       66   6 C                                       1.3834570
    46   6 C       67   7 N                                       1.3521638
    66   6 C       67   7 N                                       1.3608029
    44   6 C       68   1 H                                       1.0728071
    45   6 C       69   1 H                                       1.0728004
    49   6 C       70   1 H                                       1.0727832
    50   6 C       71   1 H                                       1.0728100
    53   6 C       72   1 H                                       1.0805492
    55   6 C       73   1 H                                       1.0730340
    56   6 C       74   1 H                                       1.0729919
    59   6 C       75   1 H                                       1.0803067
    61   6 C       76   1 H                                       1.0730053
    62   6 C       77   1 H                                       1.0730197
    65   6 C       78   1 H                                       1.0805522

 * 3 distinct bonds (by element types)

   Z      Z             #   av. dist./Å        max./Å        min./Å
   1 H    6 C          22     1.0749771     1.0805522     1.0727679
   6 C    6 C          43     1.3881737     1.4379526     1.2199381
   6 C    7 N          16     1.3566818     1.3608441     1.3521638

           -------------------------------------------------
          |               Frequency Printout                |
           -------------------------------------------------
 projected vibrational frequencies (cm⁻¹)
eigval :       -0.00    -0.00    -0.00     0.00     0.00     0.00
eigval :       -2.95     4.66     6.15    13.76    23.32    30.13
eigval :       38.63    38.91    50.85    66.47    75.35    83.60
eigval :       86.61    90.95   112.98   120.55   120.61   129.73
eigval :      137.75   160.29   164.48   164.91   183.11   184.28
eigval :      184.72   193.82   200.35   202.81   208.91   209.74
eigval :      209.82   216.20   217.64   218.38   220.70   228.68
eigval :      259.74   259.88   279.57   301.19   303.28   319.54
eigval :      320.61   345.93   346.92   350.63   352.29   354.16
eigval :      361.48   365.69   366.90   369.17   383.64   384.83
eigval :      387.93   391.03   391.89   391.94   393.25   395.19
eigval :      426.40   426.59   428.16   428.33   457.42   457.62
eigval :      467.78   504.26   504.86   611.82   611.92   617.61
eigval :      617.78   622.34   622.37   642.40   642.44   642.92
eigval :      643.00   651.09   651.13   657.41   657.47   667.92
eigval :      668.18   704.12   717.92   722.96   723.00   725.20
eigval :      757.13   757.20   762.90   769.19   776.82   776.87
eigval :      778.73   779.76   795.96   796.40   797.71   797.79
eigval :      804.97   805.04   810.43   810.58   818.36   818.50
eigval :      826.50   826.60   833.37   833.47   836.91   837.04
eigval :      842.77   842.88   842.98   843.11   843.31   843.40
eigval :      845.31   845.40   898.88   964.22   998.29  1000.61
eigval :     1003.73  1003.82  1020.13  1026.80  1029.07  1029.09
eigval :     1034.38  1034.42  1040.31  1040.46  1043.48  1043.62
eigval :     1066.45  1066.52  1068.36  1068.91  1070.48  1070.73
eigval :     1075.04  1079.18  1082.76  1141.61  1154.54  1154.56
eigval :     1159.27  1172.08  1175.01  1175.05  1180.37  1227.44
eigval :     1227.50  1240.46  1240.65  1280.87  1288.12  1288.21
eigval :     1300.43  1301.89  1301.91  1308.28  1319.85  1319.90
eigval :     1333.30  1333.40  1338.76  1344.48  1344.56  1345.84
eigval :     1366.91  1367.51  1367.53  1367.65  1428.24  1453.24
eigval :     1453.24  1454.19  1471.69  1478.81  1490.14  1503.65
eigval :     1505.60  1510.01  1510.10  1521.21  1521.32  1527.04
eigval :     1531.45  1536.89  1536.97  1551.85  1553.27  1559.40
eigval :     1559.50  1569.28  1570.12  1602.97  1603.13  2159.09
eigval :     2204.02  2264.58  3084.17  3084.18  3084.24  3084.31
eigval :     3086.43  3086.56  3148.04  3148.28  3148.40  3148.62
eigval :     3152.31  3152.62  3152.66  3152.80  3161.78  3161.99
eigval :     3162.02  3162.44  3166.14  3166.63  3166.78  3167.06
 reduced masses (amu)
   1: 14.03   2: 18.77   3: 19.99   4: 19.95   5: 19.57   6: 18.50   7: 11.25   8: 11.67
   9: 11.58  10: 11.93  11: 12.46  12: 11.78  13: 10.93  14: 10.93  15: 11.40  16: 21.25
  17: 19.59  18: 33.13  19: 25.01  20: 12.68  21: 11.04  22: 10.80  23: 10.80  24: 11.37
  25: 12.59  26: 12.35  27: 12.09  28: 12.11  29: 15.27  30: 11.87  31: 11.89  32: 11.98
  33: 25.89  34: 17.61  35: 30.00  36: 12.57  37: 12.58  38: 27.84  39: 49.43  40: 51.22
  41: 48.58  42: 36.86  43: 10.46  44: 10.46  45: 13.43  46: 12.62  47: 11.82  48: 12.32
  49: 12.20  50: 12.00  51: 12.00  52: 12.02  53: 10.62  54: 10.96  55: 11.81  56: 12.60
  57: 12.60  58: 12.24  59: 12.07  60: 13.24  61: 13.11  62: 12.14  63:  9.95  64:  9.99
  65: 12.12  66: 12.03  67:  9.97  68:  9.94  69: 10.28  70: 10.25  71: 11.81  72: 11.81
  73: 11.86  74: 11.62  75: 11.62  76: 11.17  77: 11.17  78: 10.91  79: 10.91  80: 10.92
  81: 10.92  82: 10.79  83: 10.80  84: 11.20  85: 11.20  86: 11.13  87: 11.13  88: 11.32
  89: 11.32  90: 11.40  91: 11.40  92: 11.68  93: 11.12  94: 10.97  95: 10.97  96: 11.04
  97: 11.19  98: 11.19  99: 11.27 100: 11.38 101: 11.39 102: 11.39 103: 11.08 104: 11.03
 105: 11.76 106: 11.76 107:  3.75 108:  3.75 109:  3.90 110:  3.89 111:  4.01 112:  4.00
 113:  4.34 114:  4.33 115:  3.83 116:  3.83 117:  3.82 118:  3.83 119:  4.07 120:  4.08
 121:  3.49 122:  3.49 123:  3.44 124:  3.44 125:  3.43 126:  3.43 127:  3.53 128:  3.53
 129: 11.40 130: 11.52 131: 11.41 132: 11.81 133: 11.85 134: 11.84 135: 11.40 136: 10.87
 137:  7.32 138:  7.32 139: 10.67 140: 10.65 141:  8.85 142:  8.84 143:  9.17 144:  9.18
 145:  1.61 146:  1.61 147:  1.85 148:  1.90 149:  1.89 150:  1.89 151:  2.54 152:  3.04
 153:  9.47 154:  5.61 155:  5.46 156:  5.46 157:  6.36 158:  6.37 159:  7.05 160:  7.06
 161:  7.26 162:  8.81 163:  8.81 164:  8.78 165:  8.47 166: 12.01 167:  9.64 168:  9.63
 169: 10.84 170:  9.94 171:  9.93 172: 10.84 173: 11.50 174: 11.51 175: 11.61 176: 11.81
 177: 12.01 178:  9.59 179:  9.59 180: 12.09 181:  9.55 182:  9.20 183:  9.20 184:  9.63
 185: 11.65 186: 11.49 187: 11.49 188: 11.50 189: 11.62 190: 11.75 191: 11.82 192: 11.75
 193: 11.79 194: 11.47 195: 11.47 196: 11.82 197: 11.82 198: 11.73 199: 11.79 200: 11.68
 201: 11.68 202: 11.61 203: 11.62 204: 11.59 205: 11.58 206: 11.61 207: 11.61 208: 11.77
 209: 11.78 210: 12.01 211: 12.01 212: 12.01 213:  1.81 214:  1.81 215:  1.81 216:  1.81
 217:  1.81 218:  1.81 219:  1.81 220:  1.81 221:  1.81 222:  1.81 223:  1.81 224:  1.81
 225:  1.81 226:  1.81 227:  1.98 228:  1.98 229:  1.98 230:  1.98 231:  1.97 232:  1.97
 233:  1.97 234:  1.97
 IR intensities (km·mol⁻¹)
   1: 52.34   2:******   3:******   4:446.75   5:534.12   6:******   7:  5.02   8: 73.61
   9:  0.91  10: 43.64  11: 28.73  12: 28.70  13:  5.57  14:  0.46  15: 36.97  16:  1.84
  17:  9.64  18: 23.88  19:  5.20  20:  4.17  21:  1.43  22:  0.08  23:  0.01  24: 10.85
  25:******  26: 91.04  27: 11.33  28:  7.96  29:  0.01  30:  1.46  31:  1.44  32: 36.37
  33:  6.25  34:107.10  35: 55.34  36: 27.31  37: 16.97  38:127.93  39:186.20  40:  2.59
  41:  3.26  42:  0.00  43:  0.65  44:  1.16  45:  7.85  46: 30.71  47:416.74  48:  3.06
  49:  4.26  50:  6.18  51:  0.97  52:  1.96  53:  7.11  54:  0.31  55:587.21  56:  7.22
  57:  0.64  58:  1.62  59:  3.78  60:213.29  61:  0.30  62:  9.34  63:  0.13  64:  1.29
  65: 43.54  66:  5.64  67: 59.95  68:  8.95  69:367.71  70:901.35  71: 14.99  72:  1.39
  73:******  74: 87.59  75:  4.83  76: 22.05  77:  5.47  78:  3.20  79:  0.59  80: 16.04
  81:  0.05  82:  3.56  83: 49.63  84:  0.26  85:  2.47  86:  4.47  87:  1.53  88:242.15
  89:******  90: 46.24  91:  7.14  92:  0.08  93:******  94:  3.66  95:  2.78  96:  0.10
  97:  0.29  98:  7.46  99: 31.79 100:  0.04 101:  2.20 102:  2.95 103:392.53 104:  0.74
 105:  1.77 106:  6.95 107:182.46 108: 26.54 109:  0.36 110:  2.71 111: 65.23 112: 11.54
 113:  0.04 114:  0.14 115: 56.68 116: 15.95 117:  0.60 118:  0.91 119:217.38 120:165.31
 121:  0.17 122: 27.72 123: 16.02 124:  5.34 125:  0.01 126:  0.07 127:241.91 128:  1.66
 129:524.67 130:  0.11 131:****** 132:  0.18 133: 22.49 134:149.43 135:419.11 136:  0.18
 137: 16.73 138:  0.38 139: 22.90 140: 15.66 141:642.34 142:  3.04 143: 11.63 144: 19.10
 145:  1.09 146:  5.33 147: 32.59 148:  0.14 149:  2.57 150: 38.65 151:  0.41 152:******
 153:****** 154:  0.02 155: 22.29 156:  1.94 157:****** 158:  0.15 159: 25.15 160:  2.52
 161:617.26 162: 14.46 163: 13.66 164:  1.40 165:  0.70 166:  0.01 167:  8.18 168: 38.72
 169:387.95 170:  8.77 171:  3.99 172:  0.08 173:  2.73 174:  8.76 175:  1.45 176:******
 177:****** 178: 22.70 179:  0.95 180:  0.09 181:190.79 182:  0.55 183:  0.21 184:  0.07
 185: 86.63 186:  1.62 187: 10.91 188:  0.06 189: 82.37 190:  0.03 191: 12.00 192:  0.16
 193:707.45 194:  0.01 195:  0.02 196:  1.82 197:  3.96 198:  0.40 199:232.23 200: 16.23
 201: 48.67 202:****** 203:  2.77 204:  3.51 205:  1.32 206: 95.62 207:  0.32 208:  0.72
 209:  0.46 210:  0.26 211:  0.02 212:362.53 213:****** 214:****** 215:850.98 216:******
 217:925.60 218:662.00 219:  3.65 220: 10.25 221:  4.68 222:  1.53 223:****** 224:******
 225:****** 226:****** 227: 34.22 228:292.51 229: 24.02 230: 26.58 231: 43.64 232: 49.45
 233:151.63 234:  1.68
 Raman intensities (amu)
   1:  0.00   2:  0.00   3:  0.00   4:  0.00   5:  0.00   6:  0.00   7:  0.00   8:  0.00
   9:  0.00  10:  0.00  11:  0.00  12:  0.00  13:  0.00  14:  0.00  15:  0.00  16:  0.00
  17:  0.00  18:  0.00  19:  0.00  20:  0.00  21:  0.00  22:  0.00  23:  0.00  24:  0.00
  25:  0.00  26:  0.00  27:  0.00  28:  0.00  29:  0.00  30:  0.00  31:  0.00  32:  0.00
  33:  0.00  34:  0.00  35:  0.00  36:  0.00  37:  0.00  38:  0.00  39:  0.00  40:  0.00
  41:  0.00  42:  0.00  43:  0.00  44:  0.00  45:  0.00  46:  0.00  47:  0.00  48:  0.00
  49:  0.00  50:  0.00  51:  0.00  52:  0.00  53:  0.00  54:  0.00  55:  0.00  56:  0.00
  57:  0.00  58:  0.00  59:  0.00  60:  0.00  61:  0.00  62:  0.00  63:  0.00  64:  0.00
  65:  0.00  66:  0.00  67:  0.00  68:  0.00  69:  0.00  70:  0.00  71:  0.00  72:  0.00
  73:  0.00  74:  0.00  75:  0.00  76:  0.00  77:  0.00  78:  0.00  79:  0.00  80:  0.00
  81:  0.00  82:  0.00  83:  0.00  84:  0.00  85:  0.00  86:  0.00  87:  0.00  88:  0.00
  89:  0.00  90:  0.00  91:  0.00  92:  0.00  93:  0.00  94:  0.00  95:  0.00  96:  0.00
  97:  0.00  98:  0.00  99:  0.00 100:  0.00 101:  0.00 102:  0.00 103:  0.00 104:  0.00
 105:  0.00 106:  0.00 107:  0.00 108:  0.00 109:  0.00 110:  0.00 111:  0.00 112:  0.00
 113:  0.00 114:  0.00 115:  0.00 116:  0.00 117:  0.00 118:  0.00 119:  0.00 120:  0.00
 121:  0.00 122:  0.00 123:  0.00 124:  0.00 125:  0.00 126:  0.00 127:  0.00 128:  0.00
 129:  0.00 130:  0.00 131:  0.00 132:  0.00 133:  0.00 134:  0.00 135:  0.00 136:  0.00
 137:  0.00 138:  0.00 139:  0.00 140:  0.00 141:  0.00 142:  0.00 143:  0.00 144:  0.00
 145:  0.00 146:  0.00 147:  0.00 148:  0.00 149:  0.00 150:  0.00 151:  0.00 152:  0.00
 153:  0.00 154:  0.00 155:  0.00 156:  0.00 157:  0.00 158:  0.00 159:  0.00 160:  0.00
 161:  0.00 162:  0.00 163:  0.00 164:  0.00 165:  0.00 166:  0.00 167:  0.00 168:  0.00
 169:  0.00 170:  0.00 171:  0.00 172:  0.00 173:  0.00 174:  0.00 175:  0.00 176:  0.00
 177:  0.00 178:  0.00 179:  0.00 180:  0.00 181:  0.00 182:  0.00 183:  0.00 184:  0.00
 185:  0.00 186:  0.00 187:  0.00 188:  0.00 189:  0.00 190:  0.00 191:  0.00 192:  0.00
 193:  0.00 194:  0.00 195:  0.00 196:  0.00 197:  0.00 198:  0.00 199:  0.00 200:  0.00
 201:  0.00 202:  0.00 203:  0.00 204:  0.00 205:  0.00 206:  0.00 207:  0.00 208:  0.00
 209:  0.00 210:  0.00 211:  0.00 212:  0.00 213:  0.00 214:  0.00 215:  0.00 216:  0.00
Refinement of some symmetry elements was terminated before convergence was reached.
Some symmetry elements may remain unidentified.
Molecule has no symmetry elements
It seems to be the C1 point group
 217:  0.00 218:  0.00 219:  0.00 220:  0.00 221:  0.00 222:  0.00 223:  0.00 224:  0.00
 225:  0.00 226:  0.00 227:  0.00 228:  0.00 229:  0.00 230:  0.00 231:  0.00 232:  0.00
 233:  0.00 234:  0.00
 output can be read by thermo (or use thermo option).
 writing <g98.out> molden fake output.
 recommended (thermochemical) frequency scaling factor: 1.0
           -------------------------------------------------
          |             Thermodynamic Functions             |
           -------------------------------------------------

c1  symmetry found (for desy threshold:  0.10E+00) used in thermo
 inverting freq            1   2.9501745429873463     

          ...................................................
          :                      SETUP                      :
          :.................................................:
          :  # frequencies                         228      :
          :  # imaginary freq.                       0      :
          :  linear?                             false      :
          :  only rotor calc.                    false      :
          :  symmetry                               c1      :
          :  rotational number                       1      :
          :  scaling factor                  1.0000000      :
          :  rotor cutoff                   50.0000000 cm⁻¹ :
          :  imag. cutoff                  -20.0000000 cm⁻¹ :
          :.................................................:

    mode    ω/cm⁻¹     T·S(HO)/kcal·mol⁻¹    T·S(FR)/kcal·mol⁻¹   T·S(vib)
   ------------------------------------------------------------------------
       1      2.95    -3.11170 (  0.00%)    -1.89492 (100.00%)    -1.89493
       2      4.66    -2.84083 (  0.01%)    -1.75950 ( 99.99%)    -1.75958
       3      6.15    -2.67672 (  0.02%)    -1.67744 ( 99.98%)    -1.67767
       4     13.76    -2.19941 (  0.57%)    -1.43876 ( 99.43%)    -1.44310
       5     23.32    -1.88714 (  4.52%)    -1.28253 ( 95.48%)    -1.30983
       6     30.13    -1.73542 ( 11.65%)    -1.20656 ( 88.35%)    -1.26820
       7     38.63    -1.58855 ( 26.27%)    -1.13296 ( 73.73%)    -1.25266
       8     38.91    -1.58428 ( 26.84%)    -1.13082 ( 73.16%)    -1.25252
       9     50.85    -1.42641 ( 51.68%)    -1.05158 ( 48.32%)    -1.24528
      10     66.47    -1.26869 ( 75.75%)    -0.97219 ( 24.25%)    -1.19679
      11     75.35    -1.19512 ( 83.76%)    -0.93505 ( 16.24%)    -1.15289
      12     83.60    -1.13433 ( 88.66%)    -0.90428 ( 11.34%)    -1.10823
      13     86.61    -1.11367 ( 90.00%)    -0.89380 ( 10.00%)    -1.09169
      14     90.95    -1.08514 ( 91.63%)    -0.87932 (  8.37%)    -1.06791
      15    112.98    -0.95914 ( 96.31%)    -0.81505 (  3.69%)    -0.95382
      16    120.55    -0.92176 ( 97.13%)    -0.79585 (  2.87%)    -0.91814
      17    120.61    -0.92144 ( 97.13%)    -0.79569 (  2.87%)    -0.91783
      18    129.73    -0.87955 ( 97.84%)    -0.77410 (  2.16%)    -0.87728
      19    137.75    -0.84522 ( 98.29%)    -0.75633 (  1.71%)    -0.84371
      20    160.29    -0.75918 ( 99.06%)    -0.71143 (  0.94%)    -0.75873
      21    164.48    -0.74467 ( 99.15%)    -0.70380 (  0.85%)    -0.74433
      22    164.91    -0.74319 ( 99.16%)    -0.70301 (  0.84%)    -0.74285
      23    183.11    -0.68468 ( 99.45%)    -0.67200 (  0.55%)    -0.68461
      24    184.28    -0.68116 ( 99.46%)    -0.67012 (  0.54%)    -0.68110
      25    184.72    -0.67982 ( 99.47%)    -0.66941 (  0.53%)    -0.67977
      26    193.82    -0.65324 ( 99.56%)    -0.65517 (  0.44%)    -0.65325
      27    200.35    -0.63502 ( 99.61%)    -0.64535 (  0.39%)    -0.63506
      28    202.81    -0.62834 ( 99.63%)    -0.64174 (  0.37%)    -0.62839
      29    208.91    -0.61216 ( 99.67%)    -0.63296 (  0.33%)    -0.61223
      30    209.74    -0.60998 ( 99.68%)    -0.63178 (  0.32%)    -0.61005
      31    209.82    -0.60977 ( 99.68%)    -0.63166 (  0.32%)    -0.60985
      32    216.20    -0.59353 ( 99.71%)    -0.62280 (  0.29%)    -0.59362
      33    217.64    -0.58993 ( 99.72%)    -0.62083 (  0.28%)    -0.59001
      34    218.38    -0.58809 ( 99.73%)    -0.61982 (  0.27%)    -0.58818
      35    220.70    -0.58238 ( 99.74%)    -0.61669 (  0.26%)    -0.58247
      36    228.68    -0.56328 ( 99.77%)    -0.60617 (  0.23%)    -0.56338
      37    259.74    -0.49598 ( 99.86%)    -0.56845 (  0.14%)    -0.49608
      38    259.88    -0.49569 ( 99.86%)    -0.56828 (  0.14%)    -0.49579
      39    279.57    -0.45804 ( 99.90%)    -0.54665 (  0.10%)    -0.45813
   ------------------------------------------------------------------------

   temp. (K)  partition function   enthalpy   heat capacity  entropy
                                   cal/mol     cal/K/mol   cal/K/mol   J/K/mol
 298.15  VIB  0.360E+22            26704.353    173.505    167.607
         ROT  0.249E+09              888.752      2.981     41.402
         INT  0.897E+30            27593.106    176.486    209.009
         TR   0.225E+29             1481.254      4.968     45.947
         TOT                       29074.3597   181.4539   254.9554  1066.7332

       T/K    H(0)-H(T)+PV         H(T)/Eh          T*S/Eh         G(T)/Eh
   ------------------------------------------------------------------------
    298.15    0.463329E-01    0.583631E+00    0.121138E+00    0.462493E+00
   ------------------------------------------------------------------------

         :::::::::::::::::::::::::::::::::::::::::::::::::::::
         ::                  THERMODYNAMIC                  ::
         :::::::::::::::::::::::::::::::::::::::::::::::::::::
         :: total free energy        -140.411013667370 Eh   ::
         ::.................................................::
         :: total energy             -140.873506793317 Eh   ::
         :: zero point energy           0.537297701229 Eh   ::
         :: G(RRHO) w/o ZPVE           -0.074804575281 Eh   ::
         :: G(RRHO) contrib.            0.462493125947 Eh   ::
         :::::::::::::::::::::::::::::::::::::::::::::::::::::

optimized geometry written to: xtbopt.xyz


           -------------------------------------------------
          | TOTAL ENERGY             -140.873506793317 Eh   |
          | TOTAL ENTHALPY           -140.289876150648 Eh   |
          | TOTAL FREE ENERGY        -140.411013667370 Eh   |
          | GRADIENT NORM               0.000583071042 Eh/α |
          | HOMO-LUMO GAP               0.000022393660 eV   |
           -------------------------------------------------

------------------------------------------------------------------------
 * finished run on 2021/11/19 at 10:54:07.358     
------------------------------------------------------------------------
 total:
 * wall-time:     0 d,  0 h,  1 min, 41.601 sec
 *  cpu-time:     0 d,  0 h,  1 min, 41.603 sec
 * ratio c/w:     1.000 speedup
 SCF:
 * wall-time:     0 d,  0 h,  0 min,  0.497 sec
 *  cpu-time:     0 d,  0 h,  0 min,  0.497 sec
 * ratio c/w:     1.000 speedup
 ANC optimizer:
 * wall-time:     0 d,  0 h,  0 min, 13.219 sec
 *  cpu-time:     0 d,  0 h,  0 min, 13.219 sec
 * ratio c/w:     1.000 speedup
 analytical hessian:
 * wall-time:     0 d,  0 h,  1 min, 27.815 sec
 *  cpu-time:     0 d,  0 h,  1 min, 27.816 sec
 * ratio c/w:     1.000 speedup

