78
 energy: -140.156351652180 gnorm: 1.583412385756 xtb: 6.4.1 (bd6e46d)
Cu        6.92102300000000    0.02323200000000   -0.00510600000000
C         9.25001400000000   -3.12356100000000    1.31758300000000
C        10.16612100000000   -2.17935300000000    1.26730100000000
C         9.75494200000000   -1.12544900000000    0.34600900000000
C        10.37381200000000   -0.00110300000000   -0.00040100000000
C         9.66977000000000    1.21884500000000   -0.36450600000000
C         9.99788000000000    2.17890000000000   -1.21197900000000
C         8.96310100000000    3.19518500000000   -1.22887700000000
C         8.02683300000000    2.81872300000000   -0.38198600000000
N         8.42882300000000    1.58571200000000    0.18183100000000
C         6.76575800000000    3.46372300000000   -0.00283400000000
C         5.67054100000000    2.82894000000000    0.34792600000000
C         4.59691500000000    3.14689600000000    1.31695400000000
C         3.75935300000000    2.15014200000000    1.23978800000000
C         4.19765000000000    1.14645900000000    0.25933600000000
N         5.30258800000000    1.58531200000000   -0.22495600000000
C         3.58681500000000   -0.10681200000000   -0.15421200000000
C         4.25097600000000   -1.21131800000000   -0.40863600000000
C         3.87712700000000   -2.27426000000000   -1.36616400000000
C         4.82587400000000   -3.16801600000000   -1.27714400000000
C         5.81159800000000   -2.73056600000000   -0.29426700000000
N         5.45855200000000   -1.58476100000000    0.20253100000000
C         7.04248600000000   -3.38663600000000    0.15145400000000
C         8.16552800000000   -2.74077500000000    0.41857500000000
N         8.49412800000000   -1.49333400000000   -0.17982800000000
H         9.31027600000000   -4.03334100000000    1.93513000000000
H        11.08244800000000   -2.21930300000000    1.84534900000000
H        10.92524600000000    2.19569600000000   -1.81312300000000
H         8.98000000000000    4.09987400000000   -1.84149900000000
H         6.71803500000000    4.55852500000000   -0.00661100000000
H         4.54409400000000    4.02562100000000    1.94194700000000
H         2.84772200000000    2.11447200000000    1.85711200000000
H         2.48856500000000   -0.10390100000000   -0.25348300000000
H         3.00827100000000   -2.32672500000000   -2.01511400000000
H         4.82302800000000   -4.08432400000000   -1.87590400000000
H         7.00700400000000   -4.48243800000000    0.26337900000000
C        11.41616500000000    0.01324000000000    0.00480700000000
C        12.63169800000000   -0.01210300000000   -0.00567300000000
C        14.05321500000000   -0.03352700000000   -0.00984800000000
C        15.26177600000000   -0.03573800000000   -0.00974300000000
C        16.68285200000000   -0.01677800000000   -0.01037000000000
C        17.89399400000000    0.01324000000000    0.00480700000000
Cu       22.42156600000000   -0.01037000000000   -0.16405400000000
C        19.87569700000000    3.22697400000000    1.12779700000000
C        18.94933700000000    2.29979900000000    0.98324900000000
C        19.55135000000000    1.13101900000000    0.32650500000000
C        18.95839800000000   -0.00110300000000   -0.00040100000000
C        19.59071200000000   -1.31429000000000   -0.02229200000000
C        19.07004900000000   -2.53385200000000    0.09922000000000
C        20.10559600000000   -3.53513400000000    0.01065300000000
C        21.25897100000000   -2.87966500000000   -0.16705900000000
N        20.97251800000000   -1.50894000000000   -0.19138400000000
C        22.60059500000000   -3.45128700000000   -0.31539800000000
C        23.74278900000000   -2.84605700000000   -0.14605100000000
C        25.02150100000000   -3.26490900000000    0.49050500000000
C        25.82137700000000   -2.25926100000000    0.35229500000000
C        25.17301500000000   -1.13369100000000   -0.35704900000000
N        23.98288600000000   -1.53123500000000   -0.61536200000000
C        25.68234000000000    0.18066200000000   -0.74387000000000
C        25.02295800000000    1.30982300000000   -0.64694100000000
C        25.42076500000000    2.59452800000000   -1.26735100000000
C        24.51356800000000    3.45765400000000   -0.92621000000000
C        23.50701000000000    2.78944100000000   -0.08781600000000
N        23.83693400000000    1.55074300000000    0.04962200000000
C        22.31156200000000    3.36070000000000    0.52574400000000
C        21.14493900000000    2.75031500000000    0.58523800000000
N        20.89392400000000    1.44795100000000    0.10090800000000
H        19.68407300000000    4.20917500000000    1.59557200000000
H        17.90702200000000    2.42465100000000    1.31518600000000
H        17.98403300000000   -2.70087600000000    0.24739700000000
H        19.93352000000000   -4.59664400000000    0.08019800000000
H        22.66152300000000   -4.51940300000000   -0.60147600000000
H        25.17465000000000   -4.22822900000000    0.95160700000000
H        26.84368300000000   -2.26201800000000    0.71926400000000
H        26.71640600000000    0.14733300000000   -1.14081700000000
H        26.29683000000000    2.79720700000000   -1.89031800000000
H        24.55322000000000    4.50889400000000   -1.24783700000000
H        22.39816000000000    4.35037600000000    0.95630400000000
78
 energy: -140.584020085148 gnorm: 0.405369206323 xtb: 6.4.1 (bd6e46d)
Cu        6.92580422236361    0.02459346190527   -0.00355357762236
C         9.24672184414268   -3.13505283420339    1.31273018079250
C        10.17111902434358   -2.17688032112139    1.26543274604866
C         9.70221517202259   -1.15258489610016    0.35302475921934
C        10.27176075718104    0.01039149306267   -0.00056495682170
C         9.62517072124331    1.22888358705385   -0.36196962331715
C        10.00217435211246    2.19936221427425   -1.22579081003534
C         8.98348410786887    3.20066483773618   -1.23949880677893
C         8.01808424152338    2.80791792249498   -0.37557276378922
N         8.40415684708086    1.57577446974612    0.18115075637875
C         6.77987161770281    3.46606080317997   -0.00456373062302
C         5.66004832178429    2.81700747822898    0.34888772624934
C         4.60080654365593    3.15320935148350    1.30657211255833
C         3.74056042177021    2.14262745318923    1.24344294380307
C         4.19205522644080    1.14784745188426    0.26988997179619
N         5.32712821797378    1.57377330631371   -0.21657756776918
C         3.57775729845633   -0.08999323102792   -0.14947062340647
C         4.25418835884184   -1.21696770362926   -0.41215836074578
C         3.86986493004389   -2.27150759833858   -1.35753987225700
C         4.83334365568088   -3.18277509302584   -1.27751516482482
C         5.81762707689787   -2.73814003780818   -0.29950199908907
N         5.46563600023520   -1.56846168380732    0.18843457462900
C         7.02808081711109   -3.39409447808211    0.14702667153523
C         8.16977674107636   -2.73470333947157    0.42103817911263
N         8.48273182819007   -1.49614502953878   -0.16005303518764
H         9.30571780211317   -4.03035926642089    1.93066597304758
H        11.08361532236949   -2.21212335876515    1.84241576772520
H        10.92208371196071    2.19823712633031   -1.81234071064687
H         8.98334226896324    4.09822023032555   -1.84211305545741
H         6.72592589482057    4.55692339133409   -0.00321345760389
H         4.54791379484190    4.02460017062928    1.93888836490400
H         2.84622344935591    2.10919522020055    1.85583192137396
H         2.49028631692312   -0.09985375223373   -0.25660646672014
H         3.00951862081304   -2.32130862881630   -2.01086004984510
H         4.82913841300230   -4.08569513608312   -1.87351926629003
H         7.00410603310505   -4.48017641548084    0.26459626309991
C        11.52947111772251    0.02413563187807    0.00337272254375
C        12.71178260025899   -0.01140983953087   -0.00514646770733
C        14.04693481948690   -0.03289418929088   -0.01019299270614
C        15.26885567386944   -0.03522557066378   -0.01022747074488
C        16.60741514419727   -0.02009117304128   -0.01278547772747
C        17.79074282133466    0.00489719488525    0.00165002947417
Cu       22.41606295181035   -0.01031071626456   -0.16564316337159
C        19.87946538353107    3.23752447414126    1.13006940784737
C        18.94689943751622    2.29745113521982    0.98043210640848
C        19.59998198492324    1.15985887110406    0.33233832352817
C        19.04961390930838   -0.01646225351232    0.00329373372887
C        19.63451965566887   -1.32239734326035   -0.02711359564943
C        19.06356404001891   -2.55226162772040    0.09941442638494
C        20.08627751353028   -3.53642397307533    0.01061058421375
C        21.26595598812826   -2.86825258164689   -0.17689069323661
N        20.99213439839219   -1.50461398247236   -0.18940384606792
C        22.58280990994205   -3.45671009386560   -0.31642770551116
C        23.75555310537970   -2.83235755858315   -0.14962643709818
C        25.01137746793740   -3.27158196263801    0.47848967072402
C        25.83942945605065   -2.24720445212386    0.35019599321464
C        25.17983541782433   -1.13625008335706   -0.35106242764061
N        23.96076291071100   -1.52091831735321   -0.60133129496113
C        25.69207968800569    0.16247546913386   -0.74317434605534
C        25.02151663076048    1.31531831815089   -0.65100201232711
C        25.42862891830113    2.58771380076664   -1.26512571184063
C        24.50515373033791    3.47241769861771   -0.92140081558287
C        23.50484134474850    2.79754207940177   -0.08718174977108
N        23.83249775607200    1.53611366725677    0.04075097873454
C        22.32385561216842    3.36533214398307    0.52303297206732
C        21.13714218928650    2.74058788227864    0.58853196510836
N        20.90293212984734    1.45343679899862    0.10563140832264
H        19.68970471094994    4.20639188108495    1.59340124589704
H        17.91174604776065    2.41734735565438    1.31059617263891
H        17.98958893116641   -2.70404899099342    0.24743359431259
H        19.93130427300169   -4.59669831316564    0.08026151834279
H        22.65364902605725   -4.51940605308940   -0.58888094307532
H        25.17114822237367   -4.22684732119588    0.95012217367247
H        26.84807282302175   -2.25680442441927    0.72009476029043
H        26.71368196712179    0.14762369585186   -1.13960490839971
H        26.29458588458419    2.79095794318580   -1.88745782235372
H        24.54672694763480    4.50857089363199   -1.24368292929604
H        22.39973148524509    4.35390272061986    0.95172701022644
78
 energy: -140.694223521924 gnorm: 0.193509981285 xtb: 6.4.1 (bd6e46d)
Cu        6.93060106887645    0.02498893941338    0.00201988048421
C         9.24422529589997   -3.15332853189402    1.29617820832645
C        10.17465928186816   -2.18050372310287    1.25656739969353
C         9.66300985380785   -1.16490897845702    0.36588531146184
C        10.23587330123357    0.03440984666821    0.00368945511708
C         9.57705795105599    1.23968630799589   -0.36358196870858
C        10.00127665345910    2.23007539596311   -1.23640220055774
C         9.00944865995787    3.21079566942113   -1.24234738088096
C         8.00574354018839    2.79331511354091   -0.37724960377682
N         8.34922125333443    1.55110253934063    0.15002993048167
C         6.79956446765467    3.45916177569549   -0.00350772043248
C         5.65924718478816    2.79350539793451    0.35431668972575
C         4.59818880827133    3.15585318195698    1.27881719768007
C         3.71328159351829    2.13884166440183    1.23826094829895
C         4.19195171572598    1.14517795628752    0.29387295904949
N         5.37494499911964    1.53683602498265   -0.17086125576186
C         3.57114959027466   -0.06793928086038   -0.14143993557152
C         4.25964449662697   -1.21200840756565   -0.42281209797780
C         3.86251686457182   -2.27530498683475   -1.33370775612509
C         4.83656412534993   -3.20390450100944   -1.26918570622868
C         5.82654746341140   -2.74226394359205   -0.31652827282426
N         5.48959827651498   -1.53306810946823    0.13660155361903
C         7.00542712749847   -3.40510450540401    0.14132216688394
C         8.15875747496579   -2.73517860774590    0.43224516430729
N         8.44597718416817   -1.49161519350322   -0.09789582538275
H         9.29176663369505   -4.03272461427829    1.91680522356894
H        11.08595994910079   -2.19341731627259    1.83034703944096
H        10.91505795320415    2.20980910418534   -1.81052631621396
H         8.99426346483329    4.10061155696060   -1.84246546504257
H         6.75065060966108    4.54760813719119    0.00400969787287
H         4.55878160677474    4.02025975759685    1.92109479677505
H         2.83374568137413    2.09450238144060    1.85226633988718
H         2.49238446336702   -0.08460381607839   -0.26279161715607
H         3.01093649795075   -2.30733199594206   -1.99322379118215
H         4.84613143925247   -4.09650053912391   -1.86593203188639
H         6.99056504352327   -4.48162462141492    0.26528047257191
C        11.53593642719039    0.04448155519976    0.00089128524977
C        12.75355172625067   -0.00766265947774   -0.00303319035335
C        14.04935324776900   -0.03135732646141   -0.01112393449803
C        15.26574687240779   -0.03604598653329   -0.01449793795672
C        16.56243778926091   -0.02895505105219   -0.01758217903824
C        17.77804975036473   -0.01726055446330    0.00978629781645
Cu       22.40498577291779   -0.00598975590885   -0.17193755538251
C        19.89201230076480    3.24902527604749    1.13018685977386
C        18.95495644808410    2.29836784506006    0.96849039882852
C        19.63727985796711    1.17808333566268    0.33442723538862
C        19.08439348476636   -0.04216663860949    0.01947222594704
C        19.68483674854163   -1.33049889109220   -0.03679893459976
C        19.06674210069986   -2.57374889110939    0.09111539845735
C        20.06535153885889   -3.53453358885163   -0.00053758083581
C        21.27462862408881   -2.85658967980689   -0.19669925494753
N        21.02830997410048   -1.49997521531575   -0.18273912110978
C        22.56007249043178   -3.45456240732230   -0.31391323585038
C        23.75822803952860   -2.80857497743303   -0.15605345663065
C        25.00088967955053   -3.26848535277627    0.44339725157499
C        25.86057497282117   -2.23563867255184    0.33378820919658
C        25.18350662187105   -1.13593363489063   -0.33444899807171
N        23.92343686119433   -1.49038022764131   -0.55068499505596
C        25.70176453020154    0.13928381319686   -0.73790216867144
C        25.01814784920204    1.31176424411008   -0.66400045134843
C        25.43219159405659    2.58020934926712   -1.25209827603009
C        24.50052909555746    3.48556168529041   -0.90421058789181
C        23.50427548238679    2.80167218885063   -0.08948977718824
N        23.81759175511264    1.51235671465508    0.00456304461809
C        22.34303620259157    3.37241513587722    0.51928730413477
C        21.14373446586393    2.73408101815624    0.60061034240596
N        20.92436169896103    1.46118091111511    0.12456757302808
H        19.71007788721119    4.20691407017997    1.58929445784530
H        17.92589702703983    2.39537671604241    1.29412193460356
H        18.00525151190650   -2.71382842489419    0.24754408731913
H        19.92569782768653   -4.59556793852189    0.07866585619450
H        22.62817866366793   -4.52044570436497   -0.54321063791058
H        25.15765589589407   -4.21590209779349    0.93504427623555
H        26.86074169494923   -2.24193335066422    0.71843298613815
H        26.71344321874890    0.14508641035041   -1.13235165755203
H        26.28960499393180    2.77290599319467   -1.87726593469020
H        24.52728280487418    4.51210272773021   -1.22735018336132
H        22.40660689584680    4.36885495912079    0.93022453468182
78
 energy: -140.750952641020 gnorm: 0.080099354024 xtb: 6.4.1 (bd6e46d)
Cu        6.92287819486198    0.02499122741626    0.00740891131858
C         9.23787586513042   -3.17009943634351    1.27927480888894
C        10.16764512051193   -2.18052547523660    1.24745794019842
C         9.61701070253977   -1.16272836115494    0.39058199647230
C        10.20181593872749    0.05671753979530    0.00783405359943
C         9.51975512934911    1.23974784624909   -0.37291018094324
C         9.99323775394298    2.25675706653970   -1.23788798665513
C         9.03103033903267    3.22778103136059   -1.23538832500227
C         7.98331891160112    2.78262181923474   -0.38600487306212
N         8.28573911716711    1.52461212995706    0.09407545205503
C         6.81439081186126    3.44901498962166   -0.00312362125234
C         5.67021646926742    2.75824654343173    0.37564380783372
C         4.60028686863357    3.15050011640491    1.25307240926519
C         3.68834828672826    2.13890493637640    1.22239752769409
C         4.19582573765586    1.13482070551017    0.32374600739851
N         5.42723617760548    1.49311518489842   -0.10833938038686
C         3.57335640499396   -0.04927335730055   -0.13305451055527
C         4.27678292139888   -1.19809706043932   -0.44906942049847
C         3.85955632864422   -2.27561620298541   -1.31261993508879
C         4.83300607410021   -3.22213499466791   -1.25382943335580
C         5.83568838197124   -2.74087597060525   -0.33929267287497
N         5.51962561196409   -1.49019704505348    0.07124711537394
C         6.98000320747564   -3.41379276264558    0.13773625909258
C         8.13481497303369   -2.73372710098145    0.45794392835582
N         8.39344016078643   -1.47940135016078   -0.02480330557145
H         9.27916931762749   -4.04682577965813    1.89265020910585
H        11.08764500582893   -2.17146719523247    1.80362270056467
H        10.90897400866018    2.21977266250288   -1.79704811994263
H         9.00364163634915    4.11543634878353   -1.83275362422000
H         6.77011792218909    4.53380390728539    0.00161206371165
H         4.56807282448004    4.01799145674391    1.88996274160551
H         2.81305702556994    2.08125386648737    1.83424499039722
H         2.49860510140694   -0.07263708478105   -0.25650182810082
H         3.00618897613774   -2.29349437727349   -1.96567031572997
H         4.85967557163937   -4.11413792838289   -1.84563253624244
H         6.97364725107253   -4.48583479709773    0.25729220240163
C        11.53811875802967    0.06326270022793   -0.00300649662385
C        12.75554063809095   -0.00392828534152   -0.00238697647150
C        14.04165875921435   -0.02980665909514   -0.01248761588088
C        15.26741981189569   -0.03681753026868   -0.02110983724159
C        16.55443295286564   -0.03950434232460   -0.02210870445105
C        17.77046099179277   -0.04149891737418    0.02165558264672
Cu       22.40350820720878   -0.00627097702581   -0.17719575121273
C        19.91386128485318    3.25597804143006    1.12836447043464
C        18.97661710938243    2.29268425806880    0.95678370388837
C        19.67452538704940    1.18549133096992    0.33872059844956
C        19.11427534892450   -0.06813003344581    0.04404857699946
C        19.74029079500075   -1.33208160992701   -0.03997658601973
C        19.07925827967868   -2.58731737036157    0.07632988905300
C        20.05215183775428   -3.53366606936177   -0.01901953629537
C        21.29150713204271   -2.85091306105861   -0.20831223039972
N        21.06657769371699   -1.50044323204257   -0.17408117785217
C        22.54237964380063   -3.45079261125430   -0.29993181844520
C        23.75280230308221   -2.77569538808427   -0.15023915514445
C        24.98553497345875   -3.25640252152917    0.40751568456206
C        25.87512863733805   -2.22632260592882    0.30489084333052
C        25.18445498539051   -1.12832655508343   -0.31338860183093
N        23.88800033215930   -1.45748655923591   -0.49672019177619
C        25.70549680442247    0.12027702308733   -0.72766971513650
C        25.00415781932596    1.30560074198195   -0.68802476831598
C        25.43030387927694    2.56966370581112   -1.24026846977930
C        24.50170632558968    3.49218913301464   -0.87936629723444
C        23.50331478512670    2.80245752969495   -0.09649700867181
N        23.79638718447348    1.48603841861478   -0.04268087734052
C        22.36631610789969    3.38132034487783    0.51205122643501
C        21.16136967452145    2.73012521070398    0.61726958127198
N        20.95705968204810    1.46300303594499    0.15065319276699
H        19.74035091995817    4.21082229424878    1.58227833408213
H        17.94678133975649    2.36467596211039    1.26567716743312
H        18.02551602764747   -2.71543726263488    0.24397577182879
H        19.92779322066704   -4.59619490700228    0.06834132546979
H        22.60553081833378   -4.52026604754664   -0.48243877326790
H        25.14240211731542   -4.20141746017967    0.90386780818423
H        26.87126166246366   -2.22618347459468    0.70062755831141
H        26.71741583373828    0.14581881167887   -1.10779924907579
H        26.28698722778651    2.75051361774911   -1.86294072178311
H        24.50872766528878    4.51692687255481   -1.19575713039062
H        22.41700891168407    4.39172734933267    0.89161431964310
78
 energy: -140.780658331017 gnorm: 0.055816505766 xtb: 6.4.1 (bd6e46d)
Cu        6.90099800777113    0.02103989063980    0.01370822339643
C         9.22727174388999   -3.18039253012134    1.27003514444651
C        10.15054252877764   -2.17842601430223    1.23915696143427
C         9.57097332095187   -1.14349989873693    0.42637388682330
C        10.16922416181225    0.07098027293863    0.01197228648740
C         9.47227357084982    1.22838499885528   -0.39492451703838
C         9.98367864315374    2.27141329387941   -1.23544979509869
C         9.03901830953583    3.24892007378738   -1.22840041343643
C         7.95665828212338    2.77889549022453   -0.40799115550790
N         8.22971495688301    1.50271692914295    0.02609443065301
C         6.81459543668046    3.44269479627438   -0.00183867570031
C         5.68424165459940    2.72710042108324    0.40839625190506
C         4.59698951515738    3.14437431634208    1.23943481243975
C         3.67032804123989    2.14114705746107    1.20757011697792
C         4.20357253469068    1.11530640867039    0.35801174293456
N         5.46370362807050    1.45587545934853   -0.04207821361315
C         3.58144252653110   -0.04195819397077   -0.12687032042558
C         4.29612778392122   -1.18247120101608   -0.48374732314293
C         3.85494638941695   -2.27627593109393   -1.30361481014648
C         4.82008008072487   -3.23560661721949   -1.24008595068903
C         5.84169116601888   -2.73640660768927   -0.36679521061551
N         5.54450939940462   -1.45925040114572    0.00788160962154
C         6.95699033946355   -3.42012692765650    0.13750006411001
C         8.10148061451813   -2.73213251337487    0.49439357238906
N         8.33031542004263   -1.45776247523928    0.05259538046790
H         9.27564944834556   -4.07516498346092    1.85626259683787
H        11.09034254418926   -2.15563133806297    1.76113617955078
H        10.91199504308933    2.23159376736061   -1.77250004319583
H         9.01666346351961    4.14910657479524   -1.80781980274038
H         6.77515370798053    4.52392229392969   -0.00510414118233
H         4.56339171391687    4.02859438215361    1.84915602452929
H         2.77902309864283    2.07900364766664    1.79746558049774
H         2.50613305046667   -0.06581595888182   -0.23803519122617
H         2.98538717949309   -2.28832192496308   -1.93209096576186
H         4.85602005738783   -4.14313125448257   -1.80889608294257
H         6.95186515953454   -4.49376728441967    0.23796751803501
C        11.52452554009050    0.07597508984802   -0.00606806210977
C        12.74250907615324   -0.00075428574328   -0.00335332806269
C        14.04007446257553   -0.02793531246172   -0.01780179835026
C        15.26069140103716   -0.03739192476233   -0.03135758519658
C        16.55923396571080   -0.05029749382265   -0.02233238873172
C        17.77571966969293   -0.06140654569296    0.03968125375857
Cu       22.41206304159247   -0.00764907629027   -0.17288902195689
C        19.94162757075980    3.25587391872522    1.12715367396577
C        19.00812818814950    2.28456469384872    0.94750965130330
C        19.70835151270352    1.17687608640869    0.35309538212624
C        19.13802679346184   -0.08548376554069    0.07161930255224
C        19.77994439372538   -1.32765829434841   -0.03670896153031
C        19.09424926747216   -2.58914834335364    0.05800526425687
C        20.05215720320323   -3.53824341747624   -0.04260145066376
C        21.30833451843640   -2.85384448210452   -0.21320371187591
N        21.09751903625860   -1.50351500544484   -0.16497198013747
C        22.54147378812447   -3.45265408870405   -0.27736766596253
C        23.74684111922826   -2.74889195901399   -0.13404346488683
C        24.98147079566877   -3.24455115550399    0.38020879163116
C        25.88466040741004   -2.22104045472299    0.27575499967171
C        25.18219322960437   -1.11197898738063   -0.29107136335947
N        23.86650466279243   -1.43002744204479   -0.44860610367971
C        25.70436814324021    0.11493976057275   -0.71836012576277
C        24.98684118786859    1.30081953870855   -0.71696250452889
C        25.43056759775129    2.56351502445301   -1.23570552004940
C        24.51269869691271    3.49502143686677   -0.85768475042598
C        23.50296505693305    2.80185282012415   -0.11122184362351
N        23.77629931157876    1.46995055106365   -0.09032304739752
C        22.38817466743821    3.39200942879715    0.50102982142145
C        21.18827776056375    2.72890914359098    0.63584465654760
N        20.99756326599287    1.45460813187242    0.18458002820526
H        19.77625638843331    4.21706242257914    1.57164942060250
H        17.97075858225830    2.33533579375977    1.22862733545008
H        18.04219274892166   -2.70852210802188    0.23350391604516
H        19.93630126114181   -4.60163956321453    0.04443572008589
H        22.59841590240098   -4.52998362370316   -0.40257797049380
H        25.13820414401264   -4.19694276612800    0.85536131987443
H        26.88582251038366   -2.21522861285796    0.65995881390154
H        26.72872954255163    0.15029812993944   -1.06448195405321
H        26.29581986133551    2.73160485522981   -1.84748799544725
H        24.50507645621897    4.52768978408124   -1.14789792639628
H        22.43144874741692    4.42185007915241    0.83332440220883
78
 energy: -140.799833831815 gnorm: 0.046196274627 xtb: 6.4.1 (bd6e46d)
Cu        6.88395825251253    0.01080649099076    0.01965830382688
C         9.21479535988139   -3.18311824282615    1.26520241955960
C        10.13206765023343   -2.17553083590884    1.23208175896759
C         9.53324758168070   -1.11792143806003    0.46765798799736
C        10.14613745282557    0.07748830208035    0.01513965538634
C         9.44205482881413    1.21295765020526   -0.42483609762282
C         9.97812663933059    2.28200072321133   -1.23008735839801
C         9.03925926082454    3.26338701532708   -1.22327100133967
C         7.93031586476649    2.77226430835308   -0.43908380247766
N         8.18849203270929    1.48351361781034   -0.04369394082809
C         6.80438042621454    3.43642692640831    0.00062813753270
C         5.69329313549639    2.70330036669644    0.44288187235752
C         4.58415854459597    3.14233986742757    1.23023541448144
C         3.65443097066029    2.14423612271298    1.19632583311304
C         4.20795893490351    1.09340016324613    0.39227085879454
N         5.48467417610618    1.42455642292226    0.02383333266411
C         3.58684153004184   -0.04291231524776   -0.12070874300629
C         4.30661796056278   -1.17085539905212   -0.51692589223110
C         3.84292343691945   -2.27972461480838   -1.29978528438876
C         4.80016730635543   -3.24561005250439   -1.22956780461744
C         5.84303932390589   -2.73166841124681   -0.39514479480608
N         5.55966819230154   -1.43976168588829   -0.05057848035729
C         6.93841081422126   -3.41848917427432    0.13513674838184
C         8.06617163952663   -2.72300402812567    0.53646157868743
N         8.27706215010517   -1.43270467278879    0.12865181816331
H         9.27933374667133   -4.10873331551953    1.80672955351643
H        11.09582450322571   -2.14832262757767    1.71032963734193
H        10.92253802443619    2.25191110568105   -1.73987447637271
H         9.03548736187824    4.18737184591256   -1.76877993105811
H         6.76996255926368    4.51530275166797   -0.00765430799190
H         4.54383463804684    4.05178317067487    1.80084186704125
H         2.73491317552629    2.08775926755475    1.74727034690987
H         2.51024288057620   -0.06369760582918   -0.21345235144526
H         2.94971070041089   -2.29180936435826   -1.89440677716112
H         4.83476070870357   -4.17913553795082   -1.75933586484542
H         6.93058663351516   -4.49546538820989    0.20966431595783
C        11.51149044758730    0.08274376560823   -0.00723296598041
C        12.72706489347063    0.00476453418060   -0.00878696450950
C        14.03532207092957   -0.02515482267239   -0.02434110249062
C        15.25464373407601   -0.03784031931185   -0.04192583645823
C        16.56378415753258   -0.06065973707421   -0.01631431140124
C        17.77753724099366   -0.07648463293464    0.06313623350775
Cu       22.42142823973904   -0.00765343170741   -0.15566090936652
C        19.96825788469833    3.25190274060402    1.12531741379175
C        19.03767354975881    2.27794745077807    0.94260529756565
C        19.73375473955988    1.16105922777365    0.37596347338088
C        19.14898851210906   -0.09512350183246    0.10090503524211
C        19.80033527545401   -1.32250385357111   -0.03341988083518
C        19.10663347066886   -2.58730167182684    0.03790586409225
C        20.05800823418124   -3.54131747642832   -0.06512064312791
C        21.32109038869272   -2.85673804195533   -0.21155811950224