      -----------------------------------------------------------      
     |                   =====================                   |     
     |                           x T B                           |     
     |                   =====================                   |     
     |                         S. Grimme                         |     
     |          Mulliken Center for Theoretical Chemistry        |     
     |                    University of Bonn                     |     
      -----------------------------------------------------------      

   * xtb version 6.4.1 (bd6e46d) compiled by 'conda@4901f00b25ba' on 2021-06-10

   xtb is free software: you can redistribute it and/or modify it under
   the terms of the GNU Lesser General Public License as published by
   the Free Software Foundation, either version 3 of the License, or
   (at your option) any later version.
   
   xtb is distributed in the hope that it will be useful,
   but WITHOUT ANY WARRANTY; without even the implied warranty of
   MERCHANTABILITY or FITNESS FOR A PARTICULAR PURPOSE.  See the
   GNU Lesser General Public License for more details.
   
   Cite this work as:
   * C. Bannwarth, E. Caldeweyher, S. Ehlert, A. Hansen, P. Pracht,
     J. Seibert, S. Spicher, S. Grimme, WIREs Comput. Mol. Sci., 2020, 11,
     e01493. DOI: 10.1002/wcms.1493
   
   for GFN2-xTB:
   * C. Bannwarth, S. Ehlert and S. Grimme., J. Chem. Theory Comput., 2019,
     15, 1652-1671. DOI: 10.1021/acs.jctc.8b01176
   for GFN1-xTB:
   * S. Grimme, C. Bannwarth, P. Shushkov, J. Chem. Theory Comput., 2017,
     13, 1989-2009. DOI: 10.1021/acs.jctc.7b00118
   for GFN0-xTB:
   * P. Pracht, E. Caldeweyher, S. Ehlert, S. Grimme, ChemRxiv, 2019, preprint.
     DOI: 10.26434/chemrxiv.8326202.v1
   for GFN-FF:
   * S. Spicher and S. Grimme, Angew. Chem. Int. Ed., 2020, 59, 15665-15673.
     DOI: 10.1002/anie.202004239
   
   for DFT-D4:
   * E. Caldeweyher, C. Bannwarth and S. Grimme, J. Chem. Phys., 2017,
     147, 034112. DOI: 10.1063/1.4993215
   * E. Caldeweyher, S. Ehlert, A. Hansen, H. Neugebauer, S. Spicher,
     C. Bannwarth and S. Grimme, J. Chem. Phys., 2019, 150, 154122.
     DOI: 10.1063/1.5090222
   * E. Caldeweyher, J.-M. Mewes, S. Ehlert and S. Grimme, Phys. Chem. Chem. Phys.
     2020, 22, 8499-8512. DOI: 10.1039/D0CP00502A
   
   for sTDA-xTB:
   * S. Grimme and C. Bannwarth, J. Chem. Phys., 2016, 145, 054103.
     DOI: 10.1063/1.4959605
   
   in the mass-spec context:
   * V. Asgeirsson, C. Bauer and S. Grimme, Chem. Sci., 2017, 8, 4879.
     DOI: 10.1039/c7sc00601b
   * J. Koopman and S. Grimme, ACS Omega 2019, 4, 12, 15120-15133.
     DOI: 10.1021/acsomega.9b02011
   
   for metadynamics refer to:
   * S. Grimme, J. Chem. Theory Comput., 2019, 155, 2847-2862
     DOI: 10.1021/acs.jctc.9b00143
   
   for SPH calculations refer to:
   * S. Spicher and S. Grimme, J. Chem. Theory Comput., 2021, 17, 1701-1714
     DOI: 10.1021/acs.jctc.0c01306
   
   with help from (in alphabetical order)
   P. Atkinson, C. Bannwarth, F. Bohle, G. Brandenburg, E. Caldeweyher
   M. Checinski, S. Dohm, S. Ehlert, S. Ehrlich, I. Gerasimov, J. Koopman
   C. Lavigne, S. Lehtola, F. März, M. Müller, F. Musil, H. Neugebauer
   J. Pisarek, C. Plett, P. Pracht, J. Seibert, P. Shushkov, S. Spicher
   M. Stahn, M. Steiner, T. Strunk, J. Stückrath, T. Rose, and J. Unsleber
   
 * started run on 2021/11/19 at 10:45:54.499     

           -------------------------------------------------
          |                Calculation Setup                |
           -------------------------------------------------

          program call               : /home/jeff/miniconda3/bin/xtb input_structure_1.xyz --gfn 2 --ohess normal --parallel 1 --etemp 300 --chrg 0 --uhf 0 -I det_control.in
          hostname                   : jelfscompute1
          coordinate file            : input_structure_1.xyz
          omp threads                :                     1
          number of atoms            :                    76
          number of electrons        :                   260
          charge                     :                     0
          spin                       :                   0.0
          first test random number   :      0.73585539498645

   ID    Z sym.   atoms
    1   29 Cu     1, 41
    2    6 C      2-9, 11-15, 17-21, 23, 24, 37-40, 42-49, 51-55, 57-61, 63,
                  64
    3    7 N      10, 16, 22, 25, 50, 56, 62, 65
    4    1 H      26-36, 66-76

           -------------------------------------------------
          |                 G F N 2 - x T B                 |
           -------------------------------------------------

        Reference                      10.1021/acs.jctc.8b01176
      * Hamiltonian:
        H0-scaling (s, p, d)           1.850000    2.230000    2.230000
        zeta-weighting                 0.500000
      * Dispersion:
        s8                             2.700000
        a1                             0.520000
        a2                             5.000000
        s9                             5.000000
      * Repulsion:
        kExp                           1.500000    1.000000
        rExp                           1.000000
      * Coulomb:
        alpha                          2.000000
        third order                    shell-resolved
        anisotropic                    true
        a3                             3.000000
        a5                             4.000000
        cn-shift                       1.200000
        cn-exp                         4.000000
        max-rad                        5.000000


          ...................................................
          :                      SETUP                      :
          :.................................................:
          :  # basis functions                 250          :
          :  # atomic orbitals                 248          :
          :  # shells                          132          :
          :  # electrons                       260          :
          :  max. iterations                   250          :
          :  Hamiltonian                  GFN2-xTB          :
          :  restarted?                      false          :
          :  GBSA solvation                  false          :
          :  PC potential                    false          :
          :  electronic temp.          300.0000000     K    :
          :  accuracy                    1.0000000          :
          :  -> integral cutoff          0.2500000E+02      :
          :  -> integral neglect         0.1000000E-07      :
          :  -> SCF convergence          0.1000000E-05 Eh   :
          :  -> wf. convergence          0.1000000E-03 e    :
          :  Broyden damping             0.4000000          :
          ...................................................

 iter      E             dE          RMSdq      gap      omega  full diag
   1   -138.7036367 -0.138704E+03  0.509E+00    0.50       0.0  T
   2   -138.2213181  0.482319E+00  0.324E+00    0.24       1.0  T
   3   -108.7798048  0.294415E+02  0.118E+01    0.58       1.0  T
   4   -137.6113349 -0.288315E+02  0.329E+00    0.28       1.0  T
   5   -138.7115756 -0.110024E+01  0.147E+00    0.49       1.0  T
   6   -138.7558482 -0.442726E-01  0.971E-01    0.57       1.0  T
   7   -138.7538619  0.198629E-02  0.733E-01    0.34       1.0  T
   8   -138.8204609 -0.665990E-01  0.418E-01    0.38       1.0  T
   9   -138.8230296 -0.256868E-02  0.390E-01    0.39       1.0  T
  10   -138.8328776 -0.984804E-02  0.273E-01    0.32       1.0  T
  11   -138.8383861 -0.550850E-02  0.165E-01    0.28       1.0  T
  12   -138.8380285  0.357558E-03  0.179E-01    0.26       1.0  T
  13   -138.8385764 -0.547823E-03  0.151E-01    0.28       1.0  T
  14   -138.8395580 -0.981630E-03  0.114E-01    0.28       1.0  T
  15   -138.8399647 -0.406668E-03  0.900E-02    0.28       1.0  T
  16   -138.8402829 -0.318205E-03  0.736E-02    0.27       1.0  T
  17   -138.8405322 -0.249374E-03  0.530E-02    0.27       1.0  T
  18   -138.8406869 -0.154639E-03  0.380E-02    0.27       1.0  T
  19   -138.8407484 -0.615040E-04  0.188E-02    0.27       1.0  T
  20   -138.8408091 -0.607266E-04  0.671E-03    0.26       1.7  T
  21   -138.8408111 -0.201076E-05  0.437E-03    0.26       2.6  T
  22   -138.8408116 -0.432217E-06  0.416E-03    0.26       2.8  T
  23   -138.8408119 -0.356007E-06  0.374E-03    0.26       3.1  T
  24   -138.8408123 -0.351944E-06  0.313E-03    0.26       3.7  T
  25   -138.8408126 -0.326710E-06  0.256E-03    0.26       4.5  T
  26   -138.8408129 -0.290582E-06  0.187E-03    0.26       6.1  T
  27   -138.8408131 -0.238372E-06  0.103E-03    0.26      11.1  T
  28   -138.8408132 -0.775455E-07  0.575E-04    0.26      20.0  T
  29   -138.8408132 -0.216590E-07  0.336E-04    0.26      34.1  T

   *** convergence criteria satisfied after 29 iterations ***

         #    Occupation            Energy/Eh            Energy/eV
      -------------------------------------------------------------
         1        2.0000           -0.7074113             -19.2496
       ...           ...                  ...                  ...
       124        2.0000           -0.3568535              -9.7105
       125        2.0000           -0.3565680              -9.7027
       126        2.0000           -0.3517409              -9.5714
       127        2.0000           -0.3502544              -9.5309
       128        2.0000           -0.3477740              -9.4634
       129        2.0000           -0.3391381              -9.2284
       130        1.9876           -0.3328255              -9.0566 (HOMO)
       131        0.0124           -0.3231815              -8.7942 (LUMO)
       132        0.0000           -0.3154536              -8.5839
       133                         -0.3063217              -8.3354
       134                         -0.3012993              -8.1988
       135                         -0.2837479              -7.7212
       ...                                ...                  ...
       248                          7.3348304             199.5909
      -------------------------------------------------------------
                  HL-Gap            0.0096439 Eh            0.2624 eV
             Fermi-level           -0.3280030 Eh           -8.9254 eV

 SCC (total)                   0 d,  0 h,  0 min,  0.437 sec
 SCC setup                      ...        0 min,  0.001 sec (  0.254%)
 Dispersion                     ...        0 min,  0.002 sec (  0.536%)
 classical contributions        ...        0 min,  0.000 sec (  0.097%)
 integral evaluation            ...        0 min,  0.025 sec (  5.775%)
 iterations                     ...        0 min,  0.326 sec ( 74.669%)
 molecular gradient             ...        0 min,  0.080 sec ( 18.433%)
 printout                       ...        0 min,  0.001 sec (  0.232%)

         :::::::::::::::::::::::::::::::::::::::::::::::::::::
         ::                     SUMMARY                     ::
         :::::::::::::::::::::::::::::::::::::::::::::::::::::
         :: total energy            -135.005296071466 Eh    ::
         :: gradient norm              4.317203576762 Eh/a0 ::
         :: HOMO-LUMO gap              0.262424134125 eV    ::
         ::.................................................::
         :: SCC energy              -138.840813218022 Eh    ::
         :: -> isotropic ES            0.076250065132 Eh    ::
         :: -> anisotropic ES          0.020760842386 Eh    ::
         :: -> anisotropic XC          0.058385940514 Eh    ::
         :: -> dispersion             -0.116639233803 Eh    ::
         :: repulsion energy           3.835635606890 Eh    ::
         :: add. restraining           0.000000000000 Eh    ::
         :: total charge               0.000000000001 e     ::
         :::::::::::::::::::::::::::::::::::::::::::::::::::::

      ----------------------------------------------------------- 
     |                   =====================                   |
     |                        A N C O P T                        |
     |                   =====================                   |
     |               Approximate Normal Coordinate               |
     |                Rational Function Optimizer                |
      ----------------------------------------------------------- 

          ...................................................
          :                      SETUP                      :
          :.................................................:
          :   optimization level            normal          :
          :   max. optcycles                   228          :
          :   ANC micro-cycles                  20          :
          :   degrees of freedom               222          :
          :.................................................:
          :   RF solver                   davidson          :
          :   write xtbopt.log                true          :
          :   linear?                        false          :
          :   energy convergence         0.5000000E-05 Eh   :
          :   grad. convergence          0.1000000E-02 Eh/α :
          :   maximium RF displ.         1.0000000          :
          :   Hlow (freq-cutoff)         0.1000000E-01      :
          :   Hmax (freq-cutoff)         5.0000000          :
          :   S6 in model hess.         20.0000000          :
          ...................................................

generating ANC from model Hessian ...
Using Lindh-Hessian (1995)
 Shifting diagonal of input Hessian by    1.0032269895478218E-002
 Lowest  eigenvalues of input Hessian
    0.010000    0.010008    0.010016    0.000000    0.000000    0.000000
    0.000000    0.000000    0.000000    0.010448    0.011070    0.011257
    0.011511    0.011747    0.011906    0.012037    0.012858    0.013472
 Highest eigenvalues
    2.226897    2.355754    4.358696    4.516066    4.726575    4.872997


........................................................................
.............................. CYCLE    1 ..............................
........................................................................
   1   -138.8408132 -0.138841E+03  0.599E-05    0.26       0.0  T
   2   -138.8408132  0.648072E-09  0.101E-04    0.26     113.3  T
   3   -138.8408132 -0.909864E-09  0.333E-05    0.26     344.9  T
     SCC iter.                  ...        0 min,  0.034 sec
     gradient                   ...        0 min,  0.080 sec
 * total energy  :  -135.0052961 Eh     change       -0.1043270E-07 Eh
   gradient norm :     4.3172016 Eh/α   predicted     0.0000000E+00 (-100.00%)
   displ. norm   :     0.6417599 α      lambda       -0.2703488E+01
   maximum displ.:     0.4406937 α      in ANC's #222, #221, #218, ...

........................................................................
.............................. CYCLE    2 ..............................
........................................................................
   1   -138.9111774 -0.138911E+03  0.882E-01    0.14       0.0  T
   2   -138.7059560  0.205221E+00  0.119E+00    0.34       1.0  T
   3   -138.7201850 -0.142290E-01  0.965E-01    0.40       1.0  T
   4   -138.8211505 -0.100966E+00  0.741E-01    0.52       1.0  T
   5   -138.9571430 -0.135993E+00  0.198E-01    0.18       1.0  T
   6   -138.9576129 -0.469870E-03  0.149E-01    0.16       1.0  T
   7   -138.9588809 -0.126799E-02  0.963E-02    0.17       1.0  T
   8   -138.9604656 -0.158470E-02  0.422E-02    0.17       1.0  T
   9   -138.9597636  0.701959E-03  0.567E-02    0.17       1.0  T
  10   -138.9605045 -0.740866E-03  0.223E-02    0.17       1.0  T
  11   -138.9605537 -0.491701E-04  0.125E-02    0.17       1.0  T
  12   -138.9605566 -0.291720E-05  0.102E-02    0.17       1.1  T
  13   -138.9605479  0.871042E-05  0.980E-03    0.17       1.2  T
  14   -138.9605601 -0.122542E-04  0.464E-03    0.17       2.5  T
  15   -138.9605233  0.368478E-04  0.111E-02    0.17       1.0  T
  16   -138.9605059  0.173433E-04  0.145E-02    0.17       1.0  T
  17   -138.9605587 -0.527821E-04  0.346E-03    0.17       3.3  T
  18   -138.9605450  0.136905E-04  0.746E-03    0.17       1.5  T
  19   -138.9605605 -0.154344E-04  0.121E-03    0.17       9.5  T
  20   -138.9605607 -0.289568E-06  0.680E-04    0.17      16.9  T
  21   -138.9605608 -0.981931E-07  0.152E-04    0.17      75.3  T
     SCC iter.                  ...        0 min,  0.221 sec
     gradient                   ...        0 min,  0.080 sec
 * total energy  :  -136.1669621 Eh     change       -0.1161666E+01 Eh
   gradient norm :     0.6644464 Eh/α   predicted    -0.1908468E+01 (  64.29%)
   displ. norm   :     0.5447824 α      lambda       -0.2673430E+00
   maximum displ.:     0.1630049 α      in ANC's #76, #112, #82, ...

........................................................................
.............................. CYCLE    3 ..............................
........................................................................
   1   -138.9053538 -0.138905E+03  0.529E-01    0.20       0.0  T
   2   -138.8653964  0.399574E-01  0.531E-01    0.23       1.0  T
   3   -138.7365544  0.128842E+00  0.847E-01    0.52       1.0  T
   4   -138.9121667 -0.175612E+00  0.242E-01    0.22       1.0  T
   5   -138.8782101  0.339566E-01  0.372E-01    0.19       1.0  T
   6   -138.9071358 -0.289257E-01  0.216E-01    0.25       1.0  T
   7   -138.9120913 -0.495543E-02  0.131E-01    0.23       1.0  T
   8   -138.9144212 -0.232991E-02  0.773E-02    0.22       1.0  T
   9   -138.9141515  0.269692E-03  0.766E-02    0.21       1.0  T
  10   -138.9150752 -0.923721E-03  0.426E-02    0.21       1.0  T
  11   -138.9155134 -0.438221E-03  0.106E-02    0.21       1.1  T
  12   -138.9154871  0.263622E-04  0.141E-02    0.21       1.0  T
  13   -138.9154930 -0.595373E-05  0.127E-02    0.21       1.0  T
  14   -138.9155064 -0.133586E-04  0.821E-03    0.21       1.4  T
  15   -138.9155160 -0.965256E-05  0.526E-03    0.21       2.2  T
  16   -138.9155204 -0.440916E-05  0.246E-03    0.21       4.7  T
  17   -138.9155189  0.150630E-05  0.283E-03    0.21       4.1  T
  18   -138.9155207 -0.180711E-05  0.973E-04    0.21      11.8  T
  19   -138.9155205  0.246085E-06  0.132E-03    0.21       8.7  T
  20   -138.9155208 -0.341985E-06  0.360E-04    0.21      31.8  T
  21   -138.9155209 -0.246604E-07  0.101E-04    0.21     113.3  T
     SCC iter.                  ...        0 min,  0.225 sec
     gradient                   ...        0 min,  0.081 sec
 * total energy  :  -136.3454307 Eh     change       -0.1784686E+00 Eh
   gradient norm :     0.3622281 Eh/α   predicted    -0.1733441E+00 (  -2.87%)
   displ. norm   :     0.6248743 α      lambda       -0.1284366E+00
   maximum displ.:     0.2169953 α      in ANC's #76, #82, #52, ...

........................................................................
.............................. CYCLE    4 ..............................
........................................................................
   1   -138.9059523 -0.138906E+03  0.543E-01    0.19       0.0  T
   2   -138.6595152  0.246437E+00  0.950E-01    0.38       1.0  T
   3   -138.7890403 -0.129525E+00  0.722E-01    0.53       1.0  T
   4   -138.9218474 -0.132807E+00  0.224E-01    0.21       1.0  T
   5   -138.9209535  0.893909E-03  0.192E-01    0.18       1.0  T
   6   -138.9217796 -0.826104E-03  0.145E-01    0.19       1.0  T
   7   -138.9239984 -0.221882E-02  0.609E-02    0.19       1.0  T
   8   -138.9214339  0.256445E-02  0.111E-01    0.20       1.0  T
   9   -138.9229975 -0.156361E-02  0.725E-02    0.20       1.0  T
  10   -138.9223784  0.619134E-03  0.949E-02    0.19       1.0  T
  11   -138.9239339 -0.155547E-02  0.472E-02    0.19       1.0  T
  12   -138.9244210 -0.487116E-03  0.215E-02    0.19       1.0  T
  13   -138.9244968 -0.757911E-04  0.113E-02    0.19       1.0  T
  14   -138.9244553  0.414697E-04  0.146E-02    0.19       1.0  T
  15   -138.9244968 -0.414921E-04  0.669E-03    0.19       1.7  T
  16   -138.9244947  0.213633E-05  0.621E-03    0.19       1.8  T
  17   -138.9244996 -0.492951E-05  0.444E-03    0.19       2.6  T
  18   -138.9245035 -0.392971E-05  0.788E-04    0.19      14.6  T
  19   -138.9245033  0.211177E-06  0.100E-03    0.19      11.4  T
  20   -138.9245036 -0.255175E-06  0.172E-04    0.19      66.8  T
  21   -138.9245036 -0.856204E-09  0.100E-04    0.19     114.4  T
     SCC iter.                  ...        0 min,  0.221 sec
     gradient                   ...        0 min,  0.081 sec
 * total energy  :  -136.4413226 Eh     change       -0.9589195E-01 Eh
   gradient norm :     0.1970989 Eh/α   predicted    -0.8929381E-01 (  -6.88%)
   displ. norm   :     0.6650433 α      lambda       -0.6942235E-01
   maximum displ.:     0.2325428 α      in ANC's #52, #76, #37, ...

........................................................................
.............................. CYCLE    5 ..............................
........................................................................
   1   -138.9161944 -0.138916E+03  0.574E-01    0.20       0.0  T
   2   -138.5024870  0.413707E+00  0.122E+00    0.56       1.0  T
   3   -138.8610842 -0.358597E+00  0.598E-01    0.31       1.0  T
   4   -138.8168976  0.441867E-01  0.714E-01    0.24       1.0  T
   5   -138.9447017 -0.127804E+00  0.197E-01    0.15       1.0  T
   6   -138.8922035  0.524982E-01  0.468E-01    0.23       1.0  T
   7   -138.9375310 -0.453276E-01  0.186E-01    0.19       1.0  T
   8   -138.9409850 -0.345398E-02  0.170E-01    0.17       1.0  T
   9   -138.9443130 -0.332800E-02  0.121E-01    0.17       1.0  T
  10   -138.9475211 -0.320806E-02  0.306E-02    0.17       1.0  T
  11   -138.9473133  0.207805E-03  0.324E-02    0.16       1.0  T
  12   -138.9474217 -0.108470E-03  0.299E-02    0.17       1.0  T
  13   -138.9475994 -0.177657E-03  0.988E-03    0.17       1.2  T
  14   -138.9475671  0.323348E-04  0.124E-02    0.17       1.0  T
  15   -138.9476014 -0.343131E-04  0.414E-03    0.17       2.8  T
  16   -138.9476011  0.245177E-06  0.342E-03    0.17       3.4  T
  17   -138.9476025 -0.140227E-05  0.165E-03    0.17       6.9  T
  18   -138.9476019  0.579800E-06  0.201E-03    0.17       5.7  T
  19   -138.9476024 -0.420019E-06  0.125E-03    0.17       9.2  T
  20   -138.9476027 -0.327947E-06  0.376E-04    0.17      30.5  T
  21   -138.9476027 -0.187427E-07  0.164E-04    0.17      70.0  T
     SCC iter.                  ...        0 min,  0.224 sec
     gradient                   ...        0 min,  0.081 sec
 * total energy  :  -136.4950470 Eh     change       -0.5372433E-01 Eh
   gradient norm :     0.1156792 Eh/α   predicted    -0.5006333E-01 (  -6.81%)
   displ. norm   :     0.7139818 α      lambda       -0.4217763E-01
   maximum displ.:     0.2771771 α      in ANC's #52, #37, #76, ...

........................................................................
.............................. CYCLE    6 ..............................
........................................................................
   1   -138.9238990 -0.138924E+03  0.542E-01    0.18       0.0  T
   2   -138.4852340  0.438665E+00  0.125E+00    0.47       1.0  T
   3   -138.9092913 -0.424057E+00  0.453E-01    0.19       1.0  T
   4   -138.7806575  0.128634E+00  0.793E-01    0.24       1.0  T
   5   -138.9504431 -0.169786E+00  0.215E-01    0.13       1.0  T
   6   -138.8845309  0.659122E-01  0.510E-01    0.22       1.0  T
   7   -138.9441309 -0.596000E-01  0.200E-01    0.16       1.0  T
   8   -138.9448816 -0.750769E-03  0.202E-01    0.14       1.0  T
   9   -138.9533159 -0.843426E-02  0.107E-01    0.14       1.0  T
  10   -138.9557756 -0.245971E-02  0.390E-02    0.14       1.0  T
  11   -138.9540150  0.176057E-02  0.798E-02    0.14       1.0  T
  12   -138.9554163 -0.140130E-02  0.431E-02    0.14       1.0  T
  13   -138.9558888 -0.472481E-03  0.177E-02    0.14       1.0  T
  14   -138.9559111 -0.223070E-04  0.145E-02    0.14       1.0  T
  15   -138.9559665 -0.553719E-04  0.309E-03    0.14       3.7  T
  16   -138.9559678 -0.128795E-05  0.164E-03    0.14       7.0  T
  17   -138.9559636  0.416299E-05  0.410E-03    0.14       2.8  T
  18   -138.9559665 -0.287920E-05  0.243E-03    0.14       4.7  T
  19   -138.9559663  0.220856E-06  0.243E-03    0.14       4.7  T
  20   -138.9559677 -0.145139E-05  0.811E-04    0.14      14.1  T
  21   -138.9559679 -0.184371E-06  0.155E-04    0.14      74.0  T
  22   -138.9559679 -0.343056E-08  0.950E-05    0.14     120.8  T
     SCC iter.                  ...        0 min,  0.236 sec
     gradient                   ...        0 min,  0.081 sec
 * total energy  :  -136.5288024 Eh     change       -0.3375545E-01 Eh
   gradient norm :     0.0816060 Eh/α   predicted    -0.3183927E-01 (  -5.68%)
   displ. norm   :     0.7241075 α      lambda       -0.2757469E-01
   maximum displ.:     0.2448121 α      in ANC's #52, #37, #7, ...

........................................................................
.............................. CYCLE    7 ..............................
........................................................................
   1   -138.9381322 -0.138938E+03  0.473E-01    0.15       0.0  T
   2   -138.5234597  0.414673E+00  0.121E+00    0.54       1.0  T
   3   -138.9567642 -0.433304E+00  0.269E-01    0.11       1.0  T
   4   -138.8522164  0.104548E+00  0.616E-01    0.15       1.0  T
   5   -138.9050502 -0.528339E-01  0.484E-01    0.16       1.0  T
   6   -138.9228131 -0.177628E-01  0.373E-01    0.16       1.0  T
   7   -138.9644972 -0.416841E-01  0.592E-02    0.11       1.0  T
   8   -138.9597953  0.470191E-02  0.133E-01    0.11       1.0  T
   9   -138.9648302 -0.503492E-02  0.292E-02    0.11       1.0  T
  10   -138.9636841  0.114607E-02  0.665E-02    0.11       1.0  T
  11   -138.9648497 -0.116556E-02  0.228E-02    0.11       1.0  T
  12   -138.9647583  0.913995E-04  0.284E-02    0.11       1.0  T
  13   -138.9650139 -0.255639E-03  0.333E-03    0.11       3.4  T
  14   -138.9649944  0.195204E-04  0.834E-03    0.11       1.4  T
  15   -138.9650112 -0.168133E-04  0.387E-03    0.11       3.0  T
  16   -138.9650144 -0.313356E-05  0.212E-03    0.11       5.4  T
  17   -138.9650147 -0.348561E-06  0.176E-03    0.11       6.5  T
  18   -138.9650150 -0.338355E-06  0.145E-03    0.11       7.9  T
  19   -138.9650151 -0.129673E-07  0.140E-03    0.11       8.2  T
  20   -138.9650155 -0.454197E-06  0.670E-04    0.11      17.1  T
  21   -138.9650156 -0.130780E-06  0.170E-04    0.11      67.5  T
     SCC iter.                  ...        0 min,  0.223 sec
     gradient                   ...        0 min,  0.081 sec
 * total energy  :  -136.5512747 Eh     change       -0.2247225E-01 Eh
   gradient norm :     0.0578747 Eh/α   predicted    -0.2101652E-01 (  -6.48%)
   displ. norm   :     0.7425773 α      lambda       -0.1910599E-01
   maximum displ.:     0.3153147 α      in ANC's #7, #11, #15, ...

........................................................................
.............................. CYCLE    8 ..............................
........................................................................
   1   -138.9537258 -0.138954E+03  0.384E-01    0.11       0.0  T
   2   -138.5784580  0.375268E+00  0.115E+00    0.58       1.0  T
   3   -138.9664874 -0.388029E+00  0.222E-01    0.08       1.0  T
   4   -138.9233803  0.431072E-01  0.419E-01    0.13       1.0  T
   5   -138.8630310  0.603493E-01  0.600E-01    0.14       1.0  T
   6   -138.9713080 -0.108277E+00  0.471E-02    0.09       1.0  T
   7   -138.9639218  0.738616E-02  0.156E-01    0.09       1.0  T
   8   -138.9716986 -0.777682E-02  0.246E-02    0.09       1.0  T
   9   -138.9678487  0.384989E-02  0.111E-01    0.09       1.0  T
  10   -138.9717446 -0.389585E-02  0.175E-02    0.09       1.0  T
  11   -138.9716289  0.115668E-03  0.252E-02    0.09       1.0  T
  12   -138.9712903  0.338609E-03  0.407E-02    0.09       1.0  T
  13   -138.9718165 -0.526127E-03  0.659E-03    0.09       1.7  T
  14   -138.9717916  0.248106E-04  0.108E-02    0.09       1.1  T
  15   -138.9718285 -0.368858E-04  0.136E-03    0.09       8.5  T
  16   -138.9718269  0.163886E-05  0.238E-03    0.09       4.8  T
  17   -138.9718270 -0.106346E-06  0.233E-03    0.09       4.9  T
  18   -138.9718267  0.324618E-06  0.251E-03    0.09       4.6  T
  19   -138.9718286 -0.194968E-05  0.500E-04    0.09      22.9  T
  20   -138.9718287 -0.346490E-07  0.357E-04    0.09      32.1  T
  21   -138.9718287 -0.574150E-08  0.329E-04    0.09      34.9  T
     SCC iter.                  ...        0 min,  0.224 sec
     gradient                   ...        0 min,  0.081 sec
 * total energy  :  -136.5670758 Eh     change       -0.1580118E-01 Eh
   gradient norm :     0.0382067 Eh/α   predicted    -0.1482074E-01 (  -6.20%)
   displ. norm   :     0.7702759 α      lambda       -0.1384975E-01
   maximum displ.:     0.3982439 α      in ANC's #7, #11, #15, ...

........................................................................
.............................. CYCLE    9 ..............................
........................................................................
   1   -138.9674622 -0.138967E+03  0.313E-01    0.08       0.0  T
   2   -138.6199551  0.347507E+00  0.110E+00    0.52       1.0  T
   3   -138.9678257 -0.347871E+00  0.235E-01    0.07       1.0  T
   4   -138.8274689  0.140357E+00  0.699E-01    0.21       1.0  T
   5   -138.9744287 -0.146960E+00  0.179E-01    0.09       1.0  T
   6   -138.9784353 -0.400659E-02  0.548E-02    0.07       1.0  T
   7   -138.9786369 -0.201522E-03  0.419E-02    0.07       1.0  T
   8   -138.9788915 -0.254690E-03  0.276E-02    0.07       1.0  T
   9   -138.9767806  0.211095E-02  0.826E-02    0.07       1.0  T
  10   -138.9766061  0.174536E-03  0.858E-02    0.07       1.0  T
  11   -138.9790699 -0.246379E-02  0.807E-03    0.07       1.4  T
  12   -138.9790056  0.642551E-04  0.157E-02    0.07       1.0  T
  13   -138.9790295 -0.239005E-04  0.126E-02    0.07       1.0  T
  14   -138.9790791 -0.496057E-04  0.188E-03    0.07       6.1  T
  15   -138.9790792 -0.980131E-07  0.154E-03    0.07       7.5  T
  16   -138.9790793 -0.108714E-06  0.116E-03    0.07       9.9  T
  17   -138.9790794 -0.560870E-07  0.844E-04    0.07      13.6  T
  18   -138.9790791  0.286131E-06  0.120E-03    0.07       9.6  T
  19   -138.9790795 -0.457918E-06  0.218E-04    0.07      52.7  T
     SCC iter.                  ...        0 min,  0.200 sec
     gradient                   ...        0 min,  0.080 sec
 * total energy  :  -136.5788198 Eh     change       -0.1174401E-01 Eh
   gradient norm :     0.0259958 Eh/α   predicted    -0.1103360E-01 (  -6.05%)
   displ. norm   :     0.8016964 α      lambda       -0.1081221E-01
   maximum displ.:     0.4747632 α      in ANC's #7, #11, #15, ...

........................................................................
.............................. CYCLE   10 ..............................
........................................................................
   1   -138.9818694 -0.138982E+03  0.244E-01    0.06       0.0  T
   2   -138.6885276  0.293342E+00  0.977E-01    0.36       1.0  T
   3   -138.9533973 -0.264870E+00  0.331E-01    0.08       1.0  T
   4   -138.7823911  0.171006E+00  0.779E-01    0.18       1.0  T
   5   -138.9556488 -0.173258E+00  0.294E-01    0.06       1.0  T
   6   -138.9728682 -0.172193E-01  0.191E-01    0.07       1.0  T
   7   -138.9729847 -0.116536E-03  0.191E-01    0.06       1.0  T
   8   -138.9845676 -0.115829E-01  0.467E-02    0.05       1.0  T
   9   -138.9845393  0.282559E-04  0.431E-02    0.06       1.0  T
  10   -138.9842620  0.277335E-03  0.512E-02    0.06       1.0  T
  11   -138.9848804 -0.618366E-03  0.287E-02    0.06       1.0  T
  12   -138.9846414  0.238965E-03  0.388E-02    0.06       1.0  T
  13   -138.9850053 -0.363873E-03  0.210E-02    0.06       1.0  T
  14   -138.9850101 -0.479889E-05  0.205E-02    0.06       1.0  T
  15   -138.9850804 -0.703684E-04  0.147E-02    0.06       1.0  T
  16   -138.9851530 -0.725345E-04  0.135E-03    0.06       8.5  T
  17   -138.9851523  0.678808E-06  0.192E-03    0.06       6.0  T
  18   -138.9851532 -0.899795E-06  0.952E-04    0.06      12.0  T
  19   -138.9851535 -0.278094E-06  0.258E-04    0.06      44.5  T
     SCC iter.                  ...        0 min,  0.200 sec
     gradient                   ...        0 min,  0.081 sec
 * total energy  :  -136.5882604 Eh     change       -0.9440599E-02 Eh
   gradient norm :     0.0227658 Eh/α   predicted    -0.8880708E-02 (  -5.93%)
   displ. norm   :     0.8268470 α      lambda       -0.9060137E-02
   maximum displ.:     0.5356410 α      in ANC's #7, #11, #15, ...

........................................................................
.............................. CYCLE   11 ..............................
........................................................................
   1   -138.9896085 -0.138990E+03  0.213E-01    0.04       0.0  T
   2   -138.9708728  0.187357E-01  0.272E-01    0.06       1.0  T
   3   -138.7772650  0.193608E+00  0.818E-01    0.34       1.0  T
   4   -138.9312122 -0.153947E+00  0.424E-01    0.08       1.0  T
   5   -138.9810643 -0.498521E-01  0.162E-01    0.05       1.0  T
   6   -138.9718392  0.922508E-02  0.232E-01    0.06       1.0  T
   7   -138.9894662 -0.176270E-01  0.362E-02    0.05       1.0  T
   8   -138.9891723  0.293946E-03  0.431E-02    0.05       1.0  T
   9   -138.9872418  0.193048E-02  0.862E-02    0.05       1.0  T
  10   -138.9895434 -0.230163E-02  0.255E-02    0.05       1.0  T
  11   -138.9896691 -0.125618E-03  0.161E-02    0.05       1.0  T
  12   -138.9897518 -0.827387E-04  0.321E-03    0.05       3.6  T
  13   -138.9897540 -0.217203E-05  0.180E-03    0.05       6.4  T
  14   -138.9897357  0.182568E-04  0.748E-03    0.05       1.5  T
  15   -138.9897530 -0.172683E-04  0.212E-03    0.05       5.4  T
  16   -138.9897543 -0.136048E-05  0.731E-04    0.05      15.7  T
  17   -138.9897540  0.395019E-06  0.126E-03    0.05       9.1  T
  18   -138.9897540 -0.612301E-07  0.119E-03    0.05       9.7  T
  19   -138.9897545 -0.474718E-06  0.150E-04    0.05      76.4  T
  20   -138.9897545  0.188851E-07  0.275E-04    0.05      41.7  T
     SCC iter.                  ...        0 min,  0.214 sec
     gradient                   ...        0 min,  0.080 sec
 * total energy  :  -136.5963291 Eh     change       -0.8068655E-02 Eh
   gradient norm :     0.0217476 Eh/α   predicted    -0.7627174E-02 (  -5.47%)
   displ. norm   :     0.8320293 α      lambda       -0.7798644E-02
   maximum displ.:     0.5694736 α      in ANC's #7, #11, #15, ...

........................................................................
.............................. CYCLE   12 ..............................
........................................................................
   1   -138.9862522 -0.138986E+03  0.250E-01    0.04       0.0  T
   2   -138.7302259  0.256026E+00  0.946E-01    0.57       1.0  T
   3   -138.9365084 -0.206282E+00  0.430E-01    0.08       1.0  T
   4   -138.7416083  0.194900E+00  0.881E-01    0.25       1.0  T
   5   -138.9129242 -0.171316E+00  0.482E-01    0.08       1.0  T
   6   -138.9005166  0.124076E-01  0.521E-01    0.10       1.0  T
   7   -138.9928978 -0.923811E-01  0.549E-02    0.04       1.0  T
   8   -138.9869553  0.594243E-02  0.138E-01    0.04       1.0  T
   9   -138.9835404  0.341492E-02  0.170E-01    0.05       1.0  T
  10   -138.9925294 -0.898901E-02  0.523E-02    0.04       1.0  T
  11   -138.9933658 -0.836345E-03  0.165E-02    0.04       1.0  T
  12   -138.9933693 -0.352122E-05  0.161E-02    0.04       1.0  T
  13   -138.9934473 -0.780447E-04  0.529E-03    0.04       2.2  T
  14   -138.9934534 -0.608484E-05  0.309E-03    0.04       3.7  T
  15   -138.9934541 -0.672895E-06  0.266E-03    0.04       4.3  T
  16   -138.9934563 -0.222013E-05  0.841E-04    0.04      13.6  T
  17   -138.9934562  0.164108E-06  0.105E-03    0.04      11.0  T
  18   -138.9934564 -0.268248E-06  0.543E-04    0.04      21.1  T
  19   -138.9934565 -0.914725E-07  0.146E-04    0.04      78.6  T
     SCC iter.                  ...        0 min,  0.201 sec
     gradient                   ...        0 min,  0.080 sec
 * total energy  :  -136.6032964 Eh     change       -0.6967336E-02 Eh
   gradient norm :     0.0199908 Eh/α   predicted    -0.6598721E-02 (  -5.29%)
   displ. norm   :     0.8419876 α      lambda       -0.6978080E-02
   maximum displ.:     0.5974495 α      in ANC's #7, #11, #15, ...

........................................................................
.............................. CYCLE   13 ..............................
........................................................................
   1   -138.9833414 -0.138983E+03  0.269E-01    0.03       0.0  T
   2   -138.7052698  0.278072E+00  0.101E+00    0.65       1.0  T
   3   -138.8513569 -0.146087E+00  0.667E-01    0.13       1.0  T
   4   -138.8207627  0.305941E-01  0.731E-01    0.13       1.0  T
   5   -138.9799369 -0.159174E+00  0.219E-01    0.04       1.0  T
   6   -138.9825136 -0.257665E-02  0.196E-01    0.04       1.0  T
   7   -138.9783371  0.417649E-02  0.222E-01    0.05       1.0  T
   8   -138.9589793  0.193578E-01  0.323E-01    0.05       1.0  T
   9   -138.9939449 -0.349656E-01  0.513E-02    0.03       1.0  T
  10   -138.9926385  0.130631E-02  0.800E-02    0.03       1.0  T
  11   -138.9946723 -0.203375E-02  0.221E-02    0.03       1.0  T
  12   -138.9945422  0.130137E-03  0.293E-02    0.03       1.0  T
  13   -138.9948142 -0.272055E-03  0.752E-03    0.03       1.5  T
  14   -138.9948042  0.100297E-04  0.926E-03    0.03       1.2  T
  15   -138.9948027  0.144453E-05  0.950E-03    0.03       1.2  T
  16   -138.9948302 -0.274742E-04  0.309E-03    0.03       3.7  T
  17   -138.9948325 -0.229487E-05  0.163E-03    0.03       7.0  T
  18   -138.9948333 -0.775682E-06  0.551E-04    0.03      20.8  T
  19   -138.9948331  0.146436E-06  0.840E-04    0.03      13.7  T
     SCC iter.                  ...        0 min,  0.205 sec
     gradient                   ...        0 min,  0.080 sec
 * total energy  :  -136.6093872 Eh     change       -0.6090729E-02 Eh
   gradient norm :     0.0184517 Eh/α   predicted    -0.5962578E-02 (  -2.10%)
   displ. norm   :     0.8323980 α      lambda       -0.6261005E-02
   maximum displ.:     0.6151543 α      in ANC's #7, #11, #5, ...

........................................................................
.............................. CYCLE   14 ..............................
........................................................................
   1   -138.9637746 -0.138964E+03  0.364E-01    0.04       0.0  T
   2   -138.6207864  0.342988E+00  0.120E+00    0.60       1.0  T
   3   -138.7673799 -0.146594E+00  0.851E-01    0.36       1.0  T
   4   -138.9666239 -0.199244E+00  0.318E-01    0.05       1.0  T
   5   -138.7630584  0.203566E+00  0.840E-01    0.19       1.0  T
   6   -138.9956910 -0.232633E+00  0.629E-02    0.03       1.0  T
   7   -138.9875839  0.810706E-02  0.163E-01    0.04       1.0  T
   8   -138.9960468 -0.846288E-02  0.369E-02    0.03       1.0  T
   9   -138.9869635  0.908330E-02  0.166E-01    0.04       1.0  T
  10   -138.9830326  0.393092E-02  0.198E-01    0.03       1.0  T
  11   -138.9951673 -0.121347E-01  0.590E-02    0.03       1.0  T
  12   -138.9963255 -0.115820E-02  0.804E-03    0.03       1.4  T
  13   -138.9963202  0.533346E-05  0.879E-03    0.03       1.3  T
  14   -138.9963447 -0.245259E-04  0.187E-03    0.03       6.1  T
  15   -138.9963392  0.549998E-05  0.437E-03    0.03       2.6  T
  16   -138.9962921  0.471324E-04  0.126E-02    0.03       1.0  T
  17   -138.9963446 -0.525758E-04  0.150E-03    0.03       7.6  T
  18   -138.9963413  0.328468E-05  0.346E-03    0.03       3.3  T
  19   -138.9963432 -0.182042E-05  0.255E-03    0.03       4.5  T
  20   -138.9963453 -0.217596E-05  0.651E-05    0.03     176.2  T
  21   -138.9963449  0.461585E-06  0.117E-03    0.03       9.8  T
  22   -138.9963453 -0.456036E-06  0.135E-04    0.03      85.0  T
  23   -138.9963453  0.878637E-08  0.207E-04    0.03      55.5  T
     SCC iter.                  ...        0 min,  0.245 sec
     gradient                   ...        0 min,  0.080 sec
 * total energy  :  -136.6148788 Eh     change       -0.5491628E-02 Eh
   gradient norm :     0.0165828 Eh/α   predicted    -0.5299587E-02 (  -3.50%)
   displ. norm   :     0.8275326 α      lambda       -0.5383348E-02
   maximum displ.:     0.6323812 α      in ANC's #7, #5, #11, ...

........................................................................
.............................. CYCLE   15 ..............................
........................................................................
   1   -138.9624000 -0.138962E+03  0.366E-01    0.04       0.0  T
   2   -138.6064893  0.355911E+00  0.123E+00    0.50       1.0  T
   3   -138.7605925 -0.154103E+00  0.865E-01    0.37       1.0  T
   4   -138.9460269 -0.185434E+00  0.403E-01    0.06       1.0  T
   5   -138.7458193  0.200208E+00  0.879E-01    0.24       1.0  T
   6   -138.9024642 -0.156645E+00  0.531E-01    0.08       1.0  T
   7   -138.9453329 -0.428687E-01  0.391E-01    0.06       1.0  T
   8   -138.9952989 -0.499660E-01  0.665E-02    0.02       1.0  T
   9   -138.9905176  0.478137E-02  0.135E-01    0.03       1.0  T
  10   -138.9928861 -0.236854E-02  0.105E-01    0.02       1.0  T
  11   -138.9962950 -0.340890E-02  0.306E-02    0.02       1.0  T
  12   -138.9964102 -0.115227E-03  0.241E-02    0.02       1.0  T
  13   -138.9965620 -0.151757E-03  0.111E-02    0.02       1.0  T
  14   -138.9965175  0.444547E-04  0.159E-02    0.02       1.0  T
  15   -138.9965478 -0.302294E-04  0.127E-02    0.02       1.0  T
  16   -138.9965960 -0.482385E-04  0.427E-03    0.02       2.7  T
  17   -138.9965985 -0.252032E-05  0.320E-03    0.02       3.6  T
  18   -138.9966016 -0.311763E-05  0.957E-04    0.02      12.0  T
  19   -138.9966018 -0.204465E-06  0.524E-04    0.02      21.9  T
  20   -138.9966016  0.297291E-06  0.107E-03    0.02      10.7  T
  21   -138.9966017 -0.183292E-06  0.770E-04    0.02      14.9  T
     SCC iter.                  ...        0 min,  0.221 sec
     gradient                   ...        0 min,  0.080 sec
 * total energy  :  -136.6197127 Eh     change       -0.4833880E-02 Eh
   gradient norm :     0.0148104 Eh/α   predicted    -0.4534965E-02 (  -6.18%)
   displ. norm   :     0.8405624 α      lambda       -0.4993957E-02
   maximum displ.:     0.6506878 α      in ANC's #7, #5, #11, ...

........................................................................
.............................. CYCLE   16 ..............................
........................................................................
   1   -138.9575939 -0.138958E+03  0.390E-01    0.05       0.0  T
   2   -138.5711095  0.386484E+00  0.129E+00    0.31       1.0  T
   3   -138.7524786 -0.181369E+00  0.886E-01    0.41       1.0  T
   4   -138.9113379 -0.158859E+00  0.520E-01    0.08       1.0  T
   5   -138.7360335  0.175304E+00  0.909E-01    0.29       1.0  T
   6   -138.7760598 -0.400263E-01  0.819E-01    0.19       1.0  T
   7   -138.9843153 -0.208255E+00  0.204E-01    0.03       1.0  T
   8   -138.9962484 -0.119331E-01  0.725E-02    0.02       1.0  T
   9   -138.9977520 -0.150357E-02  0.189E-02    0.02       1.0  T
  10   -138.9950076  0.274432E-02  0.910E-02    0.02       1.0  T
  11   -138.9965817 -0.157408E-02  0.595E-02    0.02       1.0  T
  12   -138.9974297 -0.847978E-03  0.322E-02    0.02       1.0  T
  13   -138.9977556 -0.325892E-03  0.621E-03    0.02       1.8  T
  14   -138.9977628 -0.725545E-05  0.314E-03    0.02       3.7  T
  15   -138.9977306  0.322929E-04  0.103E-02    0.02       1.1  T
  16   -138.9977609 -0.303242E-04  0.377E-03    0.02       3.0  T
  17   -138.9977653 -0.439547E-05  0.892E-04    0.02      12.9  T
  18   -138.9977643  0.988278E-06  0.193E-03    0.02       5.9  T
  19   -138.9977655 -0.118830E-05  0.190E-04    0.02      60.4  T
  20   -138.9977650  0.523222E-06  0.126E-03    0.02       9.1  T
  21   -138.9977654 -0.485665E-06  0.350E-04    0.02      32.8  T
  22   -138.9977654 -0.104691E-07  0.296E-04    0.02      38.8  T
     SCC iter.                  ...        0 min,  0.236 sec
     gradient                   ...        0 min,  0.080 sec
 * total energy  :  -136.6239829 Eh     change       -0.4270243E-02 Eh
   gradient norm :     0.0135232 Eh/α   predicted    -0.4261222E-02 (  -0.21%)
   displ. norm   :     0.8317975 α      lambda       -0.4361989E-02
   maximum displ.:     0.6610656 α      in ANC's #7, #5, #11, ...

........................................................................
.............................. CYCLE   17 ..............................
........................................................................
   1   -138.9611229 -0.138961E+03  0.374E-01    0.04       0.0  T
   2   -138.5781435  0.382979E+00  0.128E+00    0.33       1.0  T
   3   -138.7495690 -0.171425E+00  0.889E-01    0.39       1.0  T
   4   -138.9379644 -0.188395E+00  0.435E-01    0.06       1.0  T
   5   -138.7360688  0.201896E+00  0.911E-01    0.29       1.0  T
   6   -138.7851232 -0.490544E-01  0.804E-01    0.17       1.0  T
   7   -138.9760546 -0.190931E+00  0.255E-01    0.04       1.0  T
   8   -138.9971865 -0.211319E-01  0.314E-02    0.01       1.0  T
   9   -138.9961710  0.101549E-02  0.619E-02    0.02       1.0  T
  10   -138.9917185  0.445257E-02  0.131E-01    0.02       1.0  T
  11   -138.9969452 -0.522672E-02  0.358E-02    0.01       1.0  T
  12   -138.9973352 -0.389975E-03  0.993E-03    0.01       1.2  T
  13   -138.9973328  0.233969E-05  0.977E-03    0.01       1.2  T
  14   -138.9973555 -0.227266E-04  0.464E-03    0.01       2.5  T
  15   -138.9973246  0.309653E-04  0.107E-02    0.01       1.1  T
  16   -138.9973505 -0.259366E-04  0.594E-03    0.01       1.9  T
  17   -138.9973585 -0.794257E-05  0.329E-03    0.01       3.5  T
  18   -138.9973617 -0.328392E-05  0.859E-04    0.01      13.3  T
  19   -138.9973616  0.125493E-06  0.104E-03    0.01      11.0  T
  20   -138.9973616  0.453835E-08  0.105E-03    0.01      10.9  T
  21   -138.9973620 -0.333689E-06  0.275E-04    0.01      41.7  T
  22   -138.9973620 -0.163885E-07  0.154E-04    0.01      74.6  T
     SCC iter.                  ...        0 min,  0.231 sec
     gradient                   ...        0 min,  0.080 sec
 * total energy  :  -136.6277494 Eh     change       -0.3766504E-02 Eh
   gradient norm :     0.0134486 Eh/α   predicted    -0.3690009E-02 (  -2.03%)
   displ. norm   :     0.8390672 α      lambda       -0.3590229E-02
   maximum displ.:     0.6728825 α      in ANC's #7, #5, #11, ...

........................................................................
.............................. CYCLE   18 ..............................
........................................................................
   1   -138.9641636 -0.138964E+03  0.355E-01    0.04       0.0  T
   2   -138.5868597  0.377304E+00  0.126E+00    0.37       1.0  T
   3   -138.7472528 -0.160393E+00  0.889E-01    0.36       1.0  T
   4   -138.9606175 -0.213365E+00  0.341E-01    0.04       1.0  T
   5   -138.7484891  0.212128E+00  0.884E-01    0.23       1.0  T
   6   -138.8686658 -0.120177E+00  0.623E-01    0.10       1.0  T
   7   -138.9409740 -0.723082E-01  0.410E-01    0.06       1.0  T
   8   -138.9958972 -0.549231E-01  0.312E-02    0.01       1.0  T
   9   -138.9958340  0.631668E-04  0.325E-02    0.01       1.0  T
  10   -138.9946860  0.114801E-02  0.668E-02    0.01       1.0  T
  11   -138.9960020 -0.131604E-02  0.211E-02    0.01       1.0  T
  12   -138.9961163 -0.114269E-03  0.968E-03    0.01       1.2  T
  13   -138.9961106  0.569777E-05  0.104E-02    0.01       1.1  T
  14   -138.9961455 -0.349179E-04  0.129E-03    0.01       8.9  T
  15   -138.9961425  0.303385E-05  0.328E-03    0.01       3.5  T
  16   -138.9961446 -0.207502E-05  0.208E-03    0.01       5.5  T
  17   -138.9961449 -0.288206E-06  0.185E-03    0.01       6.2  T
  18   -138.9961459 -0.101946E-05  0.542E-04    0.01      21.2  T
  19   -138.9961460 -0.894696E-07  0.108E-04    0.01     106.7  T
  20   -138.9961458  0.128560E-06  0.633E-04    0.01      18.1  T
     SCC iter.                  ...        0 min,  0.210 sec
     gradient                   ...        0 min,  0.079 sec
 * total energy  :  -136.6309127 Eh     change       -0.3163251E-02 Eh
   gradient norm :     0.0151231 Eh/α   predicted    -0.3058929E-02 (  -3.30%)
   displ. norm   :     0.8339012 α      lambda       -0.3227455E-02
   maximum displ.:     0.6676628 α      in ANC's #7, #5, #52, ...

........................................................................
.............................. CYCLE   19 ..............................
........................................................................
   1   -138.9754024 -0.138975E+03  0.301E-01    0.03       0.0  T
   2   -138.6294623  0.345940E+00  0.118E+00    0.61       1.0  T
   3   -138.7558901 -0.126428E+00  0.869E-01    0.26       1.0  T
   4   -138.9955543 -0.239664E+00  0.100E-01    0.01       1.0  T
   5   -138.9577919  0.377624E-01  0.344E-01    0.04       1.0  T
   6   -138.9691582 -0.113663E-01  0.286E-01    0.04       1.0  T
   7   -138.9958459 -0.266877E-01  0.307E-02    0.01       1.0  T
   8   -138.9938247  0.202122E-02  0.832E-02    0.01       1.0  T
   9   -138.9953849 -0.156016E-02  0.473E-02    0.01       1.0  T
  10   -138.9954694 -0.845309E-04  0.439E-02    0.01       1.0  T
  11   -138.9960620 -0.592626E-03  0.108E-02    0.01       1.1  T
  12   -138.9960563  0.572575E-05  0.118E-02    0.01       1.0  T
  13   -138.9960163  0.399585E-04  0.162E-02    0.01       1.0  T
  14   -138.9960862 -0.699079E-04  0.677E-03    0.01       1.7  T
  15   -138.9960839  0.232314E-05  0.733E-03    0.01       1.6  T
  16   -138.9960864 -0.247712E-05  0.673E-03    0.01       1.7  T
  17   -138.9960999 -0.134767E-04  0.204E-03    0.01       5.6  T
  18   -138.9961009 -0.106567E-05  0.903E-04    0.01      12.7  T
  19   -138.9961011 -0.151606E-06  0.593E-04    0.01      19.4  T
  20   -138.9961012 -0.108026E-06  0.146E-04    0.01      78.7  T
     SCC iter.                  ...        0 min,  0.212 sec
     gradient                   ...        0 min,  0.079 sec
 * total energy  :  -136.6335785 Eh     change       -0.2665836E-02 Eh
   gradient norm :     0.0177047 Eh/α   predicted    -0.2735907E-02 (   2.63%)
   displ. norm   :     0.7970175 α      lambda       -0.2934951E-02
   maximum displ.:     0.6360731 α      in ANC's #7, #5, #52, ...

........................................................................
.............................. CYCLE   20 ..............................
........................................................................
   1   -138.9920281 -0.138992E+03  0.225E-01    0.02       0.0  T
   2   -138.6879139  0.304114E+00  0.105E+00    0.62       1.0  T
   3   -138.8873056 -0.199392E+00  0.596E-01    0.09       1.0  T
   4   -138.8386267  0.486790E-01  0.713E-01    0.11       1.0  T
   5   -139.0002477 -0.161621E+00  0.407E-02    0.00       1.0  T
   6   -138.9793920  0.208557E-01  0.256E-01    0.03       1.0  T
   7   -138.9914182 -0.120262E-01  0.167E-01    0.02       1.0  T
   8   -138.9984753 -0.705716E-02  0.789E-02    0.01       1.0  T
   9   -139.0004549 -0.197957E-02  0.128E-02    0.00       1.0  T
  10   -139.0000378  0.417136E-03  0.378E-02    0.00       1.0  T
  11   -139.0004985 -0.460763E-03  0.372E-03    0.00       3.1  T
  12   -139.0004846  0.139824E-04  0.746E-03    0.00       1.5  T
  13   -139.0005015 -0.169810E-04  0.193E-03    0.00       6.0  T
  14   -139.0005022 -0.622908E-06  0.131E-03    0.00       8.7  T
  15   -139.0005026 -0.415512E-06  0.643E-04    0.00      17.8  T
  16   -139.0005021  0.435341E-06  0.132E-03    0.00       8.7  T
  17   -139.0005027 -0.555998E-06  0.115E-04    0.00      99.4  T
     SCC iter.                  ...        0 min,  0.181 sec
     gradient                   ...        0 min,  0.079 sec
 * total energy  :  -136.6358960 Eh     change       -0.2317471E-02 Eh
   gradient norm :     0.0162129 Eh/α   predicted    -0.2399672E-02 (   3.55%)
   displ. norm   :     0.7677983 α      lambda       -0.2417708E-02
   maximum displ.:     0.5836204 α      in ANC's #7, #5, #52, ...
 * RMSD in coord.:     1.3782953 α      energy gain  -0.1630600E+01 Eh

generating ANC from model Hessian ...
Using Lindh-Hessian (1995)
 Shifting diagonal of input Hessian by    1.0029993367306795E-002
 Lowest  eigenvalues of input Hessian
    0.010000    0.010010    0.010015    0.000000    0.000000    0.000000
    0.000000    0.000000    0.000000    0.010112    0.010328    0.011200
    0.011401    0.011445    0.011877    0.012454    0.012641    0.013201
 Highest eigenvalues
    2.145930    2.146377    2.150813    2.155827    2.391645    2.920100


........................................................................
.............................. CYCLE   21 ..............................
........................................................................
   1   -138.9893622 -0.138989E+03  0.205E-01    0.02       0.0  T
   2   -138.6930070  0.296355E+00  0.103E+00    0.60       1.0  T
   3   -138.9305961 -0.237589E+00  0.455E-01    0.06       1.0  T
   4   -138.7643313  0.166265E+00  0.856E-01    0.19       1.0  T
   5   -138.9236411 -0.159310E+00  0.466E-01    0.06       1.0  T
   6   -138.9554161 -0.317750E-01  0.352E-01    0.05       1.0  T
   7   -138.9917520 -0.363359E-01  0.110E-01    0.01       1.0  T
   8   -138.9945969 -0.284486E-02  0.624E-02    0.01       1.0  T
   9   -138.9956018 -0.100493E-02  0.259E-02    0.00       1.0  T
  10   -138.9950473  0.554534E-03  0.487E-02    0.01       1.0  T
  11   -138.9953545 -0.307244E-03  0.376E-02    0.00       1.0  T
  12   -138.9958025 -0.447995E-03  0.499E-03    0.00       2.3  T
  13   -138.9957485  0.539990E-04  0.137E-02    0.00       1.0  T
  14   -138.9957893 -0.407649E-04  0.787E-03    0.00       1.5  T
  15   -138.9958082 -0.189670E-04  0.199E-03    0.00       5.8  T
  16   -138.9958093 -0.110828E-05  0.621E-04    0.00      18.5  T
  17   -138.9958094 -0.318202E-07  0.423E-04    0.00      27.1  T
  18   -138.9958091  0.265256E-06  0.972E-04    0.00      11.8  T
     SCC iter.                  ...        0 min,  0.189 sec
     gradient                   ...        0 min,  0.079 sec
 * total energy  :  -136.6377152 Eh     change       -0.1819201E-02 Eh
   gradient norm :     0.0176445 Eh/α   predicted     0.0000000E+00 (-100.00%)
   displ. norm   :     0.2416673 α      lambda       -0.1296920E-02
   maximum displ.:     0.1640989 α      in ANC's #7, #8, #6, ...

........................................................................
.............................. CYCLE   22 ..............................
........................................................................
   1   -139.0027418 -0.139003E+03  0.597E-02    0.00       0.0  T
   2   -138.8439682  0.158774E+00  0.701E-01    0.11       1.0  T
   3   -138.9959214 -0.151953E+00  0.150E-01    0.02       1.0  T
   4   -139.0000474 -0.412600E-02  0.933E-02    0.01       1.0  T
   5   -139.0028231 -0.277577E-02  0.118E-02    0.00       1.0  T
   6   -139.0028072  0.159412E-04  0.129E-02    0.00       1.0  T
   7   -139.0028573 -0.501101E-04  0.300E-03    0.00       3.8  T
   8   -139.0028589 -0.156191E-05  0.152E-03    0.00       7.5  T
   9   -139.0028589 -0.524660E-07  0.887E-04    0.00      12.9  T
  10   -139.0028589  0.226816E-07  0.788E-04    0.00      14.6  T
     SCC iter.                  ...        0 min,  0.107 sec
     gradient                   ...        0 min,  0.079 sec
 * total energy  :  -136.6387738 Eh     change       -0.1058594E-02 Eh
   gradient norm :     0.0077795 Eh/α   predicted    -0.6863610E-03 ( -35.16%)
   displ. norm   :     0.5162129 α      lambda       -0.1731594E-02
   maximum displ.:     0.3479395 α      in ANC's #7, #6, #8, ...

........................................................................
.............................. CYCLE   23 ..............................
........................................................................
   1   -139.0094585 -0.139009E+03  0.120E-01    0.01       0.0  T
   2   -138.7420066  0.267452E+00  0.925E-01    0.31       1.0  T
   3   -138.9883707 -0.246364E+00  0.268E-01    0.03       1.0  T
   4   -138.8804415  0.107929E+00  0.630E-01    0.09       1.0  T
   5   -139.0097222 -0.129281E+00  0.443E-02    0.00       1.0  T
   6   -139.0096470  0.751736E-04  0.470E-02    0.00       1.0  T
   7   -139.0091928  0.454221E-03  0.590E-02    0.01       1.0  T
   8   -139.0099450 -0.752209E-03  0.350E-02    0.01       1.0  T
   9   -139.0101792 -0.234180E-03  0.219E-02    0.00       1.0  T
  10   -139.0103288 -0.149584E-03  0.461E-03    0.00       2.5  T
  11   -139.0103323 -0.354094E-05  0.296E-03    0.00       3.9  T
  12   -139.0103182  0.140844E-04  0.723E-03    0.00       1.6  T
  13   -139.0103330 -0.147857E-04  0.243E-03    0.00       4.7  T
  14   -139.0103338 -0.809620E-06  0.185E-03    0.00       6.2  T
  15   -139.0103340 -0.161888E-06  0.167E-03    0.00       6.9  T
  16   -139.0103345 -0.537349E-06  0.106E-03    0.00      10.8  T
  17   -139.0103349 -0.348908E-06  0.144E-04    0.00      79.7  T
  18   -139.0103349 -0.411694E-08  0.945E-05    0.00     121.4  T
     SCC iter.                  ...        0 min,  0.193 sec
     gradient                   ...        0 min,  0.079 sec
 * total energy  :  -136.6401286 Eh     change       -0.1354828E-02 Eh
   gradient norm :     0.0088206 Eh/α   predicted    -0.1096512E-02 ( -19.07%)
   displ. norm   :     0.5609901 α      lambda       -0.1324793E-02
   maximum displ.:     0.3735016 α      in ANC's #7, #8, #6, ...

........................................................................
.............................. CYCLE   24 ..............................
........................................................................
   1   -139.0120752 -0.139012E+03  0.114E-01    0.00       0.0  T
   2   -138.9347317  0.773435E-01  0.493E-01    0.06       1.0  T
   3   -138.9167193  0.180123E-01  0.548E-01    0.08       1.0  T
   4   -139.0118989 -0.951796E-01  0.319E-02    0.00       1.0  T
   5   -139.0120900 -0.191093E-03  0.126E-02    0.00       1.0  T
   6   -139.0121099 -0.198237E-04  0.764E-03    0.00       1.5  T
   7   -139.0121061  0.376112E-05  0.728E-03    0.00       1.6  T
   8   -139.0121179 -0.118469E-04  0.357E-03    0.00       3.2  T
   9   -139.0121205 -0.251120E-05  0.162E-03    0.00       7.1  T
  10   -139.0121206 -0.143283E-06  0.886E-04    0.00      13.0  T
  11   -139.0121205  0.100014E-06  0.952E-04    0.00      12.1  T
     SCC iter.                  ...        0 min,  0.117 sec
     gradient                   ...        0 min,  0.079 sec
 * total energy  :  -136.6412000 Eh     change       -0.1071435E-02 Eh
   gradient norm :     0.0126653 Eh/α   predicted    -0.8708601E-03 ( -18.72%)
   displ. norm   :     0.6128031 α      lambda       -0.1409810E-02
   maximum displ.:     0.3979081 α      in ANC's #7, #8, #6, ...

........................................................................
.............................. CYCLE   25 ..............................
........................................................................
   1   -139.0110591 -0.139011E+03  0.129E-01    0.00       0.0  T
   2   -138.7766321  0.234427E+00  0.862E-01    0.21       1.0  T
   3   -138.9899807 -0.213349E+00  0.267E-01    0.03       1.0  T
   4   -138.9637220  0.262587E-01  0.384E-01    0.05       1.0  T
   5   -139.0104708 -0.467488E-01  0.555E-02    0.01       1.0  T
   6   -139.0114408 -0.970057E-03  0.679E-03    0.00       1.7  T
   7   -139.0112398  0.201042E-03  0.253E-02    0.00       1.0  T
   8   -139.0112229  0.168843E-04  0.264E-02    0.00       1.0  T
   9   -139.0112601 -0.371456E-04  0.238E-02    0.00       1.0  T
  10   -139.0114292 -0.169096E-03  0.713E-03    0.00       1.6  T
  11   -139.0114453 -0.160942E-04  0.616E-04    0.00      18.6  T
  12   -139.0114423  0.296965E-05  0.308E-03    0.00       3.7  T
  13   -139.0114453 -0.296848E-05  0.357E-04    0.00      32.1  T
  14   -139.0114451  0.141741E-06  0.738E-04    0.00      15.6  T
  15   -139.0114447  0.374525E-06  0.130E-03    0.00       8.8  T
  16   -139.0114453 -0.533438E-06  0.708E-05    0.00     162.0  T
     SCC iter.                  ...        0 min,  0.172 sec
     gradient                   ...        0 min,  0.079 sec
 * total energy  :  -136.6422150 Eh     change       -0.1014951E-02 Eh
   gradient norm :     0.0124097 Eh/α   predicted    -0.9696168E-03 (  -4.47%)
   displ. norm   :     0.5502923 α      lambda       -0.1211708E-02
   maximum displ.:     0.3648663 α      in ANC's #7, #8, #6, ...

........................................................................
.............................. CYCLE   26 ..............................
........................................................................
   1   -139.0087360 -0.139009E+03  0.153E-01    0.01       0.0  T
   2   -138.7220221  0.286714E+00  0.995E-01    0.56       1.0  T
   3   -138.9755591 -0.253537E+00  0.344E-01    0.04       1.0  T
   4   -138.8206166  0.154943E+00  0.779E-01    0.13       1.0  T
   5   -138.9854600 -0.164843E+00  0.288E-01    0.03       1.0  T
   6   -138.9878528 -0.239282E-02  0.278E-01    0.04       1.0  T
   7   -139.0125172 -0.246643E-01  0.338E-02    0.00       1.0  T
   8   -139.0117452  0.772007E-03  0.601E-02    0.01       1.0  T
   9   -139.0126600 -0.914813E-03  0.270E-02    0.00       1.0  T
  10   -139.0127868 -0.126845E-03  0.181E-02    0.00       1.0  T
  11   -139.0128241 -0.372699E-04  0.146E-02    0.00       1.0  T
  12   -139.0128863 -0.622172E-04  0.417E-03    0.00       2.8  T
  13   -139.0128857  0.624491E-06  0.428E-03    0.00       2.7  T
  14   -139.0128914 -0.575832E-05  0.795E-04    0.00      14.4  T
  15   -139.0128916 -0.189945E-06  0.196E-04    0.00      58.5  T
  16   -139.0128916  0.536313E-07  0.431E-04    0.00      26.6  T
     SCC iter.                  ...        0 min,  0.170 sec
     gradient                   ...        0 min,  0.079 sec
 * total energy  :  -136.6432287 Eh     change       -0.1013678E-02 Eh
   gradient norm :     0.0080367 Eh/α   predicted    -0.7893204E-03 ( -22.13%)
   displ. norm   :     0.6089669 α      lambda       -0.1108001E-02
   maximum displ.:     0.4074113 α      in ANC's #7, #8, #6, ...

........................................................................
.............................. CYCLE   27 ..............................
........................................................................
   1   -139.0036825 -0.139004E+03  0.219E-01    0.02       0.0  T
   2   -138.6813119  0.322371E+00  0.110E+00    0.73       1.0  T
   3   -138.8129195 -0.131608E+00  0.793E-01    0.15       1.0  T
   4   -139.0044204 -0.191501E+00  0.192E-01    0.02       1.0  T
   5   -138.9439576  0.604629E-01  0.468E-01    0.06       1.0  T
   6   -139.0127782 -0.688207E-01  0.861E-02    0.01       1.0  T
   7   -139.0137787 -0.100043E-02  0.648E-02    0.01       1.0  T
   8   -139.0151150 -0.133632E-02  0.121E-02    0.00       1.0  T
   9   -139.0148814  0.233550E-03  0.294E-02    0.00       1.0  T
  10   -139.0150690 -0.187539E-03  0.169E-02    0.00       1.0  T
  11   -139.0151542 -0.852131E-04  0.432E-03    0.00       2.7  T
  12   -139.0150275  0.126716E-03  0.203E-02    0.00       1.0  T
  13   -139.0151185 -0.909956E-04  0.113E-02    0.00       1.0  T
  14   -139.0151582 -0.397606E-04  0.242E-03    0.00       4.7  T
  15   -139.0151602 -0.194440E-05  0.198E-04    0.00      58.1  T
  16   -139.0151600  0.126685E-06  0.642E-04    0.00      17.9  T
  17   -139.0151602 -0.130442E-06  0.831E-05    0.00     138.0  T
     SCC iter.                  ...        0 min,  0.183 sec
     gradient                   ...        0 min,  0.079 sec
 * total energy  :  -136.6441672 Eh     change       -0.9385754E-03 Eh
   gradient norm :     0.0066938 Eh/α   predicted    -0.7594473E-03 ( -19.09%)
   displ. norm   :     0.6484144 α      lambda       -0.9490574E-03
   maximum displ.:     0.4334315 α      in ANC's #7, #6, #8, ...

........................................................................
.............................. CYCLE   28 ..............................
........................................................................
   1   -139.0039929 -0.139004E+03  0.220E-01    0.02       0.0  T
   2   -138.6802060  0.323787E+00  0.110E+00    0.74       1.0  T
   3   -138.8150023 -0.134796E+00  0.789E-01    0.15       1.0  T
   4   -138.9950302 -0.180028E+00  0.258E-01    0.03       1.0  T
   5   -138.9376739  0.573563E-01  0.489E-01    0.07       1.0  T
   6   -139.0102905 -0.726165E-01  0.125E-01    0.02       1.0  T
   7   -139.0107428 -0.452354E-03  0.118E-01    0.01       1.0  T
   8   -139.0149442 -0.420132E-02  0.325E-02    0.00       1.0  T
   9   -139.0152766 -0.332443E-03  0.721E-03    0.00       1.6  T
  10   -139.0152177  0.589470E-04  0.154E-02    0.00       1.0  T
  11   -139.0151686  0.490865E-04  0.196E-02    0.00       1.0  T
  12   -139.0152754 -0.106795E-03  0.741E-03    0.00       1.5  T
  13   -139.0152599  0.154833E-04  0.101E-02    0.00       1.1  T
  14   -139.0152848 -0.249269E-04  0.496E-03    0.00       2.3  T
  15   -139.0152928 -0.802914E-05  0.163E-04    0.00      70.3  T
  16   -139.0152928  0.853262E-08  0.210E-04    0.00      54.5  T
  17   -139.0152928  0.732062E-07  0.516E-04    0.00      22.2  T
     SCC iter.                  ...        0 min,  0.180 sec
     gradient                   ...        0 min,  0.079 sec
 * total energy  :  -136.6449789 Eh     change       -0.8116778E-03 Eh
   gradient norm :     0.0070515 Eh/α   predicted    -0.6740409E-03 ( -16.96%)
   displ. norm   :     0.6484471 α      lambda       -0.7945856E-03
   maximum displ.:     0.4344039 α      in ANC's #7, #6, #8, ...

........................................................................
.............................. CYCLE   29 ..............................
........................................................................
   1   -139.0093099 -0.139009E+03  0.173E-01    0.02       0.0  T
   2   -138.7089078  0.300402E+00  0.103E+00    0.63       1.0  T
   3   -138.9381384 -0.229231E+00  0.491E-01    0.06       1.0  T
   4   -138.8637334  0.744050E-01  0.690E-01    0.11       1.0  T
   5   -139.0131280 -0.149395E+00  0.769E-02    0.01       1.0  T
   6   -138.9942355  0.188925E-01  0.254E-01    0.03       1.0  T
   7   -139.0150017 -0.207661E-01  0.124E-02    0.00       1.0  T
   8   -139.0127814  0.222029E-02  0.836E-02    0.01       1.0  T
   9   -139.0147685 -0.198713E-02  0.286E-02    0.00       1.0  T
  10   -139.0150225 -0.253981E-03  0.547E-03    0.00       2.1  T
  11   -139.0150314 -0.894850E-05  0.135E-03    0.00       8.5  T
  12   -139.0150210  0.104405E-04  0.582E-03    0.00       2.0  T
  13   -139.0150306 -0.960008E-05  0.205E-03    0.00       5.6  T
  14   -139.0150316 -0.962658E-06  0.110E-03    0.00      10.4  T
  15   -139.0150319 -0.369277E-06  0.278E-04    0.00      41.2  T
  16   -139.0150319 -0.182786E-07  0.125E-04    0.00      91.6  T
     SCC iter.                  ...        0 min,  0.171 sec
     gradient                   ...        0 min,  0.079 sec
 * total energy  :  -136.6456540 Eh     change       -0.6750467E-03 Eh
   gradient norm :     0.0067293 Eh/α   predicted    -0.5643488E-03 ( -16.40%)
   displ. norm   :     0.6569432 α      lambda       -0.6738632E-03
   maximum displ.:     0.4410014 α      in ANC's #7, #6, #8, ...

........................................................................
.............................. CYCLE   30 ..............................
........................................................................
   1   -139.0142165 -0.139014E+03  0.124E-01    0.01       0.0  T
   2   -138.7481243  0.266092E+00  0.928E-01    0.34       1.0  T
   3   -139.0093282 -0.261204E+00  0.149E-01    0.02       1.0  T
   4   -138.9552948  0.540334E-01  0.429E-01    0.06       1.0  T
   5   -139.0142821 -0.589873E-01  0.542E-02    0.01       1.0  T
   6   -139.0149553 -0.673235E-03  0.307E-02    0.00       1.0  T
   7   -139.0146219  0.333410E-03  0.436E-02    0.00       1.0  T
   8   -139.0152171 -0.595217E-03  0.874E-03    0.00       1.3  T
   9   -139.0149808  0.236296E-03  0.284E-02    0.00       1.0  T
  10   -139.0151938 -0.212938E-03  0.120E-02    0.00       1.0  T
  11   -139.0152364 -0.426407E-04  0.386E-03    0.00       3.0  T
  12   -139.0152411 -0.466779E-05  0.331E-04    0.00      34.7  T
  13   -139.0152376  0.342383E-05  0.326E-03    0.00       3.5  T
  14   -139.0152405 -0.289361E-05  0.128E-03    0.00       8.9  T
  15   -139.0152405  0.731580E-07  0.138E-03    0.00       8.3  T
  16   -139.0152404  0.882372E-07  0.147E-03    0.00       7.8  T
  17   -139.0152411 -0.692435E-06  0.990E-05    0.00     115.9  T
  18   -139.0152410  0.611553E-07  0.445E-04    0.00      25.8  T
     SCC iter.                  ...        0 min,  0.191 sec
     gradient                   ...        0 min,  0.079 sec
 * total energy  :  -136.6462162 Eh     change       -0.5622604E-03 Eh
   gradient norm :     0.0060729 Eh/α   predicted    -0.4823460E-03 ( -14.21%)
   displ. norm   :     0.6615740 α      lambda       -0.5515889E-03
   maximum displ.:     0.4454663 α      in ANC's #7, #6, #8, ...

........................................................................
.............................. CYCLE   31 ..............................
........................................................................
   1   -139.0159743 -0.139016E+03  0.111E-01    0.00       0.0  T
   2   -138.9531870  0.627873E-01  0.446E-01    0.06       1.0  T
   3   -138.9322818  0.209052E-01  0.514E-01    0.07       1.0  T
   4   -139.0157955 -0.835138E-01  0.284E-02    0.00       1.0  T
   5   -139.0160002 -0.204712E-03  0.847E-03    0.00       1.4  T
   6   -139.0160001  0.974059E-07  0.679E-03    0.00       1.7  T
   7   -139.0160057 -0.559526E-05  0.402E-03    0.00       2.9  T
   8   -139.0160054  0.319921E-06  0.341E-03    0.00       3.4  T
   9   -139.0160068 -0.135944E-05  0.193E-03    0.00       6.0  T
  10   -139.0160077 -0.972551E-06  0.742E-04    0.00      15.5  T
  11   -139.0160078 -0.459357E-07  0.560E-04    0.00      20.5  T
     SCC iter.                  ...        0 min,  0.119 sec
     gradient                   ...        0 min,  0.079 sec
 * total energy  :  -136.6466588 Eh     change       -0.4425451E-03 Eh
   gradient norm :     0.0051911 Eh/α   predicted    -0.3965111E-03 ( -10.40%)
   displ. norm   :     0.5931650 α      lambda       -0.3730337E-03
   maximum displ.:     0.3999019 α      in ANC's #7, #6, #8, ...

........................................................................
.............................. CYCLE   32 ..............................
........................................................................
   1   -139.0168363 -0.139017E+03  0.107E-01    0.00       0.0  T
   2   -138.7713828  0.245453E+00  0.882E-01    0.22       1.0  T
   3   -139.0047224 -0.233340E+00  0.206E-01    0.02       1.0  T
   4   -138.9696173  0.351051E-01  0.383E-01    0.05       1.0  T
   5   -139.0171927 -0.475753E-01  0.191E-02    0.00       1.0  T
   6   -139.0172808 -0.881558E-04  0.913E-03    0.00       1.3  T
   7   -139.0170976  0.183279E-03  0.248E-02    0.00       1.0  T
   8   -139.0167249  0.372635E-03  0.420E-02    0.00       1.0  T
   9   -139.0169181 -0.193147E-03  0.340E-02    0.00       1.0  T
  10   -139.0172905 -0.372427E-03  0.368E-03    0.00       3.1  T
  11   -139.0172931 -0.263254E-05  0.217E-03    0.00       5.3  T
  12   -139.0172926  0.561590E-06  0.253E-03    0.00       4.5  T
  13   -139.0172932 -0.641356E-06  0.208E-03    0.00       5.5  T
  14   -139.0172945 -0.134397E-05  0.320E-04    0.00      35.8  T
  15   -139.0172939  0.604591E-06  0.140E-03    0.00       8.2  T
  16   -139.0172945 -0.510894E-06  0.598E-04    0.00      19.2  T
  17   -139.0172946 -0.109564E-06  0.145E-04    0.00      79.2  T
     SCC iter.                  ...        0 min,  0.180 sec
     gradient                   ...        0 min,  0.079 sec
 * total energy  :  -136.6469429 Eh     change       -0.2841093E-03 Eh
   gradient norm :     0.0037712 Eh/α   predicted    -0.2521428E-03 ( -11.25%)
   displ. norm   :     0.4829943 α      lambda       -0.1979175E-03
   maximum displ.:     0.3284433 α      in ANC's #7, #6, #8, ...

........................................................................
.............................. CYCLE   33 ..............................
........................................................................
   1   -139.0179902 -0.139018E+03  0.834E-02    0.00       0.0  T
   2   -138.8324184  0.185572E+00  0.762E-01    0.13       1.0  T
   3   -139.0081932 -0.175775E+00  0.182E-01    0.02       1.0  T
   4   -139.0104385 -0.224529E-02  0.154E-01    0.02       1.0  T
   5   -139.0181194 -0.768092E-02  0.109E-02    0.00       1.1  T
   6   -139.0180942  0.252465E-04  0.137E-02    0.00       1.0  T
   7   -139.0181459 -0.517180E-04  0.451E-03    0.00       2.5  T
   8   -139.0181494 -0.350178E-05  0.210E-03    0.00       5.5  T
   9   -139.0181355  0.138748E-04  0.675E-03    0.00       1.7  T
  10   -139.0181492 -0.136564E-04  0.189E-03    0.00       6.1  T
  11   -139.0181479  0.126309E-05  0.273E-03    0.00       4.2  T
  12   -139.0181498 -0.184737E-05  0.130E-03    0.00       8.8  T
  13   -139.0181502 -0.399249E-06  0.674E-04    0.00      17.0  T
  14   -139.0181501  0.887856E-07  0.847E-04    0.00      13.5  T
     SCC iter.                  ...        0 min,  0.150 sec
     gradient                   ...        0 min,  0.079 sec
 * total energy  :  -136.6470830 Eh     change       -0.1401396E-03 Eh
   gradient norm :     0.0026435 Eh/α   predicted    -0.1220468E-03 ( -12.91%)
   displ. norm   :     0.3091858 α      lambda       -0.7665525E-04
   maximum displ.:     0.2134221 α      in ANC's #7, #6, #5, ...

........................................................................
.............................. CYCLE   34 ..............................
........................................................................
   1   -139.0195297 -0.139020E+03  0.517E-02    0.00       0.0  T
   2   -138.9554372  0.640925E-01  0.447E-01    0.06       1.0  T
   3   -139.0149548 -0.595177E-01  0.123E-01    0.01       1.0  T
   4   -139.0194240 -0.446917E-02  0.209E-02    0.00       1.0  T
   5   -139.0195590 -0.135044E-03  0.339E-03    0.00       3.4  T
   6   -139.0195588  0.239589E-06  0.280E-03    0.00       4.1  T
   7   -139.0195600 -0.116585E-05  0.171E-03    0.00       6.7  T
   8   -139.0195601 -0.105649E-06  0.141E-03    0.00       8.2  T
   9   -139.0195606 -0.486953E-06  0.429E-04    0.00      26.8  T
  10   -139.0195606 -0.110620E-07  0.204E-04    0.00      56.3  T
     SCC iter.                  ...        0 min,  0.108 sec
     gradient                   ...        0 min,  0.079 sec
 * total energy  :  -136.6471345 Eh     change       -0.5145828E-04 Eh
   gradient norm :     0.0019523 Eh/α   predicted    -0.4199337E-04 ( -18.39%)
   displ. norm   :     0.2563194 α      lambda       -0.2765366E-04
   maximum displ.:     0.1823024 α      in ANC's #7, #5, #6, ...

........................................................................
.............................. CYCLE   35 ..............................
........................................................................
   1   -139.0196374 -0.139020E+03  0.479E-02    0.00       0.0  T
   2   -138.8235341  0.196103E+00  0.783E-01    0.14       1.0  T
   3   -139.0192784 -0.195744E+00  0.476E-02    0.00       1.0  T
   4   -139.0196900 -0.411653E-03  0.205E-02    0.00       1.0  T
   5   -139.0196732  0.168072E-04  0.214E-02    0.00       1.0  T
   6   -139.0198046 -0.131404E-03  0.668E-03    0.00       1.7  T
   7   -139.0198172 -0.125633E-04  0.228E-03    0.00       5.0  T
   8   -139.0198169  0.296626E-06  0.238E-03    0.00       4.8  T
   9   -139.0198186 -0.166601E-05  0.690E-04    0.00      16.6  T
  10   -139.0198186 -0.321775E-07  0.590E-04    0.00      19.5  T
  11   -139.0198187 -0.536000E-07  0.427E-04    0.00      26.8  T
     SCC iter.                  ...        0 min,  0.117 sec
     gradient                   ...        0 min,  0.079 sec
 * total energy  :  -136.6471578 Eh     change       -0.2328072E-04 Eh
   gradient norm :     0.0015254 Eh/α   predicted    -0.1423287E-04 ( -38.86%)
   displ. norm   :     0.0665127 α      lambda       -0.1562315E-04
   maximum displ.:     0.0276787 α      in ANC's #9, #2, #7, ...

........................................................................
.............................. CYCLE   36 ..............................
........................................................................
   1   -139.0226109 -0.139023E+03  0.156E-02    0.00       0.0  T
   2   -139.0072279  0.153830E-01  0.218E-01    0.03       1.0  T
   3   -139.0220666 -0.148387E-01  0.425E-02    0.00       1.0  T
   4   -139.0225359 -0.469357E-03  0.162E-02    0.00       1.0  T
   5   -139.0226167 -0.807247E-04  0.325E-03    0.00       3.5  T
   6   -139.0226172 -0.542046E-06  0.196E-03    0.00       5.8  T
   7   -139.0226171  0.132415E-06  0.159E-03    0.00       7.2  T
   8   -139.0226164  0.689691E-06  0.191E-03    0.00       6.0  T
   9   -139.0226175 -0.108430E-05  0.310E-04    0.00      37.0  T
  10   -139.0226175 -0.838216E-08  0.199E-04    0.00      57.7  T
  11   -139.0226175  0.398884E-08  0.196E-04    0.00      58.5  T
     SCC iter.                  ...        0 min,  0.117 sec
     gradient                   ...        0 min,  0.079 sec
 * total energy  :  -136.6471713 Eh     change       -0.1358721E-04 Eh
   gradient norm :     0.0018822 Eh/α   predicted    -0.7829491E-05 ( -42.38%)
   displ. norm   :     0.1215110 α      lambda       -0.2269589E-04
   maximum displ.:     0.0553768 α      in ANC's #7, #12, #4, ...

........................................................................
.............................. CYCLE   37 ..............................
........................................................................
   1   -139.0208941 -0.139021E+03  0.355E-02    0.00       0.0  T
   2   -138.8220974  0.198797E+00  0.788E-01    0.14       1.0  T
   3   -139.0210717 -0.198974E+00  0.180E-02    0.00       1.0  T
   4   -139.0210587  0.130382E-04  0.124E-02    0.00       1.0  T
   5   -139.0210504  0.828765E-05  0.113E-02    0.00       1.0  T
   6   -139.0210630 -0.126251E-04  0.823E-03    0.00       1.4  T
   7   -139.0210743 -0.113420E-04  0.532E-03    0.00       2.2  T
   8   -139.0210770 -0.260581E-05  0.410E-03    0.00       2.8  T
   9   -139.0210821 -0.514226E-05  0.405E-04    0.00      28.3  T
  10   -139.0210818  0.317694E-06  0.105E-03    0.00      10.9  T
  11   -139.0210819 -0.138200E-06  0.785E-04    0.00      14.6  T
  12   -139.0210821 -0.172079E-06  0.247E-04    0.00      46.5  T
     SCC iter.                  ...        0 min,  0.128 sec
     gradient                   ...        0 min,  0.079 sec
 * total energy  :  -136.6471914 Eh     change       -0.2008545E-04 Eh
   gradient norm :     0.0017386 Eh/α   predicted    -0.1142687E-04 ( -43.11%)
   displ. norm   :     0.0944243 α      lambda       -0.1406049E-04
   maximum displ.:     0.0466718 α      in ANC's #6, #4, #2, ...

........................................................................
.............................. CYCLE   38 ..............................
........................................................................
   1   -139.0221218 -0.139022E+03  0.182E-02    0.00       0.0  T
   2   -139.0221107  0.111162E-04  0.128E-02    0.00       1.0  T
[...]
    51   6 C       52   6 C                                       1.3835881
    52   6 C       53   6 C                                       1.4377741
    53   6 C       54   6 C                                       1.3525634
    54   6 C       55   6 C                                       1.4379596
    52   6 C       56   7 N                                       1.3569603
    55   6 C       56   7 N                                       1.3567871
    55   6 C       57   6 C                                       1.3840209
    57   6 C       58   6 C                                       1.3839751
    58   6 C       59   6 C                                       1.4378745
    59   6 C       60   6 C                                       1.3526273
    60   6 C       61   6 C                                       1.4376575
    58   6 C       62   7 N                                       1.3567645
    61   6 C       62   7 N                                       1.3570207
    61   6 C       63   6 C                                       1.3835535
    42   6 C       64   6 C                                       1.4352301
    63   6 C       64   6 C                                       1.3834161
    44   6 C       65   7 N                                       1.3522126
    64   6 C       65   7 N                                       1.3607610
    42   6 C       66   1 H                                       1.0729040
    43   6 C       67   1 H                                       1.0728654
    47   6 C       68   1 H                                       1.0724881
    48   6 C       69   1 H                                       1.0728234
    51   6 C       70   1 H                                       1.0805812
    53   6 C       71   1 H                                       1.0730640
    54   6 C       72   1 H                                       1.0730154
    57   6 C       73   1 H                                       1.0802693
    59   6 C       74   1 H                                       1.0730621
    60   6 C       75   1 H                                       1.0730706
    63   6 C       76   1 H                                       1.0805850

 * 3 distinct bonds (by element types)

   Z      Z             #   av. dist./Å        max./Å        min./Å
   1 H    6 C          22     1.0749693     1.0805850     1.0723960
   6 C    6 C          42     1.3919726     1.4380383     1.2180507
   6 C    7 N          16     1.3566859     1.3608050     1.3521867

           -------------------------------------------------
          |               Frequency Printout                |
           -------------------------------------------------
 projected vibrational frequencies (cm⁻¹)
eigval :       -0.00    -0.00     0.00     0.00     0.00     0.00
eigval :        0.53     6.58     7.65    15.92    34.33    36.28
eigval :       38.77    39.27    58.85    68.92    82.27    84.25
eigval :       98.12   120.46   120.69   122.98   142.70   144.08
eigval :      148.95   165.13   165.91   184.16   184.75   188.68
eigval :      201.02   204.43   207.77   209.65   209.87   213.64
eigval :      217.77   218.10   220.15   233.27   259.87   260.15
eigval :      269.65   306.55   313.84   318.84   321.90   348.85
eigval :      351.30   358.47   363.61   365.84   368.29   371.13
eigval :      374.74   382.38   387.06   391.89   391.92   392.28
eigval :      393.23   394.04   426.43   426.78   428.13   428.52
eigval :      458.21   458.49   503.36   506.89   518.90   611.90
eigval :      612.03   617.66   618.01   622.35   622.37   642.40
eigval :      642.48   642.97   643.16   651.12   651.13   657.43
eigval :      657.45   667.82   668.92   718.08   719.71   723.02
eigval :      723.11   756.99   757.54   758.50   764.03   776.83
eigval :      776.91   778.12   778.91   795.88   797.10   797.67
eigval :      797.78   804.80   805.08   810.12   810.55   817.45
eigval :      818.22   818.53   826.26   826.54   833.07   833.46
eigval :      836.65   837.03   841.83   842.23   843.02   843.30
eigval :      843.36   843.44   845.25   845.42   931.75  1000.07
eigval :     1001.74  1002.92  1003.61  1003.83  1024.50  1028.97
eigval :     1029.14  1034.32  1034.49  1035.84  1040.14  1040.59
eigval :     1043.52  1043.81  1066.40  1066.59  1067.76  1069.07
eigval :     1069.96  1070.80  1075.24  1079.57  1130.42  1150.84
eigval :     1154.51  1154.55  1169.40  1174.96  1175.06  1175.16
eigval :     1227.42  1227.61  1231.84  1241.38  1241.99  1288.08
eigval :     1288.38  1301.06  1301.71  1301.83  1303.62  1319.84
eigval :     1320.12  1333.14  1333.59  1339.34  1344.47  1344.62
eigval :     1344.67  1365.54  1367.66  1367.68  1367.80  1403.89
eigval :     1453.26  1453.66  1454.73  1465.65  1481.63  1482.10
eigval :     1499.53  1506.16  1510.09  1510.21  1521.47  1521.99
eigval :     1527.78  1529.23  1536.90  1537.01  1551.59  1553.24
eigval :     1559.46  1559.58  1568.94  1570.37  1603.00  1603.22
eigval :     2229.65  2235.51  3083.83  3083.87  3084.13  3084.37
eigval :     3086.55  3086.88  3147.28  3147.73  3148.14  3148.19
eigval :     3151.29  3151.71  3153.48  3154.81  3161.08  3161.50
eigval :     3161.86  3162.11  3165.30  3165.84  3168.87  3169.96
 reduced masses (amu)
   1: 19.68   2: 19.09   3: 19.47   4: 16.81   5: 20.07   6: 15.78   7: 11.24   8: 11.51
   9: 11.44  10: 12.15  11: 13.00  12: 11.38  13: 10.97  14: 10.94  15: 12.24  16: 21.14
  17: 33.31  18: 31.97  19: 11.41  20: 10.81  21: 10.81  22: 11.19  23: 12.28  24: 11.89
  25: 13.55  26: 12.11  27: 12.27  28: 11.88  29: 11.89  30: 12.46  31: 14.30  32: 32.48
  33: 29.55  34: 12.60  35: 12.57  36: 28.61  37: 51.44  38: 51.91  39: 50.34  40: 30.05
  41: 10.46  42: 10.46  43: 14.03  44: 12.53  45: 11.74  46: 12.38  47: 12.14  48: 11.86
  49: 10.73  50: 10.69  51: 12.45  52: 12.51  53: 12.63  54: 12.03  55: 12.66  56: 12.12
  57: 13.05  58: 10.17  59: 10.57  60: 11.90  61: 12.08  62: 12.06  63:  9.97  64:  9.95
  65: 10.27  66: 10.24  67: 11.81  68: 11.82  69: 11.63  70: 11.62  71: 11.81  72: 11.17
  73: 11.16  74: 10.91  75: 10.91  76: 10.92  77: 10.92  78: 10.79  79: 10.80  80: 11.20
  81: 11.21  82: 11.13  83: 11.13  84: 11.32  85: 11.32  86: 11.40  87: 11.40  88: 11.09
  89: 11.16  90: 10.97  91: 10.97  92: 11.19  93: 11.18  94: 11.22  95: 11.28  96: 11.39
  97: 11.39  98: 11.14  99: 11.06 100: 11.76 101: 11.77 102:  3.75 103:  3.75 104:  3.91
 105:  3.90 106:  4.05 107:  4.02 108: 11.35 109:  4.35 110:  4.35 111:  3.83 112:  3.84
 113:  3.81 114:  3.82 115:  4.04 116:  4.07 117:  3.49 118:  3.47 119:  3.49 120:  3.46
 121:  3.44 122:  3.42 123:  3.54 124:  3.52 125: 11.40 126: 11.76 127: 11.31 128: 11.77
 129: 11.84 130: 11.84 131: 11.03 132:  7.33 133:  7.32 134: 10.65 135: 10.64 136: 10.35
 137:  8.85 138:  8.78 139:  9.17 140:  9.17 141:  1.60 142:  1.62 143:  1.91 144:  1.95
 145:  1.92 146:  1.89 147:  2.56 148:  3.16 149:  6.06 150:  5.70 151:  5.46 152:  5.46
 153:  6.34 154:  6.81 155:  6.84 156:  6.99 157:  8.82 158:  8.82 159:  9.85 160:  8.67
 161: 10.06 162:  9.66 163:  9.64 164: 11.03 165:  9.90 166:  9.91 167: 10.70 168: 11.52
 169: 11.52 170: 11.61 171: 11.85 172: 11.90 173: 10.16 174:  9.64 175: 11.57 176:  9.60
 177:  9.37 178:  9.42 179:  9.21 180: 11.72 181: 11.49 182: 11.49 183: 11.46 184: 11.55
 185: 11.80 186: 11.80 187: 11.74 188: 11.77 189: 11.46 190: 11.46 191: 11.82 192: 11.83
 193: 11.74 194: 11.77 195: 11.68 196: 11.68 197: 11.60 198: 11.63 199: 11.58 200: 11.59
 201: 11.61 202: 11.62 203: 11.78 204: 11.78 205: 12.01 206: 12.01 207:  1.81 208:  1.81
 209:  1.81 210:  1.81 211:  1.81 212:  1.81 213:  1.81 214:  1.81 215:  1.81 216:  1.81
 217:  1.81 218:  1.81 219:  1.82 220:  1.82 221:  1.98 222:  1.98 223:  1.98 224:  1.98
 225:  1.97 226:  1.97 227:  1.96 228:  1.96
 IR intensities (km·mol⁻¹)
   1:******   2: 56.20   3: 88.16   4:351.63   5:******   6:  1.16   7:  0.94   8: 28.76
   9:  2.62  10: 20.89  11:  7.95  12:  0.15  13:  0.06  14:  1.50  15: 20.16  16: 17.78
  17:  3.82  18:  7.10  19: 11.59  20:  1.33  21:  1.80  22: 14.66  23:  5.67  24:  8.71
  25:  0.25  26: 19.74  27:  8.10  28: 10.96  29:  5.79  30:177.21  31: 19.39  32: 13.65
  33:  3.12  34:  0.85  35:  3.61  36: 13.82  37:  0.02  38:108.06  39:  1.49  40:  0.79
  41:  0.03  42:  0.82  43:  3.27  44: 16.48  45:268.02  46:  0.68  47:  6.29  48:  3.89
  49:  0.14  50:  9.01  51:253.32  52:190.31  53: 49.73  54:125.83  55:  0.81  56:  4.25
  57:833.96  58:  0.35  59:  6.24  60:  1.97  61: 43.14  62: 32.86  63:135.89  64: 21.70
  65:535.96  66: 82.10  67:  0.77  68: 14.76  69: 14.68  70: 15.53  71:533.94  72:  0.48
  73:  0.73  74:  3.43  75:  2.67  76:  4.71  77:  5.19  78:  5.17  79: 77.68  80:  0.98
  81:  0.15  82: 12.14  83:  0.90  84:121.99  85:179.93  86:  4.49  87: 80.81  88:******
  89: 25.13  90: 29.24  91:  1.76  92: 13.91  93:  0.08  94:  1.67  95: 95.98  96: 31.76
  97: 38.18  98: 51.47  99:141.15 100:  9.76 101:  0.51 102: 37.14 103: 48.21 104:  0.24
 105:  1.84 106: 21.11 107: 13.59 108:  0.55 109:  0.42 110:  0.97 111: 27.12 112: 26.30
 113:  1.29 114:  0.09 115: 37.86 116:150.76 117:  6.33 118: 19.48 119:  6.96 120:  2.09
 121:  0.53 122:  0.30 123: 18.88 124:  7.02 125:414.23 126:  3.95 127:  8.07 128:  7.69
 129: 37.21 130: 94.32 131:139.81 132:  0.34 133:  1.78 134:  0.32 135: 18.82 136:  0.22
Refinement of some symmetry elements was terminated before convergence was reached.
Some symmetry elements may remain unidentified.
Molecule has no symmetry elements
It seems to be the C1 point group
 137: 64.10 138:  0.04 139:  3.35 140: 11.01 141:  0.00 142:  7.87 143: 19.01 144:  0.19
 145:  0.93 146: 29.06 147:  0.24 148:****** 149:****** 150:  2.84 151:  0.42 152:  2.31
 153:601.71 154: 25.41 155:  3.13 156:  4.73 157: 19.94 158:  1.99 159: 26.61 160:  0.73
 161:218.00 162: 30.27 163: 14.08 164:  0.08 165: 18.68 166:  4.75 167:876.00 168: 10.19
 169:  4.76 170: 44.98 171:402.87 172:****** 173: 24.27 174: 20.51 175:  1.72 176: 14.49
 177:534.81 178:997.42 179:  2.03 180:  0.12 181: 10.01 182: 11.47 183:235.41 184:  0.07
 185:  0.87 186:  4.95 187:****** 188:  4.19 189:  7.98 190: 26.58 191: 16.82 192:  5.83
 193:  6.62 194:927.31 195: 34.36 196: 75.81 197:****** 198: 28.12 199:  1.49 200:  3.99
 201:  3.29 202:  1.72 203:  6.25 204:  0.99 205:  1.62 206: 65.14 207:****** 208:******
 209:****** 210:****** 211:802.26 212:432.55 213:163.18 214: 38.20 215:249.68 216:208.73
 217:****** 218:****** 219:****** 220:****** 221:519.08 222:277.99 223:****** 224: 17.02
 225:308.25 226:222.27 227:370.88 228:282.95
 Raman intensities (amu)
   1:  0.00   2:  0.00   3:  0.00   4:  0.00   5:  0.00   6:  0.00   7:  0.00   8:  0.00
   9:  0.00  10:  0.00  11:  0.00  12:  0.00  13:  0.00  14:  0.00  15:  0.00  16:  0.00
  17:  0.00  18:  0.00  19:  0.00  20:  0.00  21:  0.00  22:  0.00  23:  0.00  24:  0.00
  25:  0.00  26:  0.00  27:  0.00  28:  0.00  29:  0.00  30:  0.00  31:  0.00  32:  0.00
  33:  0.00  34:  0.00  35:  0.00  36:  0.00  37:  0.00  38:  0.00  39:  0.00  40:  0.00
  41:  0.00  42:  0.00  43:  0.00  44:  0.00  45:  0.00  46:  0.00  47:  0.00  48:  0.00
  49:  0.00  50:  0.00  51:  0.00  52:  0.00  53:  0.00  54:  0.00  55:  0.00  56:  0.00
  57:  0.00  58:  0.00  59:  0.00  60:  0.00  61:  0.00  62:  0.00  63:  0.00  64:  0.00
  65:  0.00  66:  0.00  67:  0.00  68:  0.00  69:  0.00  70:  0.00  71:  0.00  72:  0.00
  73:  0.00  74:  0.00  75:  0.00  76:  0.00  77:  0.00  78:  0.00  79:  0.00  80:  0.00
  81:  0.00  82:  0.00  83:  0.00  84:  0.00  85:  0.00  86:  0.00  87:  0.00  88:  0.00
  89:  0.00  90:  0.00  91:  0.00  92:  0.00  93:  0.00  94:  0.00  95:  0.00  96:  0.00
  97:  0.00  98:  0.00  99:  0.00 100:  0.00 101:  0.00 102:  0.00 103:  0.00 104:  0.00
 105:  0.00 106:  0.00 107:  0.00 108:  0.00 109:  0.00 110:  0.00 111:  0.00 112:  0.00
 113:  0.00 114:  0.00 115:  0.00 116:  0.00 117:  0.00 118:  0.00 119:  0.00 120:  0.00
 121:  0.00 122:  0.00 123:  0.00 124:  0.00 125:  0.00 126:  0.00 127:  0.00 128:  0.00
 129:  0.00 130:  0.00 131:  0.00 132:  0.00 133:  0.00 134:  0.00 135:  0.00 136:  0.00
 137:  0.00 138:  0.00 139:  0.00 140:  0.00 141:  0.00 142:  0.00 143:  0.00 144:  0.00
 145:  0.00 146:  0.00 147:  0.00 148:  0.00 149:  0.00 150:  0.00 151:  0.00 152:  0.00
 153:  0.00 154:  0.00 155:  0.00 156:  0.00 157:  0.00 158:  0.00 159:  0.00 160:  0.00
 161:  0.00 162:  0.00 163:  0.00 164:  0.00 165:  0.00 166:  0.00 167:  0.00 168:  0.00
 169:  0.00 170:  0.00 171:  0.00 172:  0.00 173:  0.00 174:  0.00 175:  0.00 176:  0.00
 177:  0.00 178:  0.00 179:  0.00 180:  0.00 181:  0.00 182:  0.00 183:  0.00 184:  0.00
 185:  0.00 186:  0.00 187:  0.00 188:  0.00 189:  0.00 190:  0.00 191:  0.00 192:  0.00
 193:  0.00 194:  0.00 195:  0.00 196:  0.00 197:  0.00 198:  0.00 199:  0.00 200:  0.00
 201:  0.00 202:  0.00 203:  0.00 204:  0.00 205:  0.00 206:  0.00 207:  0.00 208:  0.00
 209:  0.00 210:  0.00 211:  0.00 212:  0.00 213:  0.00 214:  0.00 215:  0.00 216:  0.00
 217:  0.00 218:  0.00 219:  0.00 220:  0.00 221:  0.00 222:  0.00 223:  0.00 224:  0.00
 225:  0.00 226:  0.00 227:  0.00 228:  0.00
 output can be read by thermo (or use thermo option).
 writing <g98.out> molden fake output.
 recommended (thermochemical) frequency scaling factor: 1.0
           -------------------------------------------------
          |             Thermodynamic Functions             |
           -------------------------------------------------

c1  symmetry found (for desy threshold:  0.10E+00) used in thermo

          ...................................................
          :                      SETUP                      :
          :.................................................:
          :  # frequencies                         221      :
          :  # imaginary freq.                       0      :
          :  linear?                             false      :
          :  only rotor calc.                    false      :
          :  symmetry                               c1      :
          :  rotational number                       1      :
          :  scaling factor                  1.0000000      :
          :  rotor cutoff                   50.0000000 cm⁻¹ :
          :  imag. cutoff                  -20.0000000 cm⁻¹ :
          :.................................................:

    mode    ω/cm⁻¹     T·S(HO)/kcal·mol⁻¹    T·S(FR)/kcal·mol⁻¹   T·S(vib)
   ------------------------------------------------------------------------
       1      6.58    -2.63655 (  0.03%)    -1.65735 ( 99.97%)    -1.65765
       2      7.65    -2.54747 (  0.05%)    -1.61281 ( 99.95%)    -1.61332
       3     15.92    -2.11295 (  1.02%)    -1.39551 ( 98.98%)    -1.40281
       4     34.33    -1.65840 ( 18.17%)    -1.16797 ( 81.83%)    -1.25711
       5     36.28    -1.62568 ( 21.70%)    -1.15157 ( 78.30%)    -1.25446
       6     38.77    -1.58642 ( 26.55%)    -1.13189 ( 73.45%)    -1.25259
       7     39.27    -1.57881 ( 27.57%)    -1.12807 ( 72.43%)    -1.25235
       8     58.85    -1.34032 ( 65.74%)    -1.00828 ( 34.26%)    -1.22656
       9     68.92    -1.24749 ( 78.30%)    -0.96150 ( 21.70%)    -1.18544
      10     82.27    -1.14366 ( 88.00%)    -0.90901 ( 12.00%)    -1.11550
      11     84.25    -1.12980 ( 88.96%)    -0.90198 ( 11.04%)    -1.10466
      12     98.12    -1.04093 ( 93.68%)    -0.85683 (  6.32%)    -1.02930
      13    120.46    -0.92217 ( 97.12%)    -0.79606 (  2.88%)    -0.91853
      14    120.69    -0.92108 ( 97.14%)    -0.79551 (  2.86%)    -0.91749
      15    122.98    -0.91026 ( 97.34%)    -0.78994 (  2.66%)    -0.90706
      16    142.70    -0.82509 ( 98.52%)    -0.74587 (  1.48%)    -0.82391
      17    144.08    -0.81962 ( 98.57%)    -0.74303 (  1.43%)    -0.81852
      18    148.95    -0.80072 ( 98.75%)    -0.73318 (  1.25%)    -0.79988
      19    165.13    -0.74245 ( 99.17%)    -0.70263 (  0.83%)    -0.74212
      20    165.91    -0.73980 ( 99.18%)    -0.70123 (  0.82%)    -0.73949
      21    184.16    -0.68153 ( 99.46%)    -0.67032 (  0.54%)    -0.68147
      22    184.75    -0.67973 ( 99.47%)    -0.66936 (  0.53%)    -0.67968
      23    188.68    -0.66807 ( 99.51%)    -0.66313 (  0.49%)    -0.66805
      24    201.02    -0.63320 ( 99.62%)    -0.64437 (  0.38%)    -0.63325
      25    204.43    -0.62398 ( 99.64%)    -0.63938 (  0.36%)    -0.62403
      26    207.77    -0.61514 ( 99.67%)    -0.63458 (  0.33%)    -0.61520
      27    209.65    -0.61023 ( 99.68%)    -0.63191 (  0.32%)    -0.61030
      28    209.87    -0.60967 ( 99.68%)    -0.63161 (  0.32%)    -0.60974
      29    213.64    -0.59998 ( 99.70%)    -0.62633 (  0.30%)    -0.60006
      30    217.77    -0.58960 ( 99.72%)    -0.62065 (  0.28%)    -0.58968
      31    218.10    -0.58878 ( 99.72%)    -0.62020 (  0.28%)    -0.58886
      32    220.15    -0.58375 ( 99.73%)    -0.61744 (  0.27%)    -0.58384
      33    233.27    -0.55267 ( 99.79%)    -0.60029 (  0.21%)    -0.55277
      34    259.87    -0.49571 ( 99.86%)    -0.56829 (  0.14%)    -0.49581
      35    260.15    -0.49516 ( 99.86%)    -0.56798 (  0.14%)    -0.49526
      36    269.65    -0.47659 ( 99.88%)    -0.55736 (  0.12%)    -0.47668
   ------------------------------------------------------------------------

   temp. (K)  partition function   enthalpy   heat capacity  entropy
                                   cal/mol     cal/K/mol   cal/K/mol   J/K/mol
 298.15  VIB  0.124E+19            24658.481    163.859    151.040
         ROT  0.183E+09              888.752      2.981     40.786
         INT  0.226E+27            25547.233    166.840    191.826
         TR   0.215E+29             1481.254      4.968     45.857
         TOT                       27028.4872   171.8080   237.6831   994.4662

       T/K    H(0)-H(T)+PV         H(T)/Eh          T*S/Eh         G(T)/Eh
   ------------------------------------------------------------------------
    298.15    0.430726E-01    0.571205E+00    0.112931E+00    0.458274E+00
   ------------------------------------------------------------------------

         :::::::::::::::::::::::::::::::::::::::::::::::::::::
         ::                  THERMODYNAMIC                  ::
         :::::::::::::::::::::::::::::::::::::::::::::::::::::
         :: total free energy        -136.189031688622 Eh   ::
         ::.................................................::
         :: total energy             -136.647306079265 Eh   ::
         :: zero point energy           0.528132674614 Eh   ::
         :: G(RRHO) w/o ZPVE           -0.069858283972 Eh   ::
         :: G(RRHO) contrib.            0.458274390642 Eh   ::
         :::::::::::::::::::::::::::::::::::::::::::::::::::::

optimized geometry written to: xtbopt.xyz


           -------------------------------------------------
          | TOTAL ENERGY             -136.647306079265 Eh   |
          | TOTAL ENTHALPY           -136.076100768624 Eh   |
          | TOTAL FREE ENERGY        -136.189031688622 Eh   |
          | GRADIENT NORM               0.000938772931 Eh/α |
          | HOMO-LUMO GAP               0.000092991260 eV   |
           -------------------------------------------------

------------------------------------------------------------------------
 * finished run on 2021/11/19 at 10:47:28.204     
------------------------------------------------------------------------
 total:
 * wall-time:     0 d,  0 h,  1 min, 33.704 sec
 *  cpu-time:     0 d,  0 h,  1 min, 33.706 sec
 * ratio c/w:     1.000 speedup
 SCF:
 * wall-time:     0 d,  0 h,  0 min,  0.437 sec
 *  cpu-time:     0 d,  0 h,  0 min,  0.437 sec
 * ratio c/w:     1.000 speedup
 ANC optimizer:
 * wall-time:     0 d,  0 h,  0 min, 12.589 sec
 *  cpu-time:     0 d,  0 h,  0 min, 12.590 sec
 * ratio c/w:     1.000 speedup
 analytical hessian:
 * wall-time:     0 d,  0 h,  1 min, 20.600 sec
 *  cpu-time:     0 d,  0 h,  1 min, 20.601 sec
 * ratio c/w:     1.000 speedup

