76
 energy: -135.005296081899 gnorm: 4.317201630943 xtb: 6.4.1 (bd6e46d)
Cu        8.41034900000000    0.02446900000000   -0.00463200000000
C        10.73934000000000   -3.12232400000000    1.31805700000000
C        11.65544700000000   -2.17811600000000    1.26777500000000
C        11.24426800000000   -1.12421200000000    0.34648300000000
C        11.86313800000000    0.00013400000000    0.00007300000000
C        11.15909600000000    1.22008200000000   -0.36403200000000
C        11.48720700000000    2.18013700000000   -1.21150600000000
C        10.45242700000000    3.19642200000000   -1.22840400000000
C         9.51615900000000    2.81996000000000   -0.38151200000000
N         9.91814900000000    1.58694900000000    0.18230500000000
C         8.25508400000000    3.46496000000000   -0.00236000000000
C         7.15986700000000    2.83017700000000    0.34840000000000
C         6.08624200000000    3.14813300000000    1.31742800000000
C         5.24867900000000    2.15137900000000    1.24026200000000
C         5.68697600000000    1.14769600000000    0.25981000000000
N         6.79191400000000    1.58654900000000   -0.22448200000000
C         5.07614100000000   -0.10557500000000   -0.15373800000000
C         5.74030200000000   -1.21008100000000   -0.40816300000000
C         5.36645300000000   -2.27302300000000   -1.36569000000000
C         6.31520000000000   -3.16677900000000   -1.27667100000000
C         7.30092400000000   -2.72932900000000   -0.29379300000000
N         6.94787800000000   -1.58352400000000    0.20300400000000
C         8.53181200000000   -3.38539900000000    0.15192800000000
C         9.65485400000000   -2.73953800000000    0.41904900000000
N         9.98345400000000   -1.49209700000000   -0.17935500000000
H        10.79960200000000   -4.03210400000000    1.93560300000000
H        12.57177500000000   -2.21806600000000    1.84582300000000
H        12.41457200000000    2.19693300000000   -1.81264900000000
H        10.46932600000000    4.10111100000000   -1.84102500000000
H         8.20736200000000    4.55976200000000   -0.00613800000000
H         6.03342000000000    4.02685800000000    1.94242000000000
H         4.33704800000000    2.11571000000000    1.85758600000000
H         3.97789100000000   -0.10266400000000   -0.25300900000000
H         4.49759800000000   -2.32548800000000   -2.01464000000000
H         6.31235400000000   -4.08308700000000   -1.87543000000000
H         8.49633000000000   -4.48120100000000    0.26385300000000
C        12.73429200000000   -0.00240700000000   -0.00131500000000
C        13.94226900000000    0.00504700000000    0.00038000000000
C        15.36103700000000    0.00574400000000    0.00551700000000
C        16.57655400000000   -0.00240700000000   -0.00131500000000
Cu       20.93163600000000   -0.00913300000000   -0.16358000000000
C        18.38576700000000    3.22821100000000    1.12827000000000
C        17.45940800000000    2.30103600000000    0.98372300000000
C        18.06142100000000    1.13225600000000    0.32697900000000
C        17.46846800000000    0.00013400000000    0.00007300000000
C        18.10078300000000   -1.31305300000000   -0.02181800000000
C        17.58011900000000   -2.53261500000000    0.09969400000000
C        18.61566600000000   -3.53389700000000    0.01112700000000
C        19.76904200000000   -2.87842800000000   -0.16658500000000
N        19.48258800000000   -1.50770300000000   -0.19091100000000
C        21.11066600000000   -3.45005000000000   -0.31492400000000
C        22.25286000000000   -2.84482000000000   -0.14557800000000
C        23.53157100000000   -3.26367200000000    0.49097900000000
C        24.33144700000000   -2.25802400000000    0.35276900000000
C        23.68308500000000   -1.13245400000000   -0.35657500000000
N        22.49295700000000   -1.52999800000000   -0.61488800000000
C        24.19241100000000    0.18189900000000   -0.74339700000000
C        23.53302800000000    1.31106000000000   -0.64646700000000
C        23.93083500000000    2.59576500000000   -1.26687700000000
C        23.02363800000000    3.45889100000000   -0.92573600000000
C        22.01708000000000    2.79067800000000   -0.08734200000000
N        22.34700500000000    1.55198000000000    0.05009500000000
C        20.82163200000000    3.36193800000000    0.52621800000000
C        19.65501000000000    2.75155200000000    0.58571200000000
N        19.40399400000000    1.44918800000000    0.10138200000000
H        18.19414300000000    4.21041200000000    1.59604600000000
H        16.41709300000000    2.42588800000000    1.31565900000000
H        16.49410300000000   -2.69963900000000    0.24787100000000
H        18.44359000000000   -4.59540700000000    0.08067200000000
H        21.17159300000000   -4.51816600000000   -0.60100300000000
H        23.68472000000000   -4.22699200000000    0.95208100000000
H        25.35375300000000   -2.26078100000000    0.71973700000000
H        25.22647700000000    0.14857000000000   -1.14034300000000
H        24.80690000000000    2.79844500000000   -1.88984500000000
H        23.06329100000000    4.51013100000000   -1.24736400000000
H        20.90823000000000    4.35161300000000    0.95677700000000
76
 energy: -136.166962070468 gnorm: 0.664446430089 xtb: 6.4.1 (bd6e46d)
Cu        8.41179116821830    0.02529242643630   -0.00411954784601
C        10.73674049690715   -3.12773607922302    1.31644194091121
C        11.65905143669117   -2.17456919368438    1.26718089023472
C        11.20677113788519   -1.14426027061289    0.34978467690287
C        11.69588095914599    0.00618107006445   -0.00011407567622
C        11.13025578204304    1.22715122183891   -0.36153888240286
C        11.49038397229358    2.18908656941172   -1.21859246333199
C        10.46246941526114    3.19887736771139   -1.23421477957799
C         9.51049115886442    2.81541582085205   -0.37692067199470
N         9.91042142748465    1.58384296486582    0.18214746956301
C         8.26266963173584    3.46725810640368   -0.00403346358627
C         7.15288588015607    2.82424240252284    0.34967065390196
C         6.09027022470214    3.15194939876729    1.31357906086495
C         5.23975058058263    2.14679574183071    1.24212308413056
C         5.68309638690934    1.14792142382253    0.26432445540876
N         6.80279090087521    1.58389273839101   -0.22340755875686
C         5.07156323128024   -0.09713371404504   -0.15147936816149
C         5.74275231397645   -1.21500473242695   -0.41015050225227
C         5.36245844766044   -2.26982705136593   -1.36270898840891
C         6.31943759223427   -3.17379668327131   -1.27725451902316
C         7.30399387261006   -2.73368786873846   -0.29577997365975
N         6.94944055131337   -1.57627536607195    0.19946354130697
C         8.52449565431524   -3.38903040104814    0.14982634285726
C         9.65901991118477   -2.73560748304520    0.41998111644845
N         9.98204013801577   -1.49407602922455   -0.17180591542127
H        10.79830786219383   -4.03044236102923    1.93386862124802
H        12.57195395437397   -2.21591367728570    1.84492212120766
H        12.41297692168676    2.19740256055012   -1.81187167749050
H        10.47000280026421    4.09998688688362   -1.84071101103173
H         8.20947964071457    4.55917251816815   -0.00510460373390
H         6.03433637567389    4.02641064547310    1.94170825013298
H         4.33757888767280    2.11415861558042    1.85659199675751
H         3.97907133809740   -0.10179810669954   -0.25391586945641
H         4.49823366769663   -2.32393410054705   -2.01336165403847
H         6.31414164732812   -4.08274469616344   -1.87429842903544
H         8.49571899087209   -4.47989305783404    0.26428017107324
C        12.89900516206059    0.00243490604398   -0.00283441022237
C        14.00151674107010    0.00613134229696    0.00010446425471
C        15.30890836821632    0.00481376278305    0.00426299448003
C        16.42480644512309   -0.00754524830903   -0.00490628715929
Cu       20.92993489566608   -0.00959148363561   -0.16410787853842
C        18.38810514118266    3.23362993816378    1.12936956882968
C        17.45649263627067    2.29764469130264    0.98284422952001
C        18.09655309418410    1.15294581919871    0.33106505614546
C        17.61883194466110   -0.00693491385650    0.00095554206397
C        18.12898582819444   -1.31891501228087   -0.02309150520881
C        17.57556833464675   -2.54127016824829    0.10018882330493
C        18.60609706804048   -3.53476663743466    0.01173871764216
C        19.77418126137760   -2.87292755833265   -0.17019806680406
N        19.48873850333797   -1.50694427871973   -0.19015815040839
C        21.10116286951108   -3.45392496440626   -0.31563512364529
C        22.26159564224481   -2.83788417725489   -0.14623839155804
C        23.52478153376268   -3.26826732334483    0.48704803923657
C        24.34028955858503   -2.25120080888389    0.35211077496553
C        23.68740628770295   -1.13335343249441   -0.35400981792722
N        22.48275718349179   -1.52761654982217   -0.61130732951841
C        24.19716800930024    0.17281319540534   -0.74329058090576
C        23.53152684493577    1.31610739757406   -0.64794841917083
C        23.93558041576786    2.59112668863960   -1.26690514740604
C        23.01875872074869    3.46645703109216   -0.92385188382287
C        22.01555229261577    2.79561948373957   -0.08719885277718
N        22.34596800930954    1.54460056844546    0.04804021677962
C        20.82834585348847    3.36422757613989    0.52483953550409
C        19.64921403905235    2.74622734918040    0.58674202674004
N        19.40515097226742    1.45205638915527    0.10338371159016
H        18.19590409265913    4.20867662325001    1.59495765462753
H        16.41892309817947    2.42369457724346    1.31415784363356
H        16.49650439501344   -2.70028850998294    0.24780376167466
H        18.44328872224447   -4.59525052420805    0.08060125392661
H        21.16949876209588   -4.51774382299317   -0.59717744645453
H        23.68406081431351   -4.22651540903377    0.95186724729069
H        25.35434656713268   -2.25930835240709    0.71980711218523
H        25.22486550683297    0.14907660967351   -1.13973789250521
H        24.80578332111626    2.79660424285075   -1.88877853828804
H        23.06140875542857    4.50913710362506   -1.24594602613620
H        20.90850794924661    4.35252227258781    0.95545073599776
76
 energy: -136.345430682423 gnorm: 0.362228095763 xtb: 6.4.1 (bd6e46d)
Cu        8.41668973851933    0.02613472502942   -0.00040854595725
C        10.73296601432461   -3.14750568823522    1.30551179904982
C        11.65858142972499   -2.18079419262804    1.26204638348899
C        11.13787177370797   -1.17409254328691    0.36436815401837
C        11.62218676466653    0.02757169382638    0.00238709280939
C        11.06135176054638    1.24696179574254   -0.36500750475006
C        11.48671701583532    2.22062076293393   -1.23363651254863
C        10.48586483907930    3.21048153330718   -1.24232023450319
C         9.49687660815944    2.80814279771821   -0.37588557546878
N         9.84989923308258    1.57543821601109    0.16949435000966
C         8.27774457573465    3.46749231671306   -0.00436786260774
C         7.14640763128792    2.80745697731723    0.35075500732721
C         6.08854571542466    3.15673981687897    1.29294561303496
C         5.21500162687683    2.14111666690001    1.24281782305888
C         5.68038718348455    1.14873503689515    0.28221996560880
N         6.84110173846608    1.55741103239337   -0.19475593575095
C         5.06254239348726   -0.07617225178366   -0.14459502043252
C         5.74555828023013   -1.21428054934202   -0.41598769325124
C         5.35481870144656   -2.27194932851537   -1.34473184314467
C         6.32517391659177   -3.19309574170684   -1.27385536757403
C         7.31089659388725   -2.74092940451858   -0.30713722546616
N         6.96644799986660   -1.54973216970840    0.16356694776808
C         8.50188779182538   -3.40374354384077    0.14522862705128
C         9.64950364377929   -2.74202704858100    0.42739525349004
N         9.93561758469418   -1.50776243766293   -0.12925390388694
H        10.78828535215984   -4.03065264205584    1.92614073360354
H        12.57252456361576   -2.20020763395488    1.83633838167694
H        12.40614118425742    2.20381271980669   -1.81037099570823
H        10.47892607765849    4.10131340662480   -1.84391352996861
H         8.22661756067930    4.55605473651594    0.00166055891675
H         6.04283109657442    4.02362725903705    1.93190980862607
H         4.32965566624265    2.10278383591198    1.85563472552159
H         3.98032615253669   -0.09078501972530   -0.25998666816160
H         4.50007552518557   -2.31255264778562   -2.00249897962984
H         6.32736884436832   -4.08947146581808   -1.87017921196252
H         8.48533676276944   -4.48225448467666    0.26612976561186
C        12.84954621837670    0.02222360994522   -0.00560573970412
C        14.05317329061919    0.01508659599703   -0.00217854012590
C        15.26873345730760   -0.00105981147616   -0.00096515303882
C        16.46200412525900   -0.02898313537352   -0.00324588741337
Cu       20.92288184247949   -0.00678039959167   -0.16796557791429
C        18.39671484620352    3.24825635844726    1.13137689581652
C        17.46394761418010    2.30103926677505    0.97453531214414
C        18.16097045088149    1.18582055111984    0.33768574517618
C        17.69189949624460   -0.03083177101670    0.00745491571927
C        18.19792471199092   -1.33648907008795   -0.03059694453069
C        17.57896717341000   -2.56505583846944    0.09625047731191
C        18.58565057763630   -3.53730019897072    0.00626024179286
C        19.78507657298561   -2.86746290661256   -0.18796775283377
N        19.53728961978994   -1.51108274663422   -0.18596101151538
C        21.08249674932682   -3.45815944471830   -0.31611256240823
C        22.26945747130555   -2.81994844345756   -0.15385093574121
C        23.51643343491123   -3.27004281983699    0.46143569124814
C        24.36189964560019   -2.23933495957575    0.34390996092942
C        23.69263833059144   -1.13599234131153   -0.34267037979570
N        22.45103570885542   -1.50512070932676   -0.57587440820610
C        24.20799418414530    0.15041773127604   -0.74036338779365
C        23.53068162989727    1.31538182775963   -0.65639204980363
C        23.94149499536683    2.58500078891420   -1.25821229876437
C        23.01216431069236    3.48178091930571   -0.91325822595101
C        22.01545874961361    2.80266563559039   -0.08711791507582
N        22.33597324569023    1.52546909507969    0.02407772217479
C        20.84699955316031    3.37471950810560    0.52272116989231
C        19.65418079792105    2.74560868784856    0.59660615166654
N        19.44177806216661    1.47221054791384    0.11656104678896
H        18.20832185214841    4.20843609377525    1.59265977097884
H        16.43057901549986    2.40610190337966    1.30225630392414
H        16.50959185548542   -2.70591157678688    0.24770965135696
H        18.43681392744074   -4.59653680520480    0.08075328987713
H        21.15208914047790   -4.52066806418941   -0.56740460842515
H        23.67488953114471   -4.22086188578721    0.94482686864254
H        25.36539791620913   -2.24795399353817    0.72118350282658
H        25.22316848693569    0.14745136921926   -1.13672046800056
H        24.80208897950583    2.78308971085082   -1.88239304027944
H        23.04695482907308    4.51175137522689   -1.23628938766497
H        20.91470825869313    4.36478480969944    0.94375117681971
76
 energy: -136.441322630959 gnorm: 0.197098912548 xtb: 6.4.1 (bd6e46d)
Cu        8.41190811480199    0.02740251002041    0.00502195036892
C        10.72502110720595   -3.17399434271730    1.28922988003754
C        11.64639684243585   -2.18284877240550    1.25663853582405
C        11.07113377444441   -1.19234278640871    0.38307782703160
C        11.56331134138484    0.05015727758937    0.00616699477823
C        10.98181351775752    1.26572074505937   -0.37015687466776
C        11.47124736004296    2.25158914453813   -1.24263645636050
C        10.50572231939824    3.23164077714933   -1.24161934874199
C         9.47226122568667    2.81074200644173   -0.38117973251362
N         9.77243512271404    1.56721563275546    0.13011157288290
C         8.28869549887048    3.46907319278020   -0.00629747896492
C         7.14692288101474    2.78299534434422    0.36058755787230
C         6.08781436593509    3.15599399401031    1.26758314027158
C         5.18877070114267    2.13843187681680    1.23397048015519
C         5.68113454801181    1.14459359616097    0.30679803557780
N         6.88913940473906    1.52178633270515   -0.14669738300105
C         5.05952762062805   -0.05525894368255   -0.13618095516623
C         5.75519973094455   -1.20673621340688   -0.43149841061964
C         5.34904695890911   -2.27341503772707   -1.32256843252353
C         6.32579361785215   -3.21210689099081   -1.26479519666716
C         7.31678884084593   -2.74620029473037   -0.32490287677819
N         6.99128278514894   -1.51469637863223    0.11052350880863
C         8.47114366428653   -3.42482206802257    0.14261818145717
C         9.62651910679231   -2.75865521673883    0.44456995009707
N         9.87723408221812   -1.51802456062212   -0.06565339149224
H        10.77541928138304   -4.04242439028204    1.91182564484764
H        12.56743705894305   -2.17694408860425    1.81717531134893
H        12.39228676787646    2.20996115343394   -1.80082439621199
H        10.48774392109515    4.11302959349452   -1.84373239786189
H         8.24245177111449    4.55313036117029    0.00481123987841
H         6.05255315570508    4.01929499872423    1.91160701286675
H         4.31549162397725    2.08810251226829    1.84830703432438
H         3.98416346853539   -0.07771133338612   -0.26145287709838
H         4.49983012505348   -2.29812608933344   -1.98287208429605
H         6.34231478509204   -4.10134725191155   -1.86015292352381
H         8.46487695659263   -4.49386249404029    0.26595825395378
C        12.82047495947269    0.04379248862149   -0.00964176606399
C        14.02500286178192    0.02567632375691   -0.00766595961377
C        15.28448404477614   -0.00811697687640   -0.01020595028158
C        16.48661066981775   -0.05331435446868    0.00214992130889
Cu       20.92114390893558   -0.00506773187161   -0.17433794779935
C        18.41560778440958    3.26524277320305    1.13092981495098
C        17.48614141297039    2.29884920449753    0.96548111559043
C        18.22174674949284    1.21029791769322    0.34157719926038
C        17.75259444378388   -0.05682832784549    0.02137147921858
C        18.27853385370899   -1.35419729493783   -0.03413364099581
C        17.59581380819796   -2.58593552462872    0.08719034912225
C        18.57219193714380   -3.54289894022069   -0.00626766543770
C        19.80628832235278   -2.87313017695097   -0.20468909814818
N        19.59553199557996   -1.52520878423628   -0.17779108179444
C        21.06831276187902   -3.46467288753794   -0.31165827456316
C        22.27245323352067   -2.79624148969151   -0.15749268491005
C        23.50497707663087   -3.26393812516427    0.42806105642273
C        24.38085682314310   -2.22854987317441    0.32390662827362
C        23.69583986560024   -1.13443351830050   -0.32548238238968
N        22.41604151147856   -1.47769562160108   -0.52869284624092
C        24.21511005695503    0.12847340923577   -0.73294003864223
C        23.52402696192558    1.31164225083495   -0.67213287677596
C        23.94358328631432    2.57608001952801   -1.24625852972364
C        23.00995665435147    3.49242464907959   -0.89562428538968
C        22.01800030071548    2.80835415064980   -0.08950616234818
N        22.32124232881254    1.50324246913053   -0.01088599421684
C        20.87452537927902    3.39199801185711    0.52094870459715
C        19.67189680888038    2.75502840400587    0.61262422831094
N        19.48460777536282    1.49438310797586    0.13666671218248
H        18.22991738941248    4.21456824751147    1.58895825961843
H        16.45336736729942    2.37735246457435    1.28011378389247
H        16.53451762534125   -2.70734843467864    0.24614799121669
H        18.43371068077150   -4.60136010237117    0.07630471941052
H        21.13459693809019   -4.52804179925927   -0.52161233252522
H        23.66228912707514   -4.20867400315406    0.92660424573214
H        25.37683954792550   -2.23267674611844    0.71575677545097
H        25.22354414979682    0.14639240159672   -1.12457017110956
H        24.79795125488909    2.76381027536694   -1.87198560965953
H        23.02890527600590    4.51530472410692   -1.21732627168575
H        20.92872961753920    4.38967952404147    0.92127568986196
76
 energy: -136.495046960612 gnorm: 0.115679269901 xtb: 6.4.1 (bd6e46d)
Cu        8.38443521802246    0.02629327897462    0.01035406876181
C        10.71190636675202   -3.19527808199028    1.27618978597125
C        11.62256723041505   -2.18006757003521    1.24851819650372
C        11.01531496094431   -1.18316240806736    0.41114932375366
C        11.52577542448861    0.06872841125369    0.01023297937650
C        10.91083112862183    1.26362087501012   -0.38186721049824
C        11.44905719219858    2.26948149872871   -1.24200072734613
C        10.51413906712244    3.25899657771066   -1.23529864051794
C         9.43608033046490    2.82272449431822   -0.39633749443369
N         9.69284433143035    1.55719076402856    0.06559905161239
C         8.28550126227941    3.47781972951283   -0.00845676531751
C         7.15397095727091    2.75673580675051    0.38541932609995
C         6.08622008358818    3.15023710734539    1.24982939468302
C         5.16735883505489    2.13917505983171    1.21852663699916
C         5.68601330156934    1.13231816971847    0.33618873521206
N         6.92972148290062    1.49047362769967   -0.08943435402323
C         5.06648849216608   -0.04168266186407   -0.12866959019932
C         5.77437758519545   -1.19300372038237   -0.46039318195119
C         5.34617668940346   -2.27167029217133   -1.30866714886415
C         6.31533390476465   -3.22808614448274   -1.25086638656188
C         7.31883221157347   -2.75001482957235   -0.34672688373948
N         7.01551600882084   -1.48421498437095    0.05289317457254
C         8.43694094440541   -3.44870041620872    0.14298537148614
C         9.58942724309310   -2.77738575462141    0.47547799354563
N         9.80384217606145   -1.51457299597551    0.01023358342158
H        10.76715264334342   -4.06832768701872    1.88871748171317
H        12.55660875201449   -2.15237529424365    1.78378920253098
H        12.37725066934482    2.21202383573775   -1.78062346715669
H        10.49535433558976    4.14284478207870   -1.83354398197126
H         8.24177796292186    4.55727034693264   -0.00099275216017
H         6.05492816190785    4.02029737512783    1.88169657373528
H         4.29157102384045    2.07602037700848    1.82750136797804
H         3.99204776244026   -0.06902546751684   -0.24991327052968
H         4.49057484040978   -2.28498742989993   -1.95700249356155
H         6.34807779780801   -4.12145953512886   -1.83884128956788
H         8.43492746329500   -4.51676855383433    0.25498211548421
C        12.81376620017525    0.06114119680913   -0.01558514858582
C        14.01985340268051    0.03293803237957   -0.01759459737967
C        15.28347314459674   -0.01043341392728   -0.02083072997015
C        16.48589303018659   -0.07448309771049    0.01393617359095
Cu       20.93485617167751   -0.00652714208151   -0.17573351835972
C        18.44411472187909    3.27501716729214    1.12975790029850
C        17.52244820374519    2.29021169442363    0.95500206079678
C        18.26517189199827    1.21116827826275    0.34824004227771
C        17.78513266123445   -0.07952903354629    0.04424243508380
C        18.34608618837536   -1.35605380759050   -0.03245285157974
C        17.62175753981496   -2.59289101909962    0.07246952448824
C        18.57163388381431   -3.55297641804935   -0.02658426945502
C        19.83612778682286   -2.89017132783874   -0.21437438728796
N        19.65022139944135   -1.54245624400422   -0.16661929633088
C        21.06944982749165   -3.47972155451746   -0.29974282282091
C        22.27278417699618   -2.77312906743787   -0.15076941287890
C        23.49703743318075   -3.25236401954985    0.39952308295898
C        24.39362751466735   -2.22103264662610    0.29654037928533
C        23.69665304831013   -1.12483296783367   -0.30469878310072
N        22.39134452656198   -1.45596884849825   -0.48567721061509
C        24.21494904103158    0.11553431102542   -0.72221747957835
C        23.50882498955597    1.30721593716000   -0.69594794465677
C        23.94252735355388    2.56623629010511   -1.23924757600999
C        23.01845115374030    3.49742890640581   -0.87320028264028
C        22.02322656478369    2.81409881053063   -0.09598932964604
N        22.30455386764063    1.48674913897428   -0.05077849168056
C        20.90716498422654    3.41568720641655    0.51737667926245
C        19.70275098331346    2.77056666231820    0.63244146829695
N        19.53427334602950    1.50526233243124    0.16554841333263
H        18.25885478974511    4.22527437134683    1.58333099408846
H        16.48603202715984    2.34251005094354    1.24809823085857
H        16.56494616472063   -2.69853076600031    0.24090848230632
H        18.43889150168494   -4.61215813622886    0.06234248885386
H        21.13235351934204   -4.54672924548206   -0.46362854980080
H        23.65439072398764   -4.19722768263506    0.89402694496392
H        25.38828060985878   -2.21710008881975    0.69452159715092
H        25.22890044485746    0.14889914327736   -1.09501110412452
H        24.79931266831775    2.74188589461096   -1.86096144909484
H        23.01761130626437    4.52226789166321   -1.18554868541983
H        20.95212736501182    4.42836092071646    0.88276629808172
76
 energy: -136.528802411238 gnorm: 0.081606071215 xtb: 6.4.1 (bd6e46d)
Cu        8.34985076427777    0.01833032693225    0.01620394775407
C        10.69234064038696   -3.20728523522546    1.27128190388139
C        11.58692540436663   -2.17524633260254    1.23959942244894
C        10.95456589267180   -1.15813325913085    0.44740575405096
C        11.48460070000735    0.07902550977536    0.01314615163433
C        10.84655515152837    1.24819558898164   -0.40578918071275
C        11.41971054788768    2.27621380862071   -1.23751045076791
C        10.50725044556547    3.28316333039620   -1.23148676632222
C         9.39453509710016    2.83534640771801   -0.42555596814943
N         9.62020397305318    1.54970600491187   -0.00277134594936
C         8.26483272950061    3.49293523360739   -0.01029929162450
C         7.15604494026087    2.74088550786726    0.41474244972696
C         6.07283264354418    3.14767068752921    1.24248467636347
C         5.14966009786956    2.14084679436107    1.20794553942743
C         5.69038191146129    1.11467216905565    0.36709225718369
N         6.95216686802912    1.46809046245939   -0.03216389544798
C         5.07549375018301   -0.03880244338579   -0.12317913238425
C         5.78974647828054   -1.18110773070074   -0.49211112138671
C         5.33840769906635   -2.27113966922921   -1.30598409295329
C         6.29471225088600   -3.24020214634413   -1.24078153431154
C         7.31491584972502   -2.75434272233947   -0.36918639841503
N         7.03111857298449   -1.46791978056152    0.00131972327377
C         8.40558216086230   -3.46700863298701    0.14594387621283
C         9.54373915352910   -2.78671677939448    0.51809798874121
N         9.72635508592362   -1.50224529985529    0.08366093630637
H        10.76717348763319   -4.10325963834327    1.85408056774578
H        12.54124380359850   -2.13175892364509    1.73830508742306
H        12.36191204856439    2.21522878947478   -1.75191993401667
H        10.50757358762295    4.18368613395293   -1.80979454216968
H         8.22376243538207    4.56969941901937   -0.00649005629952
H         6.04044211905078    4.03376493374568    1.84815561626513
H         4.25650389455108    2.07131120122442    1.79512411687351
H         3.99929948134609   -0.06499063399104   -0.22994756097630
H         4.46666660487242   -2.27760835699508   -1.93065672484588
H         6.33592864723999   -4.14996726772057   -1.80639195856636
H         8.40021001948828   -4.54006123725725    0.23252947488798
C        12.79678314251793    0.07114709110296   -0.02213276844301
C        14.00385685403522    0.03797853857583   -0.03140916017512
C        15.29049067352746   -0.00672095087107   -0.03224946275300
C        16.49310555164534   -0.08756483982058    0.03028513486818
Cu       20.95952446561316   -0.00676337060530   -0.16501471369313
C        18.47809304311575    3.27769857504970    1.12914134812496
C        17.56925236801741    2.27972607612398    0.94602313296677
C        18.31136745223544    1.19650496131635    0.36421040831370
C        17.81556129393741   -0.09393840657548    0.07346531368899
C        18.40028973994992   -1.35029822630495   -0.02458425226179
C        17.65513886757980   -2.58908071330556    0.05665452985353
C        18.58451865545134   -3.56449419190069   -0.04869236080314
C        19.86525262190433   -2.91088789397779   -0.21861509668861
N        19.69943365679673   -1.55707402129766   -0.15648240241207
C        21.09011070204602   -3.50355292435443   -0.28183502619390
C        22.27805355424262   -2.76127432665808   -0.13830381999441
C        23.50735764803339   -3.24566295995834    0.37771484789432
C        24.40625107923192   -2.21734912168185    0.27324656611647
C        23.69738596405336   -1.11068890121191   -0.28545369565031
N        22.38103953341445   -1.44237961270287   -0.44872989701431
C        24.21247740764395    0.11475733867234   -0.71300783505396
C        23.49502867631602    1.30535385687594   -0.72075695429289
C        23.94725211114651    2.56175332107685   -1.23937969667627
C        23.03832861262791    3.50104546176124   -0.85667953747703
C        22.03163315854215    2.82099412023524   -0.10662173380734