76
 energy: -136.647306078249 gnorm: 0.000938745719 xtb: 6.4.1 (bd6e46d)
Cu        7.92925810716455   -0.05782926209245    0.04039541262233
C        10.41879560771146   -3.51126836332824    0.06933182731075
C        11.38145938198013   -2.55943362472170    0.10136358477281
C        10.70617067623732   -1.29340635737658    0.10148644493135
C        11.36597783512497   -0.05603714009705    0.13571592991564
C        10.70419309994572    1.18100969912341    0.13429762965784
C        11.37712977105793    2.44809397330680    0.17003056884040
C        10.41306767096934    3.39888757703760    0.15009282762401
C         9.15436048979791    2.71081371022393    0.10232862808211
N         9.36532984744705    1.36648163770070    0.09502082170337
C         7.92532317739785    3.34496122292576    0.06478060943023
C         6.69831129312048    2.70705211647232    0.01722886885605
C         5.43353876766955    3.38984006241201   -0.02312286299779
C         4.47651381797196    2.43471631279043   -0.05958316797354
C         5.15547149764996    1.16718303763308   -0.04141541783378
N         6.49702384413798    1.36514714970676    0.00373300486777
C         4.51511222344129   -0.05964951363600   -0.06285662366375
C         5.15647415791100   -1.28596076021440   -0.04404809749867
C         4.47894240636257   -2.55417779897654   -0.06386817824984
C         5.43734880292432   -3.50829600325306   -0.03927516512446
C         6.70155016068434   -2.82426685759502   -0.00525494928453
N         6.49842578429799   -1.48255349992651   -0.00741608490078
C         7.92994723356977   -3.46049292621841    0.01946427317454
C         9.15846527955683   -2.82477427111067    0.05008026320671
N         9.36724527303477   -1.48035196467632    0.06918344834269
H        10.53224406639761   -4.57812823510948    0.05818972210950
H        12.44734988403773   -2.68035086841934    0.12224231398138
H        12.44196243948670    2.57035968846135    0.20489729962077
H        10.52470005750011    4.46564413544856    0.16440251980751
H         7.92481349700564    4.42546001518167    0.07279376217695
H         5.31767953002540    4.45665106177503   -0.02316828477768
H         3.41056291354459    2.55343779658809   -0.09529147537209
H         3.43532460474577   -0.06001261823997   -0.09614085545061
H         3.41303102363840   -2.67396601791715   -0.09223210261719
H         5.32269886250080   -4.57520562221554   -0.04346406145069
H         7.93105354267646   -4.54102861695997    0.01323267225302
C        12.76326564728790   -0.05430927641313    0.17066166129869
C        13.98100834321974   -0.04449568930258    0.19623600590418
C        15.32283130641807   -0.03370523793264    0.21134853536325
C        16.54078875508406   -0.01054247208028    0.20813525390503
Cu       21.36771147107601    0.06018977573518   -0.04455390180524
C        18.84054481280879    3.47686292574100    0.20402668137643
C        17.89106133771782    2.51161088900717    0.23319466273998
C        18.58076221208287    1.25558262043107    0.15750183902823
C        17.93786585743151    0.00902134703974    0.17124588449868
C        18.61686039028072   -1.21819605913471    0.14819893381286
C        17.96450044179684   -2.49443087343759    0.21404179810116
C        18.94212387385810   -3.43094714819832    0.18118299897050
C        20.18812090316906   -2.72502982324849    0.08605850794943
N        19.95669955519394   -1.38422225896271    0.07286549199496
C        21.42391590374877   -3.34136469786163    0.00161037098359
C        22.63576139534736   -2.68623805336683   -0.12705809075782
C        23.90506326146454   -3.35065037706362   -0.24798555786042
C        24.84137261179897   -2.38219418291896   -0.36982577032159
C        24.14606399249156   -1.12463363985902   -0.31676738701042
N        22.81471653740765   -1.34185296398551   -0.17116168563486
C        24.76422427454555    0.11132503843658   -0.39291046701963
C        24.10938877329636    1.32806227962825   -0.31462903363818
C        24.76681151120117    2.60581407408891   -0.36590043638433
C        23.80214909994620    3.54558597617050   -0.23998014563846
C        22.55355373268471    2.84342859457148   -0.11814503642727
N        22.77238098438692    1.50504647492592   -0.16665333704543
C        21.32319704003322    3.46175366794038    0.01645377253060
C        20.10662900353298    2.80867541971068    0.10184168741214
N        19.91498012162806    1.46164198772017    0.08081389772135
H        18.71421335105405    4.54158426488693    0.24316434864364
H        16.82573270275470    2.61727798274398    0.30354750426087
H        16.90298990921072   -2.63197247669804    0.28118716038621
H        18.84729940275223   -4.49909582807557    0.21307043170682
H        21.44164517448149   -4.42155978788996    0.02441209161394
H        24.03757247816656   -4.41548187766715   -0.24153840485440
H        25.90337197105901   -2.48575305640024   -0.48294032295499
H        25.83786040484831    0.12744766182478   -0.51134761703972
H        25.82511574548355    2.74120494562449   -0.48045958456509
H        23.90282756687013    4.61388679329822   -0.23116408581447
H        21.30896160309918    4.54190113933579    0.04370817003801
