      -----------------------------------------------------------      
     |                   =====================                   |     
     |                           x T B                           |     
     |                   =====================                   |     
     |                         S. Grimme                         |     
     |          Mulliken Center for Theoretical Chemistry        |     
     |                    University of Bonn                     |     
      -----------------------------------------------------------      

   * xtb version 6.4.1 (bd6e46d) compiled by 'conda@4901f00b25ba' on 2021-06-10

   xtb is free software: you can redistribute it and/or modify it under
   the terms of the GNU Lesser General Public License as published by
   the Free Software Foundation, either version 3 of the License, or
   (at your option) any later version.
   
   xtb is distributed in the hope that it will be useful,
   but WITHOUT ANY WARRANTY; without even the implied warranty of
   MERCHANTABILITY or FITNESS FOR A PARTICULAR PURPOSE.  See the
   GNU Lesser General Public License for more details.
   
   Cite this work as:
   * C. Bannwarth, E. Caldeweyher, S. Ehlert, A. Hansen, P. Pracht,
     J. Seibert, S. Spicher, S. Grimme, WIREs Comput. Mol. Sci., 2020, 11,
     e01493. DOI: 10.1002/wcms.1493
   
   for GFN2-xTB:
   * C. Bannwarth, S. Ehlert and S. Grimme., J. Chem. Theory Comput., 2019,
     15, 1652-1671. DOI: 10.1021/acs.jctc.8b01176
   for GFN1-xTB:
   * S. Grimme, C. Bannwarth, P. Shushkov, J. Chem. Theory Comput., 2017,
     13, 1989-2009. DOI: 10.1021/acs.jctc.7b00118
   for GFN0-xTB:
   * P. Pracht, E. Caldeweyher, S. Ehlert, S. Grimme, ChemRxiv, 2019, preprint.
     DOI: 10.26434/chemrxiv.8326202.v1
   for GFN-FF:
   * S. Spicher and S. Grimme, Angew. Chem. Int. Ed., 2020, 59, 15665-15673.
     DOI: 10.1002/anie.202004239
   
   for DFT-D4:
   * E. Caldeweyher, C. Bannwarth and S. Grimme, J. Chem. Phys., 2017,
     147, 034112. DOI: 10.1063/1.4993215
   * E. Caldeweyher, S. Ehlert, A. Hansen, H. Neugebauer, S. Spicher,
     C. Bannwarth and S. Grimme, J. Chem. Phys., 2019, 150, 154122.
     DOI: 10.1063/1.5090222
   * E. Caldeweyher, J.-M. Mewes, S. Ehlert and S. Grimme, Phys. Chem. Chem. Phys.
     2020, 22, 8499-8512. DOI: 10.1039/D0CP00502A
   
   for sTDA-xTB:
   * S. Grimme and C. Bannwarth, J. Chem. Phys., 2016, 145, 054103.
     DOI: 10.1063/1.4959605
   
   in the mass-spec context:
   * V. Asgeirsson, C. Bauer and S. Grimme, Chem. Sci., 2017, 8, 4879.
     DOI: 10.1039/c7sc00601b
   * J. Koopman and S. Grimme, ACS Omega 2019, 4, 12, 15120-15133.
     DOI: 10.1021/acsomega.9b02011
   
   for metadynamics refer to:
   * S. Grimme, J. Chem. Theory Comput., 2019, 155, 2847-2862
     DOI: 10.1021/acs.jctc.9b00143
   
   for SPH calculations refer to:
   * S. Spicher and S. Grimme, J. Chem. Theory Comput., 2021, 17, 1701-1714
     DOI: 10.1021/acs.jctc.0c01306
   
   with help from (in alphabetical order)
   P. Atkinson, C. Bannwarth, F. Bohle, G. Brandenburg, E. Caldeweyher
   M. Checinski, S. Dohm, S. Ehlert, S. Ehrlich, I. Gerasimov, J. Koopman
   C. Lavigne, S. Lehtola, F. März, M. Müller, F. Musil, H. Neugebauer
   J. Pisarek, C. Plett, P. Pracht, J. Seibert, P. Shushkov, S. Spicher
   M. Stahn, M. Steiner, T. Strunk, J. Stückrath, T. Rose, and J. Unsleber
   
 * started run on 2021/11/18 at 17:19:34.714     

           -------------------------------------------------
          |                Calculation Setup                |
           -------------------------------------------------

          program call               : /home/jeff/miniconda3/bin/xtb input_structure_1.xyz --gfn 2 --ohess normal --parallel 1 --etemp 300 --chrg 0 --uhf 0 -I det_control.in
          hostname                   : jelfscompute1
          coordinate file            : input_structure_1.xyz
          omp threads                :                     1
          number of atoms            :                   114
          number of electrons        :                   354
          charge                     :                     0
          spin                       :                   0.0
          first test random number   :      0.15124230829375

   ID    Z sym.   atoms
    1    6 C      1-8, 10-14, 16-20, 22, 23, 38-45, 47-51, 53-57, 59, 60,
                  75-86, 88-92, 94-98, 100, 101
    2    7 N      9, 15, 21, 24, 46, 52, 58, 61, 87, 93, 99, 102
    3    1 H      25-37, 62-74, 103-114

           -------------------------------------------------
          |                 G F N 2 - x T B                 |
           -------------------------------------------------

        Reference                      10.1021/acs.jctc.8b01176
      * Hamiltonian:
        H0-scaling (s, p, d)           1.850000    2.230000    2.230000
        zeta-weighting                 0.500000
      * Dispersion:
        s8                             2.700000
        a1                             0.520000
        a2                             5.000000
        s9                             5.000000
      * Repulsion:
        kExp                           1.500000    1.000000
        rExp                           1.000000
      * Coulomb:
        alpha                          2.000000
        third order                    shell-resolved
        anisotropic                    true
        a3                             3.000000
        a5                             4.000000
        cn-shift                       1.200000
        cn-exp                         4.000000
        max-rad                        5.000000


          ...................................................
          :                      SETUP                      :
          :.................................................:
          :  # basis functions                 342          :
          :  # atomic orbitals                 342          :
          :  # shells                          190          :
          :  # electrons                       354          :
          :  max. iterations                   250          :
          :  Hamiltonian                  GFN2-xTB          :
          :  restarted?                      false          :
          :  GBSA solvation                  false          :
          :  PC potential                    false          :
          :  electronic temp.          300.0000000     K    :
          :  accuracy                    1.0000000          :
          :  -> integral cutoff          0.2500000E+02      :
          :  -> integral neglect         0.1000000E-07      :
          :  -> SCF convergence          0.1000000E-05 Eh   :
          :  -> wf. convergence          0.1000000E-03 e    :
          :  Broyden damping             0.4000000          :
          ...................................................

 iter      E             dE          RMSdq      gap      omega  full diag
   1   -194.0201548 -0.194020E+03  0.460E+00    0.53       0.0  T
   2   -194.3049823 -0.284827E+00  0.295E+00    0.61       1.0  T
   3   -194.1687255  0.136257E+00  0.154E+00    0.61       1.0  T
   4   -193.9904416  0.178284E+00  0.142E+00    0.35       1.0  T
   5   -194.3325136 -0.342072E+00  0.416E-01    0.65       1.0  T
   6   -194.3567941 -0.242805E-01  0.168E-01    0.61       1.0  T
   7   -194.3602670 -0.347293E-02  0.922E-02    0.62       1.0  T
   8   -194.3607272 -0.460247E-03  0.660E-02    0.62       1.0  T
   9   -194.3611744 -0.447192E-03  0.384E-02    0.62       1.0  T
  10   -194.3613016 -0.127113E-03  0.229E-02    0.62       1.0  T
  11   -194.3613671 -0.655768E-04  0.119E-02    0.62       1.0  T
  12   -194.3613902 -0.230258E-04  0.477E-03    0.62       2.0  T
  13   -194.3613931 -0.295888E-05  0.217E-03    0.62       4.3  T
  14   -194.3613940 -0.835113E-06  0.667E-04    0.62      14.0  T
  15   -194.3613940 -0.419653E-07  0.343E-04    0.62      27.3  T

   *** convergence criteria satisfied after 15 iterations ***

         #    Occupation            Energy/Eh            Energy/eV
      -------------------------------------------------------------
         1        2.0000           -0.6899008             -18.7732
       ...           ...                  ...                  ...
       171        2.0000           -0.3531667              -9.6102
       172        2.0000           -0.3514809              -9.5643
       173        2.0000           -0.3509522              -9.5499
       174        2.0000           -0.3491475              -9.5008
       175        2.0000           -0.3439394              -9.3591
       176        2.0000           -0.3425926              -9.3224
       177        2.0000           -0.3362632              -9.1502 (HOMO)
       178        0.0000           -0.3136221              -8.5341 (LUMO)
       179                         -0.3056338              -8.3167
       180                         -0.3022092              -8.2235
       181                         -0.2941147              -8.0033
       182                         -0.2919930              -7.9455
       ...                                ...                  ...
       342                          1.2947794              35.2327
      -------------------------------------------------------------
                  HL-Gap            0.0226411 Eh            0.6161 eV
             Fermi-level           -0.3249420 Eh           -8.8421 eV

 SCC (total)                   0 d,  0 h,  0 min,  0.587 sec
 SCC setup                      ...        0 min,  0.003 sec (  0.451%)
 Dispersion                     ...        0 min,  0.005 sec (  0.899%)
 classical contributions        ...        0 min,  0.001 sec (  0.171%)
 integral evaluation            ...        0 min,  0.041 sec (  6.955%)
 iterations                     ...        0 min,  0.368 sec ( 62.614%)
 molecular gradient             ...        0 min,  0.167 sec ( 28.497%)
 printout                       ...        0 min,  0.002 sec (  0.411%)

         :::::::::::::::::::::::::::::::::::::::::::::::::::::
         ::                     SUMMARY                     ::
         :::::::::::::::::::::::::::::::::::::::::::::::::::::
         :: total energy            -190.996367530453 Eh    ::
         :: gradient norm              0.421802294656 Eh/a0 ::
         :: HOMO-LUMO gap              0.616096395406 eV    ::
         ::.................................................::
         :: SCC energy              -194.361393992025 Eh    ::
         :: -> isotropic ES            0.113286422543 Eh    ::
         :: -> anisotropic ES         -0.002146756752 Eh    ::
         :: -> anisotropic XC          0.139134078785 Eh    ::
         :: -> dispersion             -0.158463220006 Eh    ::
         :: repulsion energy           3.365213754624 Eh    ::
         :: add. restraining           0.000000000000 Eh    ::
         :: total charge              -0.000000000001 e     ::
         :::::::::::::::::::::::::::::::::::::::::::::::::::::

      ----------------------------------------------------------- 
     |                   =====================                   |
     |                        A N C O P T                        |
     |                   =====================                   |
     |               Approximate Normal Coordinate               |
     |                Rational Function Optimizer                |
      ----------------------------------------------------------- 

          ...................................................
          :                      SETUP                      :
          :.................................................:
          :   optimization level            normal          :
          :   max. optcycles                   342          :
          :   ANC micro-cycles                  20          :
          :   degrees of freedom               336          :
          :.................................................:
          :   RF solver                   davidson          :
          :   write xtbopt.log                true          :
          :   linear?                        false          :
          :   energy convergence         0.5000000E-05 Eh   :
          :   grad. convergence          0.1000000E-02 Eh/α :
          :   maximium RF displ.         1.0000000          :
          :   Hlow (freq-cutoff)         0.1000000E-01      :
          :   Hmax (freq-cutoff)         5.0000000          :
          :   S6 in model hess.         20.0000000          :
          ...................................................

generating ANC from model Hessian ...
Using Lindh-Hessian (1995)
 Shifting diagonal of input Hessian by    9.9969225525311303E-003
 Lowest  eigenvalues of input Hessian
    0.000000    0.000000    0.000000    0.000000    0.000000    0.000000
    0.010000    0.010002    0.010009    0.010015    0.010045    0.010062
    0.010312    0.010587    0.010635    0.010903    0.010958    0.011007
 Highest eigenvalues
    2.220587    2.226216    2.236377    2.266107    2.496548    2.504764


........................................................................
.............................. CYCLE    1 ..............................
........................................................................
   1   -194.3613940 -0.194361E+03  0.190E-04    0.62       0.0  T
   2   -194.3613940  0.792565E-08  0.246E-04    0.62      38.1  T
   3   -194.3613940 -0.119121E-07  0.810E-05    0.62     115.6  T
     SCC iter.                  ...        0 min,  0.070 sec
     gradient                   ...        0 min,  0.149 sec
 * total energy  :  -190.9963675 Eh     change       -0.1185452E-07 Eh
   gradient norm :     0.4218023 Eh/α   predicted     0.0000000E+00 (-100.00%)
   displ. norm   :     0.5329473 α      lambda       -0.1713849E+00
   maximum displ.:     0.1273362 α      in ANC's #165, #215, #171, ...

........................................................................
.............................. CYCLE    2 ..............................
........................................................................
   1   -194.4681423 -0.194468E+03  0.331E-01    0.61       0.0  T
   2   -194.4689507 -0.808422E-03  0.195E-01    0.61       1.0  T
   3   -194.4669882  0.196247E-02  0.125E-01    0.61       1.0  T
   4   -194.4676681 -0.679909E-03  0.914E-02    0.61       1.0  T
   5   -194.4691612 -0.149302E-02  0.268E-02    0.61       1.0  T
   6   -194.4692457 -0.844962E-04  0.142E-02    0.61       1.0  T
   7   -194.4692791 -0.334542E-04  0.650E-03    0.61       1.4  T
   8   -194.4692813 -0.221382E-05  0.441E-03    0.61       2.1  T
   9   -194.4692836 -0.222613E-05  0.192E-03    0.61       4.9  T
  10   -194.4692842 -0.650105E-06  0.936E-04    0.61      10.0  T
  11   -194.4692843 -0.119252E-06  0.440E-04    0.61      21.3  T
     SCC iter.                  ...        0 min,  0.249 sec
     gradient                   ...        0 min,  0.149 sec
 * total energy  :  -191.1295878 Eh     change       -0.1332203E+00 Eh
   gradient norm :     0.2138155 Eh/α   predicted    -0.1100922E+00 ( -17.36%)
   displ. norm   :     0.6053032 α      lambda       -0.9567382E-01
   maximum displ.:     0.1474336 α      in ANC's #165, #63, #62, ...

........................................................................
.............................. CYCLE    3 ..............................
........................................................................
   1   -194.5715657 -0.194572E+03  0.319E-01    0.59       0.0  T
   2   -194.5722017 -0.635987E-03  0.186E-01    0.59       1.0  T
   3   -194.5695166  0.268509E-02  0.132E-01    0.59       1.0  T
   4   -194.5707699 -0.125331E-02  0.869E-02    0.59       1.0  T
   5   -194.5723732 -0.160331E-02  0.297E-02    0.59       1.0  T
   6   -194.5725306 -0.157367E-03  0.147E-02    0.59       1.0  T
   7   -194.5725703 -0.397079E-04  0.464E-03    0.59       2.0  T
   8   -194.5725701  0.170175E-06  0.355E-03    0.59       2.6  T
   9   -194.5725713 -0.121244E-05  0.159E-03    0.59       5.9  T
  10   -194.5725718 -0.438841E-06  0.665E-04    0.59      14.1  T
  11   -194.5725718 -0.527798E-07  0.320E-04    0.59      29.3  T
     SCC iter.                  ...        0 min,  0.249 sec
     gradient                   ...        0 min,  0.149 sec
 * total energy  :  -191.1913681 Eh     change       -0.6178024E-01 Eh
   gradient norm :     0.0718271 Eh/α   predicted    -0.6536396E-01 (   5.80%)
   displ. norm   :     0.7010210 α      lambda       -0.3483597E-01
   maximum displ.:     0.2077119 α      in ANC's #63, #21, #19, ...

........................................................................
.............................. CYCLE    4 ..............................
........................................................................
   1   -194.6176084 -0.194618E+03  0.219E-01    0.62       0.0  T
   2   -194.6175764  0.320370E-04  0.131E-01    0.62       1.0  T
   3   -194.6152817  0.229465E-02  0.114E-01    0.62       1.0  T
   4   -194.6176367 -0.235500E-02  0.199E-02    0.62       1.0  T
   5   -194.6177083 -0.715390E-04  0.616E-03    0.62       1.5  T
   6   -194.6177125 -0.420568E-05  0.335E-03    0.62       2.8  T
   7   -194.6177130 -0.527488E-06  0.242E-03    0.62       3.9  T
   8   -194.6177137 -0.692702E-06  0.125E-03    0.62       7.5  T
   9   -194.6177140 -0.262955E-06  0.453E-04    0.62      20.7  T
  10   -194.6177140 -0.325556E-07  0.230E-04    0.62      40.7  T
     SCC iter.                  ...        0 min,  0.226 sec
     gradient                   ...        0 min,  0.149 sec
 * total energy  :  -191.2208907 Eh     change       -0.2952263E-01 Eh
   gradient norm :     0.0501874 Eh/α   predicted    -0.2598499E-01 ( -11.98%)
   displ. norm   :     0.8249663 α      lambda       -0.2926503E-01
   maximum displ.:     0.3010543 α      in ANC's #21, #19, #45, ...

........................................................................
.............................. CYCLE    5 ..............................
........................................................................
   1   -194.6657233 -0.194666E+03  0.209E-01    0.66       0.0  T
   2   -194.6657167  0.655392E-05  0.123E-01    0.66       1.0  T
   3   -194.6642757  0.144100E-02  0.966E-02    0.66       1.0  T
   4   -194.6657451 -0.146934E-02  0.189E-02    0.66       1.0  T
   5   -194.6658141 -0.690283E-04  0.480E-03    0.66       2.0  T
   6   -194.6658163 -0.217057E-05  0.305E-03    0.66       3.1  T
   7   -194.6658169 -0.587014E-06  0.202E-03    0.66       4.6  T
   8   -194.6658176 -0.706390E-06  0.957E-04    0.66       9.8  T
   9   -194.6658177 -0.168065E-06  0.249E-04    0.66      37.6  T
     SCC iter.                  ...        0 min,  0.205 sec
     gradient                   ...        0 min,  0.149 sec
 * total energy  :  -191.2463772 Eh     change       -0.2548654E-01 Eh
   gradient norm :     0.0372763 Eh/α   predicted    -0.2459116E-01 (  -3.51%)
   displ. norm   :     0.8596352 α      lambda       -0.2355749E-01
   maximum displ.:     0.3720110 α      in ANC's #21, #19, #45, ...

........................................................................
.............................. CYCLE    6 ..............................
........................................................................
   1   -194.7087734 -0.194709E+03  0.192E-01    0.72       0.0  T
   2   -194.7088119 -0.385196E-04  0.112E-01    0.71       1.0  T
   3   -194.7081925  0.619446E-03  0.705E-02    0.72       1.0  T
   4   -194.7088106 -0.618082E-03  0.183E-02    0.72       1.0  T
   5   -194.7088694 -0.587986E-04  0.472E-03    0.71       2.0  T
   6   -194.7088716 -0.228816E-05  0.312E-03    0.71       3.0  T
   7   -194.7088732 -0.153253E-05  0.146E-03    0.71       6.4  T
   8   -194.7088734 -0.182649E-06  0.926E-04    0.71      10.1  T
   9   -194.7088735 -0.176709E-06  0.238E-04    0.71      39.4  T
     SCC iter.                  ...        0 min,  0.204 sec
     gradient                   ...        0 min,  0.149 sec
 * total energy  :  -191.2675490 Eh     change       -0.2117182E-01 Eh
   gradient norm :     0.0317107 Eh/α   predicted    -0.2048292E-01 (  -3.25%)
   displ. norm   :     0.8802763 α      lambda       -0.1994465E-01
   maximum displ.:     0.4340712 α      in ANC's #21, #19, #22, ...

........................................................................
.............................. CYCLE    7 ..............................
........................................................................
   1   -194.7443525 -0.194744E+03  0.182E-01    0.78       0.0  T
   2   -194.7444000 -0.474251E-04  0.106E-01    0.77       1.0  T
   3   -194.7439472  0.452796E-03  0.581E-02    0.78       1.0  T
   4   -194.7443934 -0.446245E-03  0.172E-02    0.77       1.0  T
   5   -194.7444495 -0.560916E-04  0.481E-03    0.77       1.9  T
   6   -194.7444528 -0.330955E-05  0.289E-03    0.77       3.2  T
   7   -194.7444542 -0.136832E-05  0.119E-03    0.77       7.8  T
   8   -194.7444543 -0.112419E-06  0.586E-04    0.77      16.0  T
   9   -194.7444543 -0.532433E-07  0.224E-04    0.77      41.9  T
     SCC iter.                  ...        0 min,  0.204 sec
     gradient                   ...        0 min,  0.149 sec
 * total energy  :  -191.2855911 Eh     change       -0.1804209E-01 Eh
   gradient norm :     0.0256215 Eh/α   predicted    -0.1769975E-01 (  -1.90%)
   displ. norm   :     0.8881201 α      lambda       -0.1675628E-01
   maximum displ.:     0.4763274 α      in ANC's #21, #19, #22, ...

........................................................................
.............................. CYCLE    8 ..............................
........................................................................
   1   -194.7681486 -0.194768E+03  0.174E-01    0.83       0.0  T
   2   -194.7681826 -0.340114E-04  0.101E-01    0.82       1.0  T
   3   -194.7677638  0.418779E-03  0.502E-02    0.83       1.0  T
   4   -194.7681557 -0.391862E-03  0.171E-02    0.82       1.0  T
   5   -194.7682218 -0.660893E-04  0.405E-03    0.82       2.3  T
   6   -194.7682239 -0.217480E-05  0.229E-03    0.82       4.1  T
   7   -194.7682245 -0.603252E-06  0.107E-03    0.82       8.7  T
   8   -194.7682247 -0.136192E-06  0.376E-04    0.82      24.9  T
   9   -194.7682247 -0.152359E-07  0.168E-04    0.82      55.8  T
     SCC iter.                  ...        0 min,  0.204 sec
     gradient                   ...        0 min,  0.149 sec
 * total energy  :  -191.3007746 Eh     change       -0.1518347E-01 Eh
   gradient norm :     0.0227889 Eh/α   predicted    -0.1498651E-01 (  -1.30%)
   displ. norm   :     0.8888150 α      lambda       -0.1420956E-01
   maximum displ.:     0.5050848 α      in ANC's #21, #19, #22, ...

........................................................................
.............................. CYCLE    9 ..............................
........................................................................
   1   -194.7871630 -0.194787E+03  0.167E-01    0.86       0.0  T
   2   -194.7871898 -0.268153E-04  0.972E-02    0.86       1.0  T
   3   -194.7869301  0.259730E-03  0.399E-02    0.87       1.0  T
   4   -194.7871814 -0.251385E-03  0.127E-02    0.86       1.0  T
   5   -194.7872152 -0.337213E-04  0.326E-03    0.86       2.9  T
   6   -194.7872159 -0.784387E-06  0.232E-03    0.86       4.0  T
   7   -194.7872168 -0.825162E-06  0.866E-04    0.86      10.8  T
   8   -194.7872169 -0.102689E-06  0.299E-04    0.86      31.4  T
     SCC iter.                  ...        0 min,  0.181 sec
     gradient                   ...        0 min,  0.149 sec
 * total energy  :  -191.3135975 Eh     change       -0.1282288E-01 Eh
   gradient norm :     0.0234769 Eh/α   predicted    -0.1271751E-01 (  -0.82%)
   displ. norm   :     0.8849809 α      lambda       -0.1234273E-01
   maximum displ.:     0.5093251 α      in ANC's #21, #19, #22, ...

........................................................................
.............................. CYCLE   10 ..............................
........................................................................
   1   -194.7972434 -0.194797E+03  0.165E-01    0.89       0.0  T
   2   -194.7972589 -0.154999E-04  0.960E-02    0.89       1.0  T
   3   -194.7969408  0.318102E-03  0.410E-02    0.89       1.0  T
   4   -194.7972502 -0.309426E-03  0.120E-02    0.89       1.0  T
   5   -194.7972812 -0.309530E-04  0.297E-03    0.89       3.2  T
   6   -194.7972816 -0.453425E-06  0.216E-03    0.89       4.3  T
   7   -194.7972823 -0.700280E-06  0.867E-04    0.89      10.8  T
   8   -194.7972825 -0.115407E-06  0.309E-04    0.89      30.3  T
     SCC iter.                  ...        0 min,  0.183 sec
     gradient                   ...        0 min,  0.149 sec
 * total energy  :  -191.3244436 Eh     change       -0.1084617E-01 Eh
   gradient norm :     0.0231627 Eh/α   predicted    -0.1100473E-01 (   1.46%)
   displ. norm   :     0.8727729 α      lambda       -0.1079422E-01
   maximum displ.:     0.5148050 α      in ANC's #21, #19, #22, ...

........................................................................
.............................. CYCLE   11 ..............................
........................................................................
   1   -194.8072839 -0.194807E+03  0.163E-01    0.91       0.0  T
   2   -194.8073023 -0.183524E-04  0.949E-02    0.90       1.0  T
   3   -194.8071568  0.145471E-03  0.303E-02    0.91       1.0  T
   4   -194.8073033 -0.146455E-03  0.863E-03    0.91       1.1  T
   5   -194.8073164 -0.131273E-04  0.260E-03    0.91       3.6  T
   6   -194.8073164  0.690079E-08  0.206E-03    0.91       4.6  T
   7   -194.8073170 -0.623587E-06  0.768E-04    0.91      12.2  T
   8   -194.8073171 -0.984055E-07  0.331E-04    0.91      28.3  T
     SCC iter.                  ...        0 min,  0.182 sec
     gradient                   ...        0 min,  0.149 sec
 * total energy  :  -191.3337341 Eh     change       -0.9290497E-02 Eh
   gradient norm :     0.0215537 Eh/α   predicted    -0.9508272E-02 (   2.34%)
   displ. norm   :     0.8494803 α      lambda       -0.8836473E-02
   maximum displ.:     0.4938527 α      in ANC's #21, #19, #22, ...

........................................................................
.............................. CYCLE   12 ..............................
........................................................................
   1   -194.8146062 -0.194815E+03  0.159E-01    0.92       0.0  T
   2   -194.8146202 -0.139283E-04  0.925E-02    0.92       1.0  T
   3   -194.8144995  0.120723E-03  0.260E-02    0.92       1.0  T
   4   -194.8146166 -0.117171E-03  0.852E-03    0.92       1.1  T
   5   -194.8146308 -0.141746E-04  0.231E-03    0.92       4.1  T
   6   -194.8146308 -0.153730E-07  0.173E-03    0.92       5.4  T
   7   -194.8146313 -0.456372E-06  0.770E-04    0.92      12.2  T
   8   -194.8146314 -0.108797E-06  0.260E-04    0.92      36.0  T
     SCC iter.                  ...        0 min,  0.182 sec
     gradient                   ...        0 min,  0.150 sec
 * total energy  :  -191.3415218 Eh     change       -0.7787649E-02 Eh
   gradient norm :     0.0168284 Eh/α   predicted    -0.7606521E-02 (  -2.33%)
   displ. norm   :     0.8381616 α      lambda       -0.7418456E-02
   maximum displ.:     0.4794960 α      in ANC's #21, #19, #22, ...

........................................................................
.............................. CYCLE   13 ..............................
........................................................................
   1   -194.8216290 -0.194822E+03  0.161E-01    0.92       0.0  T
   2   -194.8216387 -0.972579E-05  0.941E-02    0.92       1.0  T
   3   -194.8215356  0.103145E-03  0.249E-02    0.92       1.0  T
   4   -194.8216393 -0.103728E-03  0.696E-03    0.92       1.3  T
   5   -194.8216477 -0.834787E-05  0.214E-03    0.92       4.4  T
   6   -194.8216477 -0.330345E-07  0.139E-03    0.92       6.7  T
   7   -194.8216479 -0.166368E-06  0.756E-04    0.92      12.4  T
   8   -194.8216480 -0.133829E-06  0.212E-04    0.92      44.3  T
     SCC iter.                  ...        0 min,  0.182 sec
     gradient                   ...        0 min,  0.149 sec
 * total energy  :  -191.3480412 Eh     change       -0.6519420E-02 Eh
   gradient norm :     0.0149431 Eh/α   predicted    -0.6315039E-02 (  -3.13%)
   displ. norm   :     0.8360615 α      lambda       -0.6239209E-02
   maximum displ.:     0.4503439 α      in ANC's #21, #19, #22, ...

........................................................................
.............................. CYCLE   14 ..............................
........................................................................
   1   -194.8264083 -0.194826E+03  0.162E-01    0.93       0.0  T
   2   -194.8264211 -0.127424E-04  0.943E-02    0.93       1.0  T
   3   -194.8263792  0.418881E-04  0.169E-02    0.93       1.0  T
   4   -194.8264223 -0.431614E-04  0.566E-03    0.93       1.7  T
   5   -194.8264275 -0.521577E-05  0.216E-03    0.93       4.3  T
   6   -194.8264278 -0.225154E-06  0.123E-03    0.93       7.6  T
   7   -194.8264279 -0.100677E-06  0.664E-04    0.93      14.1  T
   8   -194.8264280 -0.988645E-07  0.229E-04    0.93      40.9  T
     SCC iter.                  ...        0 min,  0.182 sec
     gradient                   ...        0 min,  0.149 sec
 * total energy  :  -191.3533963 Eh     change       -0.5355125E-02 Eh
   gradient norm :     0.0144122 Eh/α   predicted    -0.5300210E-02 (  -1.03%)
   displ. norm   :     0.8170587 α      lambda       -0.5306787E-02
   maximum displ.:     0.4065985 α      in ANC's #21, #19, #11, ...

........................................................................
.............................. CYCLE   15 ..............................
........................................................................
   1   -194.8373212 -0.194837E+03  0.163E-01    0.93       0.0  T
   2   -194.8373293 -0.808536E-05  0.955E-02    0.93       1.0  T
   3   -194.8372787  0.505964E-04  0.178E-02    0.93       1.0  T
   4   -194.8373322 -0.535458E-04  0.469E-03    0.93       2.0  T
   5   -194.8373353 -0.308231E-05  0.212E-03    0.93       4.4  T
   6   -194.8373355 -0.220296E-06  0.102E-03    0.93       9.1  T
   7   -194.8373356 -0.795368E-07  0.423E-04    0.93      22.1  T
   8   -194.8373356 -0.291132E-07  0.153E-04    0.93      61.2  T
     SCC iter.                  ...        0 min,  0.182 sec
     gradient                   ...        0 min,  0.149 sec
 * total energy  :  -191.3575259 Eh     change       -0.4129543E-02 Eh
   gradient norm :     0.0215681 Eh/α   predicted    -0.4424765E-02 (   7.15%)
   displ. norm   :     0.7895223 α      lambda       -0.4528620E-02
   maximum displ.:     0.3865813 α      in ANC's #19, #21, #11, ...

........................................................................
.............................. CYCLE   16 ..............................
........................................................................
   1   -194.8297427 -0.194830E+03  0.152E-01    0.94       0.0  T
   2   -194.8297499 -0.724345E-05  0.888E-02    0.94       1.0  T
   3   -194.8296202  0.129741E-03  0.256E-02    0.94       1.0  T
   4   -194.8297531 -0.132892E-03  0.595E-03    0.94       1.6  T
   5   -194.8297595 -0.640950E-05  0.231E-03    0.94       4.1  T
   6   -194.8297596 -0.133756E-06  0.156E-03    0.94       6.0  T
   7   -194.8297599 -0.339848E-06  0.619E-04    0.94      15.1  T
   8   -194.8297600 -0.644542E-07  0.174E-04    0.94      53.8  T
     SCC iter.                  ...        0 min,  0.181 sec
     gradient                   ...        0 min,  0.149 sec
 * total energy  :  -191.3606449 Eh     change       -0.3119003E-02 Eh
   gradient norm :     0.0198514 Eh/α   predicted    -0.3675764E-02 (  17.85%)
   displ. norm   :     0.6987191 α      lambda       -0.3314949E-02
   maximum displ.:     0.3308129 α      in ANC's #19, #11, #21, ...

........................................................................
.............................. CYCLE   17 ..............................
........................................................................
   1   -194.8362168 -0.194836E+03  0.138E-01    0.94       0.0  T
   2   -194.8362230 -0.616454E-05  0.806E-02    0.94       1.0  T
   3   -194.8361195  0.103459E-03  0.226E-02    0.94       1.0  T
   4   -194.8362244 -0.104902E-03  0.552E-03    0.94       1.7  T
   5   -194.8362306 -0.615348E-05  0.211E-03    0.94       4.4  T
   6   -194.8362307 -0.184118E-06  0.139E-03    0.94       6.7  T
   7   -194.8362310 -0.247680E-06  0.541E-04    0.94      17.3  T
   8   -194.8362310 -0.517024E-07  0.194E-04    0.94      48.2  T
     SCC iter.                  ...        0 min,  0.182 sec
     gradient                   ...        0 min,  0.149 sec
 * total energy  :  -191.3628151 Eh     change       -0.2170243E-02 Eh
   gradient norm :     0.0201096 Eh/α   predicted    -0.2466676E-02 (  13.66%)
   displ. norm   :     0.6618751 α      lambda       -0.2845464E-02
   maximum displ.:     0.2824039 α      in ANC's #19, #21, #11, ...

........................................................................
.............................. CYCLE   18 ..............................
........................................................................
   1   -194.8453883 -0.194845E+03  0.127E-01    0.94       0.0  T
   2   -194.8453952 -0.689058E-05  0.741E-02    0.94       1.0  T
   3   -194.8453380  0.572462E-04  0.184E-02    0.94       1.0  T
   4   -194.8453976 -0.596688E-04  0.451E-03    0.94       2.1  T
   5   -194.8454009 -0.322854E-05  0.190E-03    0.94       4.9  T
   6   -194.8454010 -0.104680E-06  0.130E-03    0.94       7.2  T
   7   -194.8454012 -0.229939E-06  0.517E-04    0.94      18.1  T
   8   -194.8454012 -0.447096E-07  0.177E-04    0.94      53.0  T
     SCC iter.                  ...        0 min,  0.183 sec
     gradient                   ...        0 min,  0.149 sec
 * total energy  :  -191.3644966 Eh     change       -0.1681489E-02 Eh
   gradient norm :     0.0204320 Eh/α   predicted    -0.2046001E-02 (  21.68%)
   displ. norm   :     0.5939545 α      lambda       -0.2126627E-02
   maximum displ.:     0.2430442 α      in ANC's #19, #11, #8, ...

........................................................................
.............................. CYCLE   19 ..............................
........................................................................
   1   -194.8469995 -0.194847E+03  0.107E-01    0.94       0.0  T
   2   -194.8470046 -0.507644E-05  0.626E-02    0.94       1.0  T
   3   -194.8469577  0.469138E-04  0.159E-02    0.94       1.0  T
   4   -194.8470067 -0.490789E-04  0.413E-03    0.94       2.3  T
   5   -194.8470091 -0.237716E-05  0.168E-03    0.94       5.6  T
   6   -194.8470092 -0.114317E-06  0.993E-04    0.94       9.4  T
   7   -194.8470093 -0.734770E-07  0.438E-04    0.94      21.4  T
     SCC iter.                  ...        0 min,  0.159 sec
     gradient                   ...        0 min,  0.149 sec
 * total energy  :  -191.3656289 Eh     change       -0.1132289E-02 Eh
   gradient norm :     0.0226628 Eh/α   predicted    -0.1438436E-02 (  27.04%)
   displ. norm   :     0.5457992 α      lambda       -0.1956641E-02
   maximum displ.:     0.2259215 α      in ANC's #11, #19, #13, ...

........................................................................
.............................. CYCLE   20 ..............................
........................................................................
   1   -194.8498140 -0.194850E+03  0.979E-02    0.95       0.0  T
   2   -194.8498183 -0.428291E-05  0.576E-02    0.95       1.0  T
   3   -194.8497230  0.952820E-04  0.247E-02    0.95       1.0  T
   4   -194.8498229 -0.998802E-04  0.444E-03    0.95       2.1  T
   5   -194.8498256 -0.270330E-05  0.150E-03    0.95       6.2  T
   6   -194.8498256 -0.301288E-07  0.102E-03    0.95       9.2  T
   7   -194.8498257 -0.851688E-07  0.439E-04    0.95      21.3  T
   8   -194.8498258 -0.318011E-07  0.153E-04    0.95      61.3  T
     SCC iter.                  ...        0 min,  0.181 sec
     gradient                   ...        0 min,  0.150 sec
 * total energy  :  -191.3666239 Eh     change       -0.9949465E-03 Eh
   gradient norm :     0.0200019 Eh/α   predicted    -0.1269761E-02 (  27.62%)
   displ. norm   :     0.4769469 α      lambda       -0.1486769E-02
   maximum displ.:     0.2048821 α      in ANC's #8, #11, #13, ...
 * RMSD in coord.:     1.1745943 α      energy gain  -0.3702563E+00 Eh

generating ANC from model Hessian ...
Using Lindh-Hessian (1995)
 Shifting diagonal of input Hessian by    1.0049581528597744E-002
 Lowest  eigenvalues of input Hessian
    0.010000    0.010044    0.000000    0.000000    0.000000    0.000000
    0.000000    0.000000    0.010061    0.010067    0.010072    0.010137
    0.010373    0.010584    0.010772    0.010811    0.010921    0.010983
 Highest eigenvalues
    2.237546    2.240308    2.244732    2.252179    2.655681    2.665235


........................................................................
.............................. CYCLE   21 ..............................
........................................................................
   1   -194.8511055 -0.194851E+03  0.823E-02    0.95       0.0  T
   2   -194.8511080 -0.243601E-05  0.480E-02    0.95       1.0  T
   3   -194.8510221  0.859035E-04  0.220E-02    0.95       1.0  T
   4   -194.8511114 -0.893714E-04  0.400E-03    0.95       2.3  T
   5   -194.8511143 -0.283667E-05  0.178E-03    0.95       5.3  T
   6   -194.8511147 -0.378071E-06  0.927E-04    0.95      10.1  T
   7   -194.8511147 -0.703599E-07  0.480E-04    0.95      19.5  T
     SCC iter.                  ...        0 min,  0.160 sec
     gradient                   ...        0 min,  0.149 sec
 * total energy  :  -191.3673745 Eh     change       -0.7506718E-03 Eh
   gradient norm :     0.0200720 Eh/α   predicted     0.0000000E+00 (-100.00%)
   displ. norm   :     0.1815003 α      lambda       -0.8901045E-03
   maximum displ.:     0.0746810 α      in ANC's #13, #9, #12, ...

........................................................................
.............................. CYCLE   22 ..............................
........................................................................
   1   -194.8533175 -0.194853E+03  0.381E-02    0.95       0.0  T
   2   -194.8533187 -0.125932E-05  0.225E-02    0.95       1.0  T
   3   -194.8533066  0.120963E-04  0.890E-03    0.95       1.1  T
   4   -194.8533187 -0.120346E-04  0.234E-03    0.95       4.0  T
   5   -194.8533198 -0.107911E-05  0.876E-04    0.95      10.7  T
   6   -194.8533199 -0.102930E-06  0.491E-04    0.95      19.1  T
   7   -194.8533199 -0.294990E-07  0.199E-04    0.95      47.1  T
     SCC iter.                  ...        0 min,  0.158 sec
     gradient                   ...        0 min,  0.149 sec
 * total energy  :  -191.3680572 Eh     change       -0.6826867E-03 Eh
   gradient norm :     0.0066040 Eh/α   predicted    -0.4597380E-03 ( -32.66%)
   displ. norm   :     0.3930877 α      lambda       -0.9488721E-03
   maximum displ.:     0.1715891 α      in ANC's #9, #13, #12, ...

........................................................................
.............................. CYCLE   23 ..............................
........................................................................
   1   -194.8540007 -0.194854E+03  0.675E-02    0.95       0.0  T
   2   -194.8540028 -0.209257E-05  0.395E-02    0.95       1.0  T
   3   -194.8539827  0.200947E-04  0.109E-02    0.95       1.0  T
   4   -194.8540027 -0.200049E-04  0.295E-03    0.95       3.2  T
   5   -194.8540045 -0.174179E-05  0.119E-03    0.95       7.9  T
   6   -194.8540046 -0.160191E-06  0.669E-04    0.95      14.0  T
   7   -194.8540047 -0.521901E-07  0.230E-04    0.95      40.7  T
     SCC iter.                  ...        0 min,  0.157 sec
     gradient                   ...        0 min,  0.149 sec
 * total energy  :  -191.3687619 Eh     change       -0.7047241E-03 Eh
   gradient norm :     0.0097184 Eh/α   predicted    -0.5477838E-03 ( -22.27%)
   displ. norm   :     0.4713097 α      lambda       -0.7527753E-03
   maximum displ.:     0.2105379 α      in ANC's #13, #9, #12, ...

........................................................................
.............................. CYCLE   24 ..............................
........................................................................
   1   -194.8532349 -0.194853E+03  0.746E-02    0.95       0.0  T
   2   -194.8532365 -0.163921E-05  0.436E-02    0.95       1.0  T
   3   -194.8532300  0.647106E-05  0.638E-03    0.95       1.5  T
   4   -194.8532368 -0.679740E-05  0.198E-03    0.95       4.7  T
   5   -194.8532374 -0.572395E-06  0.998E-04    0.95       9.4  T
   6   -194.8532375 -0.817641E-07  0.555E-04    0.95      16.9  T
     SCC iter.                  ...        0 min,  0.137 sec
     gradient                   ...        0 min,  0.149 sec
 * total energy  :  -191.3693988 Eh     change       -0.6368494E-03 Eh
   gradient norm :     0.0142648 Eh/α   predicted    -0.4600250E-03 ( -27.77%)
   displ. norm   :     0.5778247 α      lambda       -0.8920658E-03
   maximum displ.:     0.2616642 α      in ANC's #9, #13, #12, ...

........................................................................
.............................. CYCLE   25 ..............................
........................................................................
   1   -194.8521551 -0.194852E+03  0.873E-02    0.95       0.0  T
   2   -194.8521570 -0.184820E-05  0.511E-02    0.95       1.0  T
   3   -194.8521486  0.837336E-05  0.725E-03    0.95       1.3  T
   4   -194.8521579 -0.934584E-05  0.180E-03    0.95       5.2  T
   5   -194.8521582 -0.273354E-06  0.102E-03    0.95       9.2  T
   6   -194.8521583 -0.622019E-07  0.481E-04    0.95      19.5  T
   7   -194.8521583 -0.251199E-07  0.163E-04    0.95      57.6  T
     SCC iter.                  ...        0 min,  0.159 sec
     gradient                   ...        0 min,  0.149 sec
 * total energy  :  -191.3701651 Eh     change       -0.7663146E-03 Eh
   gradient norm :     0.0114003 Eh/α   predicted    -0.5950530E-03 ( -22.35%)
   displ. norm   :     0.6380730 α      lambda       -0.8925556E-03
   maximum displ.:     0.2976863 α      in ANC's #9, #13, #12, ...

........................................................................
.............................. CYCLE   26 ..............................
........................................................................
   1   -194.8522893 -0.194852E+03  0.934E-02    0.94       0.0  T
   2   -194.8522914 -0.204986E-05  0.548E-02    0.94       1.0  T
   3   -194.8522664  0.250425E-04  0.115E-02    0.94       1.0  T
   4   -194.8522927 -0.263835E-04  0.249E-03    0.94       3.8  T
   5   -194.8522936 -0.835785E-06  0.118E-03    0.94       8.0  T
   6   -194.8522936 -0.615948E-07  0.715E-04    0.94      13.1  T
   7   -194.8522937 -0.752536E-07  0.272E-04    0.94      34.4  T
     SCC iter.                  ...        0 min,  0.158 sec
     gradient                   ...        0 min,  0.149 sec
 * total energy  :  -191.3708885 Eh     change       -0.7233950E-03 Eh
   gradient norm :     0.0050141 Eh/α   predicted    -0.6279749E-03 ( -13.19%)
   displ. norm   :     0.6249103 α      lambda       -0.6366234E-03
   maximum displ.:     0.2971408 α      in ANC's #9, #13, #12, ...

........................................................................
.............................. CYCLE   27 ..............................
........................................................................
   1   -194.8526134 -0.194853E+03  0.895E-02    0.94       0.0  T
   2   -194.8526152 -0.180928E-05  0.525E-02    0.94       1.0  T
   3   -194.8525890  0.262620E-04  0.114E-02    0.94       1.0  T
   4   -194.8526164 -0.274818E-04  0.251E-03    0.94       3.7  T
   5   -194.8526174 -0.916625E-06  0.110E-03    0.94       8.5  T
   6   -194.8526174 -0.371973E-07  0.696E-04    0.94      13.5  T
   7   -194.8526175 -0.703324E-07  0.261E-04    0.94      35.9  T
     SCC iter.                  ...        0 min,  0.157 sec
     gradient                   ...        0 min,  0.149 sec
 * total energy  :  -191.3713955 Eh     change       -0.5069651E-03 Eh
   gradient norm :     0.0056870 Eh/α   predicted    -0.4426190E-03 ( -12.69%)
   displ. norm   :     0.5824329 α      lambda       -0.4650843E-03
   maximum displ.:     0.2784140 α      in ANC's #9, #13, #12, ...

........................................................................
.............................. CYCLE   28 ..............................
........................................................................
   1   -194.8532825 -0.194853E+03  0.824E-02    0.94       0.0  T
   2   -194.8532840 -0.148048E-05  0.483E-02    0.94       1.0  T
   3   -194.8532638  0.202088E-04  0.966E-03    0.94       1.0  T
   4   -194.8532850 -0.212256E-04  0.220E-03    0.94       4.2  T
   5   -194.8532857 -0.668688E-06  0.101E-03    0.94       9.3  T
   6   -194.8532857 -0.234870E-07  0.624E-04    0.94      15.0  T
   7   -194.8532858 -0.605210E-07  0.221E-04    0.94      42.4  T
     SCC iter.                  ...        0 min,  0.159 sec
     gradient                   ...        0 min,  0.149 sec
 * total energy  :  -191.3717732 Eh     change       -0.3777105E-03 Eh
   gradient norm :     0.0070236 Eh/α   predicted    -0.3114288E-03 ( -17.55%)
   displ. norm   :     0.5615518 α      lambda       -0.4106203E-03
   maximum displ.:     0.2661625 α      in ANC's #9, #13, #8, ...

........................................................................
.............................. CYCLE   29 ..............................
........................................................................
   1   -194.8549355 -0.194855E+03  0.799E-02    0.94       0.0  T
   2   -194.8549370 -0.149625E-05  0.468E-02    0.94       1.0  T
   3   -194.8549188  0.181858E-04  0.926E-03    0.94       1.0  T
   4   -194.8549380 -0.192200E-04  0.212E-03    0.94       4.4  T
   5   -194.8549386 -0.578857E-06  0.103E-03    0.94       9.1  T
   6   -194.8549386 -0.296658E-07  0.582E-04    0.94      16.1  T
   7   -194.8549387 -0.530473E-07  0.203E-04    0.94      46.1  T
     SCC iter.                  ...        0 min,  0.161 sec
     gradient                   ...        0 min,  0.149 sec
 * total energy  :  -191.3721013 Eh     change       -0.3281551E-03 Eh
   gradient norm :     0.0058992 Eh/α   predicted    -0.2700582E-03 ( -17.70%)
   displ. norm   :     0.5133235 α      lambda       -0.3284051E-03
   maximum displ.:     0.2359408 α      in ANC's #9, #13, #8, ...

........................................................................
.............................. CYCLE   30 ..............................
........................................................................
   1   -194.8562421 -0.194856E+03  0.749E-02    0.94       0.0  T
   2   -194.8562436 -0.148926E-05  0.439E-02    0.94       1.0  T
   3   -194.8562273  0.162167E-04  0.918E-03    0.94       1.0  T
   4   -194.8562446 -0.172481E-04  0.201E-03    0.94       4.6  T
   5   -194.8562451 -0.488089E-06  0.103E-03    0.94       9.1  T
   6   -194.8562451 -0.485066E-07  0.522E-04    0.94      18.0  T
   7   -194.8562452 -0.403944E-07  0.197E-04    0.94      47.6  T
     SCC iter.                  ...        0 min,  0.178 sec
     gradient                   ...        0 min,  0.162 sec
 * total energy  :  -191.3723486 Eh     change       -0.2472560E-03 Eh
   gradient norm :     0.0040063 Eh/α   predicted    -0.2074730E-03 ( -16.09%)
   displ. norm   :     0.3996855 α      lambda       -0.1901528E-03
   maximum displ.:     0.1727955 α      in ANC's #9, #13, #10, ...

........................................................................
.............................. CYCLE   31 ..............................
........................................................................
   1   -194.8564838 -0.194856E+03  0.602E-02    0.93       0.0  T
   2   -194.8564849 -0.109603E-05  0.353E-02    0.93       1.0  T
   3   -194.8564756  0.923872E-05  0.719E-03    0.93       1.3  T
   4   -194.8564855 -0.986883E-05  0.164E-03    0.93       5.7  T
   5   -194.8564858 -0.309607E-06  0.879E-04    0.93      10.7  T
   6   -194.8564858 -0.477310E-07  0.428E-04    0.93      21.9  T
     SCC iter.                  ...        0 min,  0.135 sec
     gradient                   ...        0 min,  0.148 sec
 * total energy  :  -191.3724860 Eh     change       -0.1373923E-03 Eh
   gradient norm :     0.0035491 Eh/α   predicted    -0.1102657E-03 ( -19.74%)
   displ. norm   :     0.2686129 α      lambda       -0.1024003E-03
   maximum displ.:     0.1104724 α      in ANC's #10, #9, #7, ...

........................................................................
.............................. CYCLE   32 ..............................
........................................................................
   1   -194.8566211 -0.194857E+03  0.418E-02    0.93       0.0  T
   2   -194.8566216 -0.570535E-06  0.245E-02    0.93       1.0  T
   3   -194.8566163  0.531634E-05  0.516E-03    0.93       1.8  T
   4   -194.8566218 -0.547776E-05  0.138E-03    0.93       6.8  T
   5   -194.8566221 -0.316918E-06  0.656E-04    0.93      14.3  T
   6   -194.8566221 -0.325683E-07  0.341E-04    0.93      27.5  T
     SCC iter.                  ...        0 min,  0.139 sec
     gradient                   ...        0 min,  0.149 sec
 * total energy  :  -191.3725621 Eh     change       -0.7611827E-04 Eh
   gradient norm :     0.0031704 Eh/α   predicted    -0.5489471E-04 ( -27.88%)
   displ. norm   :     0.2047149 α      lambda       -0.7863795E-04
   maximum displ.:     0.0924011 α      in ANC's #10, #7, #8, ...

........................................................................
.............................. CYCLE   33 ..............................
........................................................................
   1   -194.8563980 -0.194856E+03  0.320E-02    0.93       0.0  T
   2   -194.8563984 -0.355364E-06  0.188E-02    0.93       1.0  T
   3   -194.8563945  0.390788E-05  0.431E-03    0.93       2.2  T
   4   -194.8563985 -0.399321E-05  0.117E-03    0.93       8.0  T
   5   -194.8563987 -0.244093E-06  0.510E-04    0.93      18.4  T
   6   -194.8563987 -0.139013E-07  0.311E-04    0.93      30.1  T
     SCC iter.                  ...        0 min,  0.137 sec
     gradient                   ...        0 min,  0.148 sec
 * total energy  :  -191.3726227 Eh     change       -0.6060215E-04 Eh
   gradient norm :     0.0024667 Eh/α   predicted    -0.4096897E-04 ( -32.40%)
   displ. norm   :     0.2018285 α      lambda       -0.7831345E-04
   maximum displ.:     0.0913087 α      in ANC's #7, #10, #3, ...

........................................................................
.............................. CYCLE   34 ..............................
........................................................................
   1   -194.8558721 -0.194856E+03  0.300E-02    0.93       0.0  T
   2   -194.8558723 -0.262964E-06  0.176E-02    0.93       1.0  T
   3   -194.8558672  0.512927E-05  0.486E-03    0.93       1.9  T
   4   -194.8558725 -0.531633E-05  0.110E-03    0.93       8.5  T
   5   -194.8558727 -0.189426E-06  0.484E-04    0.93      19.4  T
   6   -194.8558727 -0.439823E-08  0.336E-04    0.93      27.9  T
     SCC iter.                  ...        0 min,  0.137 sec
     gradient                   ...        0 min,  0.148 sec
 * total energy  :  -191.3726836 Eh     change       -0.6087034E-04 Eh
   gradient norm :     0.0023589 Eh/α   predicted    -0.4075207E-04 ( -33.05%)
   displ. norm   :     0.2324798 α      lambda       -0.8255201E-04
   maximum displ.:     0.1033250 α      in ANC's #7, #10, #1, ...

........................................................................
.............................. CYCLE   35 ..............................
........................................................................
   1   -194.8548603 -0.194855E+03  0.321E-02    0.93       0.0  T
   2   -194.8548606 -0.257137E-06  0.188E-02    0.93       1.0  T
   3   -194.8548545  0.606567E-05  0.533E-03    0.93       1.8  T
   4   -194.8548609 -0.634722E-05  0.105E-03    0.93       8.9  T
   5   -194.8548610 -0.143766E-06  0.525E-04    0.93      17.8  T
   6   -194.8548610 -0.769191E-08  0.351E-04    0.93      26.7  T
     SCC iter.                  ...        0 min,  0.138 sec
     gradient                   ...        0 min,  0.148 sec
 * total energy  :  -191.3727493 Eh     change       -0.6572588E-04 Eh
   gradient norm :     0.0031120 Eh/α   predicted    -0.4350940E-04 ( -33.80%)
   displ. norm   :     0.2940151 α      lambda       -0.9777245E-04
   maximum displ.:     0.1271240 α      in ANC's #7, #1, #10, ...

........................................................................
.............................. CYCLE   36 ..............................
........................................................................
   1   -194.8537423 -0.194854E+03  0.387E-02    0.93       0.0  T
   2   -194.8537428 -0.429523E-06  0.227E-02    0.93       1.0  T
   3   -194.8537373  0.545205E-05  0.516E-03    0.93       1.8  T
   4   -194.8537430 -0.572370E-05  0.114E-03    0.93       8.2  T
   5   -194.8537432 -0.158282E-06  0.618E-04    0.93      15.2  T
   6   -194.8537432 -0.215858E-07  0.368E-04    0.93      25.4  T
     SCC iter.                  ...        0 min,  0.137 sec
     gradient                   ...        0 min,  0.148 sec
 * total energy  :  -191.3728288 Eh     change       -0.7949808E-04 Eh
   gradient norm :     0.0038311 Eh/α   predicted    -0.5312402E-04 ( -33.18%)
   displ. norm   :     0.3645595 α      lambda       -0.1192963E-03
   maximum displ.:     0.1593296 α      in ANC's #7, #1, #3, ...

........................................................................
.............................. CYCLE   37 ..............................
........................................................................
   1   -194.8524787 -0.194852E+03  0.464E-02    0.93       0.0  T
   2   -194.8524794 -0.728477E-06  0.272E-02    0.93       1.0  T
   3   -194.8524757  0.376427E-05  0.446E-03    0.93       2.1  T
   4   -194.8524795 -0.388041E-05  0.142E-03    0.93       6.6  T
   5   -194.8524798 -0.306914E-06  0.695E-04    0.93      13.5  T
   6   -194.8524799 -0.339674E-07  0.393E-04    0.93      23.8  T
     SCC iter.                  ...        0 min,  0.135 sec
     gradient                   ...        0 min,  0.148 sec
 * total energy  :  -191.3729256 Eh     change       -0.9682528E-04 Eh
   gradient norm :     0.0039799 Eh/α   predicted    -0.6757808E-04 ( -30.21%)
   displ. norm   :     0.4090049 α      lambda       -0.1293634E-03
   maximum displ.:     0.1840147 α      in ANC's #7, #1, #3, ...

........................................................................
.............................. CYCLE   38 ..............................
........................................................................
   1   -194.8519660 -0.194852E+03  0.503E-02    0.93       0.0  T
   2   -194.8519669 -0.912229E-06  0.294E-02    0.93       1.0  T
   3   -194.8519641  0.282390E-05  0.400E-03    0.93       2.3  T
   4   -194.8519670 -0.290186E-05  0.152E-03    0.93       6.2  T
   5   -194.8519674 -0.361744E-06  0.741E-04    0.93      12.6  T
   6   -194.8519674 -0.430074E-07  0.391E-04    0.93      23.9  T
     SCC iter.                  ...        0 min,  0.136 sec
     gradient                   ...        0 min,  0.148 sec
 * total energy  :  -191.3730280 Eh     change       -0.1024367E-03 Eh
   gradient norm :     0.0036325 Eh/α   predicted    -0.7550253E-04 ( -26.29%)
   displ. norm   :     0.3985027 α      lambda       -0.1149076E-03
   maximum displ.:     0.1868107 α      in ANC's #7, #3, #1, ...

........................................................................
.............................. CYCLE   39 ..............................
........................................................................
   1   -194.8519710 -0.194852E+03  0.471E-02    0.93       0.0  T
   2   -194.8519718 -0.769829E-06  0.276E-02    0.93       1.0  T
   3   -194.8519681  0.368746E-05  0.446E-03    0.93       2.1  T
   4   -194.8519720 -0.386087E-05  0.141E-03    0.93       6.7  T
   5   -194.8519722 -0.280287E-06  0.701E-04    0.93      13.4  T
   6   -194.8519723 -0.253936E-07  0.410E-04    0.93      22.9  T
     SCC iter.                  ...        0 min,  0.137 sec
     gradient                   ...        0 min,  0.148 sec
 * total energy  :  -191.3731167 Eh     change       -0.8865796E-04 Eh
   gradient norm :     0.0033418 Eh/α   predicted    -0.6657965E-04 ( -24.90%)
   displ. norm   :     0.3542476 α      lambda       -0.9176949E-04
   maximum displ.:     0.1704760 α      in ANC's #7, #3, #1, ...

........................................................................
.............................. CYCLE   40 ..............................
........................................................................
   1   -194.8527107 -0.194853E+03  0.409E-02    0.93       0.0  T
   2   -194.8527112 -0.539391E-06  0.240E-02    0.93       1.0  T
   3   -194.8527067  0.449651E-05  0.488E-03    0.93       1.9  T
   4   -194.8527115 -0.475419E-05  0.118E-03    0.93       7.9  T
   5   -194.8527117 -0.165344E-06  0.640E-04    0.93      14.6  T
   6   -194.8527117 -0.196021E-07  0.373E-04    0.93      25.1  T
     SCC iter.                  ...        0 min,  0.137 sec
     gradient                   ...        0 min,  0.148 sec
 * total energy  :  -191.3731879 Eh     change       -0.7115843E-04 Eh
   gradient norm :     0.0031463 Eh/α   predicted    -0.5164354E-04 ( -27.42%)
   displ. norm   :     0.3226162 α      lambda       -0.8141834E-04
   maximum displ.:     0.1563246 α      in ANC's #7, #3, #5, ...

........................................................................
.............................. CYCLE   41 ..............................
........................................................................
   1   -194.8530908 -0.194853E+03  0.383E-02    0.93       0.0  T
   2   -194.8530913 -0.448290E-06  0.224E-02    0.93       1.0  T
   3   -194.8530862  0.508503E-05  0.504E-03    0.93       1.9  T
   4   -194.8530915 -0.533440E-05  0.115E-03    0.93       8.2  T
   5   -194.8530917 -0.159205E-06  0.635E-04    0.93      14.7  T
   6   -194.8530917 -0.249342E-07  0.344E-04    0.93      27.3  T
     SCC iter.                  ...        0 min,  0.138 sec
     gradient                   ...        0 min,  0.148 sec
 * total energy  :  -191.3732525 Eh     change       -0.6460809E-04 Eh
   gradient norm :     0.0028804 Eh/α   predicted    -0.4494670E-04 ( -30.43%)
   displ. norm   :     0.3284853 α      lambda       -0.8517424E-04
   maximum displ.:     0.1562644 α      in ANC's #7, #3, #5, ...

........................................................................
.............................. CYCLE   42 ..............................
........................................................................
   1   -194.8536129 -0.194854E+03  0.405E-02    0.93       0.0  T
   2   -194.8536134 -0.528287E-06  0.237E-02    0.93       1.0  T
   3   -194.8536077  0.576254E-05  0.526E-03    0.93       1.8  T
   4   -194.8536137 -0.601137E-05  0.131E-03    0.93       7.1  T
   5   -194.8536139 -0.233146E-06  0.664E-04    0.93      14.1  T
   6   -194.8536139 -0.182221E-07  0.362E-04    0.93      25.8  T
     SCC iter.                  ...        0 min,  0.135 sec
     gradient                   ...        0 min,  0.148 sec
 * total energy  :  -191.3733196 Eh     change       -0.6714823E-04 Eh
   gradient norm :     0.0027315 Eh/α   predicted    -0.4718314E-04 ( -29.73%)
   displ. norm   :     0.3439583 α      lambda       -0.8620126E-04
   maximum displ.:     0.1592715 α      in ANC's #7, #3, #1, ...
 * RMSD in coord.:     0.6024577 α      energy gain  -0.6695770E-02 Eh

generating ANC from model Hessian ...
Using Lindh-Hessian (1995)
 Shifting diagonal of input Hessian by    9.9964932013090254E-003
 Lowest  eigenvalues of input Hessian
    0.000000    0.000000    0.000000    0.000000    0.000000    0.000000
    0.010000    0.010007    0.010016    0.010026    0.010071    0.010099
    0.010328    0.010573    0.010798    0.010857    0.010890    0.010953
 Highest eigenvalues
    2.236017    2.238574    2.246837    2.248060    2.666987    2.669565


........................................................................
.............................. CYCLE   43 ..............................
........................................................................
   1   -194.8527380 -0.194853E+03  0.437E-02    0.93       0.0  T
   2   -194.8527386 -0.577948E-06  0.255E-02    0.93       1.0  T
   3   -194.8527312  0.739490E-05  0.577E-03    0.93       1.6  T
   4   -194.8527389 -0.770976E-05  0.140E-03    0.93       6.7  T
   5   -194.8527392 -0.262666E-06  0.734E-04    0.93      12.8  T
   6   -194.8527392 -0.300572E-07  0.376E-04    0.93      24.9  T
     SCC iter.                  ...        0 min,  0.135 sec
     gradient                   ...        0 min,  0.148 sec
 * total energy  :  -191.3733868 Eh     change       -0.6713083E-04 Eh
   gradient norm :     0.0029607 Eh/α   predicted     0.0000000E+00 (-100.00%)
   displ. norm   :     0.0404418 α      lambda       -0.2966976E-04
   maximum displ.:     0.0162927 α      in ANC's #13, #1, #5, ...

........................................................................
.............................. CYCLE   44 ..............................
........................................................................
   1   -194.8529976 -0.194853E+03  0.735E-03    0.93       0.0  T
   2   -194.8529977 -0.476300E-07  0.438E-03    0.93       2.1  T
   3   -194.8529968  0.895577E-06  0.234E-03    0.93       4.0  T
   4   -194.8529977 -0.939400E-06  0.490E-04    0.93      19.1  T
   5   -194.8529978 -0.398674E-07  0.144E-04    0.93      65.1  T
     SCC iter.                  ...        0 min,  0.115 sec
     gradient                   ...        0 min,  0.148 sec
 * total energy  :  -191.3734159 Eh     change       -0.2915015E-04 Eh
   gradient norm :     0.0016135 Eh/α   predicted    -0.1677425E-04 ( -42.46%)
   displ. norm   :     0.2529501 α      lambda       -0.9684486E-04
   maximum displ.:     0.1079994 α      in ANC's #13, #1, #5, ...

........................................................................
.............................. CYCLE   45 ..............................
........................................................................
   1   -194.8534610 -0.194853E+03  0.399E-02    0.93       0.0  T
   2   -194.8534618 -0.749194E-06  0.234E-02    0.93       1.0  T
   3   -194.8534423  0.194751E-04  0.107E-02    0.93       1.0  T
   4   -194.8534627 -0.204537E-04  0.196E-03    0.93       4.8  T
   5   -194.8534634 -0.612207E-06  0.695E-04    0.93      13.5  T
   6   -194.8534634 -0.207754E-07  0.427E-04    0.93      21.9  T
     SCC iter.                  ...        0 min,  0.137 sec
     gradient                   ...        0 min,  0.148 sec
 * total energy  :  -191.3734813 Eh     change       -0.6537186E-04 Eh
   gradient norm :     0.0043200 Eh/α   predicted    -0.4979985E-04 ( -23.82%)
   displ. norm   :     0.0447846 α      lambda       -0.2513686E-04
   maximum displ.:     0.0202198 α      in ANC's #13, #1, #5, ...

........................................................................
.............................. CYCLE   46 ..............................
........................................................................
   1   -194.8536397 -0.194854E+03  0.569E-03    0.93       0.0  T
   2   -194.8536397 -0.217744E-07  0.345E-03    0.93       2.7  T
   3   -194.8536388  0.905428E-06  0.221E-03    0.93       4.2  T
   4   -194.8536397 -0.946496E-06  0.455E-04    0.93      20.6  T
   5   -194.8536398 -0.346233E-07  0.165E-04    0.93      56.9  T
     SCC iter.                  ...        0 min,  0.115 sec
     gradient                   ...        0 min,  0.148 sec
 * total energy  :  -191.3735043 Eh     change       -0.2305071E-04 Eh
   gradient norm :     0.0031538 Eh/α   predicted    -0.1259373E-04 ( -45.37%)
   displ. norm   :     0.2294615 α      lambda       -0.1013522E-03
   maximum displ.:     0.0999103 α      in ANC's #13, #1, #5, ...

........................................................................
.............................. CYCLE   47 ..............................
........................................................................
   1   -194.8541551 -0.194854E+03  0.272E-02    0.93       0.0  T
   2   -194.8541556 -0.530940E-06  0.162E-02    0.93       1.0  T
   3   -194.8541438  0.118383E-04  0.802E-03    0.93       1.2  T
   4   -194.8541560 -0.121486E-04  0.184E-03    0.93       5.1  T
   5   -194.8541566 -0.597033E-06  0.614E-04    0.93      15.3  T
   6   -194.8541566 -0.349096E-07  0.289E-04    0.93      32.4  T
     SCC iter.                  ...        0 min,  0.137 sec
     gradient                   ...        0 min,  0.148 sec
 * total energy  :  -191.3735746 Eh     change       -0.7024684E-04 Eh
   gradient norm :     0.0020464 Eh/α   predicted    -0.5334431E-04 ( -24.06%)
   displ. norm   :     0.2296639 α      lambda       -0.5016995E-04
   maximum displ.:     0.0987546 α      in ANC's #13, #1, #5, ...

........................................................................
.............................. CYCLE   48 ..............................
........................................................................
   1   -194.8544584 -0.194854E+03  0.252E-02    0.93       0.0  T
   2   -194.8544587 -0.244599E-06  0.148E-02    0.93       1.0  T
   3   -194.8544544  0.426427E-05  0.480E-03    0.93       2.0  T
   4   -194.8544588 -0.443865E-05  0.102E-03    0.93       9.1  T
   5   -194.8544590 -0.151182E-06  0.435E-04    0.93      21.5  T
   6   -194.8544590 -0.127079E-07  0.229E-04    0.93      41.0  T
     SCC iter.                  ...        0 min,  0.137 sec
     gradient                   ...        0 min,  0.148 sec
 * total energy  :  -191.3736144 Eh     change       -0.3979789E-04 Eh
   gradient norm :     0.0035768 Eh/α   predicted    -0.2640815E-04 ( -33.64%)
   displ. norm   :     0.2850761 α      lambda       -0.5671684E-04
   maximum displ.:     0.1246621 α      in ANC's #1, #13, #5, ...

........................................................................
.............................. CYCLE   49 ..............................
........................................................................
   1   -194.8548524 -0.194855E+03  0.300E-02    0.93       0.0  T
   2   -194.8548527 -0.288391E-06  0.175E-02    0.93       1.0  T
   3   -194.8548495  0.318207E-05  0.433E-03    0.93       2.2  T
   4   -194.8548529 -0.343601E-05  0.808E-04    0.93      11.6  T
   5   -194.8548530 -0.343567E-07  0.518E-04    0.93      18.1  T
   6   -194.8548530 -0.232555E-07  0.275E-04    0.93      34.1  T
     SCC iter.                  ...        0 min,  0.137 sec
     gradient                   ...        0 min,  0.148 sec
 * total energy  :  -191.3736616 Eh     change       -0.4719801E-04 Eh
   gradient norm :     0.0035644 Eh/α   predicted    -0.3066845E-04 ( -35.02%)
   displ. norm   :     0.3376736 α      lambda       -0.6596673E-04
   maximum displ.:     0.1537443 α      in ANC's #1, #13, #5, ...

........................................................................
.............................. CYCLE   50 ..............................
........................................................................
   1   -194.8554355 -0.194855E+03  0.346E-02    0.93       0.0  T
   2   -194.8554359 -0.352491E-06  0.203E-02    0.93       1.0  T
   3   -194.8554267  0.914245E-05  0.647E-03    0.93       1.4  T
   4   -194.8554363 -0.951087E-05  0.124E-03    0.93       7.5  T
   5   -194.8554365 -0.219143E-06  0.726E-04    0.93      12.9  T
   6   -194.8554366 -0.745405E-07  0.312E-04    0.93      30.0  T
     SCC iter.                  ...        0 min,  0.136 sec
     gradient                   ...        0 min,  0.148 sec
 * total energy  :  -191.3737138 Eh     change       -0.5225288E-04 Eh
   gradient norm :     0.0021658 Eh/α   predicted    -0.3674495E-04 ( -29.68%)
   displ. norm   :     0.2971080 α      lambda       -0.4973906E-04
   maximum displ.:     0.1435461 α      in ANC's #1, #5, #7, ...

........................................................................
.............................. CYCLE   51 ..............................
........................................................................
   1   -194.8561087 -0.194856E+03  0.301E-02    0.93       0.0  T
   2   -194.8561089 -0.270219E-06  0.177E-02    0.93       1.0  T
   3   -194.8560987  0.102401E-04  0.663E-03    0.93       1.4  T
   4   -194.8561093 -0.105883E-04  0.129E-03    0.93       7.2  T
   5   -194.8561096 -0.277668E-06  0.664E-04    0.93      14.1  T
   6   -194.8561096 -0.565449E-07  0.298E-04    0.93      31.4  T
     SCC iter.                  ...        0 min,  0.135 sec
     gradient                   ...        0 min,  0.148 sec
 * total energy  :  -191.3737528 Eh     change       -0.3902361E-04 Eh
   gradient norm :     0.0012860 Eh/α   predicted    -0.2706516E-04 ( -30.64%)
   displ. norm   :     0.3554220 α      lambda       -0.3815941E-04
   maximum displ.:     0.1827572 α      in ANC's #1, #5, #7, ...

........................................................................
.............................. CYCLE   52 ..............................
........................................................................
   1   -194.8569230 -0.194857E+03  0.369E-02    0.93       0.0  T
   2   -194.8569234 -0.360658E-06  0.217E-02    0.93       1.0  T
   3   -194.8569068  0.165865E-04  0.842E-03    0.93       1.1  T
   4   -194.8569240 -0.172372E-04  0.154E-03    0.93       6.1  T
   5   -194.8569244 -0.361689E-06  0.790E-04    0.93      11.9  T
   6   -194.8569245 -0.674277E-07  0.384E-04    0.93      24.4  T
     SCC iter.                  ...        0 min,  0.137 sec
     gradient                   ...        0 min,  0.148 sec
 * total energy  :  -191.3737969 Eh     change       -0.4407691E-04 Eh
   gradient norm :     0.0023765 Eh/α   predicted    -0.2015267E-04 ( -54.28%)
   displ. norm   :     0.1856779 α      lambda       -0.3667210E-04
   maximum displ.:     0.1009206 α      in ANC's #1, #5, #7, ...

........................................................................
.............................. CYCLE   53 ..............................
........................................................................
   1   -194.8571687 -0.194857E+03  0.207E-02    0.93       0.0  T
   2   -194.8571688 -0.132773E-06  0.121E-02    0.93       1.0  T
   3   -194.8571665  0.235375E-05  0.329E-03    0.93       2.8  T
   4   -194.8571689 -0.247953E-05  0.653E-04    0.93      14.4  T
   5   -194.8571690 -0.419087E-07  0.399E-04    0.93      23.4  T
   6   -194.8571690 -0.162934E-07  0.194E-04    0.93      48.2  T
     SCC iter.                  ...        0 min,  0.137 sec
     gradient                   ...        0 min,  0.148 sec
 * total energy  :  -191.3738308 Eh     change       -0.3391132E-04 Eh
   gradient norm :     0.0024428 Eh/α   predicted    -0.1896894E-04 ( -44.06%)
   displ. norm   :     0.3223758 α      lambda       -0.7763117E-04
   maximum displ.:     0.1758778 α      in ANC's #1, #5, #3, ...

........................................................................
.............................. CYCLE   54 ..............................
........................................................................
   1   -194.8572430 -0.194857E+03  0.388E-02    0.93       0.0  T
   2   -194.8572436 -0.543406E-06  0.227E-02    0.93       1.0  T
   3   -194.8572408  0.274261E-05  0.403E-03    0.93       2.3  T
   4   -194.8572439 -0.305890E-05  0.951E-04    0.93       9.8  T
   5   -194.8572439 -0.389719E-07  0.593E-04    0.93      15.8  T
   6   -194.8572440 -0.256354E-07  0.263E-04    0.93      35.6  T
     SCC iter.                  ...        0 min,  0.137 sec
     gradient                   ...        0 min,  0.148 sec
 * total energy  :  -191.3738964 Eh     change       -0.6561250E-04 Eh
   gradient norm :     0.0020840 Eh/α   predicted    -0.4284980E-04 ( -34.69%)
   displ. norm   :     0.4094717 α      lambda       -0.8081298E-04
   maximum displ.:     0.2263361 α      in ANC's #1, #5, #3, ...

........................................................................
.............................. CYCLE   55 ..............................
........................................................................
   1   -194.8563409 -0.194856E+03  0.475E-02    0.93       0.0  T
   2   -194.8563418 -0.862715E-06  0.278E-02    0.93       1.0  T
   3   -194.8563398  0.203785E-05  0.375E-03    0.93       2.5  T
   4   -194.8563421 -0.234274E-05  0.119E-03    0.93       7.9  T
   5   -194.8563422 -0.735065E-07  0.756E-04    0.93      12.4  T
   6   -194.8563422 -0.653799E-07  0.346E-04    0.93      27.1  T
     SCC iter.                  ...        0 min,  0.137 sec
     gradient                   ...        0 min,  0.148 sec
 * total energy  :  -191.3739600 Eh     change       -0.6353476E-04 Eh
   gradient norm :     0.0016819 Eh/α   predicted    -0.4718313E-04 ( -25.74%)
   displ. norm   :     0.5138982 α      lambda       -0.5473718E-04
   maximum displ.:     0.2889536 α      in ANC's #1, #5, #3, ...

........................................................................
.............................. CYCLE   56 ..............................
........................................................................
   1   -194.8554174 -0.194855E+03  0.552E-02    0.93       0.0  T
   2   -194.8554184 -0.103221E-05  0.323E-02    0.93       1.0  T
   3   -194.8554096  0.877198E-05  0.625E-03    0.93       1.5  T
   4   -194.8554188 -0.917189E-05  0.166E-03    0.93       5.6  T
   5   -194.8554191 -0.359755E-06  0.907E-04    0.93      10.3  T
   6   -194.8554192 -0.719647E-07  0.404E-04    0.93      23.2  T
     SCC iter.                  ...        0 min,  0.137 sec
     gradient                   ...        0 min,  0.148 sec
 * total energy  :  -191.3740220 Eh     change       -0.6198554E-04 Eh
   gradient norm :     0.0018364 Eh/α   predicted    -0.3058263E-04 ( -50.66%)
   displ. norm   :     0.3710508 α      lambda       -0.4677964E-04
   maximum displ.:     0.2107205 α      in ANC's #1, #5, #3, ...

........................................................................
.............................. CYCLE   57 ..............................
........................................................................
   1   -194.8562424 -0.194856E+03  0.367E-02    0.93       0.0  T
   2   -194.8562427 -0.268158E-06  0.215E-02    0.93       1.0  T
   3   -194.8562317  0.110222E-04  0.666E-03    0.93       1.4  T
   4   -194.8562432 -0.115351E-04  0.118E-03    0.93       7.9  T
   5   -194.8562434 -0.163159E-06  0.587E-04    0.93      15.9  T
   6   -194.8562434 -0.882977E-08  0.377E-04    0.93      24.8  T
     SCC iter.                  ...        0 min,  0.135 sec
     gradient                   ...        0 min,  0.148 sec
 * total energy  :  -191.3740836 Eh     change       -0.6162099E-04 Eh
   gradient norm :     0.0020415 Eh/α   predicted    -0.2482252E-04 ( -59.72%)
   displ. norm   :     0.3804785 α      lambda       -0.8080812E-04
   maximum displ.:     0.2148569 α      in ANC's #1, #5, #3, ...

........................................................................
.............................. CYCLE   58 ..............................
........................................................................
   1   -194.8565738 -0.194857E+03  0.380E-02    0.93       0.0  T
   2   -194.8565740 -0.231626E-06  0.222E-02    0.93       1.0  T
   3   -194.8565607  0.133140E-04  0.746E-03    0.93       1.3  T
   4   -194.8565747 -0.139761E-04  0.121E-03    0.93       7.8  T
   5   -194.8565748 -0.154475E-06  0.619E-04    0.93      15.1  T
   6   -194.8565748 -0.950169E-08  0.401E-04    0.93      23.4  T
     SCC iter.                  ...        0 min,  0.135 sec
     gradient                   ...        0 min,  0.148 sec
 * total energy  :  -191.3741547 Eh     change       -0.7114609E-04 Eh
   gradient norm :     0.0021784 Eh/α   predicted    -0.4625436E-04 ( -34.99%)
   displ. norm   :     0.5344456 α      lambda       -0.1037922E-03
   maximum displ.:     0.3025839 α      in ANC's #1, #5, #3, ...

........................................................................
.............................. CYCLE   59 ..............................
........................................................................
   1   -194.8565861 -0.194857E+03  0.536E-02    0.93       0.0  T
   2   -194.8565866 -0.510538E-06  0.314E-02    0.93       1.0  T
   3   -194.8565634  0.231349E-04  0.987E-03    0.93       1.0  T
   4   -194.8565877 -0.242908E-04  0.164E-03    0.93       5.7  T
   5   -194.8565880 -0.282527E-06  0.870E-04    0.93      10.8  T
   6   -194.8565880 -0.261927E-07  0.541E-04    0.93      17.3  T
     SCC iter.                  ...        0 min,  0.137 sec
     gradient                   ...        0 min,  0.148 sec
 * total energy  :  -191.3742384 Eh     change       -0.8363688E-04 Eh
   gradient norm :     0.0025089 Eh/α   predicted    -0.6672234E-04 ( -20.22%)
   displ. norm   :     0.5063260 α      lambda       -0.7372115E-04
   maximum displ.:     0.2906494 α      in ANC's #1, #5, #3, ...

........................................................................
.............................. CYCLE   60 ..............................
........................................................................
   1   -194.8560413 -0.194856E+03  0.495E-02    0.93       0.0  T
   2   -194.8560420 -0.636315E-06  0.290E-02    0.93       1.0  T
   3   -194.8560308  0.111871E-04  0.698E-03    0.93       1.3  T
   4   -194.8560425 -0.117539E-04  0.143E-03    0.93       6.5  T
   5   -194.8560428 -0.224470E-06  0.822E-04    0.93      11.4  T
   6   -194.8560428 -0.480115E-07  0.410E-04    0.93      22.8  T
     SCC iter.                  ...        0 min,  0.137 sec
     gradient                   ...        0 min,  0.148 sec
 * total energy  :  -191.3742983 Eh     change       -0.5992446E-04 Eh
   gradient norm :     0.0026701 Eh/α   predicted    -0.4631301E-04 ( -22.71%)
   displ. norm   :     0.4214874 α      lambda       -0.5827154E-04
   maximum displ.:     0.2457470 α      in ANC's #1, #5, #3, ...

........................................................................
.............................. CYCLE   61 ..............................
........................................................................
   1   -194.8562333 -0.194856E+03  0.400E-02    0.93       0.0  T
   2   -194.8562338 -0.511657E-06  0.234E-02    0.93       1.0  T
   3   -194.8562296  0.422704E-05  0.457E-03    0.93       2.0  T
   4   -194.8562341 -0.447287E-05  0.111E-03    0.93       8.4  T
   5   -194.8562342 -0.130906E-06  0.664E-04    0.93      14.1  T
   6   -194.8562343 -0.432975E-07  0.291E-04    0.93      32.1  T
     SCC iter.                  ...        0 min,  0.137 sec
     gradient                   ...        0 min,  0.148 sec
 * total energy  :  -191.3743484 Eh     change       -0.5014043E-04 Eh
   gradient norm :     0.0023909 Eh/α   predicted    -0.3431504E-04 ( -31.56%)
[...]
eigval :     3160.33  3160.53  3161.52  3162.14  3164.00  3165.02
eigval :     3168.94  3169.01  3173.56  3173.86  3174.24  3174.97
eigval :     3331.81  3335.31  3346.17  3349.68  3354.49  3358.18
 reduced masses (amu)
   1: 11.92   2: 11.76   3: 11.85   4: 11.58   5: 11.76   6: 11.82   7: 11.71   8: 11.52
   9: 11.29  10: 11.44  11: 11.29  12: 11.38  13: 11.50  14: 11.83  15: 11.28  16: 10.99
  17: 11.36  18: 10.93  19: 11.08  20: 11.65  21: 11.34  22: 11.24  23: 11.78  24: 11.14
  25: 11.11  26: 10.88  27: 10.84  28: 10.71  29: 10.83  30: 10.72  31: 10.80  32: 11.07
  33: 11.12  34: 10.99  35: 12.02  36: 12.02  37: 12.02  38: 11.93  39: 11.69  40: 11.43
  41: 11.46  42: 11.69  43: 11.84  44: 12.44  45: 12.39  46: 12.41  47: 11.62  48: 11.62
  49: 11.08  50: 11.39  51: 10.90  52: 10.48  53: 10.51  54: 10.51  55: 11.40  56: 11.54
  57: 11.77  58: 11.85  59: 11.97  60: 12.00  61: 11.12  62: 10.99  63: 11.62  64: 11.25
  65: 11.10  66: 11.28  67: 11.06  68: 11.16  69: 10.50  70: 10.86  71: 10.84  72: 10.86
  73: 10.83  74: 10.89  75: 10.78  76:  9.92  77:  9.92  78:  9.92  79: 10.39  80: 10.25
  81: 10.30  82: 10.35  83:  9.92  84:  9.92  85: 11.81  86: 11.64  87: 11.76  88: 11.72
  89: 11.44  90: 11.62  91: 11.45  92: 11.63  93: 11.68  94: 11.44  95: 11.25  96: 11.29
  97: 11.28  98: 10.95  99: 10.95 100: 11.06 101: 10.71 102: 10.68 103: 10.69 104: 10.82
 105: 10.81 106: 11.18 107: 10.98 108: 10.98 109: 10.85 110: 10.52 111:  9.98 112: 10.15
 113:  9.90 114: 10.07 115:  4.18 116:  3.62 117: 11.18 118:  3.79 119: 10.19 120: 11.25
 121: 11.41 122: 10.95 123: 11.04 124: 10.79 125: 10.62 126:  2.39 127:  2.10 128:  3.86
 129: 10.32 130: 10.27 131: 10.79 132:  9.98 133: 10.42 134: 10.42 135: 11.38 136: 11.19
 137: 11.20 138: 11.19 139: 11.31 140: 11.29 141: 11.51 142: 11.50 143: 11.46 144: 11.11
 145:  3.76 146:  4.08 147:  3.95 148:  3.93 149:  3.87 150:  3.82 151:  4.26 152:  4.19
 153:  4.32 154:  4.39 155:  4.39 156:  4.28 157:  3.82 158:  3.81 159:  3.69 160:  3.81
 161:  3.81 162:  3.97 163:  4.03 164:  3.87 165:  3.70 166:  3.69 167:  3.72 168:  3.68
 169:  3.77 170:  3.70 171:  3.43 172:  3.43 173:  3.40 174:  3.40 175:  3.36 176:  3.35
 177: 11.17 178: 11.23 179: 11.06 180: 11.11 181:  6.86 182:  6.79 183:  6.76 184:  8.64
 185:  8.64 186:  8.70 187: 10.98 188: 10.91 189:  8.77 190:  8.65 191:  9.09 192:  8.91
 193:  8.65 194:  8.37 195:  8.98 196:  9.01 197:  8.90 198: 10.53 199: 10.71 200: 10.43
 201:  8.70 202:  8.12 203:  2.37 204:  2.38 205:  1.95 206:  2.21 207:  1.77 208:  1.83
 209:  2.07 210:  2.13 211:  1.98 212:  1.83 213:  1.91 214:  1.97 215:  7.04 216:  6.83
 217:  5.45 218:  5.28 219:  5.42 220:  6.34 221:  6.75 222:  6.69 223:  6.39 224:  5.68
 225:  7.55 226:  8.29 227:  6.81 228:  6.04 229:  6.01 230:  8.27 231:  8.62 232:  9.78
 233:  9.11 234:  8.46 235:  8.94 236:  8.65 237:  8.72 238:  8.18 239:  8.09 240:  8.13
 241:  8.66 242:  8.66 243:  8.68 244: 11.64 245: 11.10 246: 11.11 247: 11.99 248: 11.03
 249: 10.72 250: 10.77 251: 10.98 252: 11.35 253: 10.87 254: 10.90 255: 10.31 256: 10.73
 257:  9.61 258:  9.48 259: 11.47 260: 11.17 261: 10.80 262: 11.27 263: 11.27 264: 11.47
 265: 10.68 266: 10.64 267: 10.47 268: 10.83 269: 11.08 270: 11.50 271: 11.55 272: 11.63
 273: 11.46 274: 11.49 275: 11.38 276: 11.72 277: 11.77 278: 11.82 279: 11.76 280: 11.77
 281: 11.51 282: 11.78 283: 11.67 284: 11.62 285: 11.64 286: 11.46 287: 11.46 288: 11.77
 289: 11.67 290: 11.72 291: 11.77 292: 11.66 293: 11.70 294: 11.65 295: 11.61 296: 11.61
 297: 11.69 298: 11.73 299: 11.72 300: 11.77 301: 11.72 302: 11.72 303: 12.01 304: 12.01
 305:  1.80 306:  1.80 307:  1.80 308:  1.80 309:  1.80 310:  1.80 311:  1.81 312:  1.81
 313:  1.80 314:  1.80 315:  1.81 316:  1.81 317:  1.82 318:  1.82 319:  1.98 320:  1.98
 321:  1.82 322:  1.82 323:  1.84 324:  1.85 325:  1.83 326:  1.84 327:  1.93 328:  1.95
 329:  1.96 330:  1.96 331:  1.96 332:  1.96 333:  1.95 334:  1.95 335:  1.95 336:  1.95
 337:  1.90 338:  1.89 339:  1.89 340:  1.89 341:  1.89 342:  1.89
 IR intensities (km·mol⁻¹)
   1:  0.89   2:  1.23   3: 14.79   4:  0.52   5: 12.71   6:  2.28   7: 15.67   8:  8.11
   9:  2.31  10:  0.77  11:  0.72  12:  0.37  13: 10.02  14:  0.13  15: 19.79  16:  0.38
  17:  0.01  18: 52.42  19:  4.59  20:  0.38  21:  0.76  22:  1.58  23:  0.29  24:  8.63
  25: 25.99  26: 42.26  27: 57.66  28: 34.93  29:  1.63  30:  0.80  31:  0.32  32:  0.88
  33:  2.51  34:  0.25  35:  0.02  36:  0.12  37:  0.52  38:  3.60  39:  1.64  40:  2.37
  41:  0.33  42:  2.08  43:  1.96  44: 13.04  45: 28.45  46: 14.95  47:  2.47  48:  6.10
  49: 17.00  50: 17.04  51:  0.76  52: 14.30  53:  8.64  54: 18.04  55:  0.38  56:  0.69
  57: 17.80  58:  0.31  59:  0.49  60:  0.04  61:  4.32  62:  5.22  63:  2.02  64: 31.43
  65:  3.39  66: 25.82  67:  0.60  68:  0.79  69: 14.90  70: 10.75  71:  4.50  72:  6.94
  73:  5.77  74:  1.18  75:  5.84  76:  0.66  77:  0.85  78:  1.98  79:  7.78  80:  0.15
  81:  0.66  82:  0.52  83:  2.41  84:  1.82  85:  0.16  86:  0.22  87:  0.56  88:  0.04
  89: 11.34  90: 10.36  91: 28.23  92:  4.99  93:  0.69  94: 11.38  95: 12.49  96: 35.47
  97: 25.26  98:  0.80  99:  0.16 100:  0.94 101:  0.37 102:  1.79 103:  1.94 104:  4.99
 105: 21.74 106: 12.60 107: 12.81 108:  2.03 109: 65.10 110:  7.95 111:  5.88 112:  2.18
 113: 15.87 114:  7.50 115:  4.57 116:  6.71 117: 10.35 118:  0.55 119:  3.64 120: 13.20
 121:  1.56 122: 26.09 123: 15.98 124:  9.99 125: 21.45 126:399.47 127:348.02 128:******
 129: 72.29 130:119.68 131: 10.17 132:182.75 133:  6.86 134:  1.12 135:  2.93 136: 10.07
 137:  9.64 138:  4.96 139:  8.52 140:  0.52 141: 13.71 142:  0.77 143: 13.88 144:  1.41
 145: 38.85 146: 17.36 147: 37.66 148:  1.24 149:  6.01 150:  3.90 151: 35.66 152: 26.92
 153:  5.00 154: 11.63 155: 86.70 156: 19.43 157: 20.02 158: 41.21 159: 24.67 160: 31.40
 161:  1.23 162:134.52 163: 57.77 164: 31.70 165: 20.40 166: 13.97 167:  1.15 168:  2.86
 169: 29.04 170: 19.45 171:  8.88 172: 25.75 173:  5.04 174: 18.62 175: 12.35 176: 16.46
 177:  2.21 178:  0.09 179: 25.01 180:  0.26 181:  6.06 182: 16.46 183:  4.32 184: 24.98
 185: 22.81 186: 68.69 187: 33.77 188: 66.51 189: 48.71 190: 23.21 191:  0.69 192: 17.61
 193:  1.49 194:  0.18 195: 24.58 196:  7.42 197: 40.90 198:  0.53 199: 28.97 200:  0.27
 201:  0.83 202:  3.86 203:  0.66 204:  0.21 205:  0.33 206:  1.01 207:  1.29 208: 12.05
 209:  2.91 210: 12.77 211:  2.48 212:  1.47 213: 18.64 214:  1.97 215:  2.09 216: 14.47
 217:  0.88 218:  3.14 219:  9.95 220:  5.83 221:127.64 222:  0.96 223:  8.08 224:  0.71
 225:  1.49 226:  8.87 227:  2.03 228: 45.99 229:  1.71 230: 49.19 231:  0.33 232:119.69
 233:  3.45 234:  3.89 235:113.19 236:120.11 237:  1.23 238:  9.02 239:  0.89 240:  4.04
 241:  0.06 242:  7.20 243:  0.15 244:  0.88 245: 11.43 246:  3.54 247: 78.80 248:  0.11
 249: 69.30 250:  0.63 251:122.87 252:  0.12 253:155.76 254:  4.10 255:  0.52 256:  3.18
 257: 84.71 258: 11.58 259:  5.62 260:  0.78 261: 50.15 262:  1.42 263:  8.76 264:  0.25
 265: 38.62 266: 31.55 267:  2.09 268:  0.33 269: 15.96 270:  0.10 271:  1.81 272:  0.19
 273:  0.33 274: 21.01 275:  0.42 276:  8.47 277:  0.31 278: 73.75 279: 12.72 280: 12.95
 281: 10.12 282:  0.19 283:  9.34 284:  1.91 285: 28.60 286: 31.22 287: 31.54 288:  0.04
 289: 15.63 290:  3.47 291:147.41 292:  0.75 293: 56.28 294:  0.80 295: 32.82 296:  1.59
 297:240.37 298:  4.18 299: 87.13 300:  0.11 301: 69.77 302: 37.65 303:  0.13 304:  2.33
 305:  3.31 306:  1.53 307:  6.66 308:  6.19 309:  3.07 310:  3.20 311:  7.49 312:  5.12
 313: 19.34 314: 29.01 315: 47.19 316: 32.34 317: 70.62 318: 18.65 319:476.37 320:  9.95
 321: 42.07 322: 44.91 323: 39.48 324: 15.41 325: 25.55 326: 26.08 327:103.81 328: 80.79
 329: 85.25 330: 59.54 331:268.44 332:  6.97 333: 13.77 334: 61.92 335: 16.79 336: 75.46
 337:107.56 338:  0.44 339:  7.17 340: 13.07 341:  5.60 342:  5.26
 Raman intensities (amu)
   1:  0.00   2:  0.00   3:  0.00   4:  0.00   5:  0.00   6:  0.00   7:  0.00   8:  0.00
   9:  0.00  10:  0.00  11:  0.00  12:  0.00  13:  0.00  14:  0.00  15:  0.00  16:  0.00
  17:  0.00  18:  0.00  19:  0.00  20:  0.00  21:  0.00  22:  0.00  23:  0.00  24:  0.00
  25:  0.00  26:  0.00  27:  0.00  28:  0.00  29:  0.00  30:  0.00  31:  0.00  32:  0.00
  33:  0.00  34:  0.00  35:  0.00  36:  0.00  37:  0.00  38:  0.00  39:  0.00  40:  0.00
  41:  0.00  42:  0.00  43:  0.00  44:  0.00  45:  0.00  46:  0.00  47:  0.00  48:  0.00
  49:  0.00  50:  0.00  51:  0.00  52:  0.00  53:  0.00  54:  0.00  55:  0.00  56:  0.00
  57:  0.00  58:  0.00  59:  0.00  60:  0.00  61:  0.00  62:  0.00  63:  0.00  64:  0.00
  65:  0.00  66:  0.00  67:  0.00  68:  0.00  69:  0.00  70:  0.00  71:  0.00  72:  0.00
  73:  0.00  74:  0.00  75:  0.00  76:  0.00  77:  0.00  78:  0.00  79:  0.00  80:  0.00
  81:  0.00  82:  0.00  83:  0.00  84:  0.00  85:  0.00  86:  0.00  87:  0.00  88:  0.00
  89:  0.00  90:  0.00  91:  0.00  92:  0.00  93:  0.00  94:  0.00  95:  0.00  96:  0.00
  97:  0.00  98:  0.00  99:  0.00 100:  0.00 101:  0.00 102:  0.00 103:  0.00 104:  0.00
 105:  0.00 106:  0.00 107:  0.00 108:  0.00 109:  0.00 110:  0.00 111:  0.00 112:  0.00
 113:  0.00 114:  0.00 115:  0.00 116:  0.00 117:  0.00 118:  0.00 119:  0.00 120:  0.00
 121:  0.00 122:  0.00 123:  0.00 124:  0.00 125:  0.00 126:  0.00 127:  0.00 128:  0.00
 129:  0.00 130:  0.00 131:  0.00 132:  0.00 133:  0.00 134:  0.00 135:  0.00 136:  0.00
Refinement of some symmetry elements was terminated before convergence was reached.
Some symmetry elements may remain unidentified.
Molecule has no symmetry elements
It seems to be the C1 point group
 137:  0.00 138:  0.00 139:  0.00 140:  0.00 141:  0.00 142:  0.00 143:  0.00 144:  0.00
 145:  0.00 146:  0.00 147:  0.00 148:  0.00 149:  0.00 150:  0.00 151:  0.00 152:  0.00
 153:  0.00 154:  0.00 155:  0.00 156:  0.00 157:  0.00 158:  0.00 159:  0.00 160:  0.00
 161:  0.00 162:  0.00 163:  0.00 164:  0.00 165:  0.00 166:  0.00 167:  0.00 168:  0.00
 169:  0.00 170:  0.00 171:  0.00 172:  0.00 173:  0.00 174:  0.00 175:  0.00 176:  0.00
 177:  0.00 178:  0.00 179:  0.00 180:  0.00 181:  0.00 182:  0.00 183:  0.00 184:  0.00
 185:  0.00 186:  0.00 187:  0.00 188:  0.00 189:  0.00 190:  0.00 191:  0.00 192:  0.00
 193:  0.00 194:  0.00 195:  0.00 196:  0.00 197:  0.00 198:  0.00 199:  0.00 200:  0.00
 201:  0.00 202:  0.00 203:  0.00 204:  0.00 205:  0.00 206:  0.00 207:  0.00 208:  0.00
 209:  0.00 210:  0.00 211:  0.00 212:  0.00 213:  0.00 214:  0.00 215:  0.00 216:  0.00
 217:  0.00 218:  0.00 219:  0.00 220:  0.00 221:  0.00 222:  0.00 223:  0.00 224:  0.00
 225:  0.00 226:  0.00 227:  0.00 228:  0.00 229:  0.00 230:  0.00 231:  0.00 232:  0.00
 233:  0.00 234:  0.00 235:  0.00 236:  0.00 237:  0.00 238:  0.00 239:  0.00 240:  0.00
 241:  0.00 242:  0.00 243:  0.00 244:  0.00 245:  0.00 246:  0.00 247:  0.00 248:  0.00
 249:  0.00 250:  0.00 251:  0.00 252:  0.00 253:  0.00 254:  0.00 255:  0.00 256:  0.00
 257:  0.00 258:  0.00 259:  0.00 260:  0.00 261:  0.00 262:  0.00 263:  0.00 264:  0.00
 265:  0.00 266:  0.00 267:  0.00 268:  0.00 269:  0.00 270:  0.00 271:  0.00 272:  0.00
 273:  0.00 274:  0.00 275:  0.00 276:  0.00 277:  0.00 278:  0.00 279:  0.00 280:  0.00
 281:  0.00 282:  0.00 283:  0.00 284:  0.00 285:  0.00 286:  0.00 287:  0.00 288:  0.00
 289:  0.00 290:  0.00 291:  0.00 292:  0.00 293:  0.00 294:  0.00 295:  0.00 296:  0.00
 297:  0.00 298:  0.00 299:  0.00 300:  0.00 301:  0.00 302:  0.00 303:  0.00 304:  0.00
 305:  0.00 306:  0.00 307:  0.00 308:  0.00 309:  0.00 310:  0.00 311:  0.00 312:  0.00
 313:  0.00 314:  0.00 315:  0.00 316:  0.00 317:  0.00 318:  0.00 319:  0.00 320:  0.00
 321:  0.00 322:  0.00 323:  0.00 324:  0.00 325:  0.00 326:  0.00 327:  0.00 328:  0.00
 329:  0.00 330:  0.00 331:  0.00 332:  0.00 333:  0.00 334:  0.00 335:  0.00 336:  0.00
 337:  0.00 338:  0.00 339:  0.00 340:  0.00 341:  0.00 342:  0.00
 output can be read by thermo (or use thermo option).
 writing <g98.out> molden fake output.
 recommended (thermochemical) frequency scaling factor: 1.0
           -------------------------------------------------
          |             Thermodynamic Functions             |
           -------------------------------------------------

c1  symmetry found (for desy threshold:  0.10E+00) used in thermo

          ...................................................
          :                      SETUP                      :
          :.................................................:
          :  # frequencies                         336      :
          :  # imaginary freq.                       0      :
          :  linear?                             false      :
          :  only rotor calc.                    false      :
          :  symmetry                               c1      :
          :  rotational number                       1      :
          :  scaling factor                  1.0000000      :
          :  rotor cutoff                   50.0000000 cm⁻¹ :
          :  imag. cutoff                  -20.0000000 cm⁻¹ :
          :.................................................:

    mode    ω/cm⁻¹     T·S(HO)/kcal·mol⁻¹    T·S(FR)/kcal·mol⁻¹   T·S(vib)
   ------------------------------------------------------------------------
       1      4.02    -2.92845 (  0.00%)    -1.80332 (100.00%)    -1.80336
       2      6.87    -2.61076 (  0.04%)    -1.64447 ( 99.96%)    -1.64481
       3      8.63    -2.47583 (  0.09%)    -1.57700 ( 99.91%)    -1.57780
       4     12.16    -2.27246 (  0.35%)    -1.47530 ( 99.65%)    -1.47808
       5     13.59    -2.20689 (  0.54%)    -1.44250 ( 99.46%)    -1.44665
       6     14.59    -2.16454 (  0.72%)    -1.42132 ( 99.28%)    -1.42668
       7     25.06    -1.84448 (  5.94%)    -1.26118 ( 94.06%)    -1.29580
       8     31.69    -1.70566 ( 13.89%)    -1.19166 ( 86.11%)    -1.26306
       9     38.83    -1.58552 ( 26.67%)    -1.13144 ( 73.33%)    -1.25256
      10     42.49    -1.53234 ( 34.27%)    -1.10477 ( 65.73%)    -1.25132
      11     43.04    -1.52481 ( 35.43%)    -1.10099 ( 64.57%)    -1.25116
      12     46.25    -1.48225 ( 42.27%)    -1.07962 ( 57.73%)    -1.24982
      13     48.95    -1.44882 ( 47.88%)    -1.06284 ( 52.12%)    -1.24764
      14     57.63    -1.35260 ( 63.84%)    -1.01446 ( 36.16%)    -1.23032
      15     59.19    -1.33695 ( 66.25%)    -1.00658 ( 33.75%)    -1.22546
      16     63.47    -1.29586 ( 72.19%)    -0.98589 ( 27.81%)    -1.20967
      17     71.39    -1.22682 ( 80.60%)    -0.95107 ( 19.40%)    -1.17333
      18     74.53    -1.20158 ( 83.15%)    -0.93832 ( 16.85%)    -1.15723
      19     83.50    -1.13500 ( 88.61%)    -0.90462 ( 11.39%)    -1.10876
      20     93.71    -1.06769 ( 92.50%)    -0.87045 (  7.50%)    -1.05291
      21     95.39    -1.05738 ( 92.98%)    -0.86521 (  7.02%)    -1.04389
      22    106.05    -0.99579 ( 95.29%)    -0.83380 (  4.71%)    -0.98816
      23    109.21    -0.97880 ( 95.79%)    -0.82511 (  4.21%)    -0.97233
      24    114.95    -0.94919 ( 96.54%)    -0.80994 (  3.46%)    -0.94438
      25    115.50    -0.94641 ( 96.61%)    -0.80852 (  3.39%)    -0.94173
      26    120.04    -0.92419 ( 97.08%)    -0.79711 (  2.92%)    -0.92048
      27    121.11    -0.91905 ( 97.18%)    -0.79446 (  2.82%)    -0.91553
      28    121.75    -0.91603 ( 97.23%)    -0.79291 (  2.77%)    -0.91262
      29    142.40    -0.82628 ( 98.50%)    -0.74650 (  1.50%)    -0.82509
      30    142.57    -0.82561 ( 98.51%)    -0.74615 (  1.49%)    -0.82443
      31    143.95    -0.82013 ( 98.57%)    -0.74330 (  1.43%)    -0.81903
      32    166.94    -0.73632 ( 99.20%)    -0.69940 (  0.80%)    -0.73603
      33    171.89    -0.71994 ( 99.29%)    -0.69074 (  0.71%)    -0.71974
      34    177.14    -0.70315 ( 99.37%)    -0.68183 (  0.63%)    -0.70301
      35    183.02    -0.68496 ( 99.45%)    -0.67215 (  0.55%)    -0.68488
      36    188.04    -0.66997 ( 99.50%)    -0.66414 (  0.50%)    -0.66994
      37    188.76    -0.66785 ( 99.51%)    -0.66301 (  0.49%)    -0.66783
      38    201.89    -0.63083 ( 99.63%)    -0.64309 (  0.37%)    -0.63088
      39    202.42    -0.62938 ( 99.63%)    -0.64231 (  0.37%)    -0.62943
      40    203.54    -0.62638 ( 99.64%)    -0.64068 (  0.36%)    -0.62643
      41    204.90    -0.62273 ( 99.65%)    -0.63870 (  0.35%)    -0.62278
      42    207.55    -0.61572 ( 99.66%)    -0.63490 (  0.34%)    -0.61578
      43    235.28    -0.54808 ( 99.80%)    -0.59774 (  0.20%)    -0.54818
      44    258.92    -0.49763 ( 99.86%)    -0.56939 (  0.14%)    -0.49773
      45    264.07    -0.48740 ( 99.87%)    -0.56355 (  0.13%)    -0.48749
      46    265.26    -0.48506 ( 99.87%)    -0.56222 (  0.13%)    -0.48516
      47    266.44    -0.48277 ( 99.88%)    -0.56091 (  0.12%)    -0.48287
      48    267.89    -0.47996 ( 99.88%)    -0.55929 (  0.12%)    -0.48006
      49    268.97    -0.47787 ( 99.88%)    -0.55810 (  0.12%)    -0.47797
      50    272.25    -0.47164 ( 99.89%)    -0.55451 (  0.11%)    -0.47173
      51    280.64    -0.45610 ( 99.90%)    -0.54552 (  0.10%)    -0.45619
      52    291.72    -0.43648 ( 99.91%)    -0.53405 (  0.09%)    -0.43656
      53    299.58    -0.42315 ( 99.92%)    -0.52617 (  0.08%)    -0.42323
   ------------------------------------------------------------------------

   temp. (K)  partition function   enthalpy   heat capacity  entropy
                                   cal/mol     cal/K/mol   cal/K/mol   J/K/mol
 298.15  VIB  0.100E+30            35989.259    238.346    226.239
         ROT  0.497E+09              888.752      2.981     42.774
         INT  0.498E+38            36878.012    241.327    269.012
         TR   0.295E+29             1481.254      4.968     46.485
         TOT                       38359.2657   246.2948   315.4974  1320.0412

       T/K    H(0)-H(T)+PV         H(T)/Eh          T*S/Eh         G(T)/Eh
   ------------------------------------------------------------------------
    298.15    0.611294E-01    0.895983E+00    0.149903E+00    0.746080E+00
   ------------------------------------------------------------------------

         :::::::::::::::::::::::::::::::::::::::::::::::::::::
         ::                  THERMODYNAMIC                  ::
         :::::::::::::::::::::::::::::::::::::::::::::::::::::
         :: total free energy        -190.629525707771 Eh   ::
         ::.................................................::
         :: total energy             -191.375605769575 Eh   ::
         :: zero point energy           0.834853687767 Eh   ::
         :: G(RRHO) w/o ZPVE           -0.088773625964 Eh   ::
         :: G(RRHO) contrib.            0.746080061804 Eh   ::
         :::::::::::::::::::::::::::::::::::::::::::::::::::::

optimized geometry written to: xtbopt.xyz


           -------------------------------------------------
          | TOTAL ENERGY             -191.375605769575 Eh   |
          | TOTAL ENTHALPY           -190.479622700821 Eh   |
          | TOTAL FREE ENERGY        -190.629525707771 Eh   |
          | GRADIENT NORM               0.000298840187 Eh/α |
          | HOMO-LUMO GAP               0.935991627010 eV   |
           -------------------------------------------------

------------------------------------------------------------------------
 * finished run on 2021/11/18 at 17:23:42.211     
------------------------------------------------------------------------
 total:
 * wall-time:     0 d,  0 h,  4 min,  7.498 sec
 *  cpu-time:     0 d,  0 h,  4 min,  7.493 sec
 * ratio c/w:     1.000 speedup
 SCF:
 * wall-time:     0 d,  0 h,  0 min,  0.588 sec
 *  cpu-time:     0 d,  0 h,  0 min,  0.588 sec
 * ratio c/w:     1.000 speedup
 ANC optimizer:
 * wall-time:     0 d,  0 h,  0 min, 41.953 sec
 *  cpu-time:     0 d,  0 h,  0 min, 41.946 sec
 * ratio c/w:     1.000 speedup
 analytical hessian:
 * wall-time:     0 d,  0 h,  3 min, 24.824 sec
 *  cpu-time:     0 d,  0 h,  3 min, 24.827 sec
 * ratio c/w:     1.000 speedup

