114
 energy: -190.996367542307 gnorm: 0.421802258622 xtb: 6.4.1 (bd6e46d)
C         8.15889800000000   -1.67423600000000   -3.27836300000000
C         7.36458300000000   -1.76222800000000   -2.22036400000000
C         7.89410000000000   -0.97445800000000   -1.13286700000000
C         7.53538000000000   -0.65567500000000    0.18465800000000
C         8.40521900000000   -0.27896100000000    1.21987800000000
C         8.07372700000000   -0.59780800000000    2.54707100000000
C         9.06714700000000   -0.11283900000000    3.34088200000000
C         9.99458300000000    0.49890900000000    2.46097300000000
N         9.57117000000000    0.38384500000000    1.19509600000000
C        11.15501700000000    1.10187200000000    2.98430400000000
C        12.07379900000000    1.89823100000000    2.29995700000000
C        12.95988400000000    3.00580300000000    2.60292800000000
C        13.60317400000000    3.35459300000000    1.49204700000000
C        13.14518300000000    2.47508100000000    0.44244700000000
N        12.24881600000000    1.64509900000000    0.98400400000000
C        13.47142700000000    2.37477600000000   -0.91409800000000
C        12.82333800000000    1.52268200000000   -1.83823400000000
C        13.62770700000000    0.68254600000000   -2.63510200000000
C        12.76282300000000   -0.07427300000000   -3.37284900000000
C        11.46488000000000    0.33225200000000   -2.99829300000000
N        11.52040500000000    1.30186100000000   -2.07530800000000
C        10.36577500000000   -0.35169100000000   -3.56920200000000
C         9.24470900000000   -0.80835800000000   -2.88834400000000
N         9.04855300000000   -0.41635200000000   -1.60848300000000
H         7.98061600000000   -2.18014800000000   -4.23401600000000
H         6.45090100000000   -2.34881700000000   -2.19981000000000
H         7.17484800000000   -1.14121800000000    2.91242300000000
H         9.12629000000000   -0.18945600000000    4.44072400000000
H        10.08592600000000    0.76543500000000    0.28208600000000
H        11.43731100000000    0.97494300000000    4.03994600000000
H        13.06216100000000    3.45798000000000    3.57942700000000
H        14.33178400000000    4.16054700000000    1.42081800000000
H        14.30810200000000    2.99573400000000   -1.23709800000000
H        14.73213600000000    0.62331800000000   -2.69468300000000
H        13.06681800000000   -0.83600400000000   -4.11011300000000
H        10.65873500000000    1.85509200000000   -1.63284700000000
H        10.35820800000000   -0.58177900000000   -4.63882900000000
C        -8.85071600000000   -1.29576100000000    3.42541300000000
C        -7.81170000000000   -1.39013600000000    2.60544800000000
C        -8.08163700000000   -0.63172500000000    1.42052900000000
C        -7.38448400000000   -0.36033000000000    0.20478700000000
C        -7.94626600000000    0.20303600000000   -0.95781900000000
C        -7.15211700000000    1.13327000000000   -1.66041500000000
C        -7.91818700000000    1.55115500000000   -2.69088300000000
C        -9.17390700000000    0.88694700000000   -2.62627900000000
N        -9.14260000000000    0.07584700000000   -1.55936600000000
C       -10.14917400000000    1.19879200000000   -3.57518100000000
C       -11.49955600000000    1.51604200000000   -3.31050200000000
C       -12.65769900000000    1.89390400000000   -4.10536200000000
C       -13.66471600000000    2.07077600000000   -3.26478700000000
C       -13.23908900000000    1.82561800000000   -1.89720300000000
N       -11.95176200000000    1.50886800000000   -2.05943000000000
C       -13.80728900000000    1.84753000000000   -0.63163800000000
C       -13.33909700000000    1.20661000000000    0.55378600000000
C       -14.18840300000000    0.49447400000000    1.41775300000000
C       -13.45359300000000   -0.01044500000000    2.43649600000000
C       -12.12819300000000    0.40500100000000    2.18354300000000
N       -12.09956500000000    1.13069900000000    1.05244800000000
C       -11.10645900000000    0.02710600000000    3.06851800000000
C        -9.81532700000000   -0.45526500000000    2.75450800000000
N        -9.29377600000000   -0.10970700000000    1.59465000000000
H        -9.01750600000000   -1.72634500000000    4.40273400000000
H        -6.88352500000000   -1.95954100000000    2.79137700000000
H        -6.12045300000000    1.46280500000000   -1.43940100000000
H        -7.56079000000000    2.28408300000000   -3.43310100000000
H        -9.97123300000000   -0.60728600000000   -1.25118200000000
H        -9.92911200000000    1.24652200000000   -4.63487100000000
H       -12.66895200000000    2.00301400000000   -5.18002400000000
H       -14.68917500000000    2.36382500000000   -3.53000500000000
H       -14.73003600000000    2.39736900000000   -0.51613900000000
H       -15.29391000000000    0.37113500000000    1.28213500000000
H       -13.81644800000000   -0.60436300000000    3.27586500000000
H       -11.15951800000000    1.60795100000000    0.62162500000000
H       -11.29633000000000    0.08192900000000    4.17692200000000
C         6.08687700000000   -0.74491100000000    0.38647700000000
C         4.87728800000000   -0.78417500000000    0.54317800000000
C        -4.79889000000000   -0.95954600000000    0.46113400000000
C        -6.00118800000000   -0.70205400000000    0.34617600000000
C         2.63167700000000    0.89234800000000    3.79613300000000
C         3.58193600000000    0.43748700000000    2.99703600000000
C         2.93126500000000   -0.15452900000000    1.86264900000000
C         3.43579000000000   -0.78267000000000    0.72320900000000
C         2.68265400000000   -1.38387400000000   -0.32208100000000
C         3.03535100000000   -1.24864200000000   -1.68513200000000
C         2.10547600000000   -1.89553100000000   -2.43007600000000
C         1.18332400000000   -2.42674300000000   -1.52472300000000
N         1.55869700000000   -2.10625700000000   -0.27810700000000
C         0.05853200000000   -3.14127400000000   -1.98768800000000
C        -1.28838500000000   -2.96247200000000   -1.61991300000000
C        -2.53513200000000   -3.50544000000000   -2.10487600000000
C        -3.49595300000000   -2.96180400000000   -1.37589800000000
C        -2.91327900000000   -2.06527800000000   -0.41161300000000
N        -1.59913000000000   -2.13174000000000   -0.63226300000000
C        -3.39808400000000   -1.21946600000000    0.62082800000000
C        -2.66659500000000   -0.69695500000000    1.69880300000000
C        -3.12694800000000   -0.77218600000000    3.04178600000000
C        -2.19671600000000   -0.21060200000000    3.83949500000000
C        -1.13067200000000    0.23093600000000    3.01773100000000
N        -1.47513700000000   -0.08618200000000    1.76502400000000
C        -0.00516600000000    0.84058500000000    3.57008200000000
C         1.33014600000000    0.60858300000000    3.20352500000000
N         1.62478900000000   -0.00384500000000    2.07823500000000
H         2.79566200000000    1.40277100000000    4.75933100000000
H         4.66945500000000    0.50105900000000    3.17460900000000
H         3.92954500000000   -0.70171200000000   -2.06397800000000
H         2.07638100000000   -1.99882900000000   -3.52143000000000
H         1.00925800000000   -2.42909800000000    0.66655600000000
H         0.18779000000000   -3.94150200000000   -2.76571900000000
H        -2.64424100000000   -4.22096500000000   -2.91260100000000
H        -4.57932400000000   -3.13466900000000   -1.45495500000000
H        -4.09268100000000   -1.21285100000000    3.36856000000000
H        -2.28795600000000   -0.12598400000000    4.93733100000000
H        -0.83313700000000    0.15960400000000    0.84859600000000
H        -0.08511300000000    1.56871300000000    4.38553000000000
114
 energy: -191.129587806837 gnorm: 0.213815489203 xtb: 6.4.1 (bd6e46d)
C         8.15706994787202   -1.66868916912665   -3.28284467847426
C         7.34632560228660   -1.75927974062872   -2.21617255216238
C         7.90732031851785   -0.95718007680456   -1.14767892682775
C         7.50636482007614   -0.66126877278068    0.17138973613727
C         8.37854719463879   -0.27598445849538    1.21418218390948
C         8.05937689829975   -0.58904615764021    2.55667916035800
C         9.07073721966189   -0.11887715665718    3.34407240873642
C        10.01703597611920    0.49588698056474    2.47541725979581
N         9.56981385835872    0.37996137822951    1.19469084773542
C        11.16460394811034    1.10998292029344    2.98677874532415
C        12.07956710170271    1.89045264490299    2.27129086166843
C        12.96547897667713    2.99530915630828    2.61483683316129
C        13.61030439141572    3.35785565327131    1.49296858280564
C        13.12727361408672    2.48343716309509    0.43812709884147
N        12.21125372767239    1.64540716859664    0.95601868558507
C        13.46805520795943    2.39670447275267   -0.89990940254730
C        12.84331290714242    1.53233765276649   -1.83039265513134
C        13.63151180750179    0.69632523423617   -2.64861703087961
C        12.76287186456905   -0.06542965242292   -3.38889071311022
C        11.45731575354169    0.32064472180426   -3.01759922941783
N        11.52843433598704    1.28504471637063   -2.06571919157259
C        10.34574768885107   -0.34929657167412   -3.57749952073318
C         9.23912842923900   -0.78927338854047   -2.88221027907032
N         9.06163136731463   -0.41174697880676   -1.59304886112351
H         7.99450115068747   -2.17087430712530   -4.22906749424802
H         6.44370932696201   -2.34814486919042   -2.18506003601196
H         7.18240380103509   -1.13195988338845    2.90274784074296
H         9.13280353373199   -0.18854492140690    4.42485146976982
H        10.06747785428118    0.73636138665354    0.32512732869331
H        11.41120516911053    0.98927344971601    4.04178546175825
H        13.05772830953058    3.45267950271467    3.58540517145437
H        14.33039954344793    4.15807729925109    1.41395767987391
H        14.31715709769180    2.98517145429249   -1.23185622029461
H        14.71552218078549    0.63099841451610   -2.68543396994583
H        13.05216691810909   -0.82947937841753   -4.10182566098405
H        10.70580880526717    1.81318898067099   -1.64871493660434
H        10.37232257002734   -0.60129870178758   -4.63404936698815
C        -8.85350522863346   -1.28195916560431    3.43550331769979
C        -7.79781709886851   -1.39334271086764    2.60924574667046
C        -8.09776681625215   -0.63781763488914    1.41362008070298
C        -7.37143379558299   -0.38363243762257    0.22607715866157
C        -7.92522026989922    0.19626098707709   -0.94181353232855
C        -7.14233418707958    1.12245173970153   -1.66903196862557
C        -7.90893712399004    1.54478428190969   -2.71376944246997
C        -9.17143821689539    0.89614364276287   -2.63774276227934
N        -9.14276196419702    0.08834409191178   -1.54472103802172
C       -10.17644769154514    1.19314129143091   -3.58068297455855
C       -11.50824856110082    1.49228061638152   -3.28694223803333
C       -12.65623666550658    1.89156390918997   -4.10696162814323
C       -13.67785088329265    2.08720488306499   -3.26065650388964
C       -13.20625971356148    1.83441548103229   -1.89534472302325
N       -11.91562547821837    1.48108588615476   -2.01211258046411
C       -13.80432268191748    1.85460755970086   -0.64205998331329
C       -13.34215725385141    1.21625125244968    0.54245785546780
C       -14.20264656292619    0.51212700195923    1.41717009600864
C       -13.45551763387407    0.00886620526679    2.44464964828470
C       -12.11707579543516    0.40812460961388    2.20215257175357
N       -12.08503921274613    1.11736447971882    1.04259694493662
C       -11.08910846709057    0.02813996057084    3.08522098753364
C        -9.81249752242103   -0.43015577258064    2.74506975920874
N        -9.31631822143947   -0.10334819808497    1.55030145426822
H        -9.01756377035895   -1.72486599682445    4.40269952559084
H        -6.88769475305726   -1.95881324323239    2.78777515926788
H        -6.13562638570314    1.45365367432883   -1.43530961696865
H        -7.57819515175647    2.27981346348371   -3.43718733969039
H        -9.93164914666832   -0.56159382723270   -1.25451184537892
H        -9.92120879589695    1.26842797355506   -4.63151155568902
H       -12.66676242418532    1.99991444496459   -5.17895064064731
H       -14.69079197481472    2.36542263622171   -3.52763161523287
H       -14.74988498402184    2.37160285423138   -0.53278687374151
H       -15.27725978817211    0.37527793768250    1.27632545625023
H       -13.80754198829130   -0.59769055862535    3.26692350024947
H       -11.20329054969868    1.56967637269190    0.63500997591992
H       -11.31133263645445    0.04666245533920    4.16413203301072
C         6.09088806921299   -0.74961895712861    0.40105112367789
C         4.87922113507645   -0.78236320780887    0.54561693372843
C        -4.80945255803592   -0.96804181178458    0.48048406984655
C        -5.99357357947933   -0.70423687523882    0.34281097533995
C         2.62764097868854    0.90944977078521    3.80796569833788
C         3.59184363451174    0.43957950901882    3.00148442990661
C         2.92591237660016   -0.16918779996386    1.86522437900656
C         3.45947220384937   -0.78500165521120    0.72681326232610
C         2.69452005947322   -1.37685201701235   -0.32200073956195
C         3.05300061210404   -1.25206437579517   -1.68454564955263
C         2.11556609943948   -1.91263727377527   -2.43123925057971
C         1.17112607468917   -2.44133130012882   -1.52989290231712
N         1.54340280925384   -2.09418628307775   -0.27176344779388
C         0.03907382682888   -3.16019886416714   -1.98512137279149
C        -1.28087626992451   -2.96693450669051   -1.59524648244851
C        -2.53226065735531   -3.51252675185599   -2.10497419029818
C        -3.51144293058065   -2.95199453955375   -1.37773927170890
C        -2.89177440158002   -2.04690578270313   -0.42312494307920
N        -1.56784198372701   -2.10989151494757   -0.60313310089472
C        -3.41632049236083   -1.21926126662413    0.59986170200110
C        -2.67765730320439   -0.69676942498103    1.69598351004757
C        -3.14606554542916   -0.76209400261312    3.03726244316928
C        -2.20677425013035   -0.19306046579688    3.84385010842107
C        -1.12867426098432    0.23831935556740    3.02282889877497
N        -1.45900643750865   -0.09962453641963    1.75061823796135
C         0.01667551247256    0.84786193720755    3.56567419660802
C         1.33771701548388    0.61304166877229    3.17581785211524
N         1.60329179208101   -0.03607818014545    2.03975031930243
H         2.78610656636189    1.40439859728721    4.75979853243276
H         4.66248867427630    0.49829860075559    3.17100012449848
H         3.91904413399849   -0.70538274446865   -2.05478864996571
H         2.07498490174663   -1.99876046326921   -3.50931033455445
H         1.03039823768013   -2.39828916363204    0.61864590992215
H         0.18642624510783   -3.91353943782956   -2.77507639720150
H        -2.64018659082067   -4.22154844688005   -2.91010184063275
H        -4.57814389381274   -3.13088615464795   -1.45432299128752
H        -4.08314266076970   -1.21069403535728    3.35798225279568
H        -2.27803406581545   -0.12353337011328    4.92503159577788
H        -0.85569102321609    0.13266350994620    0.89228452937300
H        -0.08880287706715    1.54076794733580    4.40027744008724
114
 energy: -191.191368051090 gnorm: 0.071827147145 xtb: 6.4.1 (bd6e46d)
C         8.15237519821988   -1.65348540663811   -3.28087458582372
C         7.33199851861575   -1.74804685407973   -2.20899820718291
C         7.92594338270335   -0.93559686880119   -1.15653551170599
C         7.47654511366783   -0.66473157534053    0.16467658101380
C         8.34997681744387   -0.27076413401589    1.21350134460431
C         8.04516960949584   -0.57707379774603    2.56776003001788
C         9.07165971765998   -0.12669528884124    3.34536372073044
C        10.03431277556077    0.48699362111602    2.48866976259208
N         9.56363815616658    0.37034739883336    1.19756066824169
C        11.16713171602393    1.11949738124637    2.98705872626067
C        12.07472311786599    1.88394236492998    2.23709663089107
C        12.96824034022189    2.97624819647484    2.62147377129119
C        13.60959832532539    3.35683974151850    1.49378284470145
C        13.10202352415569    2.49816421358753    0.42977039863546
N        12.16801898690789    1.65513390380693    0.92732873204998
C        13.46283062533270    2.41929669267783   -0.89110737527134
C        12.86475387915798    1.53880572407294   -1.82872329232521
C        13.63522665740920    0.71112338099877   -2.66667603542940
C        12.76577015155186   -0.05103479146131   -3.40931168915688
C        11.45617668902881    0.30966884380441   -3.03765298029808
N        11.54155709542942    1.26179730307820   -2.05568768824113
C        10.33015187401574   -0.34921306363741   -3.58341435651439
C         9.23537066794105   -0.76939745442756   -2.87231757486751
N         9.06675932107626   -0.39645055999608   -1.57816894437527
H         8.01248123097494   -2.15411338042566   -4.22223671062316
H         6.43837762609916   -2.34039454617459   -2.16215973024523
H         7.18181228237515   -1.11919781892058    2.89554506491338
H         9.14129562343026   -0.19137103633800    4.41298853243983
H        10.04563805141818    0.70096476747109    0.37402194585354
H        11.37658093209493    1.01283750759172    4.04454307295745
H        13.05322171402820    3.43307376936968    3.59000907057740
H        14.32706712168943    4.15020020356310    1.40331463392542
H        14.33000805755324    2.97175055018836   -1.22916825674090
H        14.70456039425510    0.64274637654108   -2.67984949107879
H        13.03856088939338   -0.82179649142662   -4.10190340327882
H        10.75938478881673    1.76087840224916   -1.66152583131661
H        10.39190982481287   -0.62832919859223   -4.62764048989096
C        -8.85594562535424   -1.25373131898376    3.43868478977183
C        -7.79370397521382   -1.39031122276030    2.60902039539513
C        -8.12156491130133   -0.64649733704715    1.40164774419872
C        -7.36378135528024   -0.40988811483740    0.24126422882137
C        -7.90239864012172    0.19374299576194   -0.93233806192883
C        -7.13194061524088    1.10892204911358   -1.68238122750376
C        -7.89726092822810    1.53493819838459   -2.73608118076197
C        -9.16215101561470    0.90501743657906   -2.64987873503103
N        -9.13993485530491    0.10858306580772   -1.53016276391083
C       -10.19822160024144    1.18470594401054   -3.58237044699911
C       -11.51359823413689    1.46556757046007   -3.25966424185814
C       -12.64963667187200    1.88178669949752   -4.09455229176196
C       -13.67732459719224    2.10326761404101   -3.24560888408909
C       -13.17150077881989    1.83907918389855   -1.88826797107675
N       -11.88767901399869    1.45119714961259   -1.96900095805996
C       -13.80276513675874    1.85640159422753   -0.64929878757276
C       -13.34487826801590    1.22669341651241    0.53514411152438
C       -14.21312797055645    0.53640673112306    1.42179221261830
C       -13.45908713183829    0.03679724052875    2.45258404088260
C       -12.11158395961547    0.41302632305594    2.21963439123927
N       -12.07303138674986    1.09900221540939    1.03158501044515
C       -11.07829644520429    0.02392527284873    3.09750543629374
C        -9.81337719410955   -0.40583456788917    2.72858814599897
N        -9.33976744969786   -0.10265077879833    1.50612652569062
H        -9.01692384675077   -1.71031492265313    4.39802574491373
H        -6.89632182700177   -1.95390261452936    2.77902071753872
H        -6.14387952409908    1.44126175107812   -1.43370008053038
H        -7.59423036363575    2.27333099695313   -3.44868343432615
H        -9.88960367600553   -0.50348500121082   -1.25314906632411
H        -9.90570426227094    1.29587556222636   -4.62213770615865
H       -12.65738981005566    1.99000273017579   -5.16525429150080
H       -14.68234663622977    2.37256999619665   -3.51143160592297
H       -14.77616996760814    2.32880624142050   -0.55551165554984
H       -15.26338080736160    0.38558965070037    1.27300911793056
H       -13.80032794411277   -0.58456402845428    3.26028931466072
H       -11.25145979578778    1.52028332779562    0.64470886886623
H       -11.33311551406975   -0.00531143838011    4.15092906370204
C         6.09625280994583   -0.76081105851896    0.41233287686695
C         4.88009025518664   -0.78146855776707    0.54786811053473
C        -4.81316349441691   -0.97812479613875    0.50599020846956
C        -5.99031176559190   -0.70302994140758    0.33419741574331
C         2.61626789220693    0.92495381480649    3.80307102001554
C         3.59137945712840    0.43672592653207    3.00197581412043
C         2.91816094888251   -0.18753393535365    1.86931121315217
C         3.48479388439155   -0.79140217400365    0.73035769407281
C         2.70622262097164   -1.36990788610853   -0.32500132188525
C         3.06942607547763   -1.26182741607943   -1.68372529381039
C         2.12840226328644   -1.93299887379368   -2.42892150977118
C         1.16580128027754   -2.45286505175817   -1.53572563549687
N         1.52990798532693   -2.07529843290340   -0.26886119877061
C         0.02529038283247   -3.17413997065938   -1.98293270179312
C        -1.27073712670727   -2.96935061816902   -1.56576890539523
C        -2.52454239722031   -3.51415039717676   -2.09168200577981
C        -3.51542249342740   -2.93217928143762   -1.37767621940141
C        -2.86379872900177   -2.02637603655858   -0.42951790288867
N        -1.53861439160271   -2.09144665345742   -0.57267680631688
C        -3.42980818370991   -1.21961266228549    0.58362994731106
C        -2.68799046052739   -0.69611491226008    1.69673697047440
C        -3.16269665060023   -0.74625869595651    3.02986657976624
C        -2.21728057661424   -0.17218563610737    3.84225465375882
C        -1.13116985539322    0.24356393407666    3.02736912472001
N        -1.44361722463984   -0.11895418382982    1.73886621787213
C         0.03629967284119    0.84636320231078    3.55750666440832
C         1.34182751179268    0.61114364192264    3.14405197123504
N         1.58784839899943   -0.06931533106883    2.00503076250612
H         2.76430392721842    1.40887202590277    4.74901698383591
H         4.65143618391837    0.49026558409092    3.16287588209319
H         3.91336131219593   -0.71260983175376   -2.04820370566508
H         2.07683704084283   -2.00412326005358   -3.49813589247279
H         1.05138089143047   -2.35420481697520    0.56434613655102
H         0.18659279326759   -3.87914302113471   -2.79153228516741
H        -2.62954259015373   -4.21885187965121   -2.89664138280400
H        -4.57061859416105   -3.11505073089735   -1.45246352880096
H        -4.07863097253390   -1.20300973083398    3.34601376034203
H        -2.26816484754331   -0.11350156277713    4.91216910675528
H        -0.87908027934809    0.09345672864111    0.94255251911946
H        -0.09413301769140    1.49759679046024    4.41815081554025
114
 energy: -191.220890676644 gnorm: 0.050187472372 xtb: 6.4.1 (bd6e46d)
C         8.14709209026894   -1.62403480161723   -3.27008701641157
C         7.32538146924963   -1.71938185582943   -2.19844846780888
C         7.93172836942848   -0.90546101272073   -1.15223735224549
C         7.46277204069785   -0.65799058581468    0.17040887872750
C         8.32741251701958   -0.26861781968467    1.22669665539420
C         8.02461786406175   -0.56488097814208    2.58311039358054
C         9.06405057311613   -0.13559929439491    3.35460288093269
C        10.02891417629998    0.47356502815345    2.50088102158220
N         9.54990784091235    0.35140437018878    1.21296703527146
C        11.15501721747334    1.12413284321686    2.98277064066858
C        12.05198827719723    1.88026637086012    2.21064062783747
C        12.96213482736653    2.95263566330061    2.61545622605754
C        13.59438810362124    3.35032404999239    1.48810180735762
C        13.06690978974095    2.51683348769619    0.41227351358826
N        12.11338962920433    1.68161096208438    0.89535280480841
C        13.45887557317965    2.43174944016663   -0.89864378767290
C        12.88427053892573    1.53798878304651   -1.84098175049225
C        13.64827992759812    0.72703308272877   -2.69570116082590
C        12.77922169248610   -0.03690416072487   -3.43953099520995
C        11.47063310333846    0.29861087931634   -3.05312445868704
N        11.56490071245000    1.23315376691406   -2.05496313644332
C        10.33296004613283   -0.35370395975404   -3.58442828798668
C         9.23453190545668   -0.74470673886450   -2.86330649697542
N         9.06934236352038   -0.36876844565564   -1.56692373860009
H         8.03006248071445   -2.12782434594586   -4.21250516854787
H         6.43573877678699   -2.31850969657012   -2.13156825794968
H         7.15726811500160   -1.10307569005929    2.90271191803065
H         9.14811504810943   -0.20344984557513    4.41952709394998
H        10.04404078418298    0.66231031939920    0.39164310735529
H        11.33536598513829    1.05831391483598    4.05006008422904
H        13.05361329327169    3.38965530658780    3.59305721582545
H        14.32262027774175    4.13371146699027    1.39235227820272
H        14.34994131469733    2.95649915385811   -1.22258294541023
H        14.71596492324371    0.66078105916930   -2.69163988150007
H        13.03897962896547   -0.81516432699307   -4.12628338123751
H        10.78280113165490    1.71113844477983   -1.64428490616201
H        10.41482412082697   -0.67485851253316   -4.61756401670398
C        -8.85904380595625   -1.21859413973388    3.43068613859163
C        -7.80313807055661   -1.37733530690511    2.59827221201630
C        -8.14097291875702   -0.65227308506509    1.38074095697927
C        -7.35808644567513   -0.42453942105350    0.23636113300993
C        -7.87583454313167    0.19831616224583   -0.93871735289268
C        -7.10631794368960    1.09498175960698   -1.70562511100752
C        -7.87326886373362    1.52202900669052   -2.76108083808294
C        -9.14159625830104    0.91315936146785   -2.65698783638838
N        -9.12109565971057    0.13783243619376   -1.52221640205577
C       -10.19378743217312    1.17944516923657   -3.57561257829274
C       -11.50535548773821    1.43693521122878   -3.23083964729992
C       -12.63435796819314    1.86463973826942   -4.06647006366572
C       -13.65661865638705    2.11024431569517   -3.21783619987038
C       -13.14449532119920    1.83410336054348   -1.86796926585211
N       -11.86887493986703    1.42206287617820   -1.93533891724130
C       -13.80499652557284    1.84740472386033   -0.64657817153843
C       -13.35557756415064    1.23076767841721    0.54111481889692
C       -14.22715971248591    0.56538368484731    1.43998600196254
C       -13.47386882992141    0.06800670375138    2.47070075062238
C       -12.12257114805874    0.41555161037048    2.23100865615304
N       -12.08266347612880    1.07871310217307    1.03019996507945
C       -11.08459158768550    0.01722449846403    3.09545524969107
C        -9.81997930108684   -0.38796841644593    2.70668591937509
N        -9.35917926005835   -0.10722503231599    1.47057612038473
H        -9.01695937794481   -1.67080006876766    4.39286550105049
H        -6.90682233150842   -1.94376193167409    2.76499878738237
H        -6.12366954669245    1.42795456184269   -1.44438229084403
H        -7.59346213256529    2.26542629167827   -3.47830738853154
H        -9.88052600265280   -0.44983546654760   -1.22461997390310
H        -9.89160851994212    1.33476634727669   -4.60834701765319
H       -12.63827104168800    1.97062767283304   -5.13761463485126
H       -14.66100751873087    2.38987008315963   -3.47880609857632
H       -14.81352244204492    2.26150117791039   -0.58914909976132
H       -15.27271968499301    0.40633861858796    1.27702188399510
H       -13.80763878701387   -0.56093627785123    3.27252361713834
H       -11.25294571367927    1.47319649672617    0.62097113834732
H       -11.36481265589176   -0.09420081767770    4.14322105514195
C         6.09594767235574   -0.77251215288584    0.42109948672483
C         4.88157518949265   -0.78766209210863    0.55605046854089
C        -4.81795717253907   -0.99311441193956    0.53183659479343
C        -5.98861503673911   -0.71076639194401    0.33003369810228
C         2.59753668201617    0.92983517568965    3.77814636768876
C         3.57813752153099    0.42643471839413    2.99230522091120
C         2.90981032141826   -0.21044344472907    1.86410056769686
C         3.49608027889882   -0.80458813355939    0.72789621555262
C         2.72023023361771   -1.36689845727497   -0.33804868806543
C         3.09161259471623   -1.28007866982772   -1.69198320108849
C         2.15023565935878   -1.95578159512658   -2.43422648969680
C         1.17545358053561   -2.45400264081609   -1.54601602128875
N         1.53135596219146   -2.05026773776398   -0.28456344818075
C         0.02911902562444   -3.17331126500508   -1.97806837059655
C        -1.25582388585086   -2.96722676917354   -1.53330822543652
C        -2.50890336277670   -3.50594541797346   -2.06576513296785
C        -3.50180753304494   -2.90317813558233   -1.37244767034785
C        -2.84251372195569   -2.00158221460792   -0.42518440785262
N        -1.51678020645075   -2.08026145769785   -0.54310163651326
C        -3.43458075554270   -1.21185008854071    0.58324786350138
C        -2.70102841752143   -0.69398420145425    1.70476919501768
C        -3.18379188003300   -0.72144286154158    3.02950705040075
C        -2.23452158485113   -0.14833577616773    3.84172733553774
C        -1.13990557097224    0.23801481811791    3.03259896927184
N        -1.44576576793895   -0.14224752526305    1.74691663982320
C         0.03919797939149    0.82851845148368    3.54879123255705
C         1.33427682546999    0.59882625372972    3.11323094732040