      -----------------------------------------------------------      
     |                   =====================                   |     
     |                           x T B                           |     
     |                   =====================                   |     
     |                         S. Grimme                         |     
     |          Mulliken Center for Theoretical Chemistry        |     
     |                    University of Bonn                     |     
      -----------------------------------------------------------      

   * xtb version 6.4.1 (bd6e46d) compiled by 'conda@4901f00b25ba' on 2021-06-10

   xtb is free software: you can redistribute it and/or modify it under
   the terms of the GNU Lesser General Public License as published by
   the Free Software Foundation, either version 3 of the License, or
   (at your option) any later version.
   
   xtb is distributed in the hope that it will be useful,
   but WITHOUT ANY WARRANTY; without even the implied warranty of
   MERCHANTABILITY or FITNESS FOR A PARTICULAR PURPOSE.  See the
   GNU Lesser General Public License for more details.
   
   Cite this work as:
   * C. Bannwarth, E. Caldeweyher, S. Ehlert, A. Hansen, P. Pracht,
     J. Seibert, S. Spicher, S. Grimme, WIREs Comput. Mol. Sci., 2020, 11,
     e01493. DOI: 10.1002/wcms.1493
   
   for GFN2-xTB:
   * C. Bannwarth, S. Ehlert and S. Grimme., J. Chem. Theory Comput., 2019,
     15, 1652-1671. DOI: 10.1021/acs.jctc.8b01176
   for GFN1-xTB:
   * S. Grimme, C. Bannwarth, P. Shushkov, J. Chem. Theory Comput., 2017,
     13, 1989-2009. DOI: 10.1021/acs.jctc.7b00118
   for GFN0-xTB:
   * P. Pracht, E. Caldeweyher, S. Ehlert, S. Grimme, ChemRxiv, 2019, preprint.
     DOI: 10.26434/chemrxiv.8326202.v1
   for GFN-FF:
   * S. Spicher and S. Grimme, Angew. Chem. Int. Ed., 2020, 59, 15665-15673.
     DOI: 10.1002/anie.202004239
   
   for DFT-D4:
   * E. Caldeweyher, C. Bannwarth and S. Grimme, J. Chem. Phys., 2017,
     147, 034112. DOI: 10.1063/1.4993215
   * E. Caldeweyher, S. Ehlert, A. Hansen, H. Neugebauer, S. Spicher,
     C. Bannwarth and S. Grimme, J. Chem. Phys., 2019, 150, 154122.
     DOI: 10.1063/1.5090222
   * E. Caldeweyher, J.-M. Mewes, S. Ehlert and S. Grimme, Phys. Chem. Chem. Phys.
     2020, 22, 8499-8512. DOI: 10.1039/D0CP00502A
   
   for sTDA-xTB:
   * S. Grimme and C. Bannwarth, J. Chem. Phys., 2016, 145, 054103.
     DOI: 10.1063/1.4959605
   
   in the mass-spec context:
   * V. Asgeirsson, C. Bauer and S. Grimme, Chem. Sci., 2017, 8, 4879.
     DOI: 10.1039/c7sc00601b
   * J. Koopman and S. Grimme, ACS Omega 2019, 4, 12, 15120-15133.
     DOI: 10.1021/acsomega.9b02011
   
   for metadynamics refer to:
   * S. Grimme, J. Chem. Theory Comput., 2019, 155, 2847-2862
     DOI: 10.1021/acs.jctc.9b00143
   
   for SPH calculations refer to:
   * S. Spicher and S. Grimme, J. Chem. Theory Comput., 2021, 17, 1701-1714
     DOI: 10.1021/acs.jctc.0c01306
   
   with help from (in alphabetical order)
   P. Atkinson, C. Bannwarth, F. Bohle, G. Brandenburg, E. Caldeweyher
   M. Checinski, S. Dohm, S. Ehlert, S. Ehrlich, I. Gerasimov, J. Koopman
   C. Lavigne, S. Lehtola, F. März, M. Müller, F. Musil, H. Neugebauer
   J. Pisarek, C. Plett, P. Pracht, J. Seibert, P. Shushkov, S. Spicher
   M. Stahn, M. Steiner, T. Strunk, J. Stückrath, T. Rose, and J. Unsleber
   
 * started run on 2021/11/20 at 15:56:10.059     

           -------------------------------------------------
          |                Calculation Setup                |
           -------------------------------------------------

          program call               : /home/jeff/miniconda3/bin/xtb /home/jeff/chem/final-year-proejct/Zn+2_2_5_outenergy/input_structure.xyz --gfn 2 --parallel 1 --etemp 300 --chrg 0 --uhf 0 -I det_control.in
          coordinate file            : /home/jeff/chem/final-year-proejct/Zn+2_2_5_outenergy/input_structure.xyz
          omp threads                :                     1
          number of atoms            :                   185
          number of electrons        :                   594
          charge                     :                     0
          spin                       :                   0.0
          first test random number   :      0.32167507125225

   ID    Z sym.   atoms
    1   30 Zn     1, 37, 81, 116, 151
    2    6 C      2-9, 11-15, 17-21, 23, 24, 38-45, 47-51, 53-57, 59, 60,
                  73-80, 82-89, 91-95, 97-101, 103, 104, 117-124, 126-130,
                  132-136, 138, 139, 152-159, 161-165, 167-171, 173, 174
    3    7 N      10, 16, 22, 25, 46, 52, 58, 61, 90, 96, 102, 105, 125, 131,
                  137, 140, 160, 166, 172, 175
    4    1 H      26-36, 62-72, 106-115, 141-150, 176-185

           -------------------------------------------------
          |                 G F N 2 - x T B                 |
           -------------------------------------------------

        Reference                      10.1021/acs.jctc.8b01176
      * Hamiltonian:
        H0-scaling (s, p, d)           1.850000    2.230000    2.230000
        zeta-weighting                 0.500000
      * Dispersion:
        s8                             2.700000
        a1                             0.520000
        a2                             5.000000
        s9                             5.000000
      * Repulsion:
        kExp                           1.500000    1.000000
        rExp                           1.000000
      * Coulomb:
        alpha                          2.000000
        third order                    shell-resolved
        anisotropic                    true
        a3                             3.000000
        a5                             4.000000
        cn-shift                       1.200000
        cn-exp                         4.000000
        max-rad                        5.000000


          ...................................................
          :                      SETUP                      :
          :.................................................:
          :  # basis functions                 584          :
          :  # atomic orbitals                 584          :
          :  # shells                          318          :
          :  # electrons                       594          :
          :  max. iterations                   250          :
          :  Hamiltonian                  GFN2-xTB          :
          :  restarted?                      false          :
          :  GBSA solvation                  false          :
          :  PC potential                    false          :
          :  electronic temp.          300.0000000     K    :
          :  accuracy                    1.0000000          :
          :  -> integral cutoff          0.2500000E+02      :
          :  -> integral neglect         0.1000000E-07      :
          :  -> SCF convergence          0.1000000E-05 Eh   :
          :  -> wf. convergence          0.1000000E-03 e    :
          :  Broyden damping             0.4000000          :
          ...................................................

 iter      E             dE          RMSdq      gap      omega  full diag
   1   -323.7894570 -0.323789E+03  0.613E+00    0.97       0.0  T
   2   -324.4716356 -0.682179E+00  0.316E+00    0.89       1.0  T
   3   -324.4744581 -0.282249E-02  0.229E+00    1.01       1.0  T
   4   -325.0199309 -0.545473E+00  0.373E-01    0.92       1.0  T
   5   -325.0236119 -0.368103E-02  0.238E-01    0.95       1.0  T
   6   -325.0275452 -0.393327E-02  0.141E-01    0.95       1.0  T
   7   -325.0309187 -0.337348E-02  0.663E-02    0.94       1.0  T
   8   -325.0317727 -0.853961E-03  0.274E-02    0.94       1.0  T
   9   -325.0319266 -0.153975E-03  0.132E-02    0.94       1.0  T
  10   -325.0319582 -0.315669E-04  0.514E-03    0.94       1.4  T
  11   -325.0319624 -0.414647E-05  0.199E-03    0.94       3.7  T
  12   -325.0319628 -0.479869E-06  0.977E-04    0.94       7.5  T
  13   -325.0319629 -0.476586E-07  0.450E-04    0.94      16.3  T

   *** convergence criteria satisfied after 13 iterations ***

         #    Occupation            Energy/Eh            Energy/eV
      -------------------------------------------------------------
         1        2.0000           -0.6676430             -18.1675
       ...           ...                  ...                  ...
       291        2.0000           -0.3697493             -10.0614
       292        2.0000           -0.3687161             -10.0333
       293        2.0000           -0.3687038             -10.0329
       294        2.0000           -0.3681104             -10.0168
       295        2.0000           -0.3613014              -9.8315
       296        2.0000           -0.3543617              -9.6427
       297        2.0000           -0.3492324              -9.5031 (HOMO)
       298                         -0.3146682              -8.5626 (LUMO)
       299                         -0.3088684              -8.4047
       300                         -0.3014311              -8.2024
       301                         -0.2991303              -8.1397
       302                         -0.2989953              -8.1361
       ...                                ...                  ...
       584                          1.4086904              38.3324
      -------------------------------------------------------------
                  HL-Gap            0.0345642 Eh            0.9405 eV
             Fermi-level           -0.3319492 Eh           -9.0328 eV

 SCC (total)                   0 d,  0 h,  0 min,  1.614 sec
 SCC setup                      ...        0 min,  0.006 sec (  0.372%)
 Dispersion                     ...        0 min,  0.013 sec (  0.807%)
 classical contributions        ...        0 min,  0.002 sec (  0.098%)
 integral evaluation            ...        0 min,  0.105 sec (  6.523%)
 iterations                     ...        0 min,  1.144 sec ( 70.886%)
 molecular gradient             ...        0 min,  0.333 sec ( 20.657%)
 printout                       ...        0 min,  0.011 sec (  0.655%)

         :::::::::::::::::::::::::::::::::::::::::::::::::::::
         ::                     SUMMARY                     ::
         :::::::::::::::::::::::::::::::::::::::::::::::::::::
         :: total energy            -319.313070763997 Eh    ::
         :: gradient norm              0.000407449745 Eh/a0 ::
         :: HOMO-LUMO gap              0.940540332952 eV    ::
         ::.................................................::
         :: SCC energy              -325.031962882978 Eh    ::
         :: -> isotropic ES            0.325280929731 Eh    ::
         :: -> anisotropic ES          0.046680519768 Eh    ::
         :: -> anisotropic XC          0.164734429746 Eh    ::
         :: -> dispersion             -0.312127082795 Eh    ::
         :: repulsion energy           5.724231772293 Eh    ::
         :: add. restraining           0.000000000000 Eh    ::
         :: total charge               0.000000000058 e     ::
         :::::::::::::::::::::::::::::::::::::::::::::::::::::

           -------------------------------------------------
          |                Property Printout                |
           -------------------------------------------------

    * Orbital Energies and Occupations

         #    Occupation            Energy/Eh            Energy/eV
      -------------------------------------------------------------
         1        2.0000           -0.6676430             -18.1675
       ...           ...                  ...                  ...
       285        2.0000           -0.3873512             -10.5404
       286        2.0000           -0.3857532             -10.4969
       287        2.0000           -0.3857523             -10.4969
       288        2.0000           -0.3728239             -10.1451
       289        2.0000           -0.3698989             -10.0655
       290        2.0000           -0.3697601             -10.0617
       291        2.0000           -0.3697493             -10.0614
       292        2.0000           -0.3687161             -10.0333
       293        2.0000           -0.3687038             -10.0329
       294        2.0000           -0.3681104             -10.0168
       295        2.0000           -0.3613014              -9.8315
       296        2.0000           -0.3543617              -9.6427
       297        2.0000           -0.3492324              -9.5031 (HOMO)
       298                         -0.3146682              -8.5626 (LUMO)
       299                         -0.3088684              -8.4047
       300                         -0.3014311              -8.2024
       301                         -0.2991303              -8.1397
       302                         -0.2989953              -8.1361
       303                         -0.2989857              -8.1358
       304                         -0.2980451              -8.1102
       305                         -0.2980228              -8.1096
       306                         -0.2939361              -7.9984
       307                         -0.2887942              -7.8585
       308                         -0.2685188              -7.3068
       ...                                ...                  ...
       584                          1.4086904              38.3324
      -------------------------------------------------------------
                  HL-Gap            0.0345642 Eh            0.9405 eV
             Fermi-level           -0.3319492 Eh           -9.0328 eV

     #   Z          covCN         q      C6AA      α(0)
     1  30 Zn       3.043     0.244   122.302    21.603
     2   6 C        3.020    -0.052    29.269     8.874
     3   6 C        3.018    -0.051    29.231     8.869
     4   6 C        3.164     0.077    25.965     8.328
     5   6 C        2.953     0.018    27.602     8.617
     6   6 C        3.164     0.077    25.965     8.328
     7   6 C        3.018    -0.051    29.232     8.869
     8   6 C        3.020    -0.052    29.269     8.874
     9   6 C        3.149     0.076    26.053     8.349
    10   7 N        2.632    -0.176    24.827     7.400
    11   6 C        2.901    -0.050    29.241     8.866
    12   6 C        3.145     0.077    26.039     8.349
    13   6 C        3.017    -0.051    29.245     8.871
    14   6 C        3.018    -0.051    29.249     8.871
    15   6 C        3.145     0.077    26.029     8.347
    16   7 N        2.635    -0.175    24.791     7.395
    17   6 C        2.901    -0.052    29.284     8.873
    18   6 C        3.145     0.077    26.030     8.347
    19   6 C        3.018    -0.051    29.249     8.871
    20   6 C        3.017    -0.051    29.246     8.871
    21   6 C        3.145     0.077    26.040     8.349
    22   7 N        2.635    -0.175    24.789     7.394
    23   6 C        2.901    -0.050    29.241     8.866
    24   6 C        3.149     0.076    26.052     8.349
    25   7 N        2.632    -0.176    24.828     7.400
    26   1 H        0.926     0.034     2.533     2.489
    27   1 H        0.926     0.035     2.518     2.481
    28   1 H        0.926     0.035     2.516     2.481
    29   1 H        0.926     0.034     2.533     2.489
    30   1 H        0.926     0.049     2.331     2.387
    31   1 H        0.926     0.034     2.528     2.486
    32   1 H        0.926     0.034     2.529     2.487
    33   1 H        0.926     0.048     2.339     2.392
    34   1 H        0.926     0.034     2.528     2.487
    35   1 H        0.926     0.034     2.527     2.486
    36   1 H        0.926     0.049     2.331     2.388
    37  30 Zn       3.043     0.244   122.302    21.603
    38   6 C        3.020    -0.052    29.270     8.874
    39   6 C        3.018    -0.050    29.228     8.868
    40   6 C        3.163     0.077    25.968     8.329
    41   6 C        2.953     0.018    27.601     8.617
    42   6 C        3.164     0.077    25.966     8.328
    43   6 C        3.019    -0.051    29.236     8.869
    44   6 C        3.020    -0.052    29.270     8.875
    45   6 C        3.149     0.076    26.053     8.350
    46   7 N        2.632    -0.176    24.826     7.400
    47   6 C        2.901    -0.050    29.240     8.866
    48   6 C        3.145     0.077    26.039     8.349
    49   6 C        3.017    -0.051    29.246     8.871
    50   6 C        3.018    -0.051    29.249     8.871
    51   6 C        3.145     0.077    26.029     8.347
    52   7 N        2.634    -0.175    24.791     7.395
    53   6 C        2.901    -0.052    29.283     8.873
    54   6 C        3.145     0.077    26.030     8.347
    55   6 C        3.018    -0.051    29.249     8.871
    56   6 C        3.017    -0.051    29.245     8.871
    57   6 C        3.145     0.077    26.040     8.349
    58   7 N        2.635    -0.175    24.789     7.395
    59   6 C        2.901    -0.050    29.241     8.866
    60   6 C        3.148     0.076    26.054     8.350
    61   7 N        2.632    -0.176    24.828     7.400
    62   1 H        0.926     0.034     2.533     2.489
    63   1 H        0.926     0.035     2.521     2.483
    64   1 H        0.926     0.035     2.514     2.479
    65   1 H        0.926     0.034     2.533     2.489
    66   1 H        0.926     0.049     2.331     2.387
    67   1 H        0.926     0.034     2.527     2.486
    68   1 H        0.926     0.034     2.528     2.487
    69   1 H        0.926     0.048     2.339     2.392
    70   1 H        0.926     0.034     2.528     2.487
    71   1 H        0.926     0.034     2.527     2.486
    72   1 H        0.926     0.049     2.331     2.387
    73   6 C        1.994    -0.029    31.804     9.107
    74   6 C        1.994    -0.029    31.822     9.110
    75   6 C        1.994    -0.029    31.807     9.108
    76   6 C        1.994    -0.029    31.811     9.108
    77   6 C        1.994    -0.029    31.812     9.109
    78   6 C        1.994    -0.029    31.809     9.108
    79   6 C        1.993    -0.029    31.823     9.110
    80   6 C        1.994    -0.029    31.804     9.108
    81  30 Zn       3.039     0.246   122.282    21.601
    82   6 C        3.020    -0.052    29.265     8.874
    83   6 C        3.019    -0.051    29.230     8.868
    84   6 C        3.165     0.077    25.956     8.326
    85   6 C        2.953     0.018    27.596     8.616
    86   6 C        3.165     0.077    25.955     8.326
    87   6 C        3.019    -0.051    29.231     8.869
    88   6 C        3.020    -0.052    29.265     8.874
    89   6 C        3.150     0.075    26.055     8.349
    90   7 N        2.632    -0.176    24.826     7.400
    91   6 C        2.901    -0.048    29.196     8.860
    92   6 C        3.150     0.075    26.057     8.349
    93   6 C        3.020    -0.052    29.264     8.874
    94   6 C        3.019    -0.051    29.234     8.869
    95   6 C        3.166     0.077    25.953     8.325
    96   7 N        2.632    -0.176    24.826     7.400
    97   6 C        2.953     0.018    27.603     8.617
    98   6 C        3.165     0.077    25.953     8.325
    99   6 C        3.019    -0.050    29.229     8.868
   100   6 C        3.020    -0.052    29.263     8.874
   101   6 C        3.150     0.075    26.056     8.349
   102   7 N        2.632    -0.176    24.828     7.400
   103   6 C        2.901    -0.048    29.196     8.860
   104   6 C        3.150     0.075    26.056     8.349
   105   7 N        2.632    -0.176    24.826     7.400
   106   1 H        0.926     0.034     2.531     2.488
   107   1 H        0.926     0.035     2.513     2.479
   108   1 H        0.926     0.035     2.514     2.479
   109   1 H        0.926     0.034     2.531     2.488
   110   1 H        0.925     0.050     2.322     2.383
   111   1 H        0.926     0.034     2.530     2.488
   112   1 H        0.926     0.035     2.514     2.479
   113   1 H        0.926     0.035     2.517     2.481
   114   1 H        0.926     0.034     2.531     2.488
   115   1 H        0.925     0.050     2.322     2.383
   116  30 Zn       3.039     0.246   122.282    21.601
   117   6 C        3.020    -0.052    29.263     8.873
   118   6 C        3.019    -0.050    29.228     8.868
   119   6 C        3.165     0.077    25.954     8.326
   120   6 C        2.953     0.018    27.600     8.617
   121   6 C        3.166     0.077    25.953     8.325
   122   6 C        3.019    -0.051    29.233     8.869
   123   6 C        3.020    -0.052    29.264     8.874
   124   6 C        3.150     0.075    26.056     8.349
   125   7 N        2.632    -0.176    24.825     7.400
   126   6 C        2.901    -0.048    29.194     8.859
   127   6 C        3.150     0.075    26.057     8.349
   128   6 C        3.020    -0.052    29.264     8.874
   129   6 C        3.019    -0.051    29.230     8.869
   130   6 C        3.165     0.077    25.955     8.326
   131   7 N        2.632    -0.176    24.827     7.400
   132   6 C        2.953     0.018    27.600     8.617
   133   6 C        3.165     0.077    25.956     8.326
   134   6 C        3.019    -0.051    29.233     8.869
   135   6 C        3.020    -0.052    29.264     8.874
   136   6 C        3.150     0.075    26.057     8.350
   137   7 N        2.633    -0.176    24.824     7.400
   138   6 C        2.901    -0.048    29.194     8.859
   139   6 C        3.150     0.075    26.056     8.349
   140   7 N        2.632    -0.176    24.828     7.400
   141   1 H        0.926     0.034     2.530     2.488
   142   1 H        0.926     0.035     2.517     2.481
   143   1 H        0.926     0.035     2.513     2.479
   144   1 H        0.926     0.034     2.530     2.487
   145   1 H        0.925     0.050     2.321     2.383
   146   1 H        0.926     0.034     2.531     2.488
   147   1 H        0.926     0.035     2.516     2.481
   148   1 H        0.926     0.035     2.514     2.479
   149   1 H        0.926     0.034     2.530     2.488
   150   1 H        0.925     0.050     2.321     2.383
   151  30 Zn       3.039     0.246   122.281    21.601
   152   6 C        3.020    -0.052    29.265     8.874
   153   6 C        3.019    -0.051    29.234     8.869
   154   6 C        3.165     0.077    25.954     8.326
   155   6 C        2.953     0.018    27.602     8.617
   156   6 C        3.165     0.077    25.956     8.326
   157   6 C        3.019    -0.051    29.231     8.869
   158   6 C        3.020    -0.052    29.264     8.874
   159   6 C        3.150     0.075    26.058     8.350
   160   7 N        2.632    -0.176    24.828     7.400
   161   6 C        2.901    -0.048    29.195     8.859
   162   6 C        3.150     0.075    26.057     8.349
   163   6 C        3.020    -0.052    29.266     8.874
   164   6 C        3.019    -0.050    29.226     8.868
   165   6 C        3.164     0.077    25.958     8.327
   166   7 N        2.633    -0.176    24.826     7.400
   167   6 C        2.953     0.019    27.594     8.616
   168   6 C        3.165     0.077    25.958     8.326
   169   6 C        3.019    -0.051    29.235     8.869
   170   6 C        3.020    -0.052    29.266     8.874
   171   6 C        3.150     0.075    26.057     8.349
   172   7 N        2.633    -0.176    24.826     7.400
   173   6 C        2.901    -0.048    29.194     8.859
   174   6 C        3.150     0.075    26.057     8.349
   175   7 N        2.632    -0.176    24.827     7.400
   176   1 H        0.926     0.034     2.531     2.488
   177   1 H        0.926     0.035     2.515     2.480
   178   1 H        0.926     0.035     2.517     2.481
   179   1 H        0.926     0.034     2.531     2.488
   180   1 H        0.925     0.050     2.322     2.383
   181   1 H        0.926     0.034     2.531     2.488
   182   1 H        0.926     0.035     2.518     2.481
   183   1 H        0.926     0.035     2.511     2.478
   184   1 H        0.926     0.034     2.531     2.488
   185   1 H        0.925     0.050     2.322     2.383

 Mol. C6AA /au·bohr⁶  :     652321.034824
 Mol. C8AA /au·bohr⁸  :   18562983.064177
 Mol. α(0) /au        :       1320.615367


Wiberg/Mayer (AO) data.
largest (>0.10) Wiberg bond orders for each atom

 ---------------------------------------------------------------------------
     #   Z sym  total        # sym  WBO       # sym  WBO       # sym  WBO
 ---------------------------------------------------------------------------
     1  30 Zn   2.081 --    22 N    0.492    16 N    0.492    10 N    0.489
                            25 N    0.489
     2   6 C    3.954 --     3 C    1.651    24 C    1.171    26 H    0.972
     3   6 C    3.958 --     2 C    1.651     4 C    1.178    27 H    0.969
     4   6 C    3.918 --    25 N    1.284     5 C    1.259     3 C    1.178
     5   6 C    3.941 --     6 C    1.259     4 C    1.259    73 C    1.168
     6   6 C    3.918 --    10 N    1.284     5 C    1.259     7 C    1.178
     7   6 C    3.958 --     8 C    1.651     6 C    1.178    28 H    0.969
     8   6 C    3.954 --     7 C    1.651     9 C    1.171    29 H    0.972
     9   6 C    3.925 --    11 C    1.357    10 N    1.249     8 C    1.171
    10   7 N    3.467 --     6 C    1.284     9 C    1.249     1 Zn   0.489
    11   6 C    3.932 --     9 C    1.357    12 C    1.355    30 H    0.964
    12   6 C    3.930 --    11 C    1.355    16 N    1.261    13 C    1.163
    13   6 C    3.957 --    14 C    1.666    12 C    1.163    31 H    0.972
    14   6 C    3.955 --    13 C    1.666    15 C    1.162    32 H    0.972
    15   6 C    3.932 --    17 C    1.354    16 N    1.263    14 C    1.162
    16   7 N    3.465 --    15 C    1.263    12 C    1.261     1 Zn   0.492
    17   6 C    3.927 --    18 C    1.354    15 C    1.354    33 H    0.964
    18   6 C    3.932 --    17 C    1.354    22 N    1.263    19 C    1.162
    19   6 C    3.955 --    20 C    1.666    18 C    1.162    34 H    0.972
    20   6 C    3.957 --    19 C    1.666    21 C    1.163    35 H    0.972
    21   6 C    3.930 --    23 C    1.355    22 N    1.261    20 C    1.163
    22   7 N    3.465 --    18 C    1.263    21 C    1.261     1 Zn   0.492
    23   6 C    3.932 --    24 C    1.357    21 C    1.355    36 H    0.964
    24   6 C    3.925 --    23 C    1.357    25 N    1.248     2 C    1.171
    25   7 N    3.467 --     4 C    1.284    24 C    1.248     1 Zn   0.489
    26   1 H    0.998 --     2 C    0.972
    27   1 H    0.998 --     3 C    0.969
    28   1 H    0.998 --     7 C    0.969
    29   1 H    0.998 --     8 C    0.972
    30   1 H    0.996 --    11 C    0.964
    31   1 H    0.998 --    13 C    0.972
    32   1 H    0.998 --    14 C    0.972
    33   1 H    0.996 --    17 C    0.964
    34   1 H    0.998 --    19 C    0.972
    35   1 H    0.998 --    20 C    0.972
    36   1 H    0.996 --    23 C    0.964
    37  30 Zn   2.081 --    58 N    0.492    52 N    0.492    46 N    0.489
                            61 N    0.489
    38   6 C    3.954 --    39 C    1.651    60 C    1.171    62 H    0.972
    39   6 C    3.958 --    38 C    1.651    40 C    1.178    63 H    0.968
    40   6 C    3.917 --    61 N    1.284    41 C    1.258    39 C    1.178
    41   6 C    3.941 --    40 C    1.258    42 C    1.258    80 C    1.169
    42   6 C    3.917 --    46 N    1.285    41 C    1.258    43 C    1.178
    43   6 C    3.958 --    44 C    1.651    42 C    1.178    64 H    0.968
    44   6 C    3.954 --    43 C    1.651    45 C    1.171    65 H    0.972
    45   6 C    3.925 --    47 C    1.357    46 N    1.248    44 C    1.171
    46   7 N    3.467 --    42 C    1.285    45 C    1.248    37 Zn   0.489
    47   6 C    3.932 --    45 C    1.357    48 C    1.355    66 H    0.964
    48   6 C    3.930 --    47 C    1.355    52 N    1.261    49 C    1.163
    49   6 C    3.957 --    50 C    1.666    48 C    1.163    67 H    0.972
    50   6 C    3.955 --    49 C    1.666    51 C    1.162    68 H    0.972
    51   6 C    3.932 --    53 C    1.354    52 N    1.263    50 C    1.162
    52   7 N    3.465 --    51 C    1.263    48 C    1.261    37 Zn   0.492
    53   6 C    3.927 --    54 C    1.354    51 C    1.354    69 H    0.964
    54   6 C    3.932 --    53 C    1.354    58 N    1.263    55 C    1.162
    55   6 C    3.955 --    56 C    1.666    54 C    1.162    70 H    0.972
    56   6 C    3.957 --    55 C    1.666    57 C    1.163    71 H    0.972
    57   6 C    3.930 --    59 C    1.355    58 N    1.261    56 C    1.163
    58   7 N    3.465 --    54 C    1.263    57 C    1.261    37 Zn   0.492
    59   6 C    3.932 --    60 C    1.357    57 C    1.355    72 H    0.964
    60   6 C    3.925 --    59 C    1.357    61 N    1.248    38 C    1.171
    61   7 N    3.467 --    40 C    1.284    60 C    1.248    37 Zn   0.489
    62   1 H    0.998 --    38 C    0.972
    63   1 H    0.998 --    39 C    0.968
    64   1 H    0.998 --    43 C    0.968
    65   1 H    0.998 --    44 C    0.972
    66   1 H    0.996 --    47 C    0.964
    67   1 H    0.998 --    49 C    0.972
    68   1 H    0.998 --    50 C    0.972
    69   1 H    0.996 --    53 C    0.964
    70   1 H    0.998 --    55 C    0.972
    71   1 H    0.998 --    56 C    0.972
    72   1 H    0.996 --    59 C    0.964
    73   6 C    3.923 --    74 C    2.579     5 C    1.168
    74   6 C    3.926 --    73 C    2.579    85 C    1.169
    75   6 C    3.923 --    76 C    2.577    97 C    1.168
    76   6 C    3.923 --    75 C    2.577   120 C    1.169
    77   6 C    3.923 --    78 C    2.575   132 C    1.170
    78   6 C    3.923 --    77 C    2.575   155 C    1.170
    79   6 C    3.926 --    80 C    2.578   167 C    1.170
    80   6 C    3.924 --    79 C    2.578    41 C    1.169
    81  30 Zn   2.077 --    96 N    0.489   105 N    0.489   102 N    0.489
                            90 N    0.489
    82   6 C    3.955 --    83 C    1.650   104 C    1.172   106 H    0.972
    83   6 C    3.956 --    82 C    1.650    84 C    1.179   107 H    0.969
    84   6 C    3.918 --   105 N    1.285    85 C    1.257    83 C    1.179
    85   6 C    3.931 --    84 C    1.257    86 C    1.257    74 C    1.169
    86   6 C    3.918 --    90 N    1.285    85 C    1.257    87 C    1.179
    87   6 C    3.956 --    88 C    1.650    86 C    1.179   108 H    0.969
    88   6 C    3.955 --    87 C    1.650    89 C    1.172   109 H    0.972
    89   6 C    3.924 --    91 C    1.356    90 N    1.247    88 C    1.172
    90   7 N    3.461 --    86 C    1.285    89 C    1.247    81 Zn   0.489
    91   6 C    3.926 --    92 C    1.356    89 C    1.356   110 H    0.964
    92   6 C    3.924 --    91 C    1.356    96 N    1.246    93 C    1.172
    93   6 C    3.954 --    94 C    1.650    92 C    1.172   111 H    0.972
    94   6 C    3.956 --    93 C    1.650    95 C    1.179   112 H    0.969
    95   6 C    3.918 --    96 N    1.285    97 C    1.257    94 C    1.179
    96   7 N    3.461 --    95 C    1.285    92 C    1.246    81 Zn   0.489
    97   6 C    3.931 --    98 C    1.257    95 C    1.257    75 C    1.168
    98   6 C    3.918 --   102 N    1.285    97 C    1.257    99 C    1.179
    99   6 C    3.956 --   100 C    1.650    98 C    1.179   113 H    0.969
   100   6 C    3.954 --    99 C    1.650   101 C    1.172   114 H    0.972
   101   6 C    3.924 --   103 C    1.356   102 N    1.246   100 C    1.172
   102   7 N    3.461 --    98 C    1.285   101 C    1.246    81 Zn   0.489
   103   6 C    3.926 --   101 C    1.356   104 C    1.356   115 H    0.964
   104   6 C    3.924 --   103 C    1.356   105 N    1.246    82 C    1.172
   105   7 N    3.461 --    84 C    1.285   104 C    1.246    81 Zn   0.489
   106   1 H    0.998 --    82 C    0.972
   107   1 H    0.998 --    83 C    0.969
   108   1 H    0.998 --    87 C    0.969
   109   1 H    0.998 --    88 C    0.972
   110   1 H    0.996 --    91 C    0.964
   111   1 H    0.998 --    93 C    0.972
   112   1 H    0.998 --    94 C    0.969
   113   1 H    0.998 --    99 C    0.969
   114   1 H    0.998 --   100 C    0.972
   115   1 H    0.996 --   103 C    0.964
   116  30 Zn   2.077 --   137 N    0.489   125 N    0.489   140 N    0.489
                           131 N    0.489
   117   6 C    3.954 --   118 C    1.650   139 C    1.172   141 H    0.972
   118   6 C    3.956 --   117 C    1.650   119 C    1.179   142 H    0.969
   119   6 C    3.918 --   140 N    1.285   120 C    1.257   118 C    1.179
   120   6 C    3.930 --   119 C    1.257   121 C    1.257    76 C    1.169
   121   6 C    3.918 --   125 N    1.285   120 C    1.257   122 C    1.179
   122   6 C    3.956 --   123 C    1.649   121 C    1.179   143 H    0.969
   123   6 C    3.954 --   122 C    1.649   124 C    1.172   144 H    0.972
   124   6 C    3.924 --   126 C    1.356   125 N    1.246   123 C    1.172
   125   7 N    3.461 --   121 C    1.285   124 C    1.246   116 Zn   0.489
   126   6 C    3.926 --   127 C    1.356   124 C    1.356   145 H    0.964
   127   6 C    3.924 --   126 C    1.356   131 N    1.246   128 C    1.172
   128   6 C    3.954 --   129 C    1.649   127 C    1.172   146 H    0.972
   129   6 C    3.956 --   128 C    1.649   130 C    1.179   147 H    0.969
   130   6 C    3.918 --   131 N    1.286   132 C    1.256   129 C    1.179
   131   7 N    3.461 --   130 C    1.286   127 C    1.246   116 Zn   0.489
   132   6 C    3.931 --   130 C    1.256   133 C    1.256    77 C    1.170
   133   6 C    3.918 --   137 N    1.285   132 C    1.256   134 C    1.179
   134   6 C    3.956 --   135 C    1.649   133 C    1.179   148 H    0.969
   135   6 C    3.954 --   134 C    1.649   136 C    1.172   149 H    0.972
   136   6 C    3.924 --   138 C    1.356   137 N    1.246   135 C    1.172
   137   7 N    3.461 --   133 C    1.285   136 C    1.246   116 Zn   0.489
   138   6 C    3.926 --   136 C    1.356   139 C    1.356   150 H    0.964
   139   6 C    3.924 --   138 C    1.356   140 N    1.246   117 C    1.172
   140   7 N    3.461 --   119 C    1.285   139 C    1.246   116 Zn   0.489
   141   1 H    0.998 --   117 C    0.972
   142   1 H    0.998 --   118 C    0.969
   143   1 H    0.998 --   122 C    0.969
   144   1 H    0.998 --   123 C    0.972
   145   1 H    0.996 --   126 C    0.964
   146   1 H    0.998 --   128 C    0.972
   147   1 H    0.998 --   129 C    0.969
   148   1 H    0.998 --   134 C    0.969
   149   1 H    0.998 --   135 C    0.972
   150   1 H    0.996 --   138 C    0.964
   151  30 Zn   2.077 --   166 N    0.489   160 N    0.489   172 N    0.489
                           175 N    0.489
   152   6 C    3.954 --   153 C    1.649   174 C    1.172   176 H    0.972
   153   6 C    3.956 --   152 C    1.649   154 C    1.179   177 H    0.969
   154   6 C    3.918 --   175 N    1.286   155 C    1.256   153 C    1.179
   155   6 C    3.931 --   156 C    1.256   154 C    1.256    78 C    1.170
   156   6 C    3.918 --   160 N    1.286   155 C    1.256   157 C    1.179
   157   6 C    3.956 --   158 C    1.649   156 C    1.179   178 H    0.969
   158   6 C    3.954 --   157 C    1.649   159 C    1.172   179 H    0.972
   159   6 C    3.924 --   161 C    1.356   160 N    1.246   158 C    1.172
   160   7 N    3.461 --   156 C    1.286   159 C    1.246   151 Zn   0.489
   161   6 C    3.926 --   159 C    1.356   162 C    1.356   180 H    0.964
   162   6 C    3.924 --   161 C    1.356   166 N    1.246   163 C    1.172
   163   6 C    3.954 --   164 C    1.649   162 C    1.172   181 H    0.972
   164   6 C    3.956 --   163 C    1.649   165 C    1.180   182 H    0.968
   165   6 C    3.918 --   166 N    1.285   167 C    1.257   164 C    1.180
   166   7 N    3.461 --   165 C    1.285   162 C    1.246   151 Zn   0.489
   167   6 C    3.931 --   165 C    1.257   168 C    1.256    79 C    1.170
   168   6 C    3.918 --   172 N    1.285   167 C    1.256   169 C    1.180
   169   6 C    3.956 --   170 C    1.649   168 C    1.180   183 H    0.968
   170   6 C    3.954 --   169 C    1.649   171 C    1.173   184 H    0.972
   171   6 C    3.924 --   173 C    1.356   172 N    1.246   170 C    1.173
   172   7 N    3.461 --   168 C    1.285   171 C    1.246   151 Zn   0.489
   173   6 C    3.926 --   174 C    1.356   171 C    1.356   185 H    0.964
   174   6 C    3.924 --   173 C    1.356   175 N    1.246   152 C    1.172
   175   7 N    3.461 --   154 C    1.286   174 C    1.246   151 Zn   0.489
   176   1 H    0.998 --   152 C    0.972
   177   1 H    0.998 --   153 C    0.969
   178   1 H    0.998 --   157 C    0.969
   179   1 H    0.998 --   158 C    0.972
   180   1 H    0.996 --   161 C    0.964
   181   1 H    0.998 --   163 C    0.972
   182   1 H    0.998 --   164 C    0.968
   183   1 H    0.998 --   169 C    0.968
   184   1 H    0.998 --   170 C    0.972
   185   1 H    0.996 --   173 C    0.964
 ---------------------------------------------------------------------------

Topologies differ in total number of bonds
Writing topology from bond orders to xtbtopo.mol

molecular dipole:
                 x           y           z       tot (Debye)
 q only:       -0.003       0.002       0.004
   full:       -0.003       0.004       0.010       0.029
molecular quadrupole (traceless):
                xx          xy          yy          xz          yz          zz
 q only:       44.680      -0.463      -6.755       0.065      -1.786     -37.925
  q+dip:       90.044      -0.533      -5.067       0.590      -4.373     -84.977
   full:       57.957      -0.272      -7.779       0.785      -2.322     -50.179


           -------------------------------------------------
          | TOTAL ENERGY             -319.313070763997 Eh   |
          | GRADIENT NORM               0.000407449745 Eh/α |
          | HOMO-LUMO GAP               0.940540332952 eV   |
           -------------------------------------------------

------------------------------------------------------------------------
 * finished run on 2021/11/20 at 15:56:11.773     
------------------------------------------------------------------------
 total:
 * wall-time:     0 d,  0 h,  0 min,  1.713 sec
 *  cpu-time:     0 d,  0 h,  0 min,  1.713 sec
 * ratio c/w:     1.000 speedup
 SCF:
 * wall-time:     0 d,  0 h,  0 min,  1.616 sec
 *  cpu-time:     0 d,  0 h,  0 min,  1.616 sec
 * ratio c/w:     1.000 speedup

