      -----------------------------------------------------------      
     |                   =====================                   |     
     |                           x T B                           |     
     |                   =====================                   |     
     |                         S. Grimme                         |     
     |          Mulliken Center for Theoretical Chemistry        |     
     |                    University of Bonn                     |     
      -----------------------------------------------------------      

   * xtb version 6.4.1 (bd6e46d) compiled by 'conda@4901f00b25ba' on 2021-06-10

   xtb is free software: you can redistribute it and/or modify it under
   the terms of the GNU Lesser General Public License as published by
   the Free Software Foundation, either version 3 of the License, or
   (at your option) any later version.
   
   xtb is distributed in the hope that it will be useful,
   but WITHOUT ANY WARRANTY; without even the implied warranty of
   MERCHANTABILITY or FITNESS FOR A PARTICULAR PURPOSE.  See the
   GNU Lesser General Public License for more details.
   
   Cite this work as:
   * C. Bannwarth, E. Caldeweyher, S. Ehlert, A. Hansen, P. Pracht,
     J. Seibert, S. Spicher, S. Grimme, WIREs Comput. Mol. Sci., 2020, 11,
     e01493. DOI: 10.1002/wcms.1493
   
   for GFN2-xTB:
   * C. Bannwarth, S. Ehlert and S. Grimme., J. Chem. Theory Comput., 2019,
     15, 1652-1671. DOI: 10.1021/acs.jctc.8b01176
   for GFN1-xTB:
   * S. Grimme, C. Bannwarth, P. Shushkov, J. Chem. Theory Comput., 2017,
     13, 1989-2009. DOI: 10.1021/acs.jctc.7b00118
   for GFN0-xTB:
   * P. Pracht, E. Caldeweyher, S. Ehlert, S. Grimme, ChemRxiv, 2019, preprint.
     DOI: 10.26434/chemrxiv.8326202.v1
   for GFN-FF:
   * S. Spicher and S. Grimme, Angew. Chem. Int. Ed., 2020, 59, 15665-15673.
     DOI: 10.1002/anie.202004239
   
   for DFT-D4:
   * E. Caldeweyher, C. Bannwarth and S. Grimme, J. Chem. Phys., 2017,
     147, 034112. DOI: 10.1063/1.4993215
   * E. Caldeweyher, S. Ehlert, A. Hansen, H. Neugebauer, S. Spicher,
     C. Bannwarth and S. Grimme, J. Chem. Phys., 2019, 150, 154122.
     DOI: 10.1063/1.5090222
   * E. Caldeweyher, J.-M. Mewes, S. Ehlert and S. Grimme, Phys. Chem. Chem. Phys.
     2020, 22, 8499-8512. DOI: 10.1039/D0CP00502A
   
   for sTDA-xTB:
   * S. Grimme and C. Bannwarth, J. Chem. Phys., 2016, 145, 054103.
     DOI: 10.1063/1.4959605
   
   in the mass-spec context:
   * V. Asgeirsson, C. Bauer and S. Grimme, Chem. Sci., 2017, 8, 4879.
     DOI: 10.1039/c7sc00601b
   * J. Koopman and S. Grimme, ACS Omega 2019, 4, 12, 15120-15133.
     DOI: 10.1021/acsomega.9b02011
   
   for metadynamics refer to:
   * S. Grimme, J. Chem. Theory Comput., 2019, 155, 2847-2862
     DOI: 10.1021/acs.jctc.9b00143
   
   for SPH calculations refer to:
   * S. Spicher and S. Grimme, J. Chem. Theory Comput., 2021, 17, 1701-1714
     DOI: 10.1021/acs.jctc.0c01306
   
   with help from (in alphabetical order)
   P. Atkinson, C. Bannwarth, F. Bohle, G. Brandenburg, E. Caldeweyher
   M. Checinski, S. Dohm, S. Ehlert, S. Ehrlich, I. Gerasimov, J. Koopman
   C. Lavigne, S. Lehtola, F. März, M. Müller, F. Musil, H. Neugebauer
   J. Pisarek, C. Plett, P. Pracht, J. Seibert, P. Shushkov, S. Spicher
   M. Stahn, M. Steiner, T. Strunk, J. Stückrath, T. Rose, and J. Unsleber
   
 * started run on 2021/11/21 at 21:34:11.047     

           -------------------------------------------------
          |                Calculation Setup                |
           -------------------------------------------------

          program call               : /home/jeff/miniconda3/bin/xtb input_structure_1.xyz --gfn 2 --ohess normal --parallel 1 --etemp 300 --chrg 0 --uhf 0 -I det_control.in
          hostname                   : jelfscompute1
          coordinate file            : input_structure_1.xyz
          omp threads                :                     1
          number of atoms            :                   324
          number of electrons        :                  1130
          charge                     :                     0
          spin                       :                   0.0
          first test random number   :      0.80357478497673

   ID    Z sym.   atoms
    1   28 Ni     1, 37, 115, 150, 185, 220, 255, 290
    2    6 C      2-9, 11-15, 17-21, 23, 24, 38-45, 47-51, 53-57, 59, 60,
                  73-114, 116-123, 125-129, 131-135, 137, 138, 151-158,
                  160-164, 166-170, 172, 173, 186-193, 195-199, 201-205, 207,
                  208, 221-228, 230-234, 236-240, 242, 243, 256-263, 265-269,
                  271-275, 277, 278, 291-298, 300-304, 306-310, 312, 313
    3    7 N      10, 16, 22, 25, 46, 52, 58, 61, 124, 130, 136, 139, 159,
                  165, 171, 174, 194, 200, 206, 209, 229, 235, 241, 244, 264,
                  270, 276, 279, 299, 305, 311, 314
    4    1 H      26-36, 62-72, 140-149, 175-184, 210-219, 245-254, 280-289,
                  315-324

molecular fragmentation (1/2 indicates fragments):
111111111111111111111111111111111111222222222222222222222222222222222222
222222222222222222222222222222222222222222222222222222222222222222222222
222222222222222222222222222222222222222222222222222222222222222222222222
222222222222222222222222222222222222222222222222222222222222222222222222
222222222222222222222222222222222222
# atoms in fragment 1/2:    36   288
 fragment masses (1/2) :      366.02     3060.56
CMA distance (Bohr)    : 119.340
constraining FC (au)   :  0.0500

           -------------------------------------------------
          |                 G F N 2 - x T B                 |
           -------------------------------------------------

        Reference                      10.1021/acs.jctc.8b01176
      * Hamiltonian:
        H0-scaling (s, p, d)           1.850000    2.230000    2.230000
        zeta-weighting                 0.500000
      * Dispersion:
        s8                             2.700000
        a1                             0.520000
        a2                             5.000000
        s9                             5.000000
      * Repulsion:
        kExp                           1.500000    1.000000
        rExp                           1.000000
      * Coulomb:
        alpha                          2.000000
        third order                    shell-resolved
        anisotropic                    true
        a3                             3.000000
        a5                             4.000000
        cn-shift                       1.200000
        cn-exp                         4.000000
        max-rad                        5.000000


          ...................................................
          :                      SETUP                      :
          :.................................................:
          :  # basis functions                1098          :
          :  # atomic orbitals                1090          :
          :  # shells                          574          :
          :  # electrons                      1130          :
          :  max. iterations                   250          :
          :  Hamiltonian                  GFN2-xTB          :
          :  restarted?                      false          :
          :  GBSA solvation                  false          :
          :  PC potential                    false          :
          :  electronic temp.          300.0000000     K    :
          :  accuracy                    1.0000000          :
          :  -> integral cutoff          0.2500000E+02      :
          :  -> integral neglect         0.1000000E-07      :
          :  -> SCF convergence          0.1000000E-05 Eh   :
          :  -> wf. convergence          0.1000000E-03 e    :
          :  Broyden damping             0.4000000          :
          ...................................................

 iter      E             dE          RMSdq      gap      omega  full diag
   1   -613.7552379 -0.613755E+03  0.918E+00    0.66       0.0  T
   2   -594.6095534  0.191457E+02  0.720E+00    0.01       1.0  T
   3   -248.4530217  0.346157E+03  0.142E+01    0.05       1.0  T
   4    -22.2153229  0.226238E+03  0.166E+01    0.01       1.0  T
   5   -392.4512594 -0.370236E+03  0.934E+00    0.01       1.0  T
   6   -147.9155837  0.244536E+03  0.131E+01    0.02       1.0  T
   7   -414.0963402 -0.266181E+03  0.887E+00    0.04       1.0  T
   8   -597.8035465 -0.183707E+03  0.538E+00    0.02       1.0  T
   9   -561.1112782  0.366923E+02  0.491E+00    0.06       1.0  T
  10   -600.1886843 -0.390774E+02  0.459E+00    0.03       1.0  T
  11   -612.7588464 -0.125702E+02  0.300E+00    0.07       1.0  T
  12   -595.0562809  0.177026E+02  0.574E+00    0.04       1.0  T
  13   -601.2190354 -0.616275E+01  0.458E+00    0.01       1.0  T
  14   -604.3987079 -0.317967E+01  0.462E+00    0.06       1.0  T
  15   -597.4017392  0.699697E+01  0.488E+00    0.03       1.0  T
  16   -595.5251942  0.187654E+01  0.551E+00    0.01       1.0  T
  17   -595.5178644  0.732986E-02  0.551E+00    0.01       1.0  T
  18   -596.7248942 -0.120703E+01  0.529E+00    0.05       1.0  T
  19   -599.3160842 -0.259119E+01  0.516E+00    0.05       1.0  T
  20   -599.0779104  0.238174E+00  0.518E+00    0.02       1.0  T
  21   -598.8187529  0.259158E+00  0.517E+00    0.01       1.0  T
  22   -599.2543973 -0.435644E+00  0.518E+00    0.01       1.0  T
  23   -599.3770803 -0.122683E+00  0.517E+00    0.01       1.0  T
  24   -598.8154242  0.561656E+00  0.521E+00    0.01       1.0  T
  25   -595.8513118  0.296411E+01  0.550E+00    0.01       1.0  T
  26   -595.6896023  0.161709E+00  0.555E+00    0.00       1.0  T
  27   -597.8587734 -0.216917E+01  0.541E+00    0.03       1.0  T
  28   -585.1913387  0.126674E+02  0.735E+00    0.10       1.0  T
  29   -583.3964091  0.179493E+01  0.730E+00    0.06       1.0  T
  30   -583.3604901  0.359190E-01  0.730E+00    0.06       1.0  T
  31   -583.2137537  0.146736E+00  0.731E+00    0.06       1.0  T
  32   -586.0581961 -0.284444E+01  0.715E+00    0.02       1.0  T
  33   -599.0807203 -0.130225E+02  0.599E+00    0.01       1.0  T
  34   -595.4854341  0.359529E+01  0.627E+00    0.02       1.0  T
  35   -596.2207032 -0.735269E+00  0.646E+00    0.03       1.0  T
  36   -596.4488444 -0.228141E+00  0.641E+00    0.03       1.0  T
  37   -598.4527576 -0.200391E+01  0.617E+00    0.05       1.0  T
  38   -594.9043761  0.354838E+01  0.644E+00    0.01       1.0  T
  39   -592.4735623  0.243081E+01  0.677E+00    0.02       1.0  T
  40   -589.3900987  0.308346E+01  0.717E+00    0.03       1.0  T
  41   -590.6050715 -0.121497E+01  0.711E+00    0.07       1.0  T
  42   -590.9894989 -0.384427E+00  0.720E+00    0.03       1.0  T
  43   -594.5550846 -0.356559E+01  0.697E+00    0.02       1.0  T
  44   -594.2579072  0.297177E+00  0.689E+00    0.02       1.0  T
  45   -593.5981139  0.659793E+00  0.714E+00    0.04       1.0  T
  46   -592.8724804  0.725634E+00  0.724E+00    0.04       1.0  T
  47   -593.1519171 -0.279437E+00  0.729E+00    0.05       1.0  T
  48   -591.2107291  0.194119E+01  0.747E+00    0.02       1.0  T
  49   -591.2773150 -0.665858E-01  0.740E+00    0.00       1.0  T
  50   -590.7673396  0.509975E+00  0.738E+00    0.01       1.0  T
  51   -590.3453803  0.421959E+00  0.739E+00    0.02       1.0  T
  52   -590.3168320  0.285482E-01  0.725E+00    0.01       1.0  T
  53   -591.4985053 -0.118167E+01  0.710E+00    0.02       1.0  T
  54   -592.6453817 -0.114688E+01  0.694E+00    0.03       1.0  T
  55   -598.6009544 -0.595557E+01  0.677E+00    0.06       1.0  T
  56   -595.8260912  0.277486E+01  0.676E+00    0.01       1.0  T
  57   -595.8909765 -0.648853E-01  0.675E+00    0.01       1.0  T
  58   -596.8480704 -0.957094E+00  0.669E+00    0.03       1.0  T
  59   -596.9670759 -0.119005E+00  0.667E+00    0.03       1.0  T
  60   -597.4598648 -0.492789E+00  0.660E+00    0.02       1.0  T
  61   -597.3657393  0.941254E-01  0.661E+00    0.02       1.0  T
  62   -598.0901473 -0.724408E+00  0.653E+00    0.01       1.0  T
  63   -596.1023529  0.198779E+01  0.636E+00    0.01       1.0  T
  64   -597.0044376 -0.902085E+00  0.610E+00    0.00       1.0  T
  65   -598.8516332 -0.184720E+01  0.589E+00    0.03       1.0  T
  66   -598.7865566  0.650766E-01  0.590E+00    0.03       1.0  T
  67   -598.7572454  0.293112E-01  0.590E+00    0.03       1.0  T
  68   -599.1161317 -0.358886E+00  0.588E+00    0.02       1.0  T
  69   -599.9027016 -0.786570E+00  0.586E+00    0.01       1.0  T
  70   -597.7559340  0.214677E+01  0.623E+00    0.06       1.0  T
  71   -597.6196453  0.136289E+00  0.619E+00    0.07       1.0  T
  72   -597.2458189  0.373826E+00  0.638E+00    0.00       1.0  T
  73   -599.2230863 -0.197727E+01  0.608E+00    0.00       1.0  T
  74   -599.9048253 -0.681739E+00  0.604E+00    0.01       1.0  T
  75   -602.0698999 -0.216507E+01  0.552E+00    0.02       1.0  T
  76   -599.9732232  0.209668E+01  0.600E+00    0.01       1.0  T
  77   -599.5690929  0.404130E+00  0.598E+00    0.00       1.0  T
  78   -610.3171866 -0.107481E+02  0.344E+00    0.03       1.0  T
  79   -611.0986948 -0.781508E+00  0.329E+00    0.00       1.0  T
  80   -610.3594946  0.739200E+00  0.340E+00    0.01       1.0  T
  81   -611.5103683 -0.115087E+01  0.315E+00    0.02       1.0  T
  82   -611.8013507 -0.290982E+00  0.304E+00    0.04       1.0  T
  83   -608.7470461  0.305430E+01  0.409E+00    0.02       1.0  T
  84   -607.4168398  0.133021E+01  0.436E+00    0.03       1.0  T
  85   -607.5297263 -0.112887E+00  0.429E+00    0.02       1.0  T
  86   -607.2242160  0.305510E+00  0.433E+00    0.07       1.0  T
  87   -607.2209154  0.330057E-02  0.433E+00    0.07       1.0  T
  88   -607.7126591 -0.491744E+00  0.416E+00    0.07       1.0  T
  89   -608.5765952 -0.863936E+00  0.388E+00    0.01       1.0  T
  90   -608.1281648  0.448430E+00  0.400E+00    0.02       1.0  T
  91   -609.0987060 -0.970541E+00  0.373E+00    0.01       1.0  T
  92   -607.5625613  0.153614E+01  0.413E+00    0.08       1.0  T
  93   -610.0072934 -0.244473E+01  0.361E+00    0.02       1.0  T
  94   -605.5831372  0.442416E+01  0.478E+00    0.01       1.0  T
  95   -599.4392849  0.614385E+01  0.571E+00    0.06       1.0  T
  96   -602.5274348 -0.308815E+01  0.521E+00    0.02       1.0  T
  97   -613.7321059 -0.112047E+02  0.217E+00    0.07       1.0  T
  98   -613.7994042 -0.672983E-01  0.204E+00    0.06       1.0  T
  99   -614.0266747 -0.227270E+00  0.195E+00    0.14       1.0  T
 100   -614.6300749 -0.603400E+00  0.172E+00    0.03       1.0  T
 101   -615.1009002 -0.470825E+00  0.148E+00    0.05       1.0  T
 102   -614.7030872  0.397813E+00  0.162E+00    0.04       1.0  T
 103   -615.0201320 -0.317045E+00  0.142E+00    0.02       1.0  T
 104   -614.9114552  0.108677E+00  0.161E+00    0.02       1.0  T
 105   -614.4112610  0.500194E+00  0.193E+00    0.02       1.0  T
 106   -614.7621432 -0.350882E+00  0.164E+00    0.01       1.0  T
 107   -614.3679626  0.394181E+00  0.197E+00    0.01       1.0  T
 108   -613.7917675  0.576195E+00  0.210E+00    0.00       1.0  T
 109   -612.4144611  0.137731E+01  0.264E+00    0.04       1.0  T
 110   -612.4375002 -0.230391E-01  0.260E+00    0.05       1.0  T
 111   -612.4270727  0.104276E-01  0.260E+00    0.05       1.0  T
 112   -612.4512322 -0.241596E-01  0.258E+00    0.05       1.0  T
 113   -612.6439369 -0.192705E+00  0.235E+00    0.06       1.0  T
 114   -612.6451148 -0.117797E-02  0.235E+00    0.06       1.0  T
 115   -612.5872867  0.578282E-01  0.238E+00    0.06       1.0  T
 116   -612.2807194  0.306567E+00  0.257E+00    0.06       1.0  T
 117   -612.1547476  0.125972E+00  0.255E+00    0.06       1.0  T
 118   -612.3933689 -0.238621E+00  0.244E+00    0.06       1.0  T
 119   -612.2646698  0.128699E+00  0.250E+00    0.06       1.0  T
 120   -612.2379241  0.267457E-01  0.252E+00    0.06       1.0  T
 121   -612.3056807 -0.677566E-01  0.248E+00    0.06       1.0  T
 122   -612.5073590 -0.201678E+00  0.239E+00    0.06       1.0  T
 123   -613.2114358 -0.704077E+00  0.205E+00    0.00       1.0  T
 124   -613.2034530  0.798280E-02  0.206E+00    0.00       1.0  T
 125   -613.2166887 -0.132357E-01  0.202E+00    0.01       1.0  T
 126   -613.1308667  0.858220E-01  0.205E+00    0.00       1.0  T
 127   -613.4428848 -0.312018E+00  0.179E+00    0.06       1.0  T
 128   -612.8773339  0.565551E+00  0.187E+00    0.02       1.0  T
 129   -611.4850678  0.139227E+01  0.206E+00    0.02       1.0  T
 130   -610.8497621  0.635306E+00  0.207E+00    0.05       1.0  T
 131   -610.9537008 -0.103939E+00  0.207E+00    0.05       1.0  T
 132   -610.2531372  0.700564E+00  0.211E+00    0.01       1.0  T
 133   -610.2132326  0.399046E-01  0.212E+00    0.01       1.0  T
 134   -609.3876733  0.825559E+00  0.217E+00    0.04       1.0  T
 135   -609.3489341  0.387392E-01  0.218E+00    0.04       1.0  T
 136   -609.0706947  0.278239E+00  0.223E+00    0.04       1.0  T
 137   -608.6686457  0.402049E+00  0.227E+00    0.02       1.0  T
 138   -607.2882673  0.138038E+01  0.347E+00    0.03       1.0  T
 139   -603.8456375  0.344263E+01  0.465E+00    0.02       1.0  T
 140   -603.8401934  0.544419E-02  0.466E+00    0.02       1.0  T
 141   -603.7624099  0.777835E-01  0.465E+00    0.03       1.0  T
 142   -603.3321201  0.430290E+00  0.475E+00    0.05       1.0  T
 143   -599.9059087  0.342621E+01  0.540E+00    0.05       1.0  T
 144   -599.7009569  0.204952E+00  0.552E+00    0.05       1.0  T
 145   -600.0666887 -0.365732E+00  0.554E+00    0.00       1.0  T
 146   -600.1027548 -0.360661E-01  0.554E+00    0.00       1.0  T
 147   -600.2381107 -0.135356E+00  0.553E+00    0.01       1.0  T
 148   -600.2895187 -0.514080E-01  0.552E+00    0.02       1.0  T
 149   -600.2233285  0.661902E-01  0.551E+00    0.00       1.0  T
 150   -600.0553895  0.167939E+00  0.552E+00    0.01       1.0  T
 151   -600.1092386 -0.538491E-01  0.588E+00    0.01       1.0  T
 152   -601.2634033 -0.115416E+01  0.579E+00    0.03       1.0  T
 153   -599.7026424  0.156076E+01  0.592E+00    0.01       1.0  T
 154   -599.8652852 -0.162643E+00  0.599E+00    0.01       1.0  T
 155   -599.8425248  0.227604E-01  0.599E+00    0.01       1.0  T
 156   -599.8286165  0.139082E-01  0.603E+00    0.01       1.0  T
 157   -599.3850475  0.443569E+00  0.608E+00    0.01       1.0  T
 158   -599.4255767 -0.405292E-01  0.606E+00    0.00       1.0  T
 159   -600.2265666 -0.800990E+00  0.602E+00    0.01       1.0  T
 160   -600.2044230  0.221436E-01  0.602E+00    0.01       1.0  T
 161   -600.2303025 -0.258795E-01  0.602E+00    0.01       1.0  T
 162   -600.0726379  0.157665E+00  0.604E+00    0.00       1.0  T
 163   -600.0747572 -0.211924E-02  0.597E+00    0.00       1.0  T
 164   -600.9163831 -0.841626E+00  0.583E+00    0.01       1.0  T
 165   -601.5181243 -0.601741E+00  0.583E+00    0.04       1.0  T
 166   -601.0687385  0.449386E+00  0.587E+00    0.02       1.0  T
 167   -601.2435375 -0.174799E+00  0.582E+00    0.02       1.0  T
 168   -601.5079449 -0.264407E+00  0.569E+00    0.00       1.0  T
 169   -601.0181862  0.489759E+00  0.575E+00    0.01       1.0  T
 170   -602.1497484 -0.113156E+01  0.566E+00    0.04       1.0  T
 171   -601.6330285  0.516720E+00  0.568E+00    0.01       1.0  T
 172   -605.1408621 -0.350783E+01  0.506E+00    0.01       1.0  T
 173   -606.0233300 -0.882468E+00  0.485E+00    0.02       1.0  T
 174   -606.7063986 -0.683069E+00  0.465E+00    0.00       1.0  T
 175   -607.7025773 -0.996179E+00  0.444E+00    0.00       1.0  T
 176   -608.2530595 -0.550482E+00  0.434E+00    0.01       1.0  T
 177   -607.8503662  0.402693E+00  0.442E+00    0.01       1.0  T
 178   -608.3226346 -0.472268E+00  0.434E+00    0.01       1.0  T
 179   -608.2533280  0.693066E-01  0.436E+00    0.01       1.0  T
 180   -605.9112808  0.234205E+01  0.472E+00    0.01       1.0  T
 181   -610.2029016 -0.429162E+01  0.379E+00    0.02       1.0  T
 182   -611.0712521 -0.868351E+00  0.350E+00    0.01       1.0  T
 183   -612.0989407 -0.102769E+01  0.310E+00    0.01       1.0  T
 184   -611.3042031  0.794738E+00  0.343E+00    0.01       1.0  T
 185   -611.5175559 -0.213353E+00  0.334E+00    0.03       1.0  T
 186   -611.1583052  0.359251E+00  0.348E+00    0.02       1.0  T
 187   -610.9572131  0.201092E+00  0.357E+00    0.01       1.0  T
 188   -612.0530829 -0.109587E+01  0.315E+00    0.03       1.0  T
 189   -611.9443213  0.108762E+00  0.320E+00    0.03       1.0  T
 190   -611.7707994  0.173522E+00  0.326E+00    0.03       1.0  T
 191   -611.7635627  0.723675E-02  0.326E+00    0.03       1.0  T
 192   -611.8316551 -0.680925E-01  0.323E+00    0.03       1.0  T
 193   -612.1211152 -0.289460E+00  0.309E+00    0.03       1.0  T
 194   -611.2235748  0.897540E+00  0.341E+00    0.03       1.0  T
 195   -609.5623591  0.166122E+01  0.384E+00    0.05       1.0  T
 196   -608.2312875  0.133107E+01  0.422E+00    0.08       1.0  T
 197   -607.5818293  0.649458E+00  0.434E+00    0.08       1.0  T
 198   -607.7849287 -0.203099E+00  0.432E+00    0.07       1.0  T
 199   -607.3065371  0.478392E+00  0.440E+00    0.06       1.0  T
 200   -607.6471538 -0.340617E+00  0.434E+00    0.04       1.0  T
 201   -606.2909831  0.135617E+01  0.455E+00    0.03       1.0  T
 202   -606.5935567 -0.302574E+00  0.447E+00    0.04       1.0  T
 203   -606.1597708  0.433786E+00  0.453E+00    0.03       1.0  T
 204   -607.2118022 -0.105203E+01  0.432E+00    0.06       1.0  T
 205   -608.1691857 -0.957384E+00  0.407E+00    0.06       1.0  T
 206   -608.0755951  0.935906E-01  0.405E+00    0.04       1.0  T
 207   -604.1729761  0.390262E+01  0.489E+00    0.01       1.0  T
 208   -607.6347014 -0.346173E+01  0.420E+00    0.03       1.0  T
 209   -604.8841314  0.275057E+01  0.481E+00    0.03       1.0  T
 210   -607.4429631 -0.255883E+01  0.426E+00    0.03       1.0  T
 211   -604.9097845  0.253318E+01  0.481E+00    0.02       1.0  T
 212   -605.2085861 -0.298802E+00  0.474E+00    0.02       1.0  T
 213   -605.5590996 -0.350513E+00  0.465E+00    0.02       1.0  T
 214   -605.9556342 -0.396535E+00  0.455E+00    0.01       1.0  T
 215   -606.0614744 -0.105840E+00  0.452E+00    0.00       1.0  T
 216   -605.9101800  0.151294E+00  0.455E+00    0.01       1.0  T
 217   -605.7070253  0.203155E+00  0.460E+00    0.01       1.0  T
 218   -605.7452899 -0.382646E-01  0.459E+00    0.01       1.0  T
 219   -605.7361878  0.910203E-02  0.459E+00    0.01       1.0  T
 220   -605.5235315  0.212656E+00  0.464E+00    0.01       1.0  T
 221   -605.5811694 -0.576379E-01  0.463E+00    0.01       1.0  T
 222   -605.9017760 -0.320607E+00  0.454E+00    0.01       1.0  T
 223   -606.2867349 -0.384959E+00  0.447E+00    0.01       1.0  T
 224   -607.4577747 -0.117104E+01  0.424E+00    0.00       1.0  T
 225   -606.9543437  0.503431E+00  0.434E+00    0.00       1.0  T
 226   -607.2762130 -0.321869E+00  0.426E+00    0.01       1.0  T
 227   -608.1833203 -0.907107E+00  0.408E+00    0.00       1.0  T
 228   -608.6578662 -0.474546E+00  0.396E+00    0.01       1.0  T
 229   -607.7742061  0.883660E+00  0.414E+00    0.00       1.0  T
 230   -608.0192739 -0.245068E+00  0.413E+00    0.00       1.0  T
 231   -608.3771975 -0.357924E+00  0.406E+00    0.00       1.0  T
 232   -608.5275779 -0.150380E+00  0.403E+00    0.01       1.0  T
 233   -608.5357210 -0.814303E-02  0.402E+00    0.01       1.0  T
 234   -608.5540936 -0.183727E-01  0.400E+00    0.00       1.0  T
 235   -609.3001084 -0.746015E+00  0.372E+00    0.02       1.0  T
 236   -611.7158422 -0.241573E+01  0.286E+00    0.06       1.0  T
 237   -609.4176995  0.229814E+01  0.366E+00    0.01       1.0  T
 238   -612.0908527 -0.267315E+01  0.271E+00    0.05       1.0  T
 239   -610.2668530  0.182400E+01  0.339E+00    0.02       1.0  T
 240   -613.2574892 -0.299064E+01  0.228E+00    0.01       1.0  T
 241   -611.7311365  0.152635E+01  0.296E+00    0.01       1.0  T
 242   -613.7418954 -0.201076E+01  0.209E+00    0.05       1.0  T
 243   -613.4477838  0.294112E+00  0.228E+00    0.02       1.0  T
 244   -614.0780279 -0.630244E+00  0.194E+00    0.07       1.0  T
 245   -614.3860763 -0.308048E+00  0.175E+00    0.08       1.0  T
 246   -614.7627059 -0.376630E+00  0.146E+00    0.08       1.0  T
 247   -614.6854665  0.772393E-01  0.152E+00    0.08       1.0  T
 248   -614.7962679 -0.110801E+00  0.143E+00    0.07       1.0  T
 249   -614.7996677 -0.339982E-02  0.143E+00    0.07       1.0  T
 250   -615.0084645 -0.208797E+00  0.125E+00    0.03       1.0  T

   *** convergence criteria cannot be satisfied within 250 iterations ***

         #    Occupation            Energy/Eh            Energy/eV
      -------------------------------------------------------------
         1        2.0000           -0.6997734             -19.0418
       ...           ...                  ...                  ...
       559        1.9933           -0.3461946              -9.4204
       560        1.9824           -0.3452640              -9.3951
       561        1.9799           -0.3451409              -9.3918
       562        1.9298           -0.3439266              -9.3587
       563        1.9203           -0.3438010              -9.3553
       564        1.6132           -0.3421349              -9.3100
       565        1.3316           -0.3414332              -9.2909 (HOMO)
       566        0.7548           -0.3403027              -9.2601 (LUMO)
       567        0.3148           -0.3391844              -9.2297
       568        0.1105           -0.3380813              -9.1997
       569        0.0600           -0.3374753              -9.1832
       570        0.0090           -0.3356538              -9.1336
       ...           ...                  ...                  ...
      1090                          2.2721042              61.8271
      -------------------------------------------------------------
                  HL-Gap            0.0011305 Eh            0.0308 eV
             Fermi-level           -0.3407783 Eh           -9.2730 eV

 SCC (total)                   0 d,  0 h,  1 min, 41.005 sec
 SCC setup                      ...        0 min,  0.019 sec (  0.019%)
 Dispersion                     ...        0 min,  0.040 sec (  0.039%)
 classical contributions        ...        0 min,  0.003 sec (  0.003%)
 integral evaluation            ...        0 min,  0.294 sec (  0.291%)
 iterations                     ...        1 min, 39.980 sec ( 98.985%)
 molecular gradient             ...        0 min,  0.614 sec (  0.608%)
 printout                       ...        0 min,  0.056 sec (  0.055%)

########################################################################
[ERROR] Program stopped due to fatal error
-3- Single point calculation terminated
-2- xtb_calculator_singlepoint: Electronic structure method terminated
-1- scf: Self consistent charge iterator did not converge
########################################################################
