      -----------------------------------------------------------      
     |                   =====================                   |     
     |                           x T B                           |     
     |                   =====================                   |     
     |                         S. Grimme                         |     
     |          Mulliken Center for Theoretical Chemistry        |     
     |                    University of Bonn                     |     
      -----------------------------------------------------------      

   * xtb version 6.4.1 (bd6e46d) compiled by 'conda@4901f00b25ba' on 2021-06-10

   xtb is free software: you can redistribute it and/or modify it under
   the terms of the GNU Lesser General Public License as published by
   the Free Software Foundation, either version 3 of the License, or
   (at your option) any later version.
   
   xtb is distributed in the hope that it will be useful,
   but WITHOUT ANY WARRANTY; without even the implied warranty of
   MERCHANTABILITY or FITNESS FOR A PARTICULAR PURPOSE.  See the
   GNU Lesser General Public License for more details.
   
   Cite this work as:
   * C. Bannwarth, E. Caldeweyher, S. Ehlert, A. Hansen, P. Pracht,
     J. Seibert, S. Spicher, S. Grimme, WIREs Comput. Mol. Sci., 2020, 11,
     e01493. DOI: 10.1002/wcms.1493
   
   for GFN2-xTB:
   * C. Bannwarth, S. Ehlert and S. Grimme., J. Chem. Theory Comput., 2019,
     15, 1652-1671. DOI: 10.1021/acs.jctc.8b01176
   for GFN1-xTB:
   * S. Grimme, C. Bannwarth, P. Shushkov, J. Chem. Theory Comput., 2017,
     13, 1989-2009. DOI: 10.1021/acs.jctc.7b00118
   for GFN0-xTB:
   * P. Pracht, E. Caldeweyher, S. Ehlert, S. Grimme, ChemRxiv, 2019, preprint.
     DOI: 10.26434/chemrxiv.8326202.v1
   for GFN-FF:
   * S. Spicher and S. Grimme, Angew. Chem. Int. Ed., 2020, 59, 15665-15673.
     DOI: 10.1002/anie.202004239
   
   for DFT-D4:
   * E. Caldeweyher, C. Bannwarth and S. Grimme, J. Chem. Phys., 2017,
     147, 034112. DOI: 10.1063/1.4993215
   * E. Caldeweyher, S. Ehlert, A. Hansen, H. Neugebauer, S. Spicher,
     C. Bannwarth and S. Grimme, J. Chem. Phys., 2019, 150, 154122.
     DOI: 10.1063/1.5090222
   * E. Caldeweyher, J.-M. Mewes, S. Ehlert and S. Grimme, Phys. Chem. Chem. Phys.
     2020, 22, 8499-8512. DOI: 10.1039/D0CP00502A
   
   for sTDA-xTB:
   * S. Grimme and C. Bannwarth, J. Chem. Phys., 2016, 145, 054103.
     DOI: 10.1063/1.4959605
   
   in the mass-spec context:
   * V. Asgeirsson, C. Bauer and S. Grimme, Chem. Sci., 2017, 8, 4879.
     DOI: 10.1039/c7sc00601b
   * J. Koopman and S. Grimme, ACS Omega 2019, 4, 12, 15120-15133.
     DOI: 10.1021/acsomega.9b02011
   
   for metadynamics refer to:
   * S. Grimme, J. Chem. Theory Comput., 2019, 155, 2847-2862
     DOI: 10.1021/acs.jctc.9b00143
   
   for SPH calculations refer to:
   * S. Spicher and S. Grimme, J. Chem. Theory Comput., 2021, 17, 1701-1714
     DOI: 10.1021/acs.jctc.0c01306
   
   with help from (in alphabetical order)
   P. Atkinson, C. Bannwarth, F. Bohle, G. Brandenburg, E. Caldeweyher
   M. Checinski, S. Dohm, S. Ehlert, S. Ehrlich, I. Gerasimov, J. Koopman
   C. Lavigne, S. Lehtola, F. März, M. Müller, F. Musil, H. Neugebauer
   J. Pisarek, C. Plett, P. Pracht, J. Seibert, P. Shushkov, S. Spicher
   M. Stahn, M. Steiner, T. Strunk, J. Stückrath, T. Rose, and J. Unsleber
   
 * started run on 2021/11/20 at 15:54:57.495     

           -------------------------------------------------
          |                Calculation Setup                |
           -------------------------------------------------

          program call               : /home/jeff/miniconda3/bin/xtb /home/jeff/chem/final-year-proejct/Ni+2_6_3_outenergy/input_structure.xyz --gfn 2 --parallel 1 --etemp 300 --chrg 0 --uhf 0 -I det_control.in
          coordinate file            : /home/jeff/chem/final-year-proejct/Ni+2_6_3_outenergy/input_structure.xyz
          omp threads                :                     1
          number of atoms            :                   119
          number of electrons        :                   410
          charge                     :                     0
          spin                       :                   0.0
          first test random number   :      0.47858848925294

   ID    Z sym.   atoms
    1   28 Ni     1, 37, 85
    2    6 C      2-9, 11-15, 17-21, 23, 24, 38-45, 47-51, 53-57, 59, 60,
                  73-84, 86-93, 95-99, 101-105, 107, 108
    3    7 N      10, 16, 22, 25, 46, 52, 58, 61, 94, 100, 106, 109
    4    1 H      26-36, 62-72, 110-119

           -------------------------------------------------
          |                 G F N 2 - x T B                 |
           -------------------------------------------------

        Reference                      10.1021/acs.jctc.8b01176
      * Hamiltonian:
        H0-scaling (s, p, d)           1.850000    2.230000    2.230000
        zeta-weighting                 0.500000
      * Dispersion:
        s8                             2.700000
        a1                             0.520000
        a2                             5.000000
        s9                             5.000000
      * Repulsion:
        kExp                           1.500000    1.000000
        rExp                           1.000000
      * Coulomb:
        alpha                          2.000000
        third order                    shell-resolved
        anisotropic                    true
        a3                             3.000000
        a5                             4.000000
        cn-shift                       1.200000
        cn-exp                         4.000000
        max-rad                        5.000000


          ...................................................
          :                      SETUP                      :
          :.................................................:
          :  # basis functions                 398          :
          :  # atomic orbitals                 395          :
          :  # shells                          209          :
          :  # electrons                       410          :
          :  max. iterations                   250          :
          :  Hamiltonian                  GFN2-xTB          :
          :  restarted?                      false          :
          :  GBSA solvation                  false          :
          :  PC potential                    false          :
          :  electronic temp.          300.0000000     K    :
          :  accuracy                    1.0000000          :
          :  -> integral cutoff          0.2500000E+02      :
          :  -> integral neglect         0.1000000E-07      :
          :  -> SCF convergence          0.1000000E-05 Eh   :
          :  -> wf. convergence          0.1000000E-03 e    :
          :  Broyden damping             0.4000000          :
          ...................................................

 iter      E             dE          RMSdq      gap      omega  full diag
   1   -223.6871465 -0.223687E+03  0.800E+00    0.72       0.0  T
   2   -223.9513676 -0.264221E+00  0.436E+00    1.05       1.0  T
   3   -223.9208997  0.304679E-01  0.118E+00    0.89       1.0  T
   4   -223.9314165 -0.105168E-01  0.617E-01    1.12       1.0  T
   5   -223.9619386 -0.305221E-01  0.305E-01    1.11       1.0  T
   6   -223.9669749 -0.503623E-02  0.201E-01    1.11       1.0  T
   7   -223.9657117  0.126315E-02  0.159E-01    1.11       1.0  T
   8   -223.9687852 -0.307352E-02  0.289E-02    1.11       1.0  T
   9   -223.9688501 -0.648348E-04  0.142E-02    1.11       1.0  T
  10   -223.9688637 -0.136497E-04  0.716E-03    1.11       1.3  T
  11   -223.9688680 -0.424027E-05  0.294E-03    1.11       3.1  T
  12   -223.9688680 -0.515285E-07  0.205E-03    1.11       4.5  T
  13   -223.9688681 -0.126242E-06  0.128E-03    1.11       7.1  T
  14   -223.9688683 -0.118179E-06  0.752E-04    1.11      12.2  T
  15   -223.9688683 -0.239581E-07  0.541E-04    1.11      16.9  T

   *** convergence criteria satisfied after 15 iterations ***

         #    Occupation            Energy/Eh            Energy/eV
      -------------------------------------------------------------
         1        2.0000           -0.6770209             -18.4227
       ...           ...                  ...                  ...
       199        2.0000           -0.3672199              -9.9926
       200        2.0000           -0.3672081              -9.9922
       201        2.0000           -0.3635048              -9.8915
       202        2.0000           -0.3628397              -9.8734
       203        2.0000           -0.3613298              -9.8323
       204        2.0000           -0.3613103              -9.8318
       205        2.0000           -0.3550897              -9.6625 (HOMO)
       206                         -0.3143605              -8.5542 (LUMO)
       207                         -0.3048991              -8.2967
       208                         -0.3007313              -8.1833
       209                         -0.3006783              -8.1819
       210                         -0.2994545              -8.1486
       ...                                ...                  ...
       395                          1.7156350              46.6848
      -------------------------------------------------------------
                  HL-Gap            0.0407291 Eh            1.1083 eV
             Fermi-level           -0.3347236 Eh           -9.1083 eV

 SCC (total)                   0 d,  0 h,  0 min,  0.725 sec
 SCC setup                      ...        0 min,  0.002 sec (  0.341%)
 Dispersion                     ...        0 min,  0.007 sec (  0.951%)
 classical contributions        ...        0 min,  0.001 sec (  0.099%)
 integral evaluation            ...        0 min,  0.051 sec (  6.969%)
 iterations                     ...        0 min,  0.504 sec ( 69.549%)
 molecular gradient             ...        0 min,  0.156 sec ( 21.533%)
 printout                       ...        0 min,  0.004 sec (  0.553%)

         :::::::::::::::::::::::::::::::::::::::::::::::::::::
         ::                     SUMMARY                     ::
         :::::::::::::::::::::::::::::::::::::::::::::::::::::
         :: total energy            -219.981074101433 Eh    ::
         :: gradient norm              0.000569237764 Eh/a0 ::
         :: HOMO-LUMO gap              1.108296158740 eV    ::
         ::.................................................::
         :: SCC energy              -223.968868290361 Eh    ::
         :: -> isotropic ES            0.062065676939 Eh    ::
         :: -> anisotropic ES          0.016491488776 Eh    ::
         :: -> anisotropic XC          0.103341061689 Eh    ::
         :: -> dispersion             -0.188955882253 Eh    ::
         :: repulsion energy           3.990367285906 Eh    ::
         :: add. restraining           0.000000000000 Eh    ::
         :: total charge               0.000000000002 e     ::
         :::::::::::::::::::::::::::::::::::::::::::::::::::::

           -------------------------------------------------
          |                Property Printout                |
           -------------------------------------------------

    * Orbital Energies and Occupations

         #    Occupation            Energy/Eh            Energy/eV
      -------------------------------------------------------------
         1        2.0000           -0.6770209             -18.4227
       ...           ...                  ...                  ...
       193        2.0000           -0.3715604             -10.1107
       194        2.0000           -0.3714082             -10.1065
       195        2.0000           -0.3686908             -10.0326
       196        2.0000           -0.3686460             -10.0314
       197        2.0000           -0.3672366              -9.9930
       198        2.0000           -0.3672233              -9.9927
       199        2.0000           -0.3672199              -9.9926
       200        2.0000           -0.3672081              -9.9922
       201        2.0000           -0.3635048              -9.8915
       202        2.0000           -0.3628397              -9.8734
       203        2.0000           -0.3613298              -9.8323
       204        2.0000           -0.3613103              -9.8318
       205        2.0000           -0.3550897              -9.6625 (HOMO)
       206                         -0.3143605              -8.5542 (LUMO)
       207                         -0.3048991              -8.2967
       208                         -0.3007313              -8.1833
       209                         -0.3006783              -8.1819
       210                         -0.2994545              -8.1486
       211                         -0.2994421              -8.1482
       212                         -0.2984715              -8.1218
       213                         -0.2984442              -8.1211
       214                         -0.2979196              -8.1068
       215                         -0.2741469              -7.4599
       216                         -0.2637476              -7.1769
       ...                                ...                  ...
       395                          1.7156350              46.6848
      -------------------------------------------------------------
                  HL-Gap            0.0407291 Eh            1.1083 eV
             Fermi-level           -0.3347236 Eh           -9.1083 eV

     #   Z          covCN         q      C6AA      α(0)
     1  28 Ni       3.022    -0.292   189.386    28.395
     2   6 C        3.024    -0.052    29.267     8.874
     3   6 C        3.021    -0.051    29.231     8.869
     4   6 C        3.186     0.074    25.914     8.306
     5   6 C        2.956     0.025    27.441     8.592
     6   6 C        3.186     0.074    25.915     8.307
     7   6 C        3.021    -0.051    29.230     8.868
     8   6 C        3.024    -0.052    29.267     8.874
     9   6 C        3.172     0.073    26.005     8.330
    10   7 N        2.625    -0.048    22.179     6.994
    11   6 C        2.904    -0.041    29.027     8.834
    12   6 C        3.168     0.074    25.998     8.331
    13   6 C        3.020    -0.051    29.247     8.871
    14   6 C        3.021    -0.051    29.248     8.871
    15   6 C        3.168     0.075    25.992     8.330
    16   7 N        2.626    -0.047    22.158     6.991
    17   6 C        2.904    -0.043    29.070     8.841
    18   6 C        3.168     0.075    25.992     8.330
    19   6 C        3.021    -0.051    29.248     8.871
    20   6 C        3.020    -0.051    29.247     8.871
    21   6 C        3.168     0.074    25.998     8.331
    22   7 N        2.625    -0.047    22.158     6.991
    23   6 C        2.904    -0.041    29.027     8.834
    24   6 C        3.172     0.073    26.005     8.330
    25   7 N        2.625    -0.048    22.178     6.994
    26   1 H        0.926     0.035     2.511     2.478
    27   1 H        0.926     0.037     2.483     2.464
    28   1 H        0.926     0.037     2.483     2.464
    29   1 H        0.926     0.035     2.511     2.478
    30   1 H        0.926     0.049     2.330     2.387
    31   1 H        0.926     0.036     2.504     2.475
    32   1 H        0.926     0.036     2.506     2.475
    33   1 H        0.926     0.049     2.338     2.391
    34   1 H        0.926     0.036     2.506     2.475
    35   1 H        0.926     0.036     2.504     2.475
    36   1 H        0.926     0.049     2.330     2.387
    37  28 Ni       3.022    -0.292   189.385    28.395
    38   6 C        3.024    -0.052    29.267     8.874
    39   6 C        3.021    -0.051    29.231     8.869
    40   6 C        3.186     0.074    25.915     8.307
    41   6 C        2.956     0.025    27.441     8.592
    42   6 C        3.186     0.074    25.914     8.306
    43   6 C        3.021    -0.051    29.230     8.868
    44   6 C        3.024    -0.052    29.267     8.874
    45   6 C        3.172     0.073    26.004     8.330
    46   7 N        2.625    -0.048    22.179     6.994
    47   6 C        2.904    -0.041    29.028     8.834
    48   6 C        3.168     0.074    25.998     8.331
    49   6 C        3.020    -0.051    29.247     8.871
    50   6 C        3.021    -0.051    29.248     8.871
    51   6 C        3.168     0.075    25.992     8.330
    52   7 N        2.625    -0.047    22.158     6.991
    53   6 C        2.904    -0.043    29.071     8.841
    54   6 C        3.168     0.075    25.992     8.330
    55   6 C        3.021    -0.051    29.248     8.871
    56   6 C        3.020    -0.051    29.247     8.871
    57   6 C        3.168     0.074    25.998     8.331
    58   7 N        2.625    -0.047    22.158     6.991
    59   6 C        2.904    -0.041    29.028     8.834
    60   6 C        3.172     0.073    26.005     8.330
    61   7 N        2.625    -0.048    22.179     6.994
    62   1 H        0.926     0.035     2.511     2.478
    63   1 H        0.926     0.037     2.483     2.464
    64   1 H        0.926     0.037     2.483     2.464
    65   1 H        0.926     0.035     2.511     2.478
    66   1 H        0.926     0.049     2.330     2.387
    67   1 H        0.926     0.036     2.505     2.475
    68   1 H        0.926     0.036     2.506     2.475
    69   1 H        0.926     0.049     2.338     2.391
    70   1 H        0.926     0.036     2.506     2.475
    71   1 H        0.926     0.036     2.505     2.475
    72   1 H        0.926     0.049     2.330     2.387
    73   6 C        1.992    -0.020    31.571     9.074
    74   6 C        1.963    -0.010    31.322     9.038
    75   6 C        1.965    -0.002    31.112     9.008
    76   6 C        1.965    -0.002    31.127     9.010
    77   6 C        1.963    -0.009    31.310     9.036
    78   6 C        1.992    -0.020    31.588     9.076
    79   6 C        1.992    -0.020    31.586     9.076
    80   6 C        1.963    -0.009    31.310     9.036
    81   6 C        1.965    -0.002    31.126     9.010
    82   6 C        1.965    -0.002    31.112     9.008
    83   6 C        1.963    -0.010    31.322     9.038
    84   6 C        1.992    -0.020    31.570     9.074
    85  28 Ni       3.016    -0.286   189.258    28.386
    86   6 C        3.024    -0.052    29.263     8.873
    87   6 C        3.022    -0.051    29.229     8.868
    88   6 C        3.187     0.074    25.899     8.303
    89   6 C        2.956     0.025    27.439     8.592
    90   6 C        3.187     0.074    25.898     8.303
    91   6 C        3.022    -0.050    29.228     8.868
    92   6 C        3.024    -0.052    29.263     8.873
    93   6 C        3.173     0.073    25.999     8.328
    94   7 N        2.623    -0.050    22.215     7.000
    95   6 C        2.904    -0.039    28.979     8.827
    96   6 C        3.173     0.073    25.999     8.328
    97   6 C        3.024    -0.052    29.263     8.873
    98   6 C        3.022    -0.051    29.229     8.868
    99   6 C        3.187     0.074    25.899     8.303
   100   7 N        2.623    -0.050    22.214     7.000
   101   6 C        2.956     0.025    27.439     8.592
   102   6 C        3.187     0.074    25.899     8.303
   103   6 C        3.022    -0.050    29.228     8.868
   104   6 C        3.024    -0.052    29.263     8.873
   105   6 C        3.173     0.073    25.999     8.328
   106   7 N        2.623    -0.050    22.215     7.000
   107   6 C        2.904    -0.039    28.979     8.827
   108   6 C        3.173     0.073    25.999     8.328
   109   7 N        2.623    -0.050    22.214     7.000
   110   1 H        0.926     0.035     2.510     2.478
   111   1 H        0.926     0.037     2.483     2.464
   112   1 H        0.926     0.037     2.483     2.464
   113   1 H        0.926     0.035     2.511     2.478
   114   1 H        0.926     0.050     2.322     2.383
   115   1 H        0.926     0.035     2.510     2.478
   116   1 H        0.926     0.037     2.483     2.464
   117   1 H        0.926     0.037     2.483     2.464
   118   1 H        0.926     0.035     2.510     2.478
   119   1 H        0.926     0.050     2.322     2.383

 Mol. C6AA /au·bohr⁶  :     281055.596713
 Mol. C8AA /au·bohr⁸  :    8240955.207513
 Mol. α(0) /au        :        873.693887


Wiberg/Mayer (AO) data.
largest (>0.10) Wiberg bond orders for each atom

 ---------------------------------------------------------------------------
     #   Z sym  total        # sym  WBO       # sym  WBO       # sym  WBO
 ---------------------------------------------------------------------------
     1  28 Ni   3.476 --    10 N    0.753    25 N    0.753    16 N    0.751
                            22 N    0.751
     2   6 C    3.953 --     3 C    1.645    24 C    1.170    26 H    0.972
     3   6 C    3.957 --     2 C    1.645     4 C    1.179    27 H    0.970
     4   6 C    3.916 --    25 N    1.262     5 C    1.251     3 C    1.179
     5   6 C    3.945 --     6 C    1.251     4 C    1.251    73 C    1.183
     6   6 C    3.916 --    10 N    1.262     5 C    1.251     7 C    1.179
     7   6 C    3.957 --     8 C    1.645     6 C    1.179    28 H    0.970
     8   6 C    3.953 --     7 C    1.645     9 C    1.170    29 H    0.972
     9   6 C    3.930 --    11 C    1.355    10 N    1.227     8 C    1.170
    10   7 N    3.577 --     6 C    1.262     9 C    1.227     1 Ni   0.753
    11   6 C    3.935 --     9 C    1.355    12 C    1.353    30 H    0.964
    12   6 C    3.935 --    11 C    1.353    16 N    1.239    13 C    1.161
    13   6 C    3.957 --    14 C    1.661    12 C    1.161    31 H    0.972
    14   6 C    3.955 --    13 C    1.661    15 C    1.161    32 H    0.972
    15   6 C    3.937 --    17 C    1.353    16 N    1.242    14 C    1.161
    16   7 N    3.571 --    15 C    1.242    12 C    1.239     1 Ni   0.751
    17   6 C    3.931 --    15 C    1.353    18 C    1.353    33 H    0.964
    18   6 C    3.937 --    17 C    1.353    22 N    1.242    19 C    1.161
    19   6 C    3.955 --    20 C    1.661    18 C    1.161    34 H    0.972
    20   6 C    3.957 --    19 C    1.661    21 C    1.161    35 H    0.972
    21   6 C    3.935 --    23 C    1.353    22 N    1.239    20 C    1.161
    22   7 N    3.571 --    18 C    1.242    21 C    1.239     1 Ni   0.751
    23   6 C    3.935 --    24 C    1.355    21 C    1.353    36 H    0.964
    24   6 C    3.930 --    23 C    1.355    25 N    1.226     2 C    1.170
    25   7 N    3.577 --     4 C    1.262    24 C    1.226     1 Ni   0.753
    26   1 H    0.998 --     2 C    0.972
    27   1 H    0.998 --     3 C    0.970
    28   1 H    0.998 --     7 C    0.970
    29   1 H    0.998 --     8 C    0.972
    30   1 H    0.996 --    11 C    0.964
    31   1 H    0.998 --    13 C    0.972
    32   1 H    0.998 --    14 C    0.972
    33   1 H    0.997 --    17 C    0.964
    34   1 H    0.998 --    19 C    0.972
    35   1 H    0.998 --    20 C    0.972
    36   1 H    0.996 --    23 C    0.964
    37  28 Ni   3.476 --    46 N    0.753    61 N    0.753    52 N    0.751
                            58 N    0.751
    38   6 C    3.953 --    39 C    1.645    60 C    1.170    62 H    0.972
    39   6 C    3.957 --    38 C    1.645    40 C    1.179    63 H    0.970
    40   6 C    3.916 --    61 N    1.262    41 C    1.251    39 C    1.179
    41   6 C    3.945 --    42 C    1.252    40 C    1.251    84 C    1.183
    42   6 C    3.916 --    46 N    1.262    41 C    1.252    43 C    1.179
    43   6 C    3.957 --    44 C    1.645    42 C    1.179    64 H    0.970
    44   6 C    3.953 --    43 C    1.645    45 C    1.170    65 H    0.972
    45   6 C    3.930 --    47 C    1.355    46 N    1.227    44 C    1.170
    46   7 N    3.577 --    42 C    1.262    45 C    1.227    37 Ni   0.753
    47   6 C    3.935 --    45 C    1.355    48 C    1.353    66 H    0.964
    48   6 C    3.935 --    47 C    1.353    52 N    1.239    49 C    1.161
    49   6 C    3.957 --    50 C    1.661    48 C    1.161    67 H    0.972
    50   6 C    3.955 --    49 C    1.661    51 C    1.161    68 H    0.972
    51   6 C    3.937 --    53 C    1.353    52 N    1.242    50 C    1.161
    52   7 N    3.571 --    51 C    1.242    48 C    1.239    37 Ni   0.751
    53   6 C    3.931 --    54 C    1.353    51 C    1.353    69 H    0.964
    54   6 C    3.937 --    53 C    1.353    58 N    1.242    55 C    1.161
    55   6 C    3.955 --    56 C    1.661    54 C    1.161    70 H    0.972
    56   6 C    3.957 --    55 C    1.661    57 C    1.161    71 H    0.972
    57   6 C    3.935 --    59 C    1.353    58 N    1.239    56 C    1.161
    58   7 N    3.571 --    54 C    1.242    57 C    1.239    37 Ni   0.751
    59   6 C    3.935 --    60 C    1.355    57 C    1.353    72 H    0.964
    60   6 C    3.930 --    59 C    1.355    61 N    1.227    38 C    1.170
    61   7 N    3.577 --    40 C    1.262    60 C    1.227    37 Ni   0.753
    62   1 H    0.998 --    38 C    0.972
    63   1 H    0.998 --    39 C    0.970
    64   1 H    0.998 --    43 C    0.970
    65   1 H    0.998 --    44 C    0.972
    66   1 H    0.996 --    47 C    0.964
    67   1 H    0.998 --    49 C    0.972
    68   1 H    0.998 --    50 C    0.972
    69   1 H    0.997 --    53 C    0.964
    70   1 H    0.998 --    55 C    0.972
    71   1 H    0.998 --    56 C    0.972
    72   1 H    0.996 --    59 C    0.964
    73   6 C    3.884 --    74 C    2.447     5 C    1.183    76 C    0.193
    74   6 C    3.930 --    73 C    2.447    75 C    1.330
    75   6 C    3.920 --    76 C    2.361    74 C    1.330    78 C    0.193
    76   6 C    3.921 --    75 C    2.361    77 C    1.330    73 C    0.193
    77   6 C    3.927 --    78 C    2.445    76 C    1.330
    78   6 C    3.885 --    77 C    2.445    89 C    1.186    75 C    0.193
    79   6 C    3.884 --    80 C    2.445   101 C    1.185    82 C    0.193
    80   6 C    3.927 --    79 C    2.445    81 C    1.330
    81   6 C    3.921 --    82 C    2.361    80 C    1.330    84 C    0.193
    82   6 C    3.920 --    81 C    2.361    83 C    1.329    79 C    0.193
    83   6 C    3.930 --    84 C    2.448    82 C    1.329
    84   6 C    3.884 --    83 C    2.448    41 C    1.183    81 C    0.193
    85  28 Ni   3.459 --   106 N    0.749    94 N    0.749   100 N    0.749
                           109 N    0.749
    86   6 C    3.953 --    87 C    1.644   108 C    1.171   110 H    0.972
    87   6 C    3.955 --    86 C    1.644    88 C    1.179   111 H    0.970
    88   6 C    3.916 --   109 N    1.265    89 C    1.249    87 C    1.179
    89   6 C    3.935 --    90 C    1.249    88 C    1.249    78 C    1.186
    90   6 C    3.916 --    94 N    1.264    89 C    1.249    91 C    1.179
    91   6 C    3.955 --    92 C    1.644    90 C    1.179   112 H    0.970
    92   6 C    3.953 --    91 C    1.644    93 C    1.171   113 H    0.972
    93   6 C    3.928 --    95 C    1.355    94 N    1.225    92 C    1.171
    94   7 N    3.568 --    90 C    1.264    93 C    1.225    85 Ni   0.749
    95   6 C    3.930 --    93 C    1.355    96 C    1.354   114 H    0.963
    96   6 C    3.928 --    95 C    1.354   100 N    1.225    97 C    1.171
    97   6 C    3.953 --    98 C    1.644    96 C    1.171   115 H    0.972
    98   6 C    3.955 --    97 C    1.644    99 C    1.179   116 H    0.970
    99   6 C    3.916 --   100 N    1.264   101 C    1.249    98 C    1.179
   100   7 N    3.568 --    99 C    1.264    96 C    1.225    85 Ni   0.749
   101   6 C    3.935 --   102 C    1.249    99 C    1.249    79 C    1.185
   102   6 C    3.916 --   106 N    1.264   101 C    1.249   103 C    1.179
   103   6 C    3.955 --   104 C    1.644   102 C    1.179   117 H    0.970
   104   6 C    3.953 --   103 C    1.644   105 C    1.171   118 H    0.972
   105   6 C    3.928 --   107 C    1.354   106 N    1.225   104 C    1.171
   106   7 N    3.568 --   102 C    1.264   105 C    1.225    85 Ni   0.749
   107   6 C    3.930 --   108 C    1.355   105 C    1.354   119 H    0.963
   108   6 C    3.928 --   107 C    1.355   109 N    1.225    86 C    1.171
   109   7 N    3.568 --    88 C    1.265   108 C    1.225    85 Ni   0.749
   110   1 H    0.998 --    86 C    0.972
   111   1 H    0.998 --    87 C    0.970
   112   1 H    0.998 --    91 C    0.970
   113   1 H    0.998 --    92 C    0.972
   114   1 H    0.996 --    95 C    0.963
   115   1 H    0.998 --    97 C    0.972
   116   1 H    0.998 --    98 C    0.970
   117   1 H    0.998 --   103 C    0.970
   118   1 H    0.998 --   104 C    0.972
   119   1 H    0.996 --   107 C    0.963
 ---------------------------------------------------------------------------

Topologies differ in total number of bonds
Writing topology from bond orders to xtbtopo.mol

molecular dipole:
                 x           y           z       tot (Debye)
 q only:       -0.003      -0.001      -0.001
   full:       -0.003      -0.001      -0.002       0.009
molecular quadrupole (traceless):
                xx          xy          yy          xz          yz          zz
 q only:       43.589       0.140       5.569      -0.156       1.212     -49.157
  q+dip:       86.905       0.231      11.880      -0.232       2.474     -98.784
   full:       58.871       0.197       3.527      -0.191       1.447     -62.398


           -------------------------------------------------
          | TOTAL ENERGY             -219.981074101433 Eh   |
          | GRADIENT NORM               0.000569237764 Eh/α |
          | HOMO-LUMO GAP               1.108296158740 eV   |
           -------------------------------------------------

------------------------------------------------------------------------
 * finished run on 2021/11/20 at 15:54:58.276     
------------------------------------------------------------------------
 total:
 * wall-time:     0 d,  0 h,  0 min,  0.781 sec
 *  cpu-time:     0 d,  0 h,  0 min,  0.781 sec
 * ratio c/w:     1.000 speedup
 SCF:
 * wall-time:     0 d,  0 h,  0 min,  0.726 sec
 *  cpu-time:     0 d,  0 h,  0 min,  0.726 sec
 * ratio c/w:     1.000 speedup

