      -----------------------------------------------------------      
     |                   =====================                   |     
     |                           x T B                           |     
     |                   =====================                   |     
     |                         S. Grimme                         |     
     |          Mulliken Center for Theoretical Chemistry        |     
     |                    University of Bonn                     |     
      -----------------------------------------------------------      

   * xtb version 6.4.1 (bd6e46d) compiled by 'conda@4901f00b25ba' on 2021-06-10

   xtb is free software: you can redistribute it and/or modify it under
   the terms of the GNU Lesser General Public License as published by
   the Free Software Foundation, either version 3 of the License, or
   (at your option) any later version.
   
   xtb is distributed in the hope that it will be useful,
   but WITHOUT ANY WARRANTY; without even the implied warranty of
   MERCHANTABILITY or FITNESS FOR A PARTICULAR PURPOSE.  See the
   GNU Lesser General Public License for more details.
   
   Cite this work as:
   * C. Bannwarth, E. Caldeweyher, S. Ehlert, A. Hansen, P. Pracht,
     J. Seibert, S. Spicher, S. Grimme, WIREs Comput. Mol. Sci., 2020, 11,
     e01493. DOI: 10.1002/wcms.1493
   
   for GFN2-xTB:
   * C. Bannwarth, S. Ehlert and S. Grimme., J. Chem. Theory Comput., 2019,
     15, 1652-1671. DOI: 10.1021/acs.jctc.8b01176
   for GFN1-xTB:
   * S. Grimme, C. Bannwarth, P. Shushkov, J. Chem. Theory Comput., 2017,
     13, 1989-2009. DOI: 10.1021/acs.jctc.7b00118
   for GFN0-xTB:
   * P. Pracht, E. Caldeweyher, S. Ehlert, S. Grimme, ChemRxiv, 2019, preprint.
     DOI: 10.26434/chemrxiv.8326202.v1
   for GFN-FF:
   * S. Spicher and S. Grimme, Angew. Chem. Int. Ed., 2020, 59, 15665-15673.
     DOI: 10.1002/anie.202004239
   
   for DFT-D4:
   * E. Caldeweyher, C. Bannwarth and S. Grimme, J. Chem. Phys., 2017,
     147, 034112. DOI: 10.1063/1.4993215
   * E. Caldeweyher, S. Ehlert, A. Hansen, H. Neugebauer, S. Spicher,
     C. Bannwarth and S. Grimme, J. Chem. Phys., 2019, 150, 154122.
     DOI: 10.1063/1.5090222
   * E. Caldeweyher, J.-M. Mewes, S. Ehlert and S. Grimme, Phys. Chem. Chem. Phys.
     2020, 22, 8499-8512. DOI: 10.1039/D0CP00502A
   
   for sTDA-xTB:
   * S. Grimme and C. Bannwarth, J. Chem. Phys., 2016, 145, 054103.
     DOI: 10.1063/1.4959605
   
   in the mass-spec context:
   * V. Asgeirsson, C. Bauer and S. Grimme, Chem. Sci., 2017, 8, 4879.
     DOI: 10.1039/c7sc00601b
   * J. Koopman and S. Grimme, ACS Omega 2019, 4, 12, 15120-15133.
     DOI: 10.1021/acsomega.9b02011
   
   for metadynamics refer to:
   * S. Grimme, J. Chem. Theory Comput., 2019, 155, 2847-2862
     DOI: 10.1021/acs.jctc.9b00143
   
   for SPH calculations refer to:
   * S. Spicher and S. Grimme, J. Chem. Theory Comput., 2021, 17, 1701-1714
     DOI: 10.1021/acs.jctc.0c01306
   
   with help from (in alphabetical order)
   P. Atkinson, C. Bannwarth, F. Bohle, G. Brandenburg, E. Caldeweyher
   M. Checinski, S. Dohm, S. Ehlert, S. Ehrlich, I. Gerasimov, J. Koopman
   C. Lavigne, S. Lehtola, F. März, M. Müller, F. Musil, H. Neugebauer
   J. Pisarek, C. Plett, P. Pracht, J. Seibert, P. Shushkov, S. Spicher
   M. Stahn, M. Steiner, T. Strunk, J. Stückrath, T. Rose, and J. Unsleber
   
 * started run on 2021/11/21 at 06:34:37.016     

           -------------------------------------------------
          |                Calculation Setup                |
           -------------------------------------------------

          program call               : /home/jeff/miniconda3/bin/xtb input_structure_1.xyz --gfn 2 --ohess normal --parallel 1 --etemp 300 --chrg 0 --uhf 0 -I det_control.in
          hostname                   : jelfscompute1
          coordinate file            : input_structure_1.xyz
          omp threads                :                     1
          number of atoms            :                   318
          number of electrons        :                  1010
          charge                     :                     0
          spin                       :                   0.0
          first test random number   :      0.29015020028513

   ID    Z sym.   atoms
    1    6 C      1-8, 10-14, 16-20, 22, 23, 38-45, 47-51, 53-57, 59, 60,
                  75-110, 112-116, 118-122, 124, 125, 139-146, 148-152,
                  154-158, 160, 161, 175-182, 184-188, 190-194, 196, 197,
                  211-218, 220-224, 226-230, 232, 233, 247-254, 256-260,
                  262-266, 268, 269, 283-290, 292-296, 298-302, 304, 305
    2    7 N      9, 15, 21, 24, 46, 52, 58, 61, 111, 117, 123, 126, 147,
                  153, 159, 162, 183, 189, 195, 198, 219, 225, 231, 234, 255,
                  261, 267, 270, 291, 297, 303, 306
    3    1 H      25-37, 62-74, 127-138, 163-174, 199-210, 235-246, 271-282,
                  307-318

molecular fragmentation (1/2 indicates fragments):
111111111111111111111111111111111111122222222222222222222222222222222222
222222222222222222222222222222222222222222222222222222222222222222222222
222222222222222222222222222222222222222222222222222222222222222222222222
222222222222222222222222222222222222222222222222222222222222222222222222
222222222222222222222222222222
# atoms in fragment 1/2:    37   281
 fragment masses (1/2) :      309.34     2495.67
CMA distance (Bohr)    :  96.859
constraining FC (au)   :  0.0500

           -------------------------------------------------
          |                 G F N 2 - x T B                 |
           -------------------------------------------------

        Reference                      10.1021/acs.jctc.8b01176
      * Hamiltonian:
        H0-scaling (s, p, d)           1.850000    2.230000    2.230000
        zeta-weighting                 0.500000
      * Dispersion:
        s8                             2.700000
        a1                             0.520000
        a2                             5.000000
        s9                             5.000000
      * Repulsion:
        kExp                           1.500000    1.000000
        rExp                           1.000000
      * Coulomb:
        alpha                          2.000000
        third order                    shell-resolved
        anisotropic                    true
        a3                             3.000000
        a5                             4.000000
        cn-shift                       1.200000
        cn-exp                         4.000000
        max-rad                        5.000000


          ...................................................
          :                      SETUP                      :
          :.................................................:
          :  # basis functions                 978          :
          :  # atomic orbitals                 978          :
          :  # shells                          538          :
          :  # electrons                      1010          :
          :  max. iterations                   250          :
          :  Hamiltonian                  GFN2-xTB          :
          :  restarted?                      false          :
          :  GBSA solvation                  false          :
          :  PC potential                    false          :
          :  electronic temp.          300.0000000     K    :
          :  accuracy                    1.0000000          :
          :  -> integral cutoff          0.2500000E+02      :
          :  -> integral neglect         0.1000000E-07      :
          :  -> SCF convergence          0.1000000E-05 Eh   :
          :  -> wf. convergence          0.1000000E-03 e    :
          :  Broyden damping             0.4000000          :
          ...................................................

 iter      E             dE          RMSdq      gap      omega  full diag
   1   -553.5679241 -0.553568E+03  0.522E+00    0.02       0.0  T
   2   -553.7267310 -0.158807E+00  0.356E+00    0.06       1.0  T
   3   -533.5169039  0.202098E+02  0.370E+00    0.02       1.0  T
   4   -355.0551553  0.178462E+03  0.773E+00    0.02       1.0  T
   5   -508.3947039 -0.153340E+03  0.418E+00    0.04       1.0  T
   6   -544.1367666 -0.357421E+02  0.288E+00    0.11       1.0  T
   7   -552.3001622 -0.816340E+01  0.173E+00    0.11       1.0  T
   8   -553.0084003 -0.708238E+00  0.142E+00    0.09       1.0  T
   9   -554.5458619 -0.153746E+01  0.774E-01    0.05       1.0  T
  10   -554.6236988 -0.778370E-01  0.660E-01    0.06       1.0  T
  11   -554.5982634  0.254355E-01  0.610E-01    0.11       1.0  T
  12   -554.6611563 -0.628930E-01  0.539E-01    0.07       1.0  T
  13   -554.6293614  0.317949E-01  0.504E-01    0.10       1.0  T
  14   -554.6868258 -0.574644E-01  0.382E-01    0.07       1.0  T
  15   -554.7111287 -0.243029E-01  0.262E-01    0.07       1.0  T
  16   -554.7454699 -0.343412E-01  0.170E-01    0.04       1.0  T
  17   -554.7563692 -0.108993E-01  0.133E-01    0.03       1.0  T
  18   -554.7635338 -0.716463E-02  0.955E-02    0.01       1.0  T
  19   -554.7643891 -0.855355E-03  0.862E-02    0.01       1.0  T
  20   -554.7610325  0.335661E-02  0.123E-01    0.02       1.0  T
  21   -554.7592594  0.177316E-02  0.133E-01    0.02       1.0  T
  22   -554.7542464  0.501294E-02  0.164E-01    0.02       1.0  T
  23   -554.7632203 -0.897386E-02  0.991E-02    0.01       1.0  T
  24   -554.7624205  0.799770E-03  0.996E-02    0.02       1.0  T
  25   -554.7656619 -0.324135E-02  0.573E-02    0.01       1.0  T
  26   -554.7668259 -0.116404E-02  0.311E-02    0.01       1.0  T
  27   -554.7667947  0.312010E-04  0.310E-02    0.01       1.0  T
  28   -554.7668506 -0.559420E-04  0.223E-02    0.01       1.0  T
  29   -554.7670725 -0.221860E-03  0.133E-02    0.01       1.0  T
  30   -554.7671070 -0.344610E-04  0.833E-03    0.01       1.0  T
  31   -554.7671555 -0.485419E-04  0.497E-03    0.01       1.1  T
  32   -554.7671711 -0.155533E-04  0.388E-03    0.01       1.4  T
  33   -554.7671741 -0.304327E-05  0.338E-03    0.01       1.7  T
  34   -554.7671792 -0.510114E-05  0.181E-03    0.01       3.1  T
  35   -554.7671812 -0.195791E-05  0.560E-04    0.01      10.0  T
  36   -554.7671813 -0.166729E-06  0.482E-04    0.01      11.6  T
  37   -554.7671814 -0.103669E-06  0.263E-04    0.01      21.3  T

   *** convergence criteria satisfied after 37 iterations ***

         #    Occupation            Energy/Eh            Energy/eV
      -------------------------------------------------------------
         1        2.0000           -0.6966251             -18.9561
       ...           ...                  ...                  ...
       499        2.0000           -0.3478042              -9.4642
       500        2.0000           -0.3476207              -9.4592
       501        2.0000           -0.3472966              -9.4504
       502        2.0000           -0.3454673              -9.4006
       503        2.0000           -0.3401753              -9.2566
       504        2.0000           -0.3348160              -9.1108
       505        1.0764           -0.3205703              -8.7232 (HOMO)
       506        0.8689           -0.3201744              -8.7124 (LUMO)
       507        0.0296           -0.3164381              -8.6107
       508        0.0250           -0.3162742              -8.6063
       509        0.0000           -0.3093426              -8.4176
       510        0.0000           -0.3078301              -8.3765
       ...           ...                  ...                  ...
       978                          3.8749380             105.4424
      -------------------------------------------------------------
                  HL-Gap            0.0003959 Eh            0.0108 eV
             Fermi-level           -0.3204249 Eh           -8.7192 eV

 SCC (total)                   0 d,  0 h,  0 min, 12.872 sec
 SCC setup                      ...        0 min,  0.017 sec (  0.133%)
 Dispersion                     ...        0 min,  0.035 sec (  0.269%)
 classical contributions        ...        0 min,  0.003 sec (  0.023%)
 integral evaluation            ...        0 min,  0.250 sec (  1.940%)
 iterations                     ...        0 min, 11.872 sec ( 92.230%)
 molecular gradient             ...        0 min,  0.653 sec (  5.073%)
 printout                       ...        0 min,  0.043 sec (  0.331%)

         :::::::::::::::::::::::::::::::::::::::::::::::::::::
         ::                     SUMMARY                     ::
         :::::::::::::::::::::::::::::::::::::::::::::::::::::
         :: total energy            -540.345658273720 Eh    ::
         :: gradient norm              5.414604525817 Eh/a0 ::
         :: HOMO-LUMO gap              0.010772957864 eV    ::
         ::.................................................::
         :: SCC energy              -554.767181429722 Eh    ::
         :: -> isotropic ES            0.320611110936 Eh    ::
         :: -> anisotropic ES         -0.020444666598 Eh    ::
         :: -> anisotropic XC          0.388666075105 Eh    ::
         :: -> dispersion             -0.448897845530 Eh    ::
         :: repulsion energy          14.425958158241 Eh    ::
         :: add. restraining           0.000000000000 Eh    ::
         :: total charge              -0.000000000334 e     ::
         :::::::::::::::::::::::::::::::::::::::::::::::::::::

      ----------------------------------------------------------- 
     |                   =====================                   |
     |                        A N C O P T                        |
     |                   =====================                   |
     |               Approximate Normal Coordinate               |
     |                Rational Function Optimizer                |
      ----------------------------------------------------------- 

          ...................................................
          :                      SETUP                      :
          :.................................................:
          :   optimization level            normal          :
          :   max. optcycles                   954          :
          :   ANC micro-cycles                  20          :
          :   degrees of freedom               948          :
          :.................................................:
          :   RF solver                   davidson          :
          :   write xtbopt.log                true          :
          :   linear?                        false          :
          :   energy convergence         0.5000000E-05 Eh   :
          :   grad. convergence          0.1000000E-02 Eh/α :
          :   maximium RF displ.         1.0000000          :
          :   Hlow (freq-cutoff)         0.1000000E-01      :
          :   Hmax (freq-cutoff)         5.0000000          :
          :   S6 in model hess.         20.0000000          :
          ...................................................

generating ANC from model Hessian ...
Using Lindh-Hessian (1995)
 Shifting diagonal of input Hessian by    1.0028583900491973E-002
 Lowest  eigenvalues of input Hessian
    0.010000    0.010013    0.010016    0.010018    0.010018    0.010019
    0.010020    0.010021    0.010023    0.010025    0.010026    0.010028
    0.010028    0.010028    0.000000    0.000000    0.000000    0.000000
 Highest eigenvalues
    4.150199    4.161499    4.161499    4.161499    4.161501    4.161501


........................................................................
.............................. CYCLE    1 ..............................
........................................................................
   1   -554.7671814 -0.554767E+03  0.219E-04    0.01       0.0  T
   2   -554.7671754  0.606335E-05  0.253E-03    0.01       2.2  T
   3   -554.7671780 -0.264485E-05  0.185E-03    0.01       3.0  T
   4   -554.7671805 -0.251646E-05  0.993E-04    0.01       5.6  T
   5   -554.7671811 -0.580964E-06  0.602E-04    0.01       9.3  T
   6   -554.7671815 -0.329360E-06  0.129E-04    0.01      43.5  T
     SCC iter.                  ...        0 min,  1.950 sec
     gradient                   ...        0 min,  0.647 sec
 * total energy  :  -540.3456583 Eh     change       -0.2702893E-07 Eh
   gradient norm :     5.4145991 Eh/α   predicted     0.0000000E+00 (-100.00%)
   displ. norm   :     0.7422185 α      lambda       -0.3961497E+01
   maximum displ.:     0.3653100 α      in ANC's #948, #944, #836, ...

........................................................................
.............................. CYCLE    2 ..............................
........................................................................
   1   -555.0507297 -0.555051E+03  0.525E-01    0.13       0.0  T
   2   -555.0376547  0.130750E-01  0.455E-01    0.09       1.0  T
   3   -555.0372254  0.429294E-03  0.317E-01    0.16       1.0  T
   4   -554.8912182  0.146007E+00  0.447E-01    0.10       1.0  T
   5   -555.0455043 -0.154286E+00  0.268E-01    0.11       1.0  T
   6   -555.0849693 -0.394651E-01  0.174E-01    0.13       1.0  T
   7   -555.1011638 -0.161944E-01  0.778E-02    0.11       1.0  T
   8   -555.0958195  0.534428E-02  0.976E-02    0.12       1.0  T
   9   -555.1026754 -0.685592E-02  0.436E-02    0.11       1.0  T
  10   -555.1017439  0.931571E-03  0.469E-02    0.11       1.0  T
  11   -555.1033338 -0.158999E-02  0.213E-02    0.11       1.0  T
  12   -555.1034478 -0.113975E-03  0.114E-02    0.11       1.0  T
  13   -555.1035143 -0.665243E-04  0.585E-03    0.11       1.0  T
  14   -555.1035207 -0.640644E-05  0.473E-03    0.11       1.2  T
  15   -555.1035373 -0.165250E-04  0.233E-03    0.11       2.4  T
  16   -555.1035400 -0.274632E-05  0.116E-03    0.11       4.8  T
  17   -555.1035407 -0.707442E-06  0.651E-04    0.11       8.6  T
  18   -555.1035411 -0.346135E-06  0.250E-04    0.11      22.4  T
     SCC iter.                  ...        0 min,  5.794 sec
     gradient                   ...        0 min,  0.665 sec
 * total energy  :  -542.8299226 Eh     change       -0.2484264E+01 Eh
   gradient norm :     1.8449343 Eh/α   predicted    -0.3071920E+01 (  23.66%)
   displ. norm   :     0.5709013 α      lambda       -0.8875220E+00
   maximum displ.:     0.1876774 α      in ANC's #836, #918, #638, ...

........................................................................
.............................. CYCLE    3 ..............................
........................................................................
   1   -555.2024150 -0.555202E+03  0.248E-01    0.10       0.0  T
   2   -555.1964944  0.592058E-02  0.254E-01    0.10       1.0  T
   3   -555.2044924 -0.799806E-02  0.169E-01    0.10       1.0  T
   4   -555.1618249  0.426676E-01  0.246E-01    0.15       1.0  T
   5   -555.1155920  0.462329E-01  0.301E-01    0.14       1.0  T
   6   -555.2107312 -0.951392E-01  0.659E-02    0.10       1.0  T
   7   -555.2129523 -0.222114E-02  0.367E-02    0.10       1.0  T
   8   -555.2138597 -0.907420E-03  0.129E-02    0.10       1.0  T
   9   -555.2138424  0.173632E-04  0.133E-02    0.10       1.0  T
  10   -555.2139260 -0.836091E-04  0.748E-03    0.10       1.0  T
  11   -555.2139290 -0.297264E-05  0.449E-03    0.10       1.2  T
  12   -555.2139344 -0.539053E-05  0.187E-03    0.10       3.0  T
  13   -555.2139365 -0.211499E-05  0.772E-04    0.10       7.3  T
  14   -555.2139367 -0.243650E-06  0.376E-04    0.10      14.9  T
  15   -555.2139367 -0.340833E-09  0.347E-04    0.10      16.1  T
     SCC iter.                  ...        0 min,  4.830 sec
     gradient                   ...        0 min,  0.648 sec
 * total energy  :  -543.5141235 Eh     change       -0.6842008E+00 Eh
   gradient norm :     1.0014927 Eh/α   predicted    -0.5883959E+00 ( -14.00%)
   displ. norm   :     0.6366271 α      lambda       -0.5037525E+00
   maximum displ.:     0.1303600 α      in ANC's #836, #638, #202, ...

........................................................................
.............................. CYCLE    4 ..............................
........................................................................
   1   -555.3668457 -0.555367E+03  0.249E-01    0.12       0.0  T
   2   -555.3579536  0.889203E-02  0.249E-01    0.13       1.0  T
   3   -555.3592442 -0.129054E-02  0.185E-01    0.13       1.0  T
   4   -555.3105492  0.486950E-01  0.257E-01    0.21       1.0  T
   5   -555.3450512 -0.345020E-01  0.186E-01    0.15       1.0  T
   6   -555.3721929 -0.271417E-01  0.772E-02    0.13       1.0  T
   7   -555.3758037 -0.361076E-02  0.286E-02    0.13       1.0  T
   8   -555.3760224 -0.218682E-03  0.203E-02    0.13       1.0  T
   9   -555.3761956 -0.173225E-03  0.130E-02    0.13       1.0  T
  10   -555.3761763  0.193111E-04  0.116E-02    0.13       1.0  T
  11   -555.3762354 -0.590881E-04  0.575E-03    0.13       1.0  T
  12   -555.3762559 -0.204988E-04  0.207E-03    0.13       2.7  T
  13   -555.3762577 -0.185372E-05  0.109E-03    0.13       5.1  T
  14   -555.3762588 -0.109596E-05  0.371E-04    0.13      15.1  T
  15   -555.3762589 -0.660908E-07  0.251E-04    0.13      22.4  T
  16   -555.3762589 -0.220730E-07  0.135E-04    0.13      41.5  T
     SCC iter.                  ...        0 min,  5.150 sec
     gradient                   ...        0 min,  0.649 sec
 * total energy  :  -543.8925543 Eh     change       -0.3784309E+00 Eh
   gradient norm :     0.4555115 Eh/α   predicted    -0.3539604E+00 (  -6.47%)
   displ. norm   :     0.7744845 α      lambda       -0.2767281E+00
   maximum displ.:     0.2053230 α      in ANC's #202, #238, #168, ...

........................................................................
.............................. CYCLE    5 ..............................
........................................................................
   1   -555.4561390 -0.555456E+03  0.247E-01    0.18       0.0  T
   2   -555.4483995  0.773942E-02  0.217E-01    0.18       1.0  T
   3   -555.4515745 -0.317500E-02  0.170E-01    0.18       1.0  T
   4   -555.4563199 -0.474540E-02  0.934E-02    0.18       1.0  T
   5   -555.4584142 -0.209421E-02  0.595E-02    0.18       1.0  T
   6   -555.4602937 -0.187955E-02  0.267E-02    0.18       1.0  T
   7   -555.4607285 -0.434804E-03  0.122E-02    0.18       1.0  T
   8   -555.4608208 -0.922687E-04  0.445E-03    0.18       1.3  T
   9   -555.4608234 -0.261774E-05  0.343E-03    0.18       1.6  T
  10   -555.4608279 -0.447137E-05  0.211E-03    0.18       2.7  T
  11   -555.4608299 -0.202738E-05  0.773E-04    0.18       7.3  T
  12   -555.4608301 -0.220766E-06  0.375E-04    0.18      14.9  T
  13   -555.4608302 -0.503438E-07  0.200E-04    0.18      28.1  T
     SCC iter.                  ...        0 min,  4.220 sec
     gradient                   ...        0 min,  0.646 sec
 * total energy  :  -544.1233751 Eh     change       -0.2308208E+00 Eh
   gradient norm :     0.2683308 Eh/α   predicted    -0.2213588E+00 (  -4.10%)
   displ. norm   :     0.8521386 α      lambda       -0.2029429E+00
   maximum displ.:     0.2440299 α      in ANC's #202, #238, #168, ...

........................................................................
.............................. CYCLE    6 ..............................
........................................................................
   1   -555.4825095 -0.555483E+03  0.234E-01    0.24       0.0  T
   2   -555.4774074  0.510209E-02  0.196E-01    0.24       1.0  T
   3   -555.4794342 -0.202683E-02  0.149E-01    0.24       1.0  T
   4   -555.4842216 -0.478738E-02  0.604E-02    0.24       1.0  T
   5   -555.4853605 -0.113889E-02  0.349E-02    0.24       1.0  T
   6   -555.4860336 -0.673130E-03  0.103E-02    0.24       1.0  T
   7   -555.4860880 -0.544510E-04  0.388E-03    0.24       1.4  T
   8   -555.4860899 -0.184183E-05  0.242E-03    0.24       2.3  T
   9   -555.4860903 -0.392025E-06  0.188E-03    0.24       3.0  T
  10   -555.4860920 -0.167229E-05  0.664E-04    0.24       8.4  T
  11   -555.4860921 -0.128802E-06  0.315E-04    0.24      17.8  T
  12   -555.4860921 -0.210389E-08  0.240E-04    0.24      23.3  T
     SCC iter.                  ...        0 min,  3.892 sec
     gradient                   ...        0 min,  0.646 sec
 * total energy  :  -544.3051268 Eh     change       -0.1817517E+00 Eh
   gradient norm :     0.2107574 Eh/α   predicted    -0.1751539E+00 (  -3.63%)
   displ. norm   :     0.9012565 α      lambda       -0.1729440E+00
   maximum displ.:     0.2512670 α      in ANC's #202, #238, #90, ...

........................................................................
.............................. CYCLE    7 ..............................
........................................................................
   1   -555.4792294 -0.555479E+03  0.216E-01    0.30       0.0  T
   2   -555.4762351  0.299437E-02  0.178E-01    0.29       1.0  T
   3   -555.4763685 -0.133461E-03  0.132E-01    0.29       1.0  T
   4   -555.4804515 -0.408296E-02  0.526E-02    0.30       1.0  T
   5   -555.4815643 -0.111283E-02  0.245E-02    0.30       1.0  T
   6   -555.4818195 -0.255184E-03  0.756E-03    0.29       1.0  T
   7   -555.4818352 -0.156744E-04  0.377E-03    0.29       1.5  T
   8   -555.4818368 -0.163255E-05  0.251E-03    0.29       2.2  T
   9   -555.4818377 -0.855671E-06  0.165E-03    0.29       3.4  T
  10   -555.4818390 -0.129273E-05  0.518E-04    0.29      10.8  T
  11   -555.4818390 -0.783543E-07  0.261E-04    0.29      21.5  T
  12   -555.4818391 -0.120137E-07  0.166E-04    0.29      33.9  T
     SCC iter.                  ...        0 min,  3.867 sec
     gradient                   ...        0 min,  0.646 sec
 * total energy  :  -544.4645297 Eh     change       -0.1594029E+00 Eh
   gradient norm :     0.1770212 Eh/α   predicted    -0.1567101E+00 (  -1.69%)
   displ. norm   :     0.9161940 α      lambda       -0.1477052E+00
   maximum displ.:     0.2478034 α      in ANC's #90, #202, #238, ...

........................................................................
.............................. CYCLE    8 ..............................
........................................................................
   1   -555.4629970 -0.555463E+03  0.189E-01    0.34       0.0  T
   2   -555.4602496  0.274735E-02  0.167E-01    0.34       1.0  T
   3   -555.4618614 -0.161180E-02  0.103E-01    0.34       1.0  T
   4   -555.4635135 -0.165211E-02  0.543E-02    0.34       1.0  T
   5   -555.4648846 -0.137108E-02  0.202E-02    0.34       1.0  T
   6   -555.4650348 -0.150173E-03  0.618E-03    0.34       1.0  T
   7   -555.4650415 -0.675521E-05  0.373E-03    0.34       1.5  T
   8   -555.4650435 -0.194116E-05  0.244E-03    0.34       2.3  T
   9   -555.4650454 -0.187031E-05  0.106E-03    0.34       5.3  T
  10   -555.4650459 -0.521920E-06  0.296E-04    0.34      19.0  T
  11   -555.4650459 -0.268822E-07  0.148E-04    0.34      37.8  T
     SCC iter.                  ...        0 min,  3.557 sec
     gradient                   ...        0 min,  0.645 sec
 * total energy  :  -544.5937409 Eh     change       -0.1292112E+00 Eh
   gradient norm :     0.1318757 Eh/α   predicted    -0.1358452E+00 (   5.13%)
   displ. norm   :     0.8717009 α      lambda       -0.1039104E+00
   maximum displ.:     0.2393908 α      in ANC's #90, #202, #168, ...

........................................................................
.............................. CYCLE    9 ..............................
........................................................................
   1   -555.4498020 -0.555450E+03  0.156E-01    0.36       0.0  T
   2   -555.4482922  0.150978E-02  0.130E-01    0.36       1.0  T
   3   -555.4475413  0.750914E-03  0.916E-02    0.36       1.0  T
   4   -555.4500527 -0.251136E-02  0.411E-02    0.36       1.0  T
   5   -555.4507959 -0.743239E-03  0.134E-02    0.36       1.0  T
   6   -555.4508618 -0.658910E-04  0.378E-03    0.36       1.5  T
   7   -555.4508638 -0.198488E-05  0.253E-03    0.36       2.2  T
   8   -555.4508649 -0.107759E-05  0.156E-03    0.36       3.6  T
   9   -555.4508658 -0.946524E-06  0.630E-04    0.36       8.9  T
  10   -555.4508660 -0.176971E-06  0.204E-04    0.36      27.5  T
     SCC iter.                  ...        0 min,  3.219 sec
     gradient                   ...        0 min,  0.648 sec
 * total energy  :  -544.6820794 Eh     change       -0.8833849E-01 Eh
   gradient norm :     0.1065729 Eh/α   predicted    -0.9143399E-01 (   3.50%)
   displ. norm   :     0.8633658 α      lambda       -0.7978407E-01
   maximum displ.:     0.2531270 α      in ANC's #168, #202, #113, ...

........................................................................
.............................. CYCLE   10 ..............................
........................................................................
   1   -555.4476518 -0.555448E+03  0.144E-01    0.37       0.0  T
   2   -555.4475899  0.619310E-04  0.938E-02    0.37       1.0  T
   3   -555.4437183  0.387158E-02  0.885E-02    0.37       1.0  T
   4   -555.4475781 -0.385980E-02  0.325E-02    0.37       1.0  T
   5   -555.4480261 -0.448040E-03  0.792E-03    0.37       1.0  T
   6   -555.4480472 -0.211097E-04  0.309E-03    0.37       1.8  T
   7   -555.4480495 -0.230791E-05  0.173E-03    0.37       3.2  T
   8   -555.4480498 -0.272831E-06  0.115E-03    0.37       4.9  T
   9   -555.4480503 -0.459303E-06  0.455E-04    0.37      12.3  T
  10   -555.4480503 -0.803161E-07  0.215E-04    0.37      26.0  T
     SCC iter.                  ...        0 min,  3.238 sec
     gradient                   ...        0 min,  0.642 sec
 * total energy  :  -544.7525316 Eh     change       -0.7045224E-01 Eh
   gradient norm :     0.0836396 Eh/α   predicted    -0.6962759E-01 (  -1.17%)
   displ. norm   :     0.8956146 α      lambda       -0.6508693E-01
   maximum displ.:     0.2415393 α      in ANC's #90, #73, #113, ...

........................................................................
.............................. CYCLE   11 ..............................
........................................................................
   1   -555.4738119 -0.555474E+03  0.126E-01    0.39       0.0  T
   2   -555.4735271  0.284811E-03  0.863E-02    0.38       1.0  T
   3   -555.4698504  0.367667E-02  0.890E-02    0.39       1.0  T
   4   -555.4738997 -0.404930E-02  0.223E-02    0.39       1.0  T
   5   -555.4741199 -0.220159E-03  0.589E-03    0.39       1.0  T
   6   -555.4741307 -0.107754E-04  0.259E-03    0.39       2.2  T
   7   -555.4741321 -0.139281E-05  0.142E-03    0.39       3.9  T
   8   -555.4741324 -0.294776E-06  0.725E-04    0.39       7.7  T
   9   -555.4741325 -0.115894E-06  0.413E-04    0.39      13.6  T
     SCC iter.                  ...        0 min,  2.923 sec
     gradient                   ...        0 min,  0.644 sec
 * total energy  :  -544.8114064 Eh     change       -0.5887477E-01 Eh
   gradient norm :     0.0686057 Eh/α   predicted    -0.5864744E-01 (  -0.39%)
   displ. norm   :     0.9063100 α      lambda       -0.5483687E-01
   maximum displ.:     0.2773759 α      in ANC's #73, #113, #168, ...

........................................................................
.............................. CYCLE   12 ..............................
........................................................................
   1   -555.4873688 -0.555487E+03  0.120E-01    0.40       0.0  T
   2   -555.4873593  0.946175E-05  0.728E-02    0.40       1.0  T
   3   -555.4852906  0.206874E-02  0.607E-02    0.40       1.0  T
   4   -555.4873641 -0.207349E-02  0.166E-02    0.40       1.0  T
   5   -555.4875057 -0.141570E-03  0.375E-03    0.40       1.5  T
   6   -555.4875096 -0.397071E-05  0.184E-03    0.40       3.0  T
   7   -555.4875102 -0.588762E-06  0.919E-04    0.40       6.1  T
   8   -555.4875103 -0.851610E-07  0.519E-04    0.40      10.8  T
     SCC iter.                  ...        0 min,  2.582 sec
     gradient                   ...        0 min,  0.644 sec
 * total energy  :  -544.8614741 Eh     change       -0.5006764E-01 Eh
   gradient norm :     0.0612237 Eh/α   predicted    -0.4993988E-01 (  -0.26%)
   displ. norm   :     0.9228395 α      lambda       -0.4785588E-01
   maximum displ.:     0.3094790 α      in ANC's #73, #72, #113, ...

........................................................................
.............................. CYCLE   13 ..............................
........................................................................
   1   -555.5159942 -0.555516E+03  0.113E-01    0.43       0.0  T
   2   -555.5159048  0.894477E-04  0.710E-02    0.42       1.0  T
   3   -555.5136922  0.221260E-02  0.695E-02    0.43       1.0  T
   4   -555.5160443 -0.235214E-02  0.147E-02    0.43       1.0  T
   5   -555.5161604 -0.116032E-03  0.383E-03    0.42       1.5  T
   6   -555.5161649 -0.451765E-05  0.185E-03    0.42       3.0  T
   7   -555.5161653 -0.455452E-06  0.103E-03    0.42       5.5  T
   8   -555.5161655 -0.190630E-06  0.482E-04    0.42      11.6  T
   9   -555.5161656 -0.782376E-07  0.207E-04    0.42      27.0  T
     SCC iter.                  ...        0 min,  2.903 sec
     gradient                   ...        0 min,  0.644 sec
 * total energy  :  -544.9053848 Eh     change       -0.4391070E-01 Eh
   gradient norm :     0.0522780 Eh/α   predicted    -0.4430578E-01 (   0.90%)
   displ. norm   :     0.9381022 α      lambda       -0.4281656E-01
   maximum displ.:     0.3502335 α      in ANC's #73, #72, #66, ...

........................................................................
.............................. CYCLE   14 ..............................
........................................................................
   1   -555.5401941 -0.555540E+03  0.123E-01    0.45       0.0  T
   2   -555.5401211  0.729523E-04  0.745E-02    0.45       1.0  T
   3   -555.5374353  0.268577E-02  0.745E-02    0.45       1.0  T
   4   -555.5402492 -0.281388E-02  0.125E-02    0.45       1.0  T
   5   -555.5403272 -0.780231E-04  0.351E-03    0.45       1.6  T
   6   -555.5403311 -0.385863E-05  0.187E-03    0.45       3.0  T
   7   -555.5403318 -0.681687E-06  0.101E-03    0.45       5.6  T
   8   -555.5403320 -0.278445E-06  0.403E-04    0.45      13.9  T
   9   -555.5403321 -0.547701E-07  0.159E-04    0.45      35.2  T
     SCC iter.                  ...        0 min,  2.917 sec
     gradient                   ...        0 min,  0.646 sec
 * total energy  :  -544.9444611 Eh     change       -0.3907631E-01 Eh
   gradient norm :     0.0467779 Eh/α   predicted    -0.4024837E-01 (   3.00%)
   displ. norm   :     0.9492967 α      lambda       -0.3881367E-01
   maximum displ.:     0.3726911 α      in ANC's #73, #72, #66, ...

........................................................................
.............................. CYCLE   15 ..............................
........................................................................
   1   -555.5726539 -0.555573E+03  0.124E-01    0.48       0.0  T
   2   -555.5726450  0.888810E-05  0.740E-02    0.48       1.0  T
   3   -555.5707718  0.187324E-02  0.568E-02    0.48       1.0  T
   4   -555.5726587 -0.188694E-02  0.144E-02    0.48       1.0  T
   5   -555.5727758 -0.117085E-03  0.319E-03    0.48       1.8  T
   6   -555.5727787 -0.291458E-05  0.173E-03    0.48       3.2  T
   7   -555.5727792 -0.491852E-06  0.890E-04    0.48       6.3  T
   8   -555.5727794 -0.148351E-06  0.506E-04    0.48      11.1  T
     SCC iter.                  ...        0 min,  2.584 sec
     gradient                   ...        0 min,  0.645 sec
 * total energy  :  -544.9796318 Eh     change       -0.3517072E-01 Eh
   gradient norm :     0.0457118 Eh/α   predicted    -0.3689559E-01 (   4.90%)
   displ. norm   :     0.9394845 α      lambda       -0.3464825E-01
   maximum displ.:     0.4121707 α      in ANC's #73, #72, #66, ...

........................................................................
.............................. CYCLE   16 ..............................
........................................................................
   1   -555.6049770 -0.555605E+03  0.111E-01    0.51       0.0  T
   2   -555.6049584  0.185550E-04  0.670E-02    0.50       1.0  T
   3   -555.6034624  0.149604E-02  0.549E-02    0.51       1.0  T
   4   -555.6050043 -0.154192E-02  0.122E-02    0.50       1.0  T
   5   -555.6050880 -0.836994E-04  0.323E-03    0.50       1.7  T
   6   -555.6050920 -0.396502E-05  0.150E-03    0.50       3.7  T
   7   -555.6050923 -0.378838E-06  0.803E-04    0.50       7.0  T
   8   -555.6050924 -0.939426E-07  0.471E-04    0.50      11.9  T
     SCC iter.                  ...        0 min,  2.576 sec
     gradient                   ...        0 min,  0.644 sec
 * total energy  :  -545.0114979 Eh     change       -0.3186614E-01 Eh
   gradient norm :     0.0389979 Eh/α   predicted    -0.3261497E-01 (   2.35%)
   displ. norm   :     0.9423226 α      lambda       -0.3097160E-01
   maximum displ.:     0.4427314 α      in ANC's #73, #72, #66, ...

........................................................................
.............................. CYCLE   17 ..............................
........................................................................
   1   -555.6273293 -0.555627E+03  0.109E-01    0.53       0.0  T
   2   -555.6272878  0.414715E-04  0.660E-02    0.53       1.0  T
   3   -555.6253902  0.189766E-02  0.619E-02    0.53       1.0  T
   4   -555.6273859 -0.199571E-02  0.115E-02    0.53       1.0  T
   5   -555.6274494 -0.635799E-04  0.321E-03    0.53       1.7  T
   6   -555.6274534 -0.399536E-05  0.151E-03    0.53       3.7  T
   7   -555.6274540 -0.526859E-06  0.808E-04    0.53       6.9  T
   8   -555.6274541 -0.877603E-07  0.443E-04    0.53      12.7  T
     SCC iter.                  ...        0 min,  2.597 sec
     gradient                   ...        0 min,  0.645 sec
 * total energy  :  -545.0404961 Eh     change       -0.2899817E-01 Eh
   gradient norm :     0.0350243 Eh/α   predicted    -0.2923679E-01 (   0.82%)
   displ. norm   :     0.9537789 α      lambda       -0.2872194E-01
   maximum displ.:     0.4707274 α      in ANC's #73, #72, #66, ...

........................................................................
.............................. CYCLE   18 ..............................
........................................................................
   1   -555.6529660 -0.555653E+03  0.114E-01    0.55       0.0  T
   2   -555.6529104  0.555544E-04  0.695E-02    0.55       1.0  T
   3   -555.6508786  0.203182E-02  0.662E-02    0.55       1.0  T
   4   -555.6530385 -0.215988E-02  0.112E-02    0.55       1.0  T
   5   -555.6530951 -0.566032E-04  0.347E-03    0.55       1.6  T
   6   -555.6530999 -0.482965E-05  0.151E-03    0.55       3.7  T
   7   -555.6531004 -0.475701E-06  0.839E-04    0.55       6.7  T
   8   -555.6531004 -0.777173E-07  0.497E-04    0.55      11.3  T
     SCC iter.                  ...        0 min,  2.583 sec
     gradient                   ...        0 min,  0.644 sec
 * total energy  :  -545.0668969 Eh     change       -0.2640084E-01 Eh
   gradient norm :     0.0375339 Eh/α   predicted    -0.2742511E-01 (   3.88%)
   displ. norm   :     0.9475270 α      lambda       -0.2722828E-01
   maximum displ.:     0.4781926 α      in ANC's #73, #72, #66, ...

........................................................................
.............................. CYCLE   19 ..............................
........................................................................
   1   -555.6804113 -0.555680E+03  0.111E-01    0.56       0.0  T
   2   -555.6802863  0.125081E-03  0.714E-02    0.56       1.0  T
   3   -555.6783538  0.193247E-02  0.703E-02    0.56       1.0  T
   4   -555.6805308 -0.217702E-02  0.126E-02    0.56       1.0  T
   5   -555.6806029 -0.720612E-04  0.375E-03    0.56       1.5  T
   6   -555.6806086 -0.571242E-05  0.148E-03    0.56       3.8  T
   7   -555.6806090 -0.407953E-06  0.819E-04    0.56       6.8  T
   8   -555.6806090 -0.330662E-07  0.543E-04    0.56      10.3  T
     SCC iter.                  ...        0 min,  2.578 sec
     gradient                   ...        0 min,  0.645 sec
 * total energy  :  -545.0913073 Eh     change       -0.2441041E-01 Eh
   gradient norm :     0.0412040 Eh/α   predicted    -0.2583706E-01 (   5.84%)
   displ. norm   :     0.9347710 α      lambda       -0.2477775E-01
   maximum displ.:     0.4911807 α      in ANC's #73, #72, #66, ...

........................................................................
.............................. CYCLE   20 ..............................
........................................................................
   1   -555.6943560 -0.555694E+03  0.113E-01    0.58       0.0  T
   2   -555.6942656  0.903995E-04  0.717E-02    0.58       1.0  T
   3   -555.6923486  0.191704E-02  0.688E-02    0.58       1.0  T
   4   -555.6944616 -0.211302E-02  0.127E-02    0.58       1.0  T
   5   -555.6945340 -0.724133E-04  0.381E-03    0.58       1.5  T
   6   -555.6945400 -0.601589E-05  0.150E-03    0.58       3.7  T
   7   -555.6945405 -0.462930E-06  0.797E-04    0.58       7.0  T
   8   -555.6945405 -0.530451E-08  0.558E-04    0.58      10.1  T
     SCC iter.                  ...        0 min,  2.599 sec
     gradient                   ...        0 min,  0.645 sec
 * total energy  :  -545.1128213 Eh     change       -0.2151393E-01 Eh
   gradient norm :     0.0454266 Eh/α   predicted    -0.2321427E-01 (   7.90%)
   displ. norm   :     0.9199578 α      lambda       -0.2315490E-01
   maximum displ.:     0.4948878 α      in ANC's #73, #72, #66, ...
 * RMSD in coord.:     0.7625973 α      energy gain  -0.4767163E+01 Eh

generating ANC from model Hessian ...
Using Lindh-Hessian (1995)
 Shifting diagonal of input Hessian by    1.0004434526529341E-002
 Lowest  eigenvalues of input Hessian
    0.010000    0.010003    0.000000    0.000000    0.000000    0.000000
    0.000000    0.000000    0.010005    0.010005    0.010006    0.010007
    0.010007    0.010009    0.010010    0.010011    0.010011    0.010012
 Highest eigenvalues
    2.902844    2.991731    2.992599    3.008304    3.008318    3.008502


........................................................................
.............................. CYCLE   21 ..............................
........................................................................
   1   -555.7029605 -0.555703E+03  0.116E-01    0.59       0.0  T
   2   -555.7029438  0.167012E-04  0.700E-02    0.59       1.0  T
   3   -555.7013602  0.158365E-02  0.580E-02    0.59       1.0  T
   4   -555.7030119 -0.165174E-02  0.108E-02    0.59       1.0  T
   5   -555.7030648 -0.528339E-04  0.332E-03    0.59       1.7  T
   6   -555.7030692 -0.445075E-05  0.143E-03    0.59       3.9  T
   7   -555.7030696 -0.437551E-06  0.727E-04    0.59       7.7  T
   8   -555.7030697 -0.115385E-07  0.439E-04    0.59      12.8  T
     SCC iter.                  ...        0 min,  2.596 sec
     gradient                   ...        0 min,  0.645 sec
 * total energy  :  -545.1332971 Eh     change       -0.2047579E-01 Eh
   gradient norm :     0.0306784 Eh/α   predicted     0.0000000E+00 (-100.00%)
   displ. norm   :     0.7080143 α      lambda       -0.1571018E-01
   maximum displ.:     0.3921695 α      in ANC's #75, #70, #71, ...

........................................................................
.............................. CYCLE   22 ..............................
........................................................................
   1   -555.7286524 -0.555729E+03  0.965E-02    0.60       0.0  T
   2   -555.7286476  0.478908E-05  0.571E-02    0.60       1.0  T
   3   -555.7280936  0.554016E-03  0.333E-02    0.60       1.0  T
   4   -555.7286684 -0.574775E-03  0.443E-03    0.60       1.3  T
   5   -555.7286772 -0.881751E-05  0.141E-03    0.60       4.0  T
   6   -555.7286775 -0.298745E-06  0.904E-04    0.60       6.2  T
   7   -555.7286776 -0.144661E-06  0.413E-04    0.60      13.6  T
     SCC iter.                  ...        0 min,  2.258 sec
     gradient                   ...        0 min,  0.643 sec
 * total energy  :  -545.1481083 Eh     change       -0.1481121E-01 Eh
   gradient norm :     0.0229784 Eh/α   predicted    -0.1179276E-01 ( -20.38%)
   displ. norm   :     0.9354936 α      lambda       -0.1859165E-01
   maximum displ.:     0.5352392 α      in ANC's #75, #70, #71, ...

........................................................................
.............................. CYCLE   23 ..............................
........................................................................
   1   -555.7479875 -0.555748E+03  0.116E-01    0.61       0.0  T
   2   -555.7479892 -0.175435E-05  0.678E-02    0.61       1.0  T
   3   -555.7473342  0.655061E-03  0.355E-02    0.61       1.0  T
   4   -555.7480093 -0.675164E-03  0.602E-03    0.61       1.0  T
   5   -555.7480277 -0.183284E-04  0.163E-03    0.61       3.4  T
   6   -555.7480282 -0.501510E-06  0.102E-03    0.61       5.5  T
   7   -555.7480284 -0.200912E-06  0.497E-04    0.61      11.3  T
   8   -555.7480284 -0.631705E-07  0.210E-04    0.61      26.8  T
     SCC iter.                  ...        0 min,  2.608 sec
     gradient                   ...        0 min,  0.644 sec
 * total energy  :  -545.1656268 Eh     change       -0.1751848E-01 Eh
   gradient norm :     0.0205157 Eh/α   predicted    -0.1743105E-01 (  -0.50%)
   displ. norm   :     0.9403524 α      lambda       -0.1684007E-01
   maximum displ.:     0.5333441 α      in ANC's #75, #70, #71, ...

........................................................................
.............................. CYCLE   24 ..............................
........................................................................
   1   -555.7565648 -0.555757E+03  0.117E-01    0.63       0.0  T
   2   -555.7565747 -0.989778E-05  0.682E-02    0.63       1.0  T
   3   -555.7561434  0.431352E-03  0.275E-02    0.63       1.0  T
   4   -555.7565806 -0.437246E-03  0.611E-03    0.63       1.0  T
   5   -555.7566014 -0.207796E-04  0.172E-03    0.63       3.3  T
   6   -555.7566020 -0.629481E-06  0.111E-03    0.63       5.0  T
   7   -555.7566023 -0.287233E-06  0.522E-04    0.63      10.7  T
   8   -555.7566024 -0.730161E-07  0.239E-04    0.63      23.5  T
     SCC iter.                  ...        0 min,  2.575 sec
     gradient                   ...        0 min,  0.646 sec
 * total energy  :  -545.1814625 Eh     change       -0.1583571E-01 Eh
   gradient norm :     0.0199607 Eh/α   predicted    -0.1586556E-01 (   0.19%)
   displ. norm   :     0.9392502 α      lambda       -0.1516975E-01
   maximum displ.:     0.5424876 α      in ANC's #75, #70, #71, ...

........................................................................
.............................. CYCLE   25 ..............................
........................................................................
   1   -555.7662217 -0.555766E+03  0.116E-01    0.65       0.0  T
   2   -555.7662345 -0.128822E-04  0.676E-02    0.64       1.0  T
   3   -555.7659018  0.332704E-03  0.244E-02    0.65       1.0  T
   4   -555.7662367 -0.334896E-03  0.619E-03    0.64       1.0  T
   5   -555.7662572 -0.205129E-04  0.172E-03    0.64       3.3  T
   6   -555.7662579 -0.624092E-06  0.110E-03    0.64       5.1  T
   7   -555.7662581 -0.270368E-06  0.520E-04    0.64      10.8  T
   8   -555.7662582 -0.788937E-07  0.219E-04    0.64      25.7  T
     SCC iter.                  ...        0 min,  2.600 sec
     gradient                   ...        0 min,  0.644 sec
 * total energy  :  -545.1955720 Eh     change       -0.1410954E-01 Eh
   gradient norm :     0.0179809 Eh/α   predicted    -0.1427619E-01 (   1.18%)
   displ. norm   :     0.9309175 α      lambda       -0.1338759E-01
   maximum displ.:     0.5307805 α      in ANC's #75, #70, #71, ...

........................................................................
.............................. CYCLE   26 ..............................
........................................................................
   1   -555.7718296 -0.555772E+03  0.117E-01    0.66       0.0  T
   2   -555.7718396 -0.996330E-05  0.683E-02    0.66       1.0  T
   3   -555.7715061  0.333513E-03  0.242E-02    0.66       1.0  T
   4   -555.7718448 -0.338717E-03  0.562E-03    0.66       1.0  T
   5   -555.7718611 -0.162828E-04  0.172E-03    0.66       3.3  T
   6   -555.7718615 -0.440005E-06  0.113E-03    0.66       5.0  T
   7   -555.7718618 -0.284648E-06  0.518E-04    0.66      10.8  T
   8   -555.7718619 -0.896794E-07  0.186E-04    0.66      30.2  T
     SCC iter.                  ...        0 min,  2.595 sec
     gradient                   ...        0 min,  0.646 sec
 * total energy  :  -545.2078593 Eh     change       -0.1228733E-01 Eh
   gradient norm :     0.0159903 Eh/α   predicted    -0.1249470E-01 (   1.69%)
   displ. norm   :     0.9196036 α      lambda       -0.1155362E-01
   maximum displ.:     0.5156885 α      in ANC's #75, #70, #71, ...

........................................................................
.............................. CYCLE   27 ..............................
........................................................................
   1   -555.7797731 -0.555780E+03  0.113E-01    0.67       0.0  T
   2   -555.7797834 -0.103097E-04  0.662E-02    0.67       1.0  T
   3   -555.7795668  0.216604E-03  0.199E-02    0.67       1.0  T
   4   -555.7797889 -0.222069E-03  0.465E-03    0.67       1.2  T
   5   -555.7797995 -0.106886E-04  0.156E-03    0.67       3.6  T
   6   -555.7797997 -0.197164E-06  0.109E-03    0.67       5.1  T
   7   -555.7798001 -0.328326E-06  0.447E-04    0.67      12.5  T
   8   -555.7798001 -0.754095E-07  0.151E-04    0.67      37.1  T
     SCC iter.                  ...        0 min,  2.585 sec
     gradient                   ...        0 min,  0.644 sec
 * total energy  :  -545.2183737 Eh     change       -0.1051441E-01 Eh
   gradient norm :     0.0147828 Eh/α   predicted    -0.1066209E-01 (   1.40%)
   displ. norm   :     0.9101142 α      lambda       -0.9868663E-02
   maximum displ.:     0.5137875 α      in ANC's #75, #70, #65, ...

........................................................................
.............................. CYCLE   28 ..............................
........................................................................
   1   -555.7861940 -0.555786E+03  0.113E-01    0.68       0.0  T
   2   -555.7862036 -0.959530E-05  0.663E-02    0.68       1.0  T
   3   -555.7860488  0.154814E-03  0.170E-02    0.68       1.0  T
   4   -555.7862092 -0.160442E-03  0.382E-03    0.68       1.5  T
   5   -555.7862161 -0.685784E-05  0.151E-03    0.68       3.7  T
   6   -555.7862162 -0.909824E-07  0.106E-03    0.68       5.3  T
   7   -555.7862166 -0.375364E-06  0.375E-04    0.68      15.0  T
   8   -555.7862166 -0.554575E-07  0.132E-04    0.68      42.4  T
     SCC iter.                  ...        0 min,  2.591 sec
     gradient                   ...        0 min,  0.644 sec
 * total energy  :  -545.2271797 Eh     change       -0.8805971E-02 Eh
   gradient norm :     0.0146807 Eh/α   predicted    -0.9021476E-02 (   2.45%)
   displ. norm   :     0.9070237 α      lambda       -0.8662020E-02
   maximum displ.:     0.4559114 α      in ANC's #75, #70, #65, ...

........................................................................
.............................. CYCLE   29 ..............................
........................................................................
   1   -555.7905658 -0.555791E+03  0.116E-01    0.69       0.0  T
   2   -555.7905740 -0.813266E-05  0.684E-02    0.69       1.0  T
   3   -555.7904057  0.168270E-03  0.183E-02    0.69       1.0  T
   4   -555.7905824 -0.176750E-03  0.332E-03    0.69       1.7  T
   5   -555.7905863 -0.381325E-05  0.170E-03    0.69       3.3  T
   6   -555.7905864 -0.151396E-06  0.114E-03    0.69       4.9  T
   7   -555.7905869 -0.520987E-06  0.360E-04    0.69      15.6  T
   8   -555.7905870 -0.445746E-07  0.152E-04    0.69      36.9  T
     SCC iter.                  ...        0 min,  2.605 sec
     gradient                   ...        0 min,  0.643 sec
 * total energy  :  -545.2343451 Eh     change       -0.7165364E-02 Eh
   gradient norm :     0.0170982 Eh/α   predicted    -0.7894094E-02 (  10.17%)
   displ. norm   :     0.8666196 α      lambda       -0.7391078E-02
   maximum displ.:     0.4462956 α      in ANC's #75, #70, #65, ...

........................................................................
.............................. CYCLE   30 ..............................
........................................................................
   1   -555.7961381 -0.555796E+03  0.110E-01    0.69       0.0  T
   2   -555.7961477 -0.967337E-05  0.644E-02    0.69       1.0  T
   3   -555.7961019  0.458565E-04  0.108E-02    0.69       1.0  T
   4   -555.7961517 -0.498054E-04  0.292E-03    0.69       1.9  T
   5   -555.7961539 -0.220564E-05  0.157E-03    0.69       3.6  T
   6   -555.7961541 -0.233531E-06  0.961E-04    0.69       5.8  T
   7   -555.7961544 -0.331663E-06  0.333E-04    0.69      16.8  T
     SCC iter.                  ...        0 min,  2.251 sec
     gradient                   ...        0 min,  0.646 sec
 * total energy  :  -545.2403735 Eh     change       -0.6028386E-02 Eh
   gradient norm :     0.0158195 Eh/α   predicted    -0.6470999E-02 (   7.34%)
   displ. norm   :     0.8453936 α      lambda       -0.5771190E-02
   maximum displ.:     0.4157919 α      in ANC's #75, #70, #65, ...

........................................................................
.............................. CYCLE   31 ..............................
........................................................................
   1   -555.8074924 -0.555807E+03  0.103E-01    0.70       0.0  T
   2   -555.8075007 -0.830582E-05  0.603E-02    0.70       1.0  T
   3   -555.8073948  0.105959E-03  0.148E-02    0.70       1.0  T
   4   -555.8075057 -0.110965E-03  0.310E-03    0.70       1.8  T
   5   -555.8075093 -0.362553E-05  0.141E-03    0.70       4.0  T
   6   -555.8075094 -0.731427E-07  0.952E-04    0.70       5.9  T
   7   -555.8075098 -0.339364E-06  0.340E-04    0.70      16.5  T
     SCC iter.                  ...        0 min,  2.281 sec
     gradient                   ...        0 min,  0.645 sec
 * total energy  :  -545.2450344 Eh     change       -0.4660892E-02 Eh
   gradient norm :     0.0226372 Eh/α   predicted    -0.4947899E-02 (   6.16%)
   displ. norm   :     0.8303137 α      lambda       -0.4881848E-02
   maximum displ.:     0.3333355 α      in ANC's #75, #70, #65, ...

........................................................................
.............................. CYCLE   32 ..............................
........................................................................
   1   -555.8052273 -0.555805E+03  0.100E-01    0.69       0.0  T
   2   -555.8052357 -0.837314E-05  0.590E-02    0.69       1.0  T
   3   -555.8051390  0.966956E-04  0.154E-02    0.69       1.0  T
   4   -555.8052420 -0.102937E-03  0.279E-03    0.69       2.0  T
   5   -555.8052435 -0.157175E-05  0.164E-03    0.69       3.4  T
   6   -555.8052440 -0.492849E-06  0.995E-04    0.69       5.6  T
   7   -555.8052443 -0.313876E-06  0.370E-04    0.69      15.2  T
     SCC iter.                  ...        0 min,  2.252 sec
     gradient                   ...        0 min,  0.644 sec
 * total energy  :  -545.2488490 Eh     change       -0.3814616E-02 Eh
   gradient norm :     0.0156964 Eh/α   predicted    -0.4123751E-02 (   8.10%)
   displ. norm   :     0.7931035 α      lambda       -0.3646433E-02
   maximum displ.:     0.3073024 α      in ANC's #75, #24, #70, ...

........................................................................
.............................. CYCLE   33 ..............................
........................................................................
   1   -555.8215261 -0.555822E+03  0.862E-02    0.70       0.0  T
   2   -555.8215337 -0.760317E-05  0.506E-02    0.70       1.0  T
   3   -555.8214710  0.627511E-04  0.120E-02    0.70       1.0  T
   4   -555.8215364 -0.653812E-04  0.302E-03    0.70       1.9  T
   5   -555.8215393 -0.288832E-05  0.136E-03    0.70       4.1  T
   6   -555.8215395 -0.269613E-06  0.827E-04    0.70       6.8  T
   7   -555.8215397 -0.201881E-06  0.309E-04    0.70      18.1  T
     SCC iter.                  ...        0 min,  2.281 sec
     gradient                   ...        0 min,  0.642 sec
 * total energy  :  -545.2518323 Eh     change       -0.2983279E-02 Eh
   gradient norm :     0.0092115 Eh/α   predicted    -0.2970037E-02 (  -0.44%)
   displ. norm   :     0.7935205 α      lambda       -0.2804070E-02
   maximum displ.:     0.3115853 α      in ANC's #24, #75, #31, ...

........................................................................
.............................. CYCLE   34 ..............................
........................................................................
   1   -555.8307282 -0.555831E+03  0.797E-02    0.70       0.0  T
   2   -555.8307345 -0.630371E-05  0.469E-02    0.70       1.0  T
   3   -555.8306380  0.964941E-04  0.149E-02    0.70       1.0  T
   4   -555.8307388 -0.100837E-03  0.290E-03    0.70       1.9  T
   5   -555.8307412 -0.240863E-05  0.148E-03    0.70       3.8  T
   6   -555.8307418 -0.600931E-06  0.777E-04    0.70       7.2  T
   7   -555.8307420 -0.143430E-06  0.306E-04    0.70      18.3  T
     SCC iter.                  ...        0 min,  2.265 sec
     gradient                   ...        0 min,  0.646 sec
 * total energy  :  -545.2541321 Eh     change       -0.2299837E-02 Eh
   gradient norm :     0.0114351 Eh/α   predicted    -0.2284864E-02 (  -0.65%)
   displ. norm   :     0.7815799 α      lambda       -0.2289950E-02
   maximum displ.:     0.3474820 α      in ANC's #24, #31, #42, ...

........................................................................
.............................. CYCLE   35 ..............................
........................................................................
   1   -555.8320655 -0.555832E+03  0.732E-02    0.69       0.0  T
   2   -555.8320708 -0.527373E-05  0.431E-02    0.69       1.0  T
   3   -555.8319402  0.130563E-03  0.171E-02    0.69       1.0  T
   4   -555.8320764 -0.136141E-03  0.293E-03    0.69       1.9  T
   5   -555.8320792 -0.277153E-05  0.147E-03    0.69       3.8  T
   6   -555.8320798 -0.650245E-06  0.757E-04    0.69       7.4  T
   7   -555.8320799 -0.107843E-06  0.371E-04    0.69      15.1  T
     SCC iter.                  ...        0 min,  2.261 sec
     gradient                   ...        0 min,  0.643 sec
 * total energy  :  -545.2558005 Eh     change       -0.1668458E-02 Eh
   gradient norm :     0.0191737 Eh/α   predicted    -0.1844411E-02 (  10.55%)
   displ. norm   :     0.7163071 α      lambda       -0.2006766E-02
   maximum displ.:     0.3578755 α      in ANC's #24, #31, #42, ...

........................................................................
.............................. CYCLE   36 ..............................
........................................................................
   1   -555.8373733 -0.555837E+03  0.646E-02    0.69       0.0  T
   2   -555.8373768 -0.347267E-05  0.382E-02    0.69       1.0  T
   3   -555.8372642  0.112548E-03  0.160E-02    0.69       1.0  T
   4   -555.8373814 -0.117222E-03  0.268E-03    0.69       2.1  T
   5   -555.8373837 -0.227165E-05  0.142E-03    0.69       3.9  T
   6   -555.8373844 -0.671760E-06  0.667E-04    0.69       8.4  T
   7   -555.8373845 -0.798708E-07  0.288E-04    0.69      19.5  T
     SCC iter.                  ...        0 min,  2.270 sec
     gradient                   ...        0 min,  0.645 sec
 * total energy  :  -545.2572393 Eh     change       -0.1438723E-02 Eh
   gradient norm :     0.0127244 Eh/α   predicted    -0.1518218E-02 (   5.53%)
   displ. norm   :     0.6542455 α      lambda       -0.1436359E-02
   maximum displ.:     0.3676862 α      in ANC's #24, #31, #42, ...

........................................................................
.............................. CYCLE   37 ..............................
........................................................................
   1   -555.8455264 -0.555846E+03  0.466E-02    0.69       0.0  T
   2   -555.8455280 -0.161414E-05  0.276E-02    0.69       1.0  T
   3   -555.8454319  0.960540E-04  0.147E-02    0.69       1.0  T
   4   -555.8455319 -0.999589E-04  0.224E-03    0.69       2.5  T
   5   -555.8455336 -0.175611E-05  0.111E-03    0.69       5.0  T
   6   -555.8455341 -0.474781E-06  0.504E-04    0.69      11.1  T
   7   -555.8455341 -0.411824E-07  0.244E-04    0.69      23.0  T
     SCC iter.                  ...        0 min,  2.256 sec
     gradient                   ...        0 min,  0.643 sec
 * total energy  :  -545.2583868 Eh     change       -0.1147530E-02 Eh
   gradient norm :     0.0154636 Eh/α   predicted    -0.1025588E-02 ( -10.63%)
   displ. norm   :     0.6664692 α      lambda       -0.1445353E-02
   maximum displ.:     0.3892576 α      in ANC's #24, #31, #42, ...

........................................................................
.............................. CYCLE   38 ..............................
........................................................................
   1   -555.8414797 -0.555841E+03  0.475E-02    0.69       0.0  T
   2   -555.8414816 -0.190927E-05  0.282E-02    0.69       1.0  T
   3   -555.8414032  0.784208E-04  0.133E-02    0.69       1.0  T
   4   -555.8414847 -0.815115E-04  0.213E-03    0.69       2.6  T
   5   -555.8414864 -0.164781E-05  0.106E-03    0.69       5.3  T
   6   -555.8414868 -0.458686E-06  0.466E-04    0.69      12.0  T
   7   -555.8414868 -0.328489E-07  0.263E-04    0.69      21.3  T
     SCC iter.                  ...        0 min,  2.269 sec
     gradient                   ...        0 min,  0.644 sec
 * total energy  :  -545.2595824 Eh     change       -0.1195555E-02 Eh
   gradient norm :     0.0106497 Eh/α   predicted    -0.1043678E-02 ( -12.70%)
   displ. norm   :     0.6998496 α      lambda       -0.1510871E-02
   maximum displ.:     0.4403933 α      in ANC's #24, #31, #42, ...

........................................................................
.............................. CYCLE   39 ..............................
........................................................................
   1   -555.8380122 -0.555838E+03  0.388E-02    0.69       0.0  T
   2   -555.8380141 -0.186602E-05  0.229E-02    0.69       1.0  T
   3   -555.8379700  0.440737E-04  0.964E-03    0.69       1.0  T
   4   -555.8380158 -0.457897E-04  0.182E-03    0.69       3.1  T
   5   -555.8380172 -0.141628E-05  0.784E-04    0.69       7.2  T
   6   -555.8380174 -0.202152E-06  0.429E-04    0.69      13.1  T
   7   -555.8380175 -0.414233E-07  0.231E-04    0.69      24.3  T
     SCC iter.                  ...        0 min,  2.264 sec
     gradient                   ...        0 min,  0.642 sec
 * total energy  :  -545.2608852 Eh     change       -0.1302864E-02 Eh
   gradient norm :     0.0099663 Eh/α   predicted    -0.1125440E-02 ( -13.62%)
   displ. norm   :     0.7267331 α      lambda       -0.1571227E-02
   maximum displ.:     0.4670702 α      in ANC's #24, #31, #23, ...

........................................................................
.............................. CYCLE   40 ..............................
........................................................................
   1   -555.8328143 -0.555833E+03  0.519E-02    0.69       0.0  T
   2   -555.8328160 -0.171049E-05  0.307E-02    0.69       1.0  T
   3   -555.8327444  0.715617E-04  0.123E-02    0.69       1.0  T
   4   -555.8328189 -0.745010E-04  0.214E-03    0.69       2.6  T
   5   -555.8328209 -0.193634E-05  0.850E-04    0.69       6.6  T
   6   -555.8328210 -0.134784E-06  0.546E-04    0.69      10.3  T
   7   -555.8328211 -0.724002E-07  0.234E-04    0.69      23.9  T
     SCC iter.                  ...        0 min,  2.264 sec
     gradient                   ...        0 min,  0.639 sec
 * total energy  :  -545.2621317 Eh     change       -0.1246524E-02 Eh
   gradient norm :     0.0125249 Eh/α   predicted    -0.1200529E-02 (  -3.69%)
   displ. norm   :     0.7013111 α      lambda       -0.1337147E-02
   maximum displ.:     0.4521969 α      in ANC's #24, #31, #23, ...

........................................................................
.............................. CYCLE   41 ..............................
........................................................................
   1   -555.8279676 -0.555828E+03  0.461E-02    0.69       0.0  T
   2   -555.8279683 -0.713150E-06  0.272E-02    0.69       1.0  T
   3   -555.8278933  0.750835E-04  0.121E-02    0.69       1.0  T
   4   -555.8279714 -0.781128E-04  0.193E-03    0.69       2.9  T
   5   -555.8279730 -0.162106E-05  0.788E-04    0.69       7.1  T
   6   -555.8279731 -0.118517E-06  0.483E-04    0.69      11.6  T
   7   -555.8279732 -0.512035E-07  0.202E-04    0.69      27.7  T
     SCC iter.                  ...        0 min,  2.276 sec
     gradient                   ...        0 min,  0.641 sec
 * total energy  :  -545.2632095 Eh     change       -0.1077774E-02 Eh
   gradient norm :     0.0111969 Eh/α   predicted    -0.9974093E-03 (  -7.46%)
   displ. norm   :     0.6740897 α      lambda       -0.1159962E-02
   maximum displ.:     0.4522292 α      in ANC's #24, #31, #23, ...

........................................................................
.............................. CYCLE   42 ..............................
........................................................................
   1   -555.8270644 -0.555827E+03  0.424E-02    0.69       0.0  T
   2   -555.8270650 -0.648713E-06  0.251E-02    0.69       1.0  T
   3   -555.8269965  0.684971E-04  0.125E-02    0.69       1.0  T
   4   -555.8270680 -0.715081E-04  0.170E-03    0.69       3.3  T
   5   -555.8270690 -0.975174E-06  0.745E-04    0.69       7.5  T
   6   -555.8270692 -0.148521E-06  0.427E-04    0.69      13.1  T
     SCC iter.                  ...        0 min,  1.933 sec
     gradient                   ...        0 min,  0.643 sec
 * total energy  :  -545.2641150 Eh     change       -0.9055205E-03 Eh
   gradient norm :     0.0141856 Eh/α   predicted    -0.8435251E-03 (  -6.85%)
   displ. norm   :     0.5968294 α      lambda       -0.9723256E-03
   maximum displ.:     0.4095018 α      in ANC's #24, #31, #23, ...
 * RMSD in coord.:     0.7995268 α      energy gain  -0.1512938E+00 Eh

generating ANC from model Hessian ...
Using Lindh-Hessian (1995)
 Shifting diagonal of input Hessian by    1.0007096149810621E-002
 Lowest  eigenvalues of input Hessian
    0.010000    0.010001    0.010003    0.010004    0.010005    0.000000
    0.000000    0.000000    0.000000    0.000000    0.000000    0.010008
    0.010008    0.010008    0.010010    0.010010    0.010010    0.010012
 Highest eigenvalues
    2.948298    2.959744    2.959936    2.964274    2.964666    2.965080


........................................................................
.............................. CYCLE   43 ..............................
........................................................................
   1   -555.8229889 -0.555823E+03  0.290E-02    0.69       0.0  T
   2   -555.8229894 -0.533862E-06  0.171E-02    0.69       1.0  T
   3   -555.8229608  0.286115E-04  0.818E-03    0.69       1.0  T
   4   -555.8229905 -0.297148E-04  0.133E-03    0.69       4.2  T
   5   -555.8229912 -0.614110E-06  0.516E-04    0.69      10.9  T
   6   -555.8229912 -0.663177E-07  0.272E-04    0.69      20.6  T
     SCC iter.                  ...        0 min,  1.962 sec
     gradient                   ...        0 min,  0.640 sec
 * total energy  :  -545.2649882 Eh     change       -0.8732026E-03 Eh
   gradient norm :     0.0079691 Eh/α   predicted     0.0000000E+00 (-100.00%)
   displ. norm   :     0.2003400 α      lambda       -0.6113752E-03
   maximum displ.:     0.1244943 α      in ANC's #21, #90, #22, ...

........................................................................
.............................. CYCLE   44 ..............................
........................................................................
   1   -555.8242990 -0.555824E+03  0.368E-02    0.69       0.0  T
   2   -555.8242995 -0.450984E-06  0.221E-02    0.69       1.0  T
   3   -555.8242774  0.220995E-04  0.732E-03    0.69       1.0  T
   4   -555.8243007 -0.233287E-04  0.970E-04    0.69       5.8  T
   5   -555.8243009 -0.229151E-06  0.571E-04    0.69       9.8  T
   6   -555.8243010 -0.714558E-07  0.336E-04    0.69      16.7  T
     SCC iter.                  ...        0 min,  1.930 sec
     gradient                   ...        0 min,  0.641 sec
 * total energy  :  -545.2652794 Eh     change       -0.2911870E-03 Eh
   gradient norm :     0.0061246 Eh/α   predicted    -0.3179586E-03 (   9.19%)
   displ. norm   :     0.2949684 α      lambda       -0.7710061E-03
   maximum displ.:     0.1824580 α      in ANC's #21, #22, #29, ...

........................................................................
.............................. CYCLE   45 ..............................
........................................................................
   1   -555.8275166 -0.555828E+03  0.270E-02    0.69       0.0  T
   2   -555.8275171 -0.453608E-06  0.160E-02    0.69       1.0  T
   3   -555.8274907  0.263444E-04  0.743E-03    0.69       1.0  T
   4   -555.8275181 -0.273942E-04  0.145E-03    0.69       3.9  T
   5   -555.8275189 -0.780381E-06  0.522E-04    0.69      10.7  T
   6   -555.8275190 -0.646604E-07  0.299E-04    0.69      18.7  T
     SCC iter.                  ...        0 min,  1.959 sec
     gradient                   ...        0 min,  0.641 sec
 * total energy  :  -545.2658959 Eh     change       -0.6164892E-03 Eh
   gradient norm :     0.0070773 Eh/α   predicted    -0.4190448E-03 ( -32.03%)
   displ. norm   :     0.5517617 α      lambda       -0.1091426E-02
   maximum displ.:     0.3499653 α      in ANC's #21, #22, #29, ...

........................................................................
.............................. CYCLE   46 ..............................
........................................................................
   1   -555.8306681 -0.555831E+03  0.435E-02    0.69       0.0  T
   2   -555.8306696 -0.143618E-05  0.256E-02    0.69       1.0  T
   3   -555.8306183  0.512178E-04  0.993E-03    0.69       1.0  T
   4   -555.8306714 -0.530946E-04  0.202E-03    0.69       2.8  T
   5   -555.8306730 -0.160619E-05  0.829E-04    0.69       6.8  T
   6   -555.8306732 -0.169416E-06  0.475E-04    0.69      11.8  T
   7   -555.8306733 -0.511722E-07  0.178E-04    0.69      31.5  T
     SCC iter.                  ...        0 min,  2.252 sec
     gradient                   ...        0 min,  0.640 sec
 * total energy  :  -545.2667448 Eh     change       -0.8488519E-03 Eh
   gradient norm :     0.0091920 Eh/α   predicted    -0.7118511E-03 ( -16.14%)
   displ. norm   :     0.6318955 α      lambda       -0.1079403E-02
   maximum displ.:     0.4045424 α      in ANC's #21, #22, #29, ...

........................................................................
.............................. CYCLE   47 ..............................
........................................................................
   1   -555.8319724 -0.555832E+03  0.417E-02    0.69       0.0  T
   2   -555.8319745 -0.204646E-05  0.245E-02    0.69       1.0  T
   3   -555.8319428  0.316703E-04  0.817E-03    0.69       1.0  T
   4   -555.8319760 -0.331733E-04  0.175E-03    0.69       3.2  T
   5   -555.8319769 -0.952462E-06  0.851E-04    0.69       6.6  T
   6   -555.8319771 -0.174841E-06  0.478E-04    0.69      11.7  T
     SCC iter.                  ...        0 min,  1.956 sec
     gradient                   ...        0 min,  0.642 sec
 * total energy  :  -545.2676270 Eh     change       -0.8822706E-03 Eh
   gradient norm :     0.0087276 Eh/α   predicted    -0.7552038E-03 ( -14.40%)
   displ. norm   :     0.6332869 α      lambda       -0.1058434E-02
   maximum displ.:     0.4155315 α      in ANC's #21, #22, #29, ...

........................................................................
.............................. CYCLE   48 ..............................
........................................................................
   1   -555.8333653 -0.555833E+03  0.377E-02    0.69       0.0  T
   2   -555.8333670 -0.167811E-05  0.222E-02    0.69       1.0  T
   3   -555.8333404  0.266108E-04  0.749E-03    0.69       1.0  T
   4   -555.8333681 -0.276714E-04  0.157E-03    0.69       3.6  T
   5   -555.8333689 -0.825609E-06  0.833E-04    0.69       6.7  T
   6   -555.8333691 -0.240164E-06  0.370E-04    0.69      15.2  T
     SCC iter.                  ...        0 min,  1.945 sec
     gradient                   ...        0 min,  0.639 sec
 * total energy  :  -545.2685233 Eh     change       -0.8962423E-03 Eh
   gradient norm :     0.0071333 Eh/α   predicted    -0.7414637E-03 ( -17.27%)
   displ. norm   :     0.6140815 α      lambda       -0.1066216E-02
   maximum displ.:     0.4040281 α      in ANC's #21, #22, #29, ...

........................................................................
.............................. CYCLE   49 ..............................
........................................................................
   1   -555.8364648 -0.555836E+03  0.360E-02    0.70       0.0  T
   2   -555.8364663 -0.146989E-05  0.212E-02    0.70       1.0  T
   3   -555.8364466  0.197454E-04  0.652E-03    0.70       1.0  T
   4   -555.8364670 -0.204452E-04  0.137E-03    0.70       4.1  T
   5   -555.8364677 -0.651243E-06  0.740E-04    0.70       7.6  T
   6   -555.8364679 -0.202181E-06  0.321E-04    0.70      17.5  T
     SCC iter.                  ...        0 min,  1.953 sec
     gradient                   ...        0 min,  0.640 sec
 * total energy  :  -545.2694307 Eh     change       -0.9073774E-03 Eh
   gradient norm :     0.0060805 Eh/α   predicted    -0.7341413E-03 ( -19.09%)
   displ. norm   :     0.6500259 α      lambda       -0.1027499E-02
   maximum displ.:     0.4289726 α      in ANC's #21, #22, #29, ...

........................................................................
.............................. CYCLE   50 ..............................
........................................................................
   1   -555.8395909 -0.555840E+03  0.314E-02    0.70       0.0  T
   2   -555.8395921 -0.122013E-05  0.185E-02    0.70       1.0  T
   3   -555.8395798  0.123072E-04  0.510E-03    0.70       1.1  T
   4   -555.8395924 -0.126349E-04  0.125E-03    0.70       4.5  T
   5   -555.8395931 -0.621492E-06  0.600E-04    0.70       9.3  T
   6   -555.8395932 -0.126324E-06  0.264E-04    0.70      21.3  T
     SCC iter.                  ...        0 min,  1.956 sec
     gradient                   ...        0 min,  0.642 sec
 * total energy  :  -545.2703845 Eh     change       -0.9538190E-03 Eh
   gradient norm :     0.0071506 Eh/α   predicted    -0.7308281E-03 ( -23.38%)
   displ. norm   :     0.7294260 α      lambda       -0.1192936E-02
   maximum displ.:     0.4766959 α      in ANC's #21, #22, #29, ...

........................................................................
.............................. CYCLE   51 ..............................
........................................................................
   1   -555.8408731 -0.555841E+03  0.358E-02    0.70       0.0  T
   2   -555.8408740 -0.901170E-06  0.210E-02    0.70       1.0  T
   3   -555.8408576  0.163405E-04  0.549E-03    0.70       1.0  T
   4   -555.8408743 -0.166695E-04  0.133E-03    0.70       4.2  T
   5   -555.8408751 -0.833247E-06  0.501E-04    0.70      11.2  T
   6   -555.8408752 -0.547309E-07  0.275E-04    0.70      20.4  T
     SCC iter.                  ...        0 min,  1.956 sec
     gradient                   ...        0 min,  0.638 sec
 * total energy  :  -545.2715181 Eh     change       -0.1133645E-02 Eh
   gradient norm :     0.0077960 Eh/α   predicted    -0.9138308E-03 ( -19.39%)
   displ. norm   :     0.8162697 α      lambda       -0.1381329E-02
   maximum displ.:     0.5360554 α      in ANC's #21, #22, #29, ...

........................................................................
.............................. CYCLE   52 ..............................
........................................................................
   1   -555.8389475 -0.555839E+03  0.435E-02    0.70       0.0  T
   2   -555.8389483 -0.808927E-06  0.256E-02    0.70       1.0  T
   3   -555.8389177  0.305844E-04  0.751E-03    0.70       1.0  T
   4   -555.8389493 -0.315713E-04  0.148E-03    0.70       3.8  T
   5   -555.8389502 -0.923070E-06  0.606E-04    0.70       9.3  T
   6   -555.8389502 -0.594317E-07  0.362E-04    0.70      15.5  T
     SCC iter.                  ...        0 min,  1.962 sec
     gradient                   ...        0 min,  0.639 sec
 * total energy  :  -545.2727946 Eh     change       -0.1276434E-02 Eh
   gradient norm :     0.0071008 Eh/α   predicted    -0.1150857E-02 (  -9.84%)
   displ. norm   :     0.8559994 α      lambda       -0.1469936E-02
   maximum displ.:     0.5655537 α      in ANC's #21, #22, #29, ...

........................................................................
.............................. CYCLE   53 ..............................
........................................................................
   1   -555.8345487 -0.555835E+03  0.496E-02    0.70       0.0  T
   2   -555.8345500 -0.131779E-05  0.292E-02    0.70       1.0  T
   3   -555.8345123  0.377443E-04  0.825E-03    0.70       1.0  T
   4   -555.8345510 -0.386905E-04  0.177E-03    0.70       3.2  T
   5   -555.8345523 -0.126994E-05  0.796E-04    0.70       7.0  T
   6   -555.8345524 -0.149813E-06  0.424E-04    0.70      13.2  T
   7   -555.8345524 -0.287382E-07  0.183E-04    0.70      30.7  T
     SCC iter.                  ...        0 min,  2.261 sec
     gradient                   ...        0 min,  0.641 sec
 * total energy  :  -545.2740757 Eh     change       -0.1281119E-02 Eh
   gradient norm :     0.0064180 Eh/α   predicted    -0.1273513E-02 (  -0.59%)
   displ. norm   :     0.8628959 α      lambda       -0.1330785E-02
   maximum displ.:     0.5774270 α      in ANC's #21, #22, #29, ...

........................................................................
.............................. CYCLE   54 ..............................
........................................................................
   1   -555.8305727 -0.555831E+03  0.451E-02    0.70       0.0  T
   2   -555.8305739 -0.110561E-05  0.265E-02    0.70       1.0  T
   3   -555.8305530  0.208795E-04  0.611E-03    0.70       1.0  T
   4   -555.8305745 -0.215512E-04  0.130E-03    0.70       4.3  T
   5   -555.8305752 -0.699311E-06  0.608E-04    0.70       9.2  T
   6   -555.8305753 -0.834369E-07  0.340E-04    0.70      16.5  T
     SCC iter.                  ...        0 min,  1.962 sec
     gradient                   ...        0 min,  0.639 sec
 * total energy  :  -545.2753320 Eh     change       -0.1256301E-02 Eh
   gradient norm :     0.0060727 Eh/α   predicted    -0.1160844E-02 (  -7.60%)
   displ. norm   :     0.8357694 α      lambda       -0.1248166E-02
   maximum displ.:     0.5613729 α      in ANC's #21, #22, #29, ...

........................................................................
.............................. CYCLE   55 ..............................
........................................................................
   1   -555.8291525 -0.555829E+03  0.411E-02    0.70       0.0  T
[...]
 697:  0.00 698:  0.00 699:  0.00 700:  0.00 701:  0.00 702:  0.00 703:  0.00 704:  0.00
 705:  0.00 706:  0.00 707:  0.00 708:  0.00 709:  0.00 710:  0.00 711:  0.00 712:  0.00
 713:  0.00 714:  0.00 715:  0.00 716:  0.00 717:  0.00 718:  0.00 719:  0.00 720:  0.00
 721:  0.00 722:  0.00 723:  0.00 724:  0.00 725:  0.00 726:  0.00 727:  0.00 728:  0.00
 729:  0.00 730:  0.00 731:  0.00 732:  0.00 733:  0.00 734:  0.00 735:  0.00 736:  0.00
 737:  0.00 738:  0.00 739:  0.00 740:  0.00 741:  0.00 742:  0.00 743:  0.00 744:  0.00
 745:  0.00 746:  0.00 747:  0.00 748:  0.00 749:  0.00 750:  0.00 751:  0.00 752:  0.00
 753:  0.00 754:  0.00 755:  0.00 756:  0.00 757:  0.00 758:  0.00 759:  0.00 760:  0.00
 761:  0.00 762:  0.00 763:  0.00 764:  0.00 765:  0.00 766:  0.00 767:  0.00 768:  0.00
 769:  0.00 770:  0.00 771:  0.00 772:  0.00 773:  0.00 774:  0.00 775:  0.00 776:  0.00
 777:  0.00 778:  0.00 779:  0.00 780:  0.00 781:  0.00 782:  0.00 783:  0.00 784:  0.00
 785:  0.00 786:  0.00 787:  0.00 788:  0.00 789:  0.00 790:  0.00 791:  0.00 792:  0.00
 793:  0.00 794:  0.00 795:  0.00 796:  0.00 797:  0.00 798:  0.00 799:  0.00 800:  0.00
 801:  0.00 802:  0.00 803:  0.00 804:  0.00 805:  0.00 806:  0.00 807:  0.00 808:  0.00
 809:  0.00 810:  0.00 811:  0.00 812:  0.00 813:  0.00 814:  0.00 815:  0.00 816:  0.00
 817:  0.00 818:  0.00 819:  0.00 820:  0.00 821:  0.00 822:  0.00 823:  0.00 824:  0.00
 825:  0.00 826:  0.00 827:  0.00 828:  0.00 829:  0.00 830:  0.00 831:  0.00 832:  0.00
 833:  0.00 834:  0.00 835:  0.00 836:  0.00 837:  0.00 838:  0.00 839:  0.00 840:  0.00
 841:  0.00 842:  0.00 843:  0.00 844:  0.00 845:  0.00 846:  0.00 847:  0.00 848:  0.00
 849:  0.00 850:  0.00 851:  0.00 852:  0.00 853:  0.00 854:  0.00 855:  0.00 856:  0.00
 857:  0.00 858:  0.00 859:  0.00 860:  0.00 861:  0.00 862:  0.00 863:  0.00 864:  0.00
 865:  0.00 866:  0.00 867:  0.00 868:  0.00 869:  0.00 870:  0.00 871:  0.00 872:  0.00
 873:  0.00 874:  0.00 875:  0.00 876:  0.00 877:  0.00 878:  0.00 879:  0.00 880:  0.00
 881:  0.00 882:  0.00 883:  0.00 884:  0.00 885:  0.00 886:  0.00 887:  0.00 888:  0.00
 889:  0.00 890:  0.00 891:  0.00 892:  0.00 893:  0.00 894:  0.00 895:  0.00 896:  0.00
 897:  0.00 898:  0.00 899:  0.00 900:  0.00 901:  0.00 902:  0.00 903:  0.00 904:  0.00
 905:  0.00 906:  0.00 907:  0.00 908:  0.00 909:  0.00 910:  0.00 911:  0.00 912:  0.00
 913:  0.00 914:  0.00 915:  0.00 916:  0.00 917:  0.00 918:  0.00 919:  0.00 920:  0.00
 921:  0.00 922:  0.00 923:  0.00 924:  0.00 925:  0.00 926:  0.00 927:  0.00 928:  0.00
 929:  0.00 930:  0.00 931:  0.00 932:  0.00 933:  0.00 934:  0.00 935:  0.00 936:  0.00
 937:  0.00 938:  0.00 939:  0.00 940:  0.00 941:  0.00 942:  0.00 943:  0.00 944:  0.00
 945:  0.00 946:  0.00 947:  0.00 948:  0.00 949:  0.00 950:  0.00 951:  0.00 952:  0.00
 953:  0.00 954:  0.00
 output can be read by thermo (or use thermo option).
 writing <g98.out> molden fake output.
 recommended (thermochemical) frequency scaling factor: 1.0
           -------------------------------------------------
          |             Thermodynamic Functions             |
           -------------------------------------------------
 symmetry recognition skipped because # atoms >         200
 inverting freq            1   5.0288971971605045     
 inverting freq            2   4.3256411198918112     
 inverting freq            3   3.9136081225492299     
 inverting freq            4   3.2400551485490530     
 inverting freq            5   1.1598630461705848     

          ...................................................
          :                      SETUP                      :
          :.................................................:
          :  # frequencies                         946      :
          :  # imaginary freq.                       0      :
          :  linear?                             false      :
          :  only rotor calc.                    false      :
          :  symmetry                               C1      :
          :  rotational number                       1      :
          :  scaling factor                  1.0000000      :
          :  rotor cutoff                   50.0000000 cm⁻¹ :
          :  imag. cutoff                  -20.0000000 cm⁻¹ :
          :.................................................:

    mode    ω/cm⁻¹     T·S(HO)/kcal·mol⁻¹    T·S(FR)/kcal·mol⁻¹   T·S(vib)
   ------------------------------------------------------------------------
       1      5.03    -2.79571 (  0.01%)    -1.73697 ( 99.99%)    -1.73707
       2      4.33    -2.88496 (  0.01%)    -1.78159 ( 99.99%)    -1.78165
       3      3.91    -2.94427 (  0.00%)    -1.81125 (100.00%)    -1.81129
       4      3.24    -3.05617 (  0.00%)    -1.86720 (100.00%)    -1.86722
       5      1.16    -3.66481 (  0.00%)    -2.17152 (100.00%)    -2.17152
       6      1.78    -3.41018 (  0.00%)    -2.04420 (100.00%)    -2.04421
       7      3.39    -3.03008 (  0.00%)    -1.85415 (100.00%)    -1.85418
       8      4.11    -2.91509 (  0.00%)    -1.79666 (100.00%)    -1.79671
       9      5.05    -2.79347 (  0.01%)    -1.73584 ( 99.99%)    -1.73595
      10      5.26    -2.76884 (  0.01%)    -1.72353 ( 99.99%)    -1.72366
      11      6.72    -2.62368 (  0.03%)    -1.65094 ( 99.97%)    -1.65126
      12      6.82    -2.61510 (  0.03%)    -1.64665 ( 99.97%)    -1.64699
      13      6.96    -2.60337 (  0.04%)    -1.64079 ( 99.96%)    -1.64115
      14      7.27    -2.57742 (  0.04%)    -1.62781 ( 99.96%)    -1.62824
      15      7.90    -2.52794 (  0.06%)    -1.60307 ( 99.94%)    -1.60365
      16      8.41    -2.49112 (  0.08%)    -1.58466 ( 99.92%)    -1.58538
      17      8.52    -2.48349 (  0.08%)    -1.58084 ( 99.92%)    -1.58160
      18      9.09    -2.44514 (  0.11%)    -1.56166 ( 99.89%)    -1.56263
      19      9.43    -2.42304 (  0.13%)    -1.55061 ( 99.87%)    -1.55171
      20     11.03    -2.33046 (  0.24%)    -1.50431 ( 99.76%)    -1.50626
      21     12.02    -2.27949 (  0.33%)    -1.47882 ( 99.67%)    -1.48148
      22     14.89    -2.15251 (  0.78%)    -1.41531 ( 99.22%)    -1.42107
      23     17.83    -2.04583 (  1.59%)    -1.36194 ( 98.41%)    -1.37284
      24     19.19    -2.00255 (  2.12%)    -1.34029 ( 97.88%)    -1.35434
      25     21.22    -1.94289 (  3.14%)    -1.31043 ( 96.86%)    -1.33031
      26     22.68    -1.90363 (  4.06%)    -1.29079 ( 95.94%)    -1.31566
      27     24.68    -1.85342 (  5.61%)    -1.26565 ( 94.39%)    -1.29861
      28     25.77    -1.82784 (  6.60%)    -1.25285 ( 93.40%)    -1.29077
      29     28.28    -1.77290 (  9.29%)    -1.22534 ( 90.71%)    -1.27619
      30     29.55    -1.74706 ( 10.87%)    -1.21240 ( 89.13%)    -1.27050
      31     31.10    -1.71677 ( 13.02%)    -1.19722 ( 86.98%)    -1.26485
      32     31.61    -1.70708 ( 13.78%)    -1.19237 ( 86.22%)    -1.26328
      33     33.34    -1.67556 ( 16.51%)    -1.17658 ( 83.49%)    -1.25897
      34     36.70    -1.61883 ( 22.50%)    -1.14815 ( 77.50%)    -1.25405
      35     39.29    -1.57852 ( 27.61%)    -1.12793 ( 72.39%)    -1.25234
      36     40.92    -1.55460 ( 30.96%)    -1.11594 ( 69.04%)    -1.25176
      37     41.28    -1.54937 ( 31.72%)    -1.11331 ( 68.28%)    -1.25165
      38     41.45    -1.54703 ( 32.07%)    -1.11214 ( 67.93%)    -1.25161
      39     41.56    -1.54544 ( 32.30%)    -1.11134 ( 67.70%)    -1.25157
      40     41.75    -1.54272 ( 32.71%)    -1.10998 ( 67.29%)    -1.25152
      41     41.93    -1.54016 ( 33.09%)    -1.10869 ( 66.91%)    -1.25147
      42     42.04    -1.53857 ( 33.33%)    -1.10789 ( 66.67%)    -1.25144
      43     42.22    -1.53603 ( 33.71%)    -1.10662 ( 66.29%)    -1.25139
      44     42.71    -1.52924 ( 34.75%)    -1.10321 ( 65.25%)    -1.25126
      45     42.82    -1.52770 ( 34.99%)    -1.10244 ( 65.01%)    -1.25122
      46     43.60    -1.51717 ( 36.63%)    -1.09716 ( 63.37%)    -1.25099
      47     45.47    -1.49232 ( 40.62%)    -1.08468 ( 59.38%)    -1.25025
      48     49.44    -1.44289 ( 48.88%)    -1.05986 ( 51.12%)    -1.24710
      49     52.48    -1.40782 ( 54.82%)    -1.04224 ( 45.18%)    -1.24264
      50     54.18    -1.38897 ( 57.96%)    -1.03276 ( 42.04%)    -1.23923
      51     59.25    -1.33635 ( 66.34%)    -1.00629 ( 33.66%)    -1.22527
      52     61.29    -1.31640 ( 69.30%)    -0.99624 ( 30.70%)    -1.21812
      53     64.33    -1.28792 ( 73.26%)    -0.98189 ( 26.74%)    -1.20610
      54     67.99    -1.25546 ( 77.37%)    -0.96552 ( 22.63%)    -1.18984
      55     69.20    -1.24504 ( 78.59%)    -0.96026 ( 21.41%)    -1.18405
      56     71.22    -1.22822 ( 80.45%)    -0.95177 ( 19.55%)    -1.17418
      57     72.80    -1.21535 ( 81.79%)    -0.94527 ( 18.21%)    -1.16618
      58     83.14    -1.13754 ( 88.43%)    -0.90591 ( 11.57%)    -1.11075
      59     86.65    -1.11336 ( 90.02%)    -0.89365 (  9.98%)    -1.09144
      60     89.36    -1.09538 ( 91.07%)    -0.88452 (  8.93%)    -1.07656
      61     90.86    -1.08571 ( 91.60%)    -0.87961 (  8.40%)    -1.06840
      62     91.66    -1.08056 ( 91.87%)    -0.87699 (  8.13%)    -1.06401
      63     92.06    -1.07803 ( 92.00%)    -0.87571 (  8.00%)    -1.06184
      64     92.55    -1.07494 ( 92.15%)    -0.87414 (  7.85%)    -1.05918
      65     94.26    -1.06428 ( 92.66%)    -0.86872 (  7.34%)    -1.04994
      66     94.89    -1.06042 ( 92.84%)    -0.86675 (  7.16%)    -1.04655
      67     98.72    -1.03739 ( 93.83%)    -0.85503 (  6.17%)    -1.02613
      68    100.95    -1.02440 ( 94.32%)    -0.84841 (  5.68%)    -1.01441
      69    104.09    -1.00664 ( 94.94%)    -0.83934 (  5.06%)    -0.99819
      70    107.16    -0.98980 ( 95.47%)    -0.83074 (  4.53%)    -0.98260
      71    109.25    -0.97861 ( 95.80%)    -0.82502 (  4.20%)    -0.97216
      72    110.96    -0.96961 ( 96.04%)    -0.82041 (  3.96%)    -0.96370
      73    111.19    -0.96840 ( 96.07%)    -0.81979 (  3.93%)    -0.96256
      74    113.01    -0.95901 ( 96.31%)    -0.81498 (  3.69%)    -0.95369
      75    113.26    -0.95774 ( 96.34%)    -0.81433 (  3.66%)    -0.95249
      76    113.59    -0.95607 ( 96.38%)    -0.81347 (  3.62%)    -0.95091
      77    114.03    -0.95383 ( 96.43%)    -0.81233 (  3.57%)    -0.94879
      78    114.57    -0.95108 ( 96.50%)    -0.81091 (  3.50%)    -0.94617
      79    115.14    -0.94823 ( 96.57%)    -0.80945 (  3.43%)    -0.94346
      80    116.30    -0.94243 ( 96.70%)    -0.80648 (  3.30%)    -0.93794
      81    116.38    -0.94206 ( 96.70%)    -0.80629 (  3.30%)    -0.93759
      82    130.11    -0.87788 ( 97.87%)    -0.77324 (  2.13%)    -0.87565
      83    130.47    -0.87627 ( 97.89%)    -0.77241 (  2.11%)    -0.87408
      84    130.86    -0.87460 ( 97.91%)    -0.77154 (  2.09%)    -0.87245
      85    131.41    -0.87219 ( 97.95%)    -0.77030 (  2.05%)    -0.87010
      86    132.30    -0.86830 ( 98.00%)    -0.76829 (  2.00%)    -0.86630
      87    133.24    -0.86425 ( 98.06%)    -0.76619 (  1.94%)    -0.86235
      88    134.12    -0.86049 ( 98.11%)    -0.76424 (  1.89%)    -0.85866
      89    139.05    -0.83986 ( 98.36%)    -0.75355 (  1.64%)    -0.83844
      90    139.13    -0.83954 ( 98.36%)    -0.75338 (  1.64%)    -0.83812
      91    139.25    -0.83904 ( 98.36%)    -0.75312 (  1.64%)    -0.83763
      92    139.49    -0.83806 ( 98.38%)    -0.75261 (  1.62%)    -0.83667
      93    139.71    -0.83717 ( 98.39%)    -0.75215 (  1.61%)    -0.83579
      94    140.18    -0.83523 ( 98.41%)    -0.75115 (  1.59%)    -0.83389
      95    140.80    -0.83274 ( 98.43%)    -0.74985 (  1.57%)    -0.83144
      96    142.46    -0.82606 ( 98.51%)    -0.74638 (  1.49%)    -0.82487
      97    143.46    -0.82206 ( 98.55%)    -0.74430 (  1.45%)    -0.82093
      98    145.46    -0.81418 ( 98.62%)    -0.74020 (  1.38%)    -0.81316
      99    147.74    -0.80534 ( 98.71%)    -0.73559 (  1.29%)    -0.80444
     100    148.21    -0.80354 ( 98.72%)    -0.73465 (  1.28%)    -0.80266
     101    150.13    -0.79623 ( 98.78%)    -0.73084 (  1.22%)    -0.79544
     102    152.21    -0.78842 ( 98.85%)    -0.72676 (  1.15%)    -0.78771
     103    154.04    -0.78167 ( 98.90%)    -0.72323 (  1.10%)    -0.78103
     104    154.84    -0.77874 ( 98.92%)    -0.72169 (  1.08%)    -0.77813
     105    155.66    -0.77576 ( 98.95%)    -0.72013 (  1.05%)    -0.77518
     106    165.04    -0.74277 ( 99.16%)    -0.70280 (  0.84%)    -0.74244
     107    176.32    -0.70572 ( 99.36%)    -0.68320 (  0.64%)    -0.70558
     108    178.55    -0.69873 ( 99.39%)    -0.67949 (  0.61%)    -0.69862
     109    178.97    -0.69741 ( 99.39%)    -0.67879 (  0.61%)    -0.69730
     110    180.91    -0.69142 ( 99.42%)    -0.67559 (  0.58%)    -0.69133
     111    182.72    -0.68588 ( 99.44%)    -0.67264 (  0.56%)    -0.68581
     112    184.17    -0.68149 ( 99.46%)    -0.67030 (  0.54%)    -0.68143
     113    185.21    -0.67837 ( 99.47%)    -0.66864 (  0.53%)    -0.67832
     114    185.96    -0.67613 ( 99.48%)    -0.66744 (  0.52%)    -0.67609
     115    186.42    -0.67475 ( 99.49%)    -0.66670 (  0.51%)    -0.67471
     116    188.30    -0.66918 ( 99.51%)    -0.66372 (  0.49%)    -0.66916
     117    190.66    -0.66231 ( 99.53%)    -0.66004 (  0.47%)    -0.66230
     118    191.13    -0.66094 ( 99.53%)    -0.65930 (  0.47%)    -0.66093
     119    193.10    -0.65530 ( 99.55%)    -0.65628 (  0.45%)    -0.65530
     120    196.59    -0.64544 ( 99.58%)    -0.65097 (  0.42%)    -0.64546
     121    199.81    -0.63652 ( 99.61%)    -0.64616 (  0.39%)    -0.63655
     122    200.23    -0.63534 ( 99.61%)    -0.64553 (  0.39%)    -0.63538
     123    200.71    -0.63404 ( 99.62%)    -0.64482 (  0.38%)    -0.63408
     124    200.74    -0.63395 ( 99.62%)    -0.64477 (  0.38%)    -0.63399
     125    201.42    -0.63210 ( 99.62%)    -0.64378 (  0.38%)    -0.63215
     126    201.47    -0.63197 ( 99.62%)    -0.64371 (  0.38%)    -0.63202
     127    201.47    -0.63195 ( 99.62%)    -0.64370 (  0.38%)    -0.63200
     128    202.11    -0.63023 ( 99.63%)    -0.64276 (  0.37%)    -0.63027
     129    202.55    -0.62905 ( 99.63%)    -0.64212 (  0.37%)    -0.62910
     130    203.48    -0.62653 ( 99.64%)    -0.64076 (  0.36%)    -0.62658
     131    208.76    -0.61255 ( 99.67%)    -0.63317 (  0.33%)    -0.61262
     132    209.17    -0.61147 ( 99.67%)    -0.63259 (  0.33%)    -0.61154
     133    214.97    -0.59662 ( 99.71%)    -0.62449 (  0.29%)    -0.59670
     134    220.28    -0.58341 ( 99.74%)    -0.61726 (  0.26%)    -0.58350
     135    245.46    -0.52562 ( 99.83%)    -0.58519 (  0.17%)    -0.52572
     136    251.06    -0.51376 ( 99.84%)    -0.57852 (  0.16%)    -0.51386
     137    255.07    -0.50545 ( 99.85%)    -0.57382 (  0.15%)    -0.50555
     138    258.45    -0.49857 ( 99.86%)    -0.56992 (  0.14%)    -0.49867
     139    258.99    -0.49748 ( 99.86%)    -0.56930 (  0.14%)    -0.49758
     140    263.46    -0.48859 ( 99.87%)    -0.56423 (  0.13%)    -0.48869
     141    264.84    -0.48589 ( 99.87%)    -0.56269 (  0.13%)    -0.48598
     142    265.01    -0.48555 ( 99.87%)    -0.56250 (  0.13%)    -0.48564
     143    265.16    -0.48526 ( 99.87%)    -0.56233 (  0.13%)    -0.48535
     144    265.21    -0.48517 ( 99.87%)    -0.56228 (  0.13%)    -0.48526
     145    265.35    -0.48487 ( 99.87%)    -0.56211 (  0.13%)    -0.48497
     146    265.42    -0.48475 ( 99.87%)    -0.56204 (  0.13%)    -0.48485
     147    265.59    -0.48441 ( 99.87%)    -0.56184 (  0.13%)    -0.48451
     148    265.67    -0.48426 ( 99.87%)    -0.56176 (  0.13%)    -0.48436
     149    265.78    -0.48404 ( 99.87%)    -0.56163 (  0.13%)    -0.48414
     150    265.79    -0.48403 ( 99.87%)    -0.56163 (  0.13%)    -0.48413
     151    265.95    -0.48372 ( 99.88%)    -0.56145 (  0.12%)    -0.48382
     152    266.68    -0.48230 ( 99.88%)    -0.56064 (  0.12%)    -0.48240
     153    266.83    -0.48200 ( 99.88%)    -0.56046 (  0.12%)    -0.48210
     154    267.19    -0.48131 ( 99.88%)    -0.56007 (  0.12%)    -0.48140
     155    275.12    -0.46626 ( 99.89%)    -0.55140 (  0.11%)    -0.46635
     156    277.77    -0.46134 ( 99.90%)    -0.54856 (  0.10%)    -0.46143
     157    279.09    -0.45892 ( 99.90%)    -0.54716 (  0.10%)    -0.45902
     158    281.54    -0.45447 ( 99.90%)    -0.54457 (  0.10%)    -0.45456
     159    283.59    -0.45078 ( 99.90%)    -0.54242 (  0.10%)    -0.45087
     160    285.59    -0.44720 ( 99.91%)    -0.54033 (  0.09%)    -0.44729
     161    290.07    -0.43933 ( 99.91%)    -0.53572 (  0.09%)    -0.43942
     162    291.97    -0.43605 ( 99.91%)    -0.53379 (  0.09%)    -0.43613
     163    293.74    -0.43301 ( 99.92%)    -0.53200 (  0.08%)    -0.43309
     164    296.01    -0.42914 ( 99.92%)    -0.52972 (  0.08%)    -0.42922
     165    299.48    -0.42331 ( 99.92%)    -0.52627 (  0.08%)    -0.42339
     166    299.51    -0.42326 ( 99.92%)    -0.52624 (  0.08%)    -0.42334
     167    299.72    -0.42291 ( 99.92%)    -0.52603 (  0.08%)    -0.42299
   ------------------------------------------------------------------------

   temp. (K)  partition function   enthalpy   heat capacity  entropy
                                   cal/mol     cal/K/mol   cal/K/mol   J/K/mol
 298.15  VIB  0.157+101           111307.802    710.641    718.645
         ROT  0.248E+11              888.752      2.981     50.543
         INT  0.389+111           112196.555    713.622    769.188
         TR   0.144E+30             1481.254      4.968     49.633
         TOT                      113677.8087   718.5901   818.8213  3425.9482

       T/K    H(0)-H(T)+PV         H(T)/Eh          T*S/Eh         G(T)/Eh
   ------------------------------------------------------------------------
    298.15    0.181157E+00    0.245385E+01    0.389048E+00    0.206480E+01
   ------------------------------------------------------------------------

         :::::::::::::::::::::::::::::::::::::::::::::::::::::
         ::                  THERMODYNAMIC                  ::
         :::::::::::::::::::::::::::::::::::::::::::::::::::::
         :: total free energy        -543.246591245933 Eh   ::
         ::.................................................::
         :: total energy             -545.311390302573 Eh   ::
         :: zero point energy           2.272690345846 Eh   ::
         :: G(RRHO) w/o ZPVE           -0.207891289206 Eh   ::
         :: G(RRHO) contrib.            2.064799056640 Eh   ::
         :::::::::::::::::::::::::::::::::::::::::::::::::::::
imag cut-off (cm-1) :    5.00
 found            1  significant imaginary frequency
 writing imag mode distorted coords to xtbhess.xyz
 for further optimization.

optimized geometry written to: xtbopt.xyz


           -------------------------------------------------
          | TOTAL ENERGY             -545.311390302573 Eh   |
          | TOTAL ENTHALPY           -542.857542837364 Eh   |
          | TOTAL FREE ENERGY        -543.246591245933 Eh   |
          | GRADIENT NORM               0.000670917726 Eh/α |
          | HOMO-LUMO GAP               0.703250336352 eV   |
           -------------------------------------------------

------------------------------------------------------------------------
 * finished run on 2021/11/21 at 07:50:30.991     
------------------------------------------------------------------------
 total:
 * wall-time:     0 d,  1 h, 15 min, 53.974 sec
 *  cpu-time:     0 d,  1 h, 15 min, 53.996 sec
 * ratio c/w:     1.000 speedup
 SCF:
 * wall-time:     0 d,  0 h,  0 min, 12.877 sec
 *  cpu-time:     0 d,  0 h,  0 min, 12.877 sec
 * ratio c/w:     1.000 speedup
 ANC optimizer:
 * wall-time:     0 d,  0 h,  7 min, 30.062 sec
 *  cpu-time:     0 d,  0 h,  7 min, 30.063 sec
 * ratio c/w:     1.000 speedup
 analytical hessian:
 * wall-time:     0 d,  1 h,  8 min, 10.476 sec
 *  cpu-time:     0 d,  1 h,  8 min, 10.498 sec
 * ratio c/w:     1.000 speedup

