318
 energy: -540.345658300748 gnorm: 5.414599139548 xtb: 6.4.1 (bd6e46d)
C        59.88692700000001    3.51230200000000    0.78979900000000
C        60.77690500000000    2.57204300000000    0.59160300000000
C        60.11540400000000    1.31196800000000    0.29079600000000
C        60.47384200000000    0.00630600000000    0.00211500000000
C        59.64866400000000   -1.12476600000000   -0.08310100000000
C        60.10422900000000   -2.33349100000000    0.49820600000000
C        59.13153500000000   -3.26603700000000    0.29805100000000
C        58.10044100000000   -2.59833600000000   -0.40493700000000
N        58.43716600000000   -1.31747600000000   -0.62185100000000
C        56.94248000000001   -3.32445200000000   -0.73665400000000
C        55.62437900000000   -2.88175600000000   -0.62311900000000
C        54.31203300000000   -3.48389000000000   -0.72009800000000
C        53.39040500000000   -2.53724200000000   -0.51401300000000
C        54.08729100000001   -1.29141200000000   -0.27728200000000
N        55.40836400000000   -1.57116400000000   -0.35696800000000
C        53.68804900000000    0.01058500000000   -0.00927900000000
C        54.52066100000000    1.14726200000000    0.06662900000000
C        54.08651800000000    2.34925100000000   -0.54351100000000
C        55.08203100000000    3.26564000000000   -0.35155500000000
C        56.09618200000000    2.59239600000000    0.37237600000000
N        55.73098500000000    1.32457400000000    0.61120000000000
C        57.26582400000001    3.29935300000000    0.69387600000000
C        58.58107700000000    2.89582800000000    0.62386000000000
N        58.77069900000001    1.58472400000000    0.32745800000000
H        60.05419200000000    4.54084600000000    1.02838800000000
H        61.84716400000001    2.69538000000000    0.64062200000000
H        61.06475000000000   -2.51919300000000    1.01678200000000
H        59.16841700000000   -4.32264700000000    0.62337800000000
H        57.83388100000000   -0.55006600000000   -1.16937000000000
H        57.03087100000000   -4.35987900000000   -1.11500000000000
H        54.11335800000000   -4.54459100000000   -0.92884300000000
H        52.32099600000000   -2.72917600000000   -0.53324700000000
H        52.61310600000000    0.09985500000000    0.12846600000000
H        53.13286400000000    2.54080900000000   -1.07230900000000
H        55.06761000000000    4.31586800000000   -0.69799700000000
H        56.32431000000000    0.56713100000000    1.18319600000000
H        57.19731600000000    4.35675800000000    1.05059100000000
C       145.48474899999999   -3.49132100000000    0.82616900000000
C       144.59477100000001   -2.55317100000000    0.61821900000000
C       145.25627200000000   -1.29628800000000    0.30434100000000
C       144.89783399999999    0.00630600000000    0.00211500000000
C       145.72301300000001    1.13643100000000   -0.09484400000000
C       145.26744700000000    2.35112800000000    0.47387800000000
C       146.24014199999999    3.28154500000000    0.26404900000000
C       147.27123499999999    2.60657900000000   -0.43196600000000
N       146.93450999999999    1.32353600000000   -0.63556600000000
C       148.42919600000002    3.32921000000000   -0.77120700000000
C       149.74729700000000    2.88771700000000   -0.65308000000000
C       151.05964299999999    3.48881200000000   -0.75630800000000
C       151.98127100000002    2.54435600000000   -0.54040200000000
C       151.28438499999999    1.30105100000000   -0.29074500000000
N       149.96331200000000    1.57996000000000   -0.37333200000000
C       151.68362700000000    0.00190800000000   -0.00923400000000
C       150.85101499999999   -1.13391900000000    0.07847600000000
C       151.28515800000000   -2.34218000000000   -0.51914800000000
C       150.28964500000004   -3.25652600000000   -0.31768500000000
C       149.27549400000001   -2.57580000000000    0.39921500000000
N       149.64069100000000   -1.30556600000000    0.62485800000000
C       148.10585300000002   -3.27938000000000    0.72803900000000
C       146.79059900000001   -2.87660400000000    0.65383600000000
N       146.60097700000000   -1.56864900000000    0.34383300000000
H       145.31748400000001   -4.51733100000000    1.07542800000000
H       143.52451199999999   -2.67599200000000    0.66851600000000
H       144.30692600000003    2.54220600000000    0.99049800000000
H       146.20326000000000    4.34147700000000    0.57838500000000
H       147.53779499999999    0.55048000000000   -1.17508500000000
H       148.34080499999999    4.36065200000000   -1.16028700000000
H       151.25831900000000    4.54728800000000   -0.97605800000000
H       153.05068100000000    2.73607900000000   -0.56162800000000
H       152.75856999999999   -0.08592700000000    0.12943000000000
H       152.23881299999999   -2.53922000000000   -1.04592800000000
H       150.30406700000000   -4.31029600000000   -0.65320000000000
H       149.04736600000001   -0.54222300000000    1.18895700000000
H       148.17436100000000   -4.33302300000000    1.09571800000000
C        62.87545500000000    0.00408300000000    0.00090100000000
C        64.08343200000000    0.01153800000000    0.00259600000000
C        65.50220000000000    0.01223500000000    0.00773300000000
C        66.71771699999999    0.00408300000000    0.00090100000000
C        75.50556400000001    0.00408300000000    0.00090100000000
C        76.71354100000001    0.01153800000000    0.00259600000000
C        78.13230900000002    0.01223500000000    0.00773300000000
C        79.34782500000000    0.00408300000000    0.00090100000000
C        88.13567300000000    0.00408300000000    0.00090100000000
C        89.34364900000001    0.01153800000000    0.00259600000000
C        90.76241700000000    0.01223500000000    0.00773300000000
C        91.97793400000000    0.00408300000000    0.00090100000000
C       100.76578100000002    0.00408300000000    0.00090100000000
C       101.97375800000000    0.01153800000000    0.00259600000000
C       103.39252600000000    0.01223500000000    0.00773300000000
C       104.60804200000000    0.00408300000000    0.00090100000000
C       113.39588999999999    0.00408300000000    0.00090100000000
C       114.60386600000000    0.01153800000000    0.00259600000000
C       116.02263400000000    0.01223500000000    0.00773300000000
C       117.23815100000002    0.00408300000000    0.00090100000000
C       126.02599800000000    0.00408300000000    0.00090100000000
C       127.23397500000002    0.01153800000000    0.00259600000000
C       128.65274299999999    0.01223500000000    0.00773300000000
C       129.86825899999999    0.00408300000000    0.00090100000000
C       138.65610699999999    0.00408300000000    0.00090100000000
C       139.86408299999999    0.01153800000000    0.00259600000000
C       141.28285099999999    0.01223500000000    0.00773300000000
C       142.49836800000003    0.00408300000000    0.00090100000000
C        68.31741900000000   -3.59196300000000    0.00105000000000
C        67.44286900000000   -2.59705800000000   -0.00925200000000
C        68.11433300000000   -1.31827500000000    0.00393700000000
C        67.71730200000000   -0.00269000000000   -0.00084100000000
C        68.52849399999999    1.14163400000000   -0.15496800000000
C        68.04946800000000    2.19415000000000   -0.96703300000000
C        69.03655300000001    3.13690300000000   -0.95850200000000
C        70.08382500000002    2.63510800000000   -0.14569900000000
N        69.74497200000000    1.42874100000000    0.32704700000000
C        71.24420200000002    3.41309100000000    0.00865100000000
C        72.56519100000000    2.95521800000000   -0.02074200000000
C        73.87776100000001    3.58335100000000   -0.08187000000000
C        74.79187300000000    2.62828700000000   -0.08445300000000
C        74.11832699999999    1.34141300000000   -0.02526400000000
N        72.80626800000000    1.63001200000000    0.00952600000000
C        74.52061000000000   -0.00269000000000   -0.00084100000000
C        73.68845600000000   -1.11647900000000    0.18144000000000
C        74.12841400000001   -2.14813600000000    1.04475100000000
C        73.13023200000001   -3.07147600000000    1.04937200000000
C        72.10731600000001   -2.59153800000000    0.19594200000000
N        72.47449400000002   -1.41029100000000   -0.31456600000000
C        70.95040700000000   -3.36694600000000    0.03887400000000
C        69.62963200000000   -2.94746800000000    0.02218800000000
N        69.45324100000002   -1.60926400000000    0.02308900000000
H        68.14889900000000   -4.65413000000000   -0.00435300000000
H        66.35504100000000   -2.78309400000000   -0.02627900000000
H        67.08539000000000    2.26952200000000   -1.50134900000000
H        68.99840700000000    4.10801800000000   -1.49094500000000
H        70.35265000000000    0.79164100000000    1.01567600000000
H        71.18910200000002    4.49935300000000    0.15276600000000
H        74.09618800000001    4.65134300000000   -0.12020000000000
H        75.86818800000000    2.77433100000000   -0.12408100000000
H        75.08242400000000   -2.21254800000000    1.60229900000000
H        73.15565100000001   -4.01679400000000    1.62469100000000
H        71.88741700000000   -0.79083500000000   -1.03821600000000
H        71.01112500000001   -4.47868600000000   -0.07525500000000
C        80.94752699999999   -3.59196300000000    0.00105000000000
C        80.07297699999999   -2.59705800000000   -0.00925200000000
C        80.74444100000001   -1.31827500000000    0.00393700000000
C        80.34741000000000   -0.00269000000000   -0.00084100000000
C        81.15860200000000    1.14163400000000   -0.15496800000000
C        80.67957700000001    2.19415000000000   -0.96703300000000
C        81.66666200000000    3.13690300000000   -0.95850200000000
C        82.71393300000000    2.63510800000000   -0.14569900000000
N        82.37508000000000    1.42874100000000    0.32704700000000
C        83.87431100000001    3.41309100000000    0.00865100000000
C        85.19530000000000    2.95521800000000   -0.02074200000000
C        86.50786900000000    3.58335100000000   -0.08187000000000
C        87.42198200000000    2.62828700000000   -0.08445300000000
C        86.74843500000001    1.34141300000000   -0.02526400000000
N        85.43637699999999    1.63001200000000    0.00952600000000
C        87.15071900000001   -0.00269000000000   -0.00084100000000
C        86.31856500000001   -1.11647900000000    0.18144000000000
C        86.75852300000000   -2.14813600000000    1.04475100000000
C        85.76034100000000   -3.07147600000000    1.04937200000000
C        84.73742500000000   -2.59153800000000    0.19594200000000
N        85.10460200000000   -1.41029100000000   -0.31456600000000
C        83.58051600000002   -3.36694600000000    0.03887400000000
C        82.25974100000001   -2.94746800000000    0.02218800000000
N        82.08335000000000   -1.60926400000000    0.02308900000000
H        80.77900800000000   -4.65413000000000   -0.00435300000000
H        78.98514900000001   -2.78309400000000   -0.02627900000000
H        79.71549899999999    2.26952200000000   -1.50134900000000
H        81.62851500000001    4.10801800000000   -1.49094500000000
H        82.98275900000002    0.79164100000000    1.01567600000000
H        83.81921100000000    4.49935300000000    0.15276600000000
H        86.72629600000000    4.65134300000000   -0.12020000000000
H        88.49829699999999    2.77433100000000   -0.12408100000000
H        87.71253200000001   -2.21254800000000    1.60229900000000
H        85.78575900000000   -4.01679400000000    1.62469100000000
H        84.51752600000000   -0.79083500000000   -1.03821600000000
H        83.64123400000000   -4.47868600000000   -0.07525500000000
C        93.57763600000000   -3.59196300000000    0.00105000000000
C        92.70308600000000   -2.59705800000000   -0.00925200000000
C        93.37455000000000   -1.31827500000000    0.00393700000000
C        92.97751900000000   -0.00269000000000   -0.00084100000000
C        93.78871100000002    1.14163400000000   -0.15496800000000
C        93.30968500000000    2.19415000000000   -0.96703300000000
C        94.29677000000000    3.13690300000000   -0.95850200000000
C        95.34404200000000    2.63510800000000   -0.14569900000000
N        95.00518900000000    1.42874100000000    0.32704700000000
C        96.50441900000000    3.41309100000000    0.00865100000000
C        97.82540800000000    2.95521800000000   -0.02074200000000
C        99.13797800000000    3.58335100000000   -0.08187000000000
C       100.05209000000001    2.62828700000000   -0.08445300000000
C        99.37854400000001    1.34141300000000   -0.02526400000000
N        98.06648500000000    1.63001200000000    0.00952600000000
C        99.78082700000000   -0.00269000000000   -0.00084100000000
C        98.94867300000000   -1.11647900000000    0.18144000000000
C        99.38863100000000   -2.14813600000000    1.04475100000000
C        98.39044900000000   -3.07147600000000    1.04937200000000
C        97.36753400000002   -2.59153800000000    0.19594200000000
N        97.73471100000000   -1.41029100000000   -0.31456600000000
C        96.21062400000000   -3.36694600000000    0.03887400000000
C        94.88984900000001   -2.94746800000000    0.02218800000000
N        94.71345800000000   -1.60926400000000    0.02308900000000
H        93.40911600000000   -4.65413000000000   -0.00435300000000
H        91.61525800000000   -2.78309400000000   -0.02627900000000
H        92.34560800000001    2.26952200000000   -1.50134900000000
H        94.25862400000000    4.10801800000000   -1.49094500000000
H        95.61286699999999    0.79164100000000    1.01567600000000
H        96.44931900000000    4.49935300000000    0.15276600000000
H        99.35640500000000    4.65134300000000   -0.12020000000000
H       101.12840500000001    2.77433100000000   -0.12408100000000
H       100.34264100000000   -2.21254800000000    1.60229900000000
H        98.41586800000002   -4.01679400000000    1.62469100000000
H        97.14763400000000   -0.79083500000000   -1.03821600000000
H        96.27134200000000   -4.47868600000000   -0.07525500000000
C       106.20774400000001   -3.59196300000000    0.00105000000000
C       105.33319400000002   -2.59705800000000   -0.00925200000000
C       106.00465800000001   -1.31827500000000    0.00393700000000
C       105.60762699999999   -0.00269000000000   -0.00084100000000
C       106.41881900000000    1.14163400000000   -0.15496800000000
C       105.93979400000001    2.19415000000000   -0.96703300000000
C       106.92687900000000    3.13690300000000   -0.95850200000000
C       107.97415000000001    2.63510800000000   -0.14569900000000
N       107.63529700000001    1.42874100000000    0.32704700000000
C       109.13452800000002    3.41309100000000    0.00865100000000
C       110.45551700000000    2.95521800000000   -0.02074200000000
C       111.76808600000001    3.58335100000000   -0.08187000000000
C       112.68219900000001    2.62828700000000   -0.08445300000000
C       112.00865200000000    1.34141300000000   -0.02526400000000
N       110.69659400000002    1.63001200000000    0.00952600000000
C       112.41093600000001   -0.00269000000000   -0.00084100000000
C       111.57878200000002   -1.11647900000000    0.18144000000000
C       112.01873999999999   -2.14813600000000    1.04475100000000
C       111.02055799999999   -3.07147600000000    1.04937200000000
C       109.99764200000000   -2.59153800000000    0.19594200000000
N       110.36481900000001   -1.41029100000000   -0.31456600000000
C       108.84073300000000   -3.36694600000000    0.03887400000000
C       107.51995800000000   -2.94746800000000    0.02218800000000
N       107.34356700000001   -1.60926400000000    0.02308900000000
H       106.03922500000002   -4.65413000000000   -0.00435300000000
H       104.24536600000000   -2.78309400000000   -0.02627900000000
H       104.97571600000001    2.26952200000000   -1.50134900000000
H       106.88873200000000    4.10801800000000   -1.49094500000000
H       108.24297600000000    0.79164100000000    1.01567600000000
H       109.07942800000001    4.49935300000000    0.15276600000000
H       111.98651300000002    4.65134300000000   -0.12020000000000
H       113.75851400000001    2.77433100000000   -0.12408100000000
H       112.97274899999999   -2.21254800000000    1.60229900000000
H       111.04597600000000   -4.01679400000000    1.62469100000000
H       109.77774300000000   -0.79083500000000   -1.03821600000000
H       108.90145099999999   -4.47868600000000   -0.07525500000000
C       118.83785300000001   -3.59196300000000    0.00105000000000
C       117.96330300000000   -2.59705800000000   -0.00925200000000
C       118.63476700000000   -1.31827500000000    0.00393700000000
C       118.23773600000000   -0.00269000000000   -0.00084100000000
C       119.04892800000000    1.14163400000000   -0.15496800000000
C       118.56990200000001    2.19415000000000   -0.96703300000000
C       119.55698700000001    3.13690300000000   -0.95850200000000
C       120.60425900000000    2.63510800000000   -0.14569900000000
N       120.26540600000000    1.42874100000000    0.32704700000000
C       121.76463600000000    3.41309100000000    0.00865100000000
C       123.08562500000001    2.95521800000000   -0.02074200000000
C       124.39819500000000    3.58335100000000   -0.08187000000000
C       125.31230700000000    2.62828700000000   -0.08445300000000
C       124.63876100000000    1.34141300000000   -0.02526400000000
N       123.32670200000000    1.63001200000000    0.00952600000000
C       125.04104400000001   -0.00269000000000   -0.00084100000000
C       124.20889000000000   -1.11647900000000    0.18144000000000
C       124.64884800000002   -2.14813600000000    1.04475100000000
C       123.65066600000000   -3.07147600000000    1.04937200000000
C       122.62775100000000   -2.59153800000000    0.19594200000000
N       122.99492800000000   -1.41029100000000   -0.31456600000000
C       121.47084100000001   -3.36694600000000    0.03887400000000
C       120.15006600000000   -2.94746800000000    0.02218800000000
N       119.97367500000000   -1.60926400000000    0.02308900000000
H       118.66933400000001   -4.65413000000000   -0.00435300000000
H       116.87547500000001   -2.78309400000000   -0.02627900000000
H       117.60582500000000    2.26952200000000   -1.50134900000000
H       119.51884099999999    4.10801800000000   -1.49094500000000
H       120.87308400000002    0.79164100000000    1.01567600000000
H       121.70953600000000    4.49935300000000    0.15276600000000
H       124.61662200000001    4.65134300000000   -0.12020000000000
H       126.38862200000000    2.77433100000000   -0.12408100000000
H       125.60285800000001   -2.21254800000000    1.60229900000000
H       123.67608500000000   -4.01679400000000    1.62469100000000
H       122.40785200000001   -0.79083500000000   -1.03821600000000
H       121.53155900000000   -4.47868600000000   -0.07525500000000
C       131.46796100000000   -3.59196300000000    0.00105000000000
C       130.59341100000000   -2.59705800000000   -0.00925200000000
C       131.26487499999999   -1.31827500000000    0.00393700000000
C       130.86784399999999   -0.00269000000000   -0.00084100000000
C       131.67903699999999    1.14163400000000   -0.15496800000000
C       131.20001099999999    2.19415000000000   -0.96703300000000
C       132.18709600000000    3.13690300000000   -0.95850200000000
C       133.23436699999999    2.63510800000000   -0.14569900000000
N       132.89551399999999    1.42874100000000    0.32704700000000
C       134.39474500000000    3.41309100000000    0.00865100000000
C       135.71573400000000    2.95521800000000   -0.02074200000000
C       137.02830300000002    3.58335100000000   -0.08187000000000
C       137.94241600000001    2.62828700000000   -0.08445300000000
C       137.26886900000002    1.34141300000000   -0.02526400000000
N       135.95681099999999    1.63001200000000    0.00952600000000
C       137.67115300000000   -0.00269000000000   -0.00084100000000
C       136.83899900000000   -1.11647900000000    0.18144000000000
C       137.27895699999999   -2.14813600000000    1.04475100000000
C       136.28077500000001   -3.07147600000000    1.04937200000000
C       135.25785900000000   -2.59153800000000    0.19594200000000
N       135.62503599999999   -1.41029100000000   -0.31456600000000
C       134.10095000000001   -3.36694600000000    0.03887400000000
C       132.78017500000001   -2.94746800000000    0.02218800000000
N       132.60378399999999   -1.60926400000000    0.02308900000000
H       131.29944200000000   -4.65413000000000   -0.00435300000000
H       129.50558300000000   -2.78309400000000   -0.02627900000000
H       130.23593299999999    2.26952200000000   -1.50134900000000
H       132.14894899999999    4.10801800000000   -1.49094500000000
H       133.50319300000001    0.79164100000000    1.01567600000000
H       134.33964499999999    4.49935300000000    0.15276600000000
H       137.24673000000004    4.65134300000000   -0.12020000000000
H       139.01873100000000    2.77433100000000   -0.12408100000000
H       138.23296700000003   -2.21254800000000    1.60229900000000
H       136.30619300000001   -4.01679400000000    1.62469100000000
H       135.03796000000000   -0.79083500000000   -1.03821600000000
H       134.16166799999999   -4.47868600000000   -0.07525500000000
318
 energy: -542.829922642251 gnorm: 1.844934294818 xtb: 6.4.1 (bd6e46d)
C        59.88392190701671    3.51460891571574    0.79047967654472
C        60.78149411716436    2.56948788783090    0.59079735978265
C        60.11366449525452    1.31205764931269    0.28987565890999
C        60.47759417164372    0.00949753473220    0.00269770927716
C        59.65475426364489   -1.12239425669294   -0.08167789035577
C        60.10646769667116   -2.33485358023272    0.49898625272584
C        59.13262933754465   -3.26740280049398    0.29753719449862
C        58.09839148444131   -2.60160158157521   -0.40572582906206
N        58.43425810482786   -1.31384960645493   -0.62394817250618
C        56.93909430950564   -3.32598683972950   -0.73800064841015
C        55.62417806882215   -2.87802004085356   -0.62376624537874
C        54.31227159797431   -3.48732635883509   -0.72114333869417
C        53.38813113863716   -2.53778342364730   -0.51385100387767
C        54.09047474513313   -1.29217054065804   -0.27614230040792
N        55.41078823775191   -1.56907360782368   -0.35642171434412
C        53.68698718712241    0.00776483764815   -0.00888375106036
C        54.51683953266120    1.14562514859845    0.06582461754785
C        54.08480895964406    2.35025306280186   -0.54342006087262
C        55.08105845728912    3.26697377932591   -0.35119275235647
C        56.09810822753975    2.59597689310568    0.37271809166482
N        55.73428680445856    1.32099315251433    0.61236186789439
C        57.26802842949493    3.30297666089818    0.69595442801902
C        58.58107034736351    2.89137373863421    0.62395520992637
N        58.77068848400216    1.58263827388992    0.32717054991661
H        60.05405450722523    4.54149601525497    1.02857095963338
H        61.84761176256242    2.69493840059724    0.64051197012581
H        61.06287861149301   -2.51808836557626    1.01574417135083
H        59.16773324843364   -4.32032908288838    0.62251516184438
H        57.83727379141266   -0.55477294895057   -1.16543875202648
H        57.03152343785647   -4.35900628961709   -1.11299071904453
H        54.11380166151242   -4.54336148772794   -0.92861825790957
H        52.32144438350436   -2.72831492834377   -0.53304567203962
H        52.61326591912498    0.10110200446001    0.12725175875455
H        53.13486813026729    2.53972016004187   -1.07119602365286
H        55.06829216226505    4.31357037612347   -0.69712486603063
H        56.32081665933161    0.57167202456938    1.17902670744648
H        57.19617935342382    4.35555681202912    1.04867714627454
C       145.48775346503058   -3.49362137275974    0.82687450998879
C       144.59018584024213   -2.55062389328277    0.61739176969902
C       145.25800942461919   -1.29638890484002    0.30342094716727
C       144.89414107168122    0.00311433201542    0.00279743502839
C       145.71691779331812    1.13406496214837   -0.09338772764355
C       145.26521422698815    2.35249925138042    0.47465283616585
C       146.23904364559090    3.28290622659073    0.26352032342835
C       147.27328371705070    2.60983180733088   -0.43279176660321
N       146.93741458803160    1.31989350298705   -0.63764100136593
C       148.43258154773628    3.33073183995364   -0.77256830883255
C       149.74749837719588    2.88397131044637   -0.65368817887548
C       151.05940489637823    3.49223657911268   -0.75738853994206
C       151.98354503026428    2.54489919844858   -0.54024571083072
C       151.28120464002399    1.30181726275170   -0.28961406343443
N       149.96088483972829    1.57787823844782   -0.37276416242375
C       151.68469086693668    0.00473864314896   -0.00886805421428
C       150.85483517957675   -1.13229579444911    0.07765293473618
C       151.28686759456065   -2.34317522928299   -0.51904664313652
C       150.29061140312805   -3.25785583345484   -0.31730817226942
C       149.27357306060486   -2.57937694440677    0.39959108876822
N       149.63739086699266   -1.30197516344948    0.62598446679941
C       148.10364064651631   -3.28298235777715    0.73015821954363
C       146.79060933407007   -2.87215498132195    0.65388418162978
N       146.60098315833119   -1.56656078498821    0.34351988584810
H       145.31762174028978   -4.51798014907038    1.07561753230671
H       143.52406564665364   -2.67555117725420    0.66839640868591
H       144.30879792741098    2.54109199031253    0.98947175143029
H       146.20394288936967    4.33915106519291    0.57754500950246
H       147.53440168405299    0.55522786759389   -1.17120311653166
H       148.34015201800329    4.35980054767808   -1.15826698968362
H       151.25787544244929    4.54606120024155   -0.97582062650869
H       153.05023299532760    2.73522023901729   -0.56141781435366
H       152.75841035884534   -0.08718619976944    0.12822977648711
H       152.23680915342547   -2.53811956641212   -1.04482606913194
H       150.30338470777414   -4.30798972290661   -0.65235157400348
H       149.05085954597280   -0.54680720738476    1.18483440393811
H       148.17549742916344   -4.33184164654429    1.09379257590647
C        62.86846964069507    0.00341249959614    0.00089876323657
C        64.08577388795224    0.01119828364941    0.00294116036510
C        65.47752685731990    0.01282813964214    0.00786879003068
C        66.64202508780521    0.00825514451104    0.00095630281259
C        75.58350805089250    0.00152280983567    0.00120585480971
C        76.74430411300813    0.01054544634721    0.00240878529430
C        78.10460266797446    0.01317015985938    0.00781082413889
C        79.27430750519036    0.00844229076569    0.00126420532401
C        88.21334770993933    0.00152675541664    0.00114742453471
C        89.37477420083871    0.01055077108210    0.00240340213210
C        90.73440903576436    0.01316843937418    0.00782586245523
C        91.90456838406193    0.00843605691719    0.00128059120063
C       100.84342586319167    0.00152711664142    0.00114012952436
C       102.00492899936366    0.01055091685838    0.00240208973581
C       103.36447739296815    0.01316773942938    0.00782727944922
C       104.53470071424911    0.00843459706026    0.00128285200489
C       113.47355695219275    0.00152695895639    0.00114286966621
C       114.63499860764703    0.01054991881672    0.00240334985800
C       115.99463042594782    0.01316762430509    0.00782549784679
C       117.16477937667261    0.00843550335710    0.00127679919340
C       126.10380620009315    0.00152690443189    0.00116353229573
C       127.26481306608848    0.01054661558811    0.00241702869603
C       128.62509739209662    0.01317040807342    0.00781641259025
C       129.79461430095077    0.00844787796164    0.00122821079181
C       138.73586889549799    0.00174717892918    0.00122376410475
C       139.89198536531157    0.01080948003460    0.00248837173603
C       141.28172624443044    0.01261546264022    0.00789588641121
C       142.50414134323492    0.00478300864768    0.00077605185572
C        68.32083127858290   -3.59336538563529    0.00085803483667
C        67.43776191734210   -2.59633427615974   -0.00919510162133
C        68.12899414643692   -1.32783241570349    0.00468873359014
C        67.78937898810510   -0.00425219067620   -0.00083174227155
C        68.53427189581984    1.14386654418177   -0.15629667115412
C        68.04853590540749    2.19376995417997   -0.96686114103097
C        69.03674353211755    3.13939159119645   -0.95838050438935
C        70.08479635937182    2.63912299139293   -0.14632027471363
N        69.74888786391770    1.42666908290879    0.32915650666975
C        71.24936115074094    3.41448297429131    0.00966653677763
C        72.56480388489956    2.95493425720533   -0.01973774210781
C        73.87592166894724    3.58753432437837   -0.08148920720084
C        74.79549403707716    2.62611917881460   -0.08460775398829
C        74.10422912114261    1.35038960263215   -0.02595853331560
N        72.80346383239939    1.62674931224672    0.00919377770311
C        74.44275251593140   -0.00040996903025   -0.00161458347743
C        73.68100582843638   -1.12007021442791    0.18306974932481
C        74.12969563173085   -2.14704608676989    1.04453522340116
C        73.12991788349929   -3.07436497606625    1.04947408001680
C        72.10644742180935   -2.59563200964652    0.19688031729568
N        72.47088128068368   -1.40806415321749   -0.31683737482372
C        70.94656677375508   -3.37103464990417    0.03754069229663
C        69.63063351683543   -2.94594459567021    0.02121324858407
N        69.45319911433094   -1.60771528549403    0.02334975511211
H        68.14898416592658   -4.65394647667512   -0.00435621025542